  python dir          : /u/if/mamunm/src/espresso
  espresso dir        : /nfs/slac/g/suncatfs/sw/espv18/espresso-dynpy-beef/bin
  pseudo dir          : /u/if/mamunm/psp/gbrv1.5pbe
  ase-espresso py git : GITVERSION



     Program PWSCF v.5.1rc2 (svn rev. 11289) starts on  2May2018 at 23:49:14 

     This program is part of the open-source Quantum ESPRESSO suite
     for quantum simulation of materials; please cite
         "P. Giannozzi et al., J. Phys.:Condens. Matter 21 395502 (2009);
          URL http://www.quantum-espresso.org", 
     in publications or presentations arising from this work. More details at
     http://www.quantum-espresso.org/quote

     Parallel version (MPI), running on    32 processors
     K-points division:     npool     =       4
     R & G space division:  proc/nbgrp/npool/nimage =       8
     Reading input from pw.inp
     Message from routine read_cards :
     DEPRECATED: no units specified in CELL_PARAMETERS card

     Current dimensions of program PWSCF are:
     Max number of different atomic species (ntypx) = 10
     Max number of k-points (npk) =  40000
     Max angular momentum in pseudopotentials (lmaxx) =  3
     Presently stress not available with electric field


     **************************************************************************
     Initializing libbeef V0.1.1 with the BEEF-vdW functional.
     Citation: Wellendorff et al., PRB 85, 235149 (2012).
     **************************************************************************


     IMPORTANT: XC functional enforced from input :
     Exchange-correlation      = BEEF-VDW ( 1  4 27 13 2)
     Any further DFT definition will be discarded
     Please, verify this is what you really want


     Subspace diagonalization in iterative solution of the eigenvalue problem:
     a serial algorithm will be used

 
     Parallelization info
     --------------------
     sticks:   dense  smooth     PW     G-vecs:    dense   smooth      PW
     Min         579     230     64               114907    29014    4366
     Max         580     231     66               114920    29056    4372
     Sum        4639    1843    517               919335   232275   34949
 


     bravais-lattice index     =            0
     lattice parameter (alat)  =       1.8897  a.u.
     unit-cell volume          =    7725.1200 (a.u.)^3
     number of atoms/cell      =           13
     number of atomic types    =            2
     number of electrons       =       133.00
     number of Kohn-Sham states=           76
     kinetic-energy cutoff     =      36.7493  Ry
     charge density cutoff     =     367.4932  Ry
     convergence threshold     =      1.0E-05
     mixing beta               =       0.3000
     number of iterations used =           10  plain     mixing
     Exchange-correlation      = BEEF-VDW ( 1  4 27 13 2)
     nstep                     =           50


     celldm(1)=   1.889726  celldm(2)=   0.000000  celldm(3)=   0.000000
     celldm(4)=   0.000000  celldm(5)=   0.000000  celldm(6)=   0.000000

     crystal axes: (cart. coord. in units of alat)
               a(1) = (   7.152277   0.000000   0.000000 )  
               a(2) = (   3.576139   6.194054   0.000000 )  
               a(3) = (   0.000000   0.000000  25.839810 )  

     reciprocal axes: (cart. coord. in units 2 pi/alat)
               b(1) = (  0.139816 -0.080723  0.000000 )  
               b(2) = (  0.000000  0.161445  0.000000 )  
               b(3) = (  0.000000  0.000000  0.038700 )  


     PseudoPot. # 1 for Y  read from file:
     /u/if/mamunm/psp/gbrv1.5pbe/Y.UPF
     MD5 check sum: d034151ed7554c50b6e82763ed42c788
     Pseudo is Ultrasoft + core correction, Zval = 11.0
     Generated by new atomic code, or converted to UPF format
     Using radial grid of  885 points,  6 beta functions with: 
                l(1) =   0
                l(2) =   0
                l(3) =   1
                l(4) =   1
                l(5) =   2
                l(6) =   2
     Q(r) pseudized with  8 coefficients,  rinner =    1.200   1.200   1.200
                                                       1.200   1.200

     PseudoPot. # 2 for H  read from file:
     /u/if/mamunm/psp/gbrv1.5pbe/H.UPF
     MD5 check sum: 761ae9a214b05c3daf00ab9f6b793d6f
     Pseudo is Ultrasoft, Zval =  1.0
     Generated by new atomic code, or converted to UPF format
     Using radial grid of  615 points,  2 beta functions with: 
                l(1) =   0
                l(2) =   0
     Q(r) pseudized with  8 coefficients,  rinner =    0.700

     vdW kernel table read from file vdW_kernel_table
     MD5 check sum: 095c7af220d748ca6e76c0b4c6cfb241

     atomic species   valence    mass     pseudopotential
        Y1            11.00    88.90584     Y ( 1.00)
        H1             1.00     1.00800     H ( 1.00)

     No symmetry found



   Cartesian axes

     site n.     atom                  positions (alat units)
         1           Y1  tau(   1) = (   1.7880693   1.0323423  10.0000000  )
         2           Y1  tau(   2) = (   5.3642080   1.0323423  10.0000000  )
         3           Y1  tau(   3) = (   3.5761386   4.1293692  10.0000000  )
         4           Y1  tau(   4) = (   7.1522773   4.1293692  10.0000000  )
         5           Y1  tau(   5) = (   7.1522773   2.0646846  12.9199050  )
         6           Y1  tau(   6) = (   3.5761386   2.0646846  12.9199050  )
         7           Y1  tau(   7) = (   8.9403466   5.1617115  12.9199050  )
         8           Y1  tau(   8) = (   5.3642080   5.1617115  12.9199050  )
         9           Y1  tau(   9) = (   0.0000000   0.0000000  15.8398100  )
        10           Y1  tau(  10) = (   3.5761386   0.0000000  15.8398100  )
        11           Y1  tau(  11) = (   1.7880693   3.0970269  15.8398100  )
        12           Y1  tau(  12) = (   5.3642080   3.0970269  15.8398100  )
        13           H1  tau(  13) = (   3.5761386   2.0646846  17.2763100  )

     number of k points=    20  Fermi-Dirac smearing, width (Ry)=  0.0110
                       cart. coord. in units 2pi/alat
        k(    1) = (   0.0000000   0.0000000   0.0000000), wk =   0.0555556
        k(    2) = (   0.0000000   0.0269075   0.0000000), wk =   0.1111111
        k(    3) = (   0.0000000   0.0538151   0.0000000), wk =   0.1111111
        k(    4) = (   0.0000000  -0.0807226   0.0000000), wk =   0.0555556
        k(    5) = (   0.0233026  -0.0134538   0.0000000), wk =   0.1111111
        k(    6) = (   0.0233026   0.0134538   0.0000000), wk =   0.1111111
        k(    7) = (   0.0233026   0.0403613   0.0000000), wk =   0.1111111
        k(    8) = (   0.0233026  -0.0941763   0.0000000), wk =   0.1111111
        k(    9) = (   0.0233026  -0.0672688   0.0000000), wk =   0.1111111
        k(   10) = (   0.0233026  -0.0403613   0.0000000), wk =   0.1111111
        k(   11) = (   0.0466052  -0.0269075   0.0000000), wk =   0.1111111
        k(   12) = (   0.0466052   0.0000000   0.0000000), wk =   0.1111111
        k(   13) = (   0.0466052   0.0269075   0.0000000), wk =   0.1111111
        k(   14) = (   0.0466052  -0.1076301   0.0000000), wk =   0.1111111
        k(   15) = (   0.0466052  -0.0807226   0.0000000), wk =   0.1111111
        k(   16) = (   0.0466052  -0.0538151   0.0000000), wk =   0.1111111
        k(   17) = (  -0.0699078   0.0403613   0.0000000), wk =   0.0555556
        k(   18) = (  -0.0699078   0.0672688   0.0000000), wk =   0.1111111
        k(   19) = (  -0.0699078   0.0941763   0.0000000), wk =   0.1111111
        k(   20) = (  -0.0699078  -0.0403613   0.0000000), wk =   0.0555556

     Dense  grid:   919335 G-vectors     FFT dimensions: (  90,  90, 300)

     Smooth grid:   232275 G-vectors     FFT dimensions: (  54,  54, 192)

     Largest allocated arrays     est. size (Mb)     dimensions
        Kohn-Sham Wavefunctions         4.27 Mb     (    3683,   76)
        NL pseudopotentials            12.25 Mb     (    3683,  218)
        Each V/rho on FFT grid          4.70 Mb     (  307800)
        Each G-vector array             0.88 Mb     (  114920)
        G-vector shells                 0.22 Mb     (   29028)
     Largest temporary arrays     est. size (Mb)     dimensions
        Auxiliary wavefunctions        17.08 Mb     (    3683,  304)
        Each subspace H/S matrix        1.41 Mb     (     304,  304)
        Each <psi_i|beta_j> matrix      0.25 Mb     (     218,   76)
        Arrays for rho mixing          46.97 Mb     (  307800,   10)

     Initial potential from superposition of free atoms
     Check: negative starting charge=   -0.000596

     starting charge  132.94636, renormalised to  133.00000

     negative rho (up, down):  5.963E-04 0.000E+00


     ************************************************************************
     *
     * You are using vdW-DF for exchange-correlation in this calculation.
     * Please cite the following three references that made this development
     * possible:
     *
     *   M. Dion, H. Rydberg, E. Schroder, D. C. Langreth, and
     *   B. I. Lundqvist, Phys. Rev. Lett. 92, 246401 (2004).
     *
     *   T. Thonhauser, V. R. Cooper, S. Li, A. Puzder, P. Hyldgaard, and
     *   D. C. Langreth, Phys. Rev. B 76, 125112 (2007).
     *
     *   G. Roman-Perez and J. M. Soler, Phys. Rev. Lett. 103, 096102 (2009).
     *
     *
     * If you are using vdW-DF2, please also cite:
     *
     *   K. Lee, E. D. Murray, L. Kong, B. I. Lundqvist, and
     *   D. C. Langreth, Phys. Rev. B 82, 081101(R) (2010).
     *
     *
     * If you are calculating the stress with vdW-DF, please also cite:
     *
     *   R. Sabatini, E. Kucukbenli, B. Kolb, T. Thonhauser, and
     *   S. de Gironcoli, J. Phys.: Condens. Matter 24, 424209 (2012).
     *
     ************************************************************************

     Carrying out vdW-DF run using the following parameters:

     Nqs =      20    Nr_points =    1024   r_max =   100.000
     q_mesh =
               0.00001000     0.04494208     0.09755937     0.15916263
               0.23128650     0.31572767     0.41458969     0.53033537
               0.66584808     0.82450364     1.01025438     1.22772762
               1.48234092     1.78043706     2.12944203     2.53805004
               3.01644009     3.57652955     4.23227104     5.00000000

     Gradients computed in reciprocal space

     ************************************************************************


 
     Adding external electric field

     Computed dipole along edir(3) : 
        Dipole               -0.0032 Ry au,         -0.0083 Debye
        Dipole field         -0.0000 Ry au
 
        Potential amp.        0.0005 Ry
        Total length         47.6094 bohr
 
     Starting wfc are  157 randomized atomic wfcs

     total cpu time spent up to now is       19.2 secs

     per-process dynamical memory:   115.0 Mb

     Self-consistent Calculation

     iteration #  1     ecut=    36.75 Ry     beta=0.30
     Davidson diagonalization with overlap
     ethr =  1.00E-02,  avg # of iterations =  2.0

     negative rho (up, down):  3.223E-04 0.000E+00
 
     Adding external electric field

     Computed dipole along edir(3) : 
        Dipole               -1.8040 Ry au,         -4.5853 Debye
        Dipole field         -0.0029 Ry au
 
        Potential amp.        0.2794 Ry
        Total length         47.6094 bohr
 

     total cpu time spent up to now is       44.3 secs

     total energy              =   -1123.67919447 Ry
     Harris-Foulkes estimate   =   -1125.91437212 Ry
     estimated scf accuracy    <       4.79843328 Ry

     iteration #  2     ecut=    36.75 Ry     beta=0.30
     Davidson diagonalization with overlap
     ethr =  3.61E-03,  avg # of iterations =  8.6

     negative rho (up, down):  1.554E-04 0.000E+00
 
     Adding external electric field

     Computed dipole along edir(3) : 
        Dipole                3.4449 Ry au,          8.7560 Debye
        Dipole field          0.0056 Ry au
 
        Potential amp.       -0.5336 Ry
        Total length         47.6094 bohr
 

     total cpu time spent up to now is       78.1 secs

     total energy              =   -1119.97288280 Ry
     Harris-Foulkes estimate   =   -1129.93601934 Ry
     estimated scf accuracy    <     156.61472487 Ry

     iteration #  3     ecut=    36.75 Ry     beta=0.30
     Davidson diagonalization with overlap
     ethr =  3.61E-03,  avg # of iterations = 11.2

     negative rho (up, down):  1.180E-05 0.000E+00
 
     Adding external electric field

     Computed dipole along edir(3) : 
        Dipole                0.0975 Ry au,          0.2477 Debye
        Dipole field          0.0002 Ry au
 
        Potential amp.       -0.0151 Ry
        Total length         47.6094 bohr
 

     total cpu time spent up to now is      115.9 secs

     total energy              =   -1121.57747266 Ry
     Harris-Foulkes estimate   =   -1131.57526148 Ry
     estimated scf accuracy    <     268.84584675 Ry

     iteration #  4     ecut=    36.75 Ry     beta=0.30
     Davidson diagonalization with overlap
     ethr =  3.61E-03,  avg # of iterations =  8.2

     negative rho (up, down):  1.501E-05 0.000E+00
 
     Adding external electric field

     Computed dipole along edir(3) : 
        Dipole                0.1194 Ry au,          0.3035 Debye
        Dipole field          0.0002 Ry au
 
        Potential amp.       -0.0185 Ry
        Total length         47.6094 bohr
 

     total cpu time spent up to now is      150.2 secs

     total energy              =   -1125.47202325 Ry
     Harris-Foulkes estimate   =   -1125.51600933 Ry
     estimated scf accuracy    <       2.02735348 Ry

     iteration #  5     ecut=    36.75 Ry     beta=0.30
     Davidson diagonalization with overlap
     ethr =  1.52E-03,  avg # of iterations =  2.6

     negative rho (up, down):  1.082E-05 0.000E+00
 
     Adding external electric field

     Computed dipole along edir(3) : 
        Dipole               -0.1382 Ry au,         -0.3512 Debye
        Dipole field         -0.0002 Ry au
 
        Potential amp.        0.0214 Ry
        Total length         47.6094 bohr
 

     total cpu time spent up to now is      176.5 secs

     total energy              =   -1125.44462461 Ry
     Harris-Foulkes estimate   =   -1125.49630101 Ry
     estimated scf accuracy    <       0.84217641 Ry

     iteration #  6     ecut=    36.75 Ry     beta=0.30
     Davidson diagonalization with overlap
     ethr =  6.33E-04,  avg # of iterations =  9.5

     negative rho (up, down):  7.487E-06 0.000E+00
 
     Adding external electric field

     Computed dipole along edir(3) : 
        Dipole               -0.0794 Ry au,         -0.2018 Debye
        Dipole field         -0.0001 Ry au
 
        Potential amp.        0.0123 Ry
        Total length         47.6094 bohr
 

     total cpu time spent up to now is      207.1 secs

     total energy              =   -1125.48325920 Ry
     Harris-Foulkes estimate   =   -1125.48867735 Ry
     estimated scf accuracy    <       0.08268378 Ry

     iteration #  7     ecut=    36.75 Ry     beta=0.30
     Davidson diagonalization with overlap
     ethr =  6.22E-05,  avg # of iterations =  8.6

     negative rho (up, down):  6.175E-06 0.000E+00
 
     Adding external electric field

     Computed dipole along edir(3) : 
        Dipole                0.0008 Ry au,          0.0020 Debye
        Dipole field          0.0000 Ry au
 
        Potential amp.       -0.0001 Ry
        Total length         47.6094 bohr
 

     total cpu time spent up to now is      241.0 secs

     total energy              =   -1125.49210520 Ry
     Harris-Foulkes estimate   =   -1125.49619820 Ry
     estimated scf accuracy    <       0.02864680 Ry

     iteration #  8     ecut=    36.75 Ry     beta=0.30
     Davidson diagonalization with overlap
     ethr =  2.15E-05,  avg # of iterations =  5.0

     negative rho (up, down):  3.099E-06 0.000E+00
 
     Adding external electric field

     Computed dipole along edir(3) : 
        Dipole               -0.0394 Ry au,         -0.1000 Debye
        Dipole field         -0.0001 Ry au
 
        Potential amp.        0.0061 Ry
        Total length         47.6094 bohr
 

     total cpu time spent up to now is      270.3 secs

     total energy              =   -1125.49759734 Ry
     Harris-Foulkes estimate   =   -1125.49708266 Ry
     estimated scf accuracy    <       0.01179422 Ry

     iteration #  9     ecut=    36.75 Ry     beta=0.30
     Davidson diagonalization with overlap
     ethr =  8.87E-06,  avg # of iterations =  6.0

     negative rho (up, down):  5.780E-06 0.000E+00
 
     Adding external electric field

     Computed dipole along edir(3) : 
        Dipole               -0.0803 Ry au,         -0.2040 Debye
        Dipole field         -0.0001 Ry au
 
        Potential amp.        0.0124 Ry
        Total length         47.6094 bohr
 

     total cpu time spent up to now is      299.7 secs

     total energy              =   -1125.49630637 Ry
     Harris-Foulkes estimate   =   -1125.49897356 Ry
     estimated scf accuracy    <       0.05695059 Ry

     iteration # 10     ecut=    36.75 Ry     beta=0.30
     Davidson diagonalization with overlap
     ethr =  8.87E-06,  avg # of iterations =  3.6

     negative rho (up, down):  8.753E-06 0.000E+00
 
     Adding external electric field

     Computed dipole along edir(3) : 
        Dipole               -0.0616 Ry au,         -0.1565 Debye
        Dipole field         -0.0001 Ry au
 
        Potential amp.        0.0095 Ry
        Total length         47.6094 bohr
 

     total cpu time spent up to now is      327.8 secs

     total energy              =   -1125.49740020 Ry
     Harris-Foulkes estimate   =   -1125.49766122 Ry
     estimated scf accuracy    <       0.01466068 Ry

     iteration # 11     ecut=    36.75 Ry     beta=0.30
     Davidson diagonalization with overlap
     ethr =  8.87E-06,  avg # of iterations =  1.0

     negative rho (up, down):  2.041E-05 0.000E+00
 
     Adding external electric field

     Computed dipole along edir(3) : 
        Dipole               -0.0357 Ry au,         -0.0906 Debye
        Dipole field         -0.0001 Ry au
 
        Potential amp.        0.0055 Ry
        Total length         47.6094 bohr
 

     total cpu time spent up to now is      353.7 secs

     total energy              =   -1125.49758357 Ry
     Harris-Foulkes estimate   =   -1125.49758447 Ry
     estimated scf accuracy    <       0.00156752 Ry

     iteration # 12     ecut=    36.75 Ry     beta=0.30
     Davidson diagonalization with overlap
     ethr =  1.18E-06,  avg # of iterations =  8.4

     negative rho (up, down):  1.811E-05 0.000E+00
 
     Adding external electric field

     Computed dipole along edir(3) : 
        Dipole               -0.0420 Ry au,         -0.1068 Debye
        Dipole field         -0.0001 Ry au
 
        Potential amp.        0.0065 Ry
        Total length         47.6094 bohr
 

     total cpu time spent up to now is      387.3 secs

     total energy              =   -1125.49775380 Ry
     Harris-Foulkes estimate   =   -1125.49777946 Ry
     estimated scf accuracy    <       0.00026171 Ry

     iteration # 13     ecut=    36.75 Ry     beta=0.30
     Davidson diagonalization with overlap
     ethr =  1.97E-07,  avg # of iterations =  6.3

     negative rho (up, down):  2.476E-05 0.000E+00
 
     Adding external electric field

     Computed dipole along edir(3) : 
        Dipole               -0.0491 Ry au,         -0.1248 Debye
        Dipole field         -0.0001 Ry au
 
        Potential amp.        0.0076 Ry
        Total length         47.6094 bohr
 

     total cpu time spent up to now is      418.3 secs

     total energy              =   -1125.49778691 Ry
     Harris-Foulkes estimate   =   -1125.49778188 Ry
     estimated scf accuracy    <       0.00002047 Ry

     iteration # 14     ecut=    36.75 Ry     beta=0.30
     Davidson diagonalization with overlap
     ethr =  1.54E-08,  avg # of iterations =  9.7

     negative rho (up, down):  2.153E-05 0.000E+00
 
     Adding external electric field

     Computed dipole along edir(3) : 
        Dipole               -0.0471 Ry au,         -0.1196 Debye
        Dipole field         -0.0001 Ry au
 
        Potential amp.        0.0073 Ry
        Total length         47.6094 bohr
 

     total cpu time spent up to now is      456.5 secs

     total energy              =   -1125.49779463 Ry
     Harris-Foulkes estimate   =   -1125.49779586 Ry
     estimated scf accuracy    <       0.00001745 Ry

     iteration # 15     ecut=    36.75 Ry     beta=0.30
     Davidson diagonalization with overlap
     ethr =  1.31E-08,  avg # of iterations =  5.2

     negative rho (up, down):  1.736E-05 0.000E+00

     negative rho (up, down):  1.736E-05 0.000E+00

     negative rho (up, down):  1.736E-05 0.000E+00

     negative rho (up, down):  1.736E-05 0.000E+00

     negative rho (up, down):  1.736E-05 0.000E+00

     negative rho (up, down):  1.736E-05 0.000E+00

     negative rho (up, down):  1.736E-05 0.000E+00

     negative rho (up, down):  1.736E-05 0.000E+00

     negative rho (up, down):  1.736E-05 0.000E+00

     negative rho (up, down):  1.736E-05 0.000E+00

     negative rho (up, down):  1.736E-05 0.000E+00

     negative rho (up, down):  1.736E-05 0.000E+00

     negative rho (up, down):  1.736E-05 0.000E+00

     negative rho (up, down):  1.736E-05 0.000E+00

     negative rho (up, down):  1.736E-05 0.000E+00

     negative rho (up, down):  1.736E-05 0.000E+00

     negative rho (up, down):  1.736E-05 0.000E+00

     negative rho (up, down):  1.736E-05 0.000E+00

     negative rho (up, down):  1.736E-05 0.000E+00

     negative rho (up, down):  1.736E-05 0.000E+00

     negative rho (up, down):  1.736E-05 0.000E+00

     negative rho (up, down):  1.736E-05 0.000E+00

     negative rho (up, down):  1.736E-05 0.000E+00

     negative rho (up, down):  1.736E-05 0.000E+00

     negative rho (up, down):  1.736E-05 0.000E+00

     negative rho (up, down):  1.736E-05 0.000E+00

     negative rho (up, down):  1.736E-05 0.000E+00

     negative rho (up, down):  1.736E-05 0.000E+00

     negative rho (up, down):  1.736E-05 0.000E+00

     negative rho (up, down):  1.736E-05 0.000E+00

     negative rho (up, down):  1.736E-05 0.000E+00

     negative rho (up, down):  1.736E-05 0.000E+00

     negative rho (up, down):  1.736E-05 0.000E+00

     negative rho (up, down):  1.736E-05 0.000E+00

     negative rho (up, down):  1.736E-05 0.000E+00
 
     Adding external electric field

     Computed dipole along edir(3) : 
        Dipole               -0.0825 Ry au,         -0.2097 Debye
        Dipole field         -0.0001 Ry au
 
        Potential amp.        0.0128 Ry
        Total length         47.6094 bohr
 

     total cpu time spent up to now is      569.1 secs

     End of self-consistent calculation

          k = 0.0000 0.0000 0.0000 ( 28997 PWs)   bands (ev):

   -42.4055 -42.3747 -42.3332 -42.3315 -42.3309 -42.3288 -42.3018 -42.3014
   -41.8133 -41.7749 -41.7747 -41.7558 -22.4907 -22.4906 -22.4801 -22.4741
   -22.4739 -22.4491 -22.4347 -22.3998 -22.3472 -22.3406 -22.3401 -22.3237
   -22.2944 -22.2941 -22.1562 -22.1560 -22.1540 -22.1510 -22.1510 -22.1313
   -22.0560 -22.0559 -22.0327 -22.0326 -21.9342 -21.9274 -21.9273 -21.7230
   -21.6992 -21.6990 -21.6765 -21.6375 -21.6284 -21.6283 -21.5337 -21.5337
    -3.5165  -2.8889  -1.9257  -1.1691  -0.6391  -0.6391  -0.6272  -0.5244
    -0.5244  -0.4256  -0.2493  -0.2493   0.0655   0.2891   0.2980   0.2980
     0.7065   0.7066   0.7992   1.1570   1.3452   1.5672   1.6195   1.6195
     1.6865   1.7361   1.7362   2.2150

          k = 0.0000 0.0269 0.0000 ( 29019 PWs)   bands (ev):

   -42.4046 -42.3718 -42.3351 -42.3320 -42.3313 -42.3278 -42.3037 -42.3014
   -41.8106 -41.7767 -41.7749 -41.7566 -22.4762 -22.4690 -22.4609 -22.4593
   -22.4498 -22.4427 -22.4172 -22.3965 -22.3452 -22.3403 -22.3382 -22.3252
   -22.2987 -22.2950 -22.1726 -22.1712 -22.1697 -22.1571 -22.1485 -22.1350
   -22.0858 -22.0627 -22.0614 -22.0388 -21.9192 -21.9137 -21.9053 -21.7198
   -21.6996 -21.6985 -21.6762 -21.6511 -21.6440 -21.6244 -21.5621 -21.5403
    -3.3910  -2.7840  -1.8388  -1.0582  -0.8511  -0.5860  -0.5846  -0.5438
    -0.4406  -0.3481  -0.1127  -0.0842   0.1701   0.3631   0.3819   0.3824
     0.7469   0.7488   0.8321   1.1689   1.3222   1.4698   1.5086   1.5403
     1.6020   1.6672   1.6812   2.0702

          k = 0.0000 0.0538 0.0000 ( 29058 PWs)   bands (ev):

   -42.4029 -42.3640 -42.3427 -42.3323 -42.3313 -42.3251 -42.3082 -42.3014
   -41.8033 -41.7827 -41.7749 -41.7578 -22.4422 -22.4327 -22.4272 -22.4232
   -22.4054 -22.3882 -22.3810 -22.3648 -22.3480 -22.3351 -22.3337 -22.3252
   -22.3077 -22.2972 -22.2163 -22.2125 -22.2113 -22.1885 -22.1658 -22.1358
   -22.1307 -22.1242 -22.0810 -22.0537 -21.8858 -21.8793 -21.8385 -21.7133
   -21.7021 -21.6996 -21.6873 -21.6815 -21.6753 -21.6382 -21.6074 -21.5581
    -3.0854  -2.5039  -1.6206  -1.3702  -0.8059  -0.6016  -0.4791  -0.4633
    -0.1855  -0.1491   0.0687   0.3203   0.4277   0.5590   0.6005   0.6220
     0.8312   0.8511   0.9338   1.1029   1.2213   1.3101   1.3122   1.3581
     1.4080   1.4371   1.4471   1.7389

          k = 0.0000-0.0807 0.0000 ( 29048 PWs)   bands (ev):

   -42.4020 -42.3540 -42.3528 -42.3323 -42.3313 -42.3228 -42.3114 -42.3014
   -41.7961 -41.7895 -41.7749 -41.7583 -22.4265 -22.4209 -22.4015 -22.3987
   -22.3762 -22.3691 -22.3645 -22.3334 -22.3312 -22.3283 -22.3160 -22.3069
   -22.2989 -22.2727 -22.2704 -22.2408 -22.2393 -22.2378 -22.2093 -22.2057
   -22.1150 -22.1058 -22.1056 -22.0641 -21.8635 -21.8549 -21.7462 -21.7394
   -21.7187 -21.7086 -21.7042 -21.7021 -21.6943 -21.6750 -21.5872 -21.5785
    -2.8952  -2.1154  -1.9635  -1.3008  -1.0028  -0.4173  -0.4127  -0.3026
    -0.0738   0.0045   0.0387   0.6821   0.7005   0.7338   0.7594   0.8046
     0.8371   0.9093   0.9860   1.0606   1.0735   1.0845   1.1515   1.1655
     1.3356   1.3763   1.4884   1.4910

          k = 0.0233-0.0135 0.0000 ( 29019 PWs)   bands (ev):

   -42.4046 -42.3718 -42.3352 -42.3319 -42.3314 -42.3278 -42.3036 -42.3015
   -41.8106 -41.7769 -41.7747 -41.7566 -22.4761 -22.4691 -22.4609 -22.4592
   -22.4498 -22.4427 -22.4172 -22.3965 -22.3452 -22.3402 -22.3383 -22.3252
   -22.2986 -22.2951 -22.1726 -22.1713 -22.1697 -22.1572 -22.1485 -22.1350
   -22.0858 -22.0627 -22.0614 -22.0388 -21.9191 -21.9138 -21.9052 -21.7198
   -21.6998 -21.6983 -21.6762 -21.6510 -21.6441 -21.6243 -21.5621 -21.5403
    -3.3910  -2.7840  -1.8388  -1.0582  -0.8511  -0.5859  -0.5846  -0.5438
    -0.4406  -0.3481  -0.1127  -0.0842   0.1701   0.3631   0.3819   0.3824
     0.7469   0.7488   0.8321   1.1689   1.3222   1.4698   1.5085   1.5404
     1.6020   1.6672   1.6811   2.0701

          k = 0.0233 0.0135 0.0000 ( 29019 PWs)   bands (ev):

   -42.4046 -42.3718 -42.3350 -42.3326 -42.3309 -42.3279 -42.3032 -42.3018
   -41.8106 -41.7767 -41.7748 -41.7566 -22.4761 -22.4690 -22.4609 -22.4594
   -22.4498 -22.4427 -22.4172 -22.3965 -22.3452 -22.3406 -22.3379 -22.3253
   -22.2984 -22.2953 -22.1728 -22.1710 -22.1697 -22.1574 -22.1485 -22.1348
   -22.0858 -22.0627 -22.0613 -22.0389 -21.9192 -21.9137 -21.9053 -21.7198
   -21.6996 -21.6985 -21.6762 -21.6511 -21.6440 -21.6243 -21.5621 -21.5403
    -3.3910  -2.7840  -1.8388  -1.0582  -0.8511  -0.5860  -0.5846  -0.5438
    -0.4406  -0.3481  -0.1127  -0.0842   0.1701   0.3631   0.3819   0.3824
     0.7469   0.7488   0.8320   1.1689   1.3222   1.4698   1.5086   1.5403
     1.6020   1.6672   1.6812   2.0702

          k = 0.0233 0.0404 0.0000 ( 29087 PWs)   bands (ev):

   -42.4033 -42.3665 -42.3378 -42.3368 -42.3292 -42.3259 -42.3069 -42.3014
   -41.8056 -41.7800 -41.7758 -41.7574 -22.4521 -22.4396 -22.4354 -22.4253
   -22.4166 -22.4102 -22.3912 -22.3831 -22.3441 -22.3423 -22.3329 -22.3259
   -22.3063 -22.2958 -22.2235 -22.2149 -22.1577 -22.1568 -22.1506 -22.1477
   -22.1391 -22.1083 -22.0767 -22.0519 -21.8993 -21.8734 -21.8715 -21.7151
   -21.7030 -21.6979 -21.6945 -21.6756 -21.6356 -21.6308 -21.6125 -21.5540
    -3.1725  -2.5919  -1.6744  -1.0122  -1.0061  -0.8052  -0.5410  -0.4276
    -0.2177  -0.1262   0.0679   0.1593   0.3335   0.4947   0.5289   0.5535
     0.8127   0.8318   0.8921   1.1507   1.2419   1.3157   1.3803   1.4461
     1.4567   1.5203   1.5606   1.7415

          k = 0.0233-0.0942 0.0000 ( 29098 PWs)   bands (ev):

   -42.4020 -42.3573 -42.3466 -42.3386 -42.3279 -42.3224 -42.3121 -42.3011
   -41.7975 -41.7864 -41.7770 -41.7578 -22.4268 -22.4142 -22.4017 -22.3805
   -22.3770 -22.3637 -22.3596 -22.3425 -22.3376 -22.3290 -22.3256 -22.3168
   -22.3110 -22.2981 -22.2811 -22.2654 -22.2284 -22.2074 -22.1807 -22.1594
   -22.1319 -22.1264 -22.1023 -22.0716 -21.8639 -21.8363 -21.7946 -21.7533
   -21.7090 -21.7050 -21.6975 -21.6960 -21.6751 -21.6544 -21.6085 -21.5788
    -2.9101  -2.2248  -1.6463  -1.3248  -1.0483  -0.8194  -0.4352  -0.2900
     0.0676   0.1096   0.2202   0.4877   0.5697   0.6897   0.7386   0.7853
     0.8667   0.9474   0.9869   1.0524   1.1266   1.1792   1.2322   1.2720
     1.3247   1.3735   1.4055   1.4930

          k = 0.0233-0.0673 0.0000 ( 29098 PWs)   bands (ev):

   -42.4020 -42.3573 -42.3466 -42.3386 -42.3279 -42.3223 -42.3123 -42.3010
   -41.7975 -41.7865 -41.7770 -41.7579 -22.4268 -22.4142 -22.4018 -22.3805
   -22.3770 -22.3637 -22.3596 -22.3422 -22.3378 -22.3290 -22.3255 -22.3168
   -22.3110 -22.2980 -22.2811 -22.2652 -22.2283 -22.2077 -22.1807 -22.1593
   -22.1319 -22.1264 -22.1023 -22.0716 -21.8639 -21.8363 -21.7946 -21.7534
   -21.7090 -21.7050 -21.6975 -21.6960 -21.6751 -21.6544 -21.6085 -21.5788
    -2.9101  -2.2248  -1.6463  -1.3248  -1.0483  -0.8194  -0.4352  -0.2900
     0.0676   0.1096   0.2201   0.4877   0.5697   0.6897   0.7386   0.7853
     0.8667   0.9474   0.9869   1.0524   1.1266   1.1792   1.2322   1.2720
     1.3247   1.3735   1.4054   1.4930

          k = 0.0233-0.0404 0.0000 ( 29087 PWs)   bands (ev):

   -42.4034 -42.3665 -42.3383 -42.3363 -42.3293 -42.3258 -42.3072 -42.3013
   -41.8056 -41.7802 -41.7756 -41.7574 -22.4521 -22.4396 -22.4354 -22.4253
   -22.4164 -22.4103 -22.3912 -22.3831 -22.3443 -22.3419 -22.3332 -22.3257
   -22.3065 -22.2957 -22.2234 -22.2148 -22.1578 -22.1567 -22.1506 -22.1479
   -22.1391 -22.1083 -22.0768 -22.0518 -21.8993 -21.8735 -21.8715 -21.7150
   -21.7031 -21.6978 -21.6945 -21.6756 -21.6356 -21.6307 -21.6125 -21.5541
    -3.1725  -2.5919  -1.6744  -1.0122  -1.0061  -0.8052  -0.5411  -0.4275
    -0.2177  -0.1262   0.0679   0.1593   0.3336   0.4947   0.5289   0.5536
     0.8127   0.8318   0.8921   1.1507   1.2419   1.3157   1.3803   1.4462
     1.4566   1.5203   1.5605   1.7415

          k = 0.0466-0.0269 0.0000 ( 29058 PWs)   bands (ev):

   -42.4029 -42.3640 -42.3427 -42.3322 -42.3314 -42.3251 -42.3081 -42.3015
   -41.8033 -41.7829 -41.7747 -41.7578 -22.4421 -22.4327 -22.4273 -22.4231
   -22.4055 -22.3882 -22.3810 -22.3648 -22.3480 -22.3350 -22.3338 -22.3253
   -22.3075 -22.2973 -22.2163 -22.2124 -22.2113 -22.1886 -22.1658 -22.1358
   -22.1308 -22.1241 -22.0810 -22.0538 -21.8857 -21.8794 -21.8385 -21.7132
   -21.7023 -21.6994 -21.6872 -21.6817 -21.6753 -21.6382 -21.6073 -21.5581
    -3.0854  -2.5039  -1.6206  -1.3702  -0.8059  -0.6016  -0.4791  -0.4633
    -0.1856  -0.1491   0.0687   0.3204   0.4277   0.5590   0.6005   0.6220
     0.8312   0.8511   0.9338   1.1029   1.2213   1.3101   1.3121   1.3581
     1.4080   1.4371   1.4471   1.7389

          k = 0.0466 0.0000 0.0000 ( 29087 PWs)   bands (ev):

   -42.4033 -42.3665 -42.3379 -42.3367 -42.3292 -42.3259 -42.3068 -42.3015
   -41.8056 -41.7802 -41.7755 -41.7574 -22.4521 -22.4396 -22.4354 -22.4253
   -22.4165 -22.4103 -22.3912 -22.3831 -22.3441 -22.3422 -22.3329 -22.3259
   -22.3062 -22.2959 -22.2234 -22.2150 -22.1577 -22.1568 -22.1505 -22.1476
   -22.1391 -22.1083 -22.0768 -22.0520 -21.8993 -21.8735 -21.8715 -21.7150
   -21.7031 -21.6977 -21.6945 -21.6756 -21.6356 -21.6307 -21.6126 -21.5541
    -3.1725  -2.5919  -1.6744  -1.0122  -1.0061  -0.8052  -0.5410  -0.4276
    -0.2177  -0.1262   0.0679   0.1593   0.3335   0.4947   0.5289   0.5535
     0.8127   0.8318   0.8921   1.1507   1.2419   1.3157   1.3803   1.4461
     1.4567   1.5204   1.5606   1.7415

          k = 0.0466 0.0269 0.0000 ( 29058 PWs)   bands (ev):

   -42.4029 -42.3640 -42.3426 -42.3328 -42.3309 -42.3253 -42.3076 -42.3018
   -41.8033 -41.7828 -41.7748 -41.7578 -22.4420 -22.4326 -22.4269 -22.4234
   -22.4056 -22.3882 -22.3810 -22.3648 -22.3480 -22.3354 -22.3333 -22.3254
   -22.3072 -22.2975 -22.2163 -22.2128 -22.2110 -22.1888 -22.1659 -22.1356
   -22.1307 -22.1239 -22.0810 -22.0540 -21.8858 -21.8793 -21.8385 -21.7133
   -21.7021 -21.6996 -21.6873 -21.6816 -21.6753 -21.6382 -21.6074 -21.5581
    -3.0854  -2.5039  -1.6205  -1.3702  -0.8059  -0.6016  -0.4791  -0.4633
    -0.1855  -0.1491   0.0687   0.3203   0.4277   0.5591   0.6005   0.6220
     0.8311   0.8511   0.9338   1.1029   1.2212   1.3100   1.3122   1.3582
     1.4080   1.4370   1.4471   1.7388

          k = 0.0466-0.1076 0.0000 ( 29098 PWs)   bands (ev):

   -42.4020 -42.3573 -42.3465 -42.3387 -42.3278 -42.3226 -42.3118 -42.3013
   -41.7975 -41.7865 -41.7770 -41.7578 -22.4268 -22.4140 -22.4016 -22.3806
   -22.3771 -22.3636 -22.3598 -22.3425 -22.3377 -22.3289 -22.3255 -22.3166
   -22.3111 -22.2982 -22.2812 -22.2653 -22.2284 -22.2077 -22.1807 -22.1592
   -22.1319 -22.1261 -22.1023 -22.0719 -21.8639 -21.8363 -21.7947 -21.7533
   -21.7090 -21.7050 -21.6975 -21.6961 -21.6751 -21.6544 -21.6085 -21.5788
    -2.9101  -2.2248  -1.6463  -1.3248  -1.0483  -0.8194  -0.4352  -0.2900
     0.0676   0.1096   0.2202   0.4877   0.5697   0.6897   0.7386   0.7853
     0.8667   0.9474   0.9869   1.0523   1.1266   1.1792   1.2322   1.2720
     1.3247   1.3735   1.4054   1.4930

          k = 0.0466-0.0807 0.0000 ( 29103 PWs)   bands (ev):

   -42.4016 -42.3494 -42.3476 -42.3470 -42.3264 -42.3179 -42.3174 -42.3007
   -41.7909 -41.7906 -41.7797 -41.7576 -22.4243 -22.3703 -22.3698 -22.3623
   -22.3592 -22.3564 -22.3516 -22.3491 -22.3337 -22.3263 -22.3213 -22.3059
   -22.3025 -22.3024 -22.2948 -22.2788 -22.2757 -22.2750 -22.1399 -22.1398
   -22.1395 -22.1363 -22.1346 -22.0930 -21.8178 -21.8178 -21.7759 -21.7684
   -21.7676 -21.7052 -21.7038 -21.6981 -21.6748 -21.6189 -21.6137 -21.6136
    -2.8299  -1.7565  -1.7410  -1.6216  -0.9626  -0.9403  -0.6667   0.0541
     0.0640   0.3576   0.4298   0.4792   0.4820   0.7799   0.7858   0.9038
     0.9053   0.9784   1.0182   1.0290   1.1356   1.1692   1.1821   1.1867
     1.3562   1.3752   1.3774   1.4026

          k = 0.0466-0.0538 0.0000 ( 29098 PWs)   bands (ev):

   -42.4020 -42.3573 -42.3466 -42.3386 -42.3279 -42.3224 -42.3122 -42.3011
   -41.7974 -41.7867 -41.7768 -41.7579 -22.4268 -22.4141 -22.4018 -22.3805
   -22.3770 -22.3638 -22.3596 -22.3422 -22.3378 -22.3289 -22.3255 -22.3168
   -22.3111 -22.2981 -22.2811 -22.2651 -22.2283 -22.2078 -22.1807 -22.1593
   -22.1319 -22.1263 -22.1023 -22.0717 -21.8638 -21.8363 -21.7947 -21.7533
   -21.7089 -21.7051 -21.6973 -21.6961 -21.6751 -21.6544 -21.6084 -21.5788
    -2.9101  -2.2248  -1.6464  -1.3248  -1.0483  -0.8195  -0.4352  -0.2900
     0.0676   0.1096   0.2202   0.4877   0.5697   0.6897   0.7386   0.7853
     0.8667   0.9474   0.9869   1.0524   1.1266   1.1792   1.2322   1.2720
     1.3247   1.3735   1.4054   1.4930

          k =-0.0699 0.0404 0.0000 ( 29048 PWs)   bands (ev):

   -42.4020 -42.3539 -42.3529 -42.3322 -42.3314 -42.3230 -42.3111 -42.3016
   -41.7959 -41.7898 -41.7747 -41.7584 -22.4265 -22.4209 -22.4016 -22.3986
   -22.3762 -22.3691 -22.3646 -22.3332 -22.3313 -22.3284 -22.3158 -22.3069
   -22.2990 -22.2727 -22.2704 -22.2409 -22.2392 -22.2378 -22.2094 -22.2055
   -22.1149 -22.1058 -22.1057 -22.0642 -21.8633 -21.8551 -21.7460 -21.7397
   -21.7185 -21.7084 -21.7044 -21.7024 -21.6941 -21.6750 -21.5870 -21.5786
    -2.8952  -2.1154  -1.9636  -1.3007  -1.0029  -0.4173  -0.4127  -0.3026
    -0.0739   0.0045   0.0387   0.6821   0.7005   0.7339   0.7594   0.8045
     0.8371   0.9094   0.9860   1.0606   1.0735   1.0846   1.1515   1.1655
     1.3356   1.3763   1.4884   1.4910

          k =-0.0699 0.0673 0.0000 ( 29098 PWs)   bands (ev):

   -42.4020 -42.3573 -42.3466 -42.3386 -42.3279 -42.3225 -42.3120 -42.3012
   -41.7974 -41.7867 -41.7768 -41.7579 -22.4268 -22.4141 -22.4018 -22.3806
   -22.3770 -22.3637 -22.3596 -22.3424 -22.3377 -22.3289 -22.3256 -22.3167
   -22.3111 -22.2981 -22.2811 -22.2655 -22.2284 -22.2074 -22.1807 -22.1593
   -22.1319 -22.1263 -22.1023 -22.0717 -21.8638 -21.8363 -21.7946 -21.7534
   -21.7089 -21.7051 -21.6973 -21.6961 -21.6751 -21.6544 -21.6084 -21.5788
    -2.9101  -2.2248  -1.6464  -1.3248  -1.0483  -0.8195  -0.4352  -0.2900
     0.0676   0.1096   0.2202   0.4877   0.5697   0.6897   0.7386   0.7853
     0.8667   0.9474   0.9869   1.0523   1.1266   1.1792   1.2322   1.2720
     1.3247   1.3735   1.4055   1.4930

          k =-0.0699 0.0942 0.0000 ( 29098 PWs)   bands (ev):

   -42.4020 -42.3573 -42.3465 -42.3387 -42.3278 -42.3227 -42.3117 -42.3013
   -41.7974 -41.7866 -41.7769 -41.7579 -22.4268 -22.4140 -22.4017 -22.3806
   -22.3771 -22.3636 -22.3598 -22.3424 -22.3378 -22.3289 -22.3255 -22.3166
   -22.3111 -22.2982 -22.2812 -22.2654 -22.2284 -22.2076 -22.1807 -22.1593
   -22.1319 -22.1261 -22.1023 -22.0719 -21.8639 -21.8363 -21.7946 -21.7534
   -21.7090 -21.7050 -21.6975 -21.6960 -21.6751 -21.6544 -21.6085 -21.5788
    -2.9101  -2.2248  -1.6463  -1.3248  -1.0483  -0.8194  -0.4352  -0.2900
     0.0676   0.1096   0.2202   0.4877   0.5697   0.6897   0.7386   0.7853
     0.8667   0.9474   0.9869   1.0523   1.1266   1.1792   1.2322   1.2720
     1.3247   1.3735   1.4055   1.4930

          k =-0.0699-0.0404 0.0000 ( 29048 PWs)   bands (ev):

   -42.4020 -42.3543 -42.3523 -42.3328 -42.3309 -42.3232 -42.3106 -42.3018
   -41.7961 -41.7895 -41.7748 -41.7583 -22.4265 -22.4207 -22.4011 -22.3990
   -22.3764 -22.3691 -22.3647 -22.3338 -22.3307 -22.3285 -22.3154 -22.3069
   -22.2993 -22.2730 -22.2701 -22.2411 -22.2397 -22.2375 -22.2096 -22.2050
   -22.1146 -22.1062 -22.1052 -22.0645 -21.8635 -21.8549 -21.7461 -21.7394
   -21.7187 -21.7085 -21.7043 -21.7021 -21.6942 -21.6750 -21.5872 -21.5785
    -2.8952  -2.1154  -1.9635  -1.3007  -1.0029  -0.4173  -0.4127  -0.3026
    -0.0739   0.0045   0.0387   0.6821   0.7005   0.7339   0.7594   0.8045
     0.8371   0.9093   0.9860   1.0606   1.0735   1.0846   1.1515   1.1655
     1.3357   1.3763   1.4884   1.4911

     the Fermi energy is     0.9713 ev

!    total energy              =   -1125.49779106 Ry
     Harris-Foulkes estimate   =   -1125.49778945 Ry
     estimated scf accuracy    <       0.00000891 Ry

     The total energy is the sum of the following terms:

     one-electron contribution =   -5401.67492995 Ry
     hartree contribution      =    2692.94976597 Ry
     xc contribution           =    -339.54618242 Ry
     ewald contribution        =    1922.90218776 Ry
     electric field correction =       0.00001107 Ry
     smearing contrib. (-TS)   =      -0.12864349 Ry

     convergence has been achieved in  15 iterations
 
 BEEF-vdW xc energy contributions
           1 :   -296.205498623463     
           2 :    266.037344356959     
           3 :   -214.054182732241     
           4 :    153.004077417933     
           5 :   -94.7984039321237     
           6 :    46.9390631784003     
           7 :   -11.9581869587671     
           8 :   -10.8327749452064     
           9 :    23.0878519902245     
          10 :   -26.1863832888776     
          11 :    21.3784512937497     
          12 :   -10.6374804358088     
          13 :   -2.82568597939780     
          14 :    15.0245495545138     
          15 :   -22.4756147542188     
          16 :    23.4924465921832     
          17 :   -18.6651950031496     
          18 :    10.2637950077997     
          19 :   -1.02700887945849     
          20 :   -6.89021831250744     
          21 :    12.3121694914718     
          22 :   -14.8443193898589     
          23 :    14.5105948014468     
          24 :   -11.6020504170202     
          25 :    6.77576709769647     
          26 :   -1.15480798472237     
          27 :   -3.83956746189517     
          28 :    6.95130190344526     
          29 :   -7.59885761673024     
          30 :    6.09440676526282     
          31 :   -28.3079549937713     
          32 :   -19.3547786188124     

     Forces acting on atoms (Ry/au):


     negative rho (up, down):  1.736E-05 0.000E+00
     atom    1 type  1   force =    -0.00017637   -0.00014057    0.00565285
     atom    2 type  1   force =     0.00016422   -0.00012052    0.00550642
     atom    3 type  1   force =     0.00000620    0.00022753    0.00552996
     atom    4 type  1   force =    -0.00000671    0.00002675    0.00500052
     atom    5 type  1   force =     0.00020951   -0.00027260    0.00016836
     atom    6 type  1   force =    -0.00022060   -0.00011712   -0.00559102
     atom    7 type  1   force =     0.00014559    0.00008245    0.00034269
     atom    8 type  1   force =    -0.00012801    0.00031475    0.00019803
     atom    9 type  1   force =     0.00000236   -0.00006465   -0.01223345
     atom   10 type  1   force =    -0.00001177    0.02176536    0.00762797
     atom   11 type  1   force =     0.01891164   -0.01085604    0.00766627
     atom   12 type  1   force =    -0.01889398   -0.01084578    0.00770963
     atom   13 type  2   force =    -0.00000209    0.00000045   -0.02757822

     Total force =     0.050105     Total SCF correction =     0.003084


     entering subroutine stress ...


     negative rho (up, down):  1.736E-05 0.000E+00
          total   stress  (Ry/bohr**3)                   (kbar)     P=   -4.12
  -0.00002508  -0.00000001   0.00000000         -3.69     -0.00      0.00
  -0.00000001  -0.00002507   0.00000000         -0.00     -3.69      0.00
   0.00000000   0.00000000  -0.00003391          0.00      0.00     -4.99


     BFGS Geometry Optimization

     number of scf cycles    =   1
     number of bfgs steps    =   0

     energy   new            =   -1125.4977910649 Ry

     new trust radius        =       0.0275782173 bohr
     new conv_thr            =       0.0000099958 Ry


ATOMIC_POSITIONS (crystal)
Y1       0.166666667   0.166666667   0.386999750    0   0   0
Y1       0.666666667   0.166666667   0.386999750    0   0   0
Y1       0.166666667   0.666666667   0.386999750    0   0   0
Y1       0.666666667   0.666666667   0.386999750    0   0   0
Y1       0.833333333   0.333333333   0.500000000    0   0   0
Y1       0.333333333   0.333333333   0.500000000    0   0   0
Y1       0.833333333   0.833333333   0.500000000    0   0   0
Y1       0.333333333   0.833333333   0.500000000    0   0   0
Y1       0.000002936  -0.000005523   0.612749719
Y1       0.499069388   0.001859482   0.613156464
Y1       0.001862953   0.499072535   0.613157248
Y1       0.499065381   0.499073412   0.613158136
H1       0.333333159   0.333333372   0.668027986



     Writing output data file calc.save
     Check: negative starting charge=   -0.000596
     NEW-OLD atomic charge density approx. for the potential
     Check: negative starting charge=   -0.000597

     negative rho (up, down):  3.510E-05 0.000E+00
 
     Adding external electric field

     Computed dipole along edir(3) : 
        Dipole               -0.0825 Ry au,         -0.2096 Debye
        Dipole field         -0.0001 Ry au
 
        Potential amp.        0.0128 Ry
        Total length         47.6094 bohr
 

     total cpu time spent up to now is      686.7 secs

     per-process dynamical memory:   116.9 Mb

     Self-consistent Calculation

     iteration #  1     ecut=    36.75 Ry     beta=0.30
     Davidson diagonalization with overlap
     ethr =  1.00E-06,  avg # of iterations = 11.2

     negative rho (up, down):  2.735E-05 0.000E+00
 
     Adding external electric field

     Computed dipole along edir(3) : 
        Dipole                0.8688 Ry au,          2.2083 Debye
        Dipole field          0.0014 Ry au
 
        Potential amp.       -0.1346 Ry
        Total length         47.6094 bohr
 

     total cpu time spent up to now is      733.5 secs

     total energy              =   -1125.47471573 Ry
     Harris-Foulkes estimate   =   -1125.49964335 Ry
     estimated scf accuracy    <       0.05208669 Ry

     iteration #  2     ecut=    36.75 Ry     beta=0.30
     Davidson diagonalization with overlap
     ethr =  3.92E-05,  avg # of iterations =  8.5

     negative rho (up, down):  2.633E-05 0.000E+00
 
     Adding external electric field

     Computed dipole along edir(3) : 
        Dipole               -0.0131 Ry au,         -0.0332 Debye
        Dipole field         -0.0000 Ry au
 
        Potential amp.        0.0020 Ry
        Total length         47.6094 bohr
 

     total cpu time spent up to now is      768.9 secs

     total energy              =   -1125.15921837 Ry
     Harris-Foulkes estimate   =   -1125.88904331 Ry
     estimated scf accuracy    <      32.91247791 Ry

     iteration #  3     ecut=    36.75 Ry     beta=0.30
     Davidson diagonalization with overlap
     ethr =  3.92E-05,  avg # of iterations =  8.7

     negative rho (up, down):  2.520E-05 0.000E+00
 
     Adding external electric field

     Computed dipole along edir(3) : 
        Dipole               -0.0317 Ry au,         -0.0805 Debye
        Dipole field         -0.0001 Ry au
 
        Potential amp.        0.0049 Ry
        Total length         47.6094 bohr
 

     total cpu time spent up to now is      805.9 secs

     total energy              =   -1125.49843103 Ry
     Harris-Foulkes estimate   =   -1125.50199419 Ry
     estimated scf accuracy    <       0.04734245 Ry

     iteration #  4     ecut=    36.75 Ry     beta=0.30
     Davidson diagonalization with overlap
     ethr =  3.56E-05,  avg # of iterations =  1.8

     negative rho (up, down):  2.321E-05 0.000E+00
 
     Adding external electric field

     Computed dipole along edir(3) : 
        Dipole               -0.0401 Ry au,         -0.1020 Debye
        Dipole field         -0.0001 Ry au
 
        Potential amp.        0.0062 Ry
        Total length         47.6094 bohr
 

     total cpu time spent up to now is      833.6 secs

     total energy              =   -1125.49967937 Ry
     Harris-Foulkes estimate   =   -1125.49984708 Ry
     estimated scf accuracy    <       0.00235145 Ry

     iteration #  5     ecut=    36.75 Ry     beta=0.30
     Davidson diagonalization with overlap
     ethr =  1.77E-06,  avg # of iterations =  8.7

     negative rho (up, down):  2.201E-05 0.000E+00
 
     Adding external electric field

     Computed dipole along edir(3) : 
        Dipole               -0.0424 Ry au,         -0.1078 Debye
        Dipole field         -0.0001 Ry au
 
        Potential amp.        0.0066 Ry
        Total length         47.6094 bohr
 

     total cpu time spent up to now is      870.2 secs

     total energy              =   -1125.50019234 Ry
     Harris-Foulkes estimate   =   -1125.50023660 Ry
     estimated scf accuracy    <       0.00054769 Ry

     iteration #  6     ecut=    36.75 Ry     beta=0.30
     Davidson diagonalization with overlap
     ethr =  4.12E-07,  avg # of iterations =  1.9

     negative rho (up, down):  1.961E-05 0.000E+00
 
     Adding external electric field

     Computed dipole along edir(3) : 
        Dipole               -0.0413 Ry au,         -0.1050 Debye
        Dipole field         -0.0001 Ry au
 
        Potential amp.        0.0064 Ry
        Total length         47.6094 bohr
 

     total cpu time spent up to now is      897.8 secs

     total energy              =   -1125.50018255 Ry
     Harris-Foulkes estimate   =   -1125.50020764 Ry
     estimated scf accuracy    <       0.00021545 Ry

     iteration #  7     ecut=    36.75 Ry     beta=0.30
     Davidson diagonalization with overlap
     ethr =  1.62E-07,  avg # of iterations =  6.2

     negative rho (up, down):  1.845E-05 0.000E+00
 
     Adding external electric field

     Computed dipole along edir(3) : 
        Dipole               -0.0419 Ry au,         -0.1065 Debye
        Dipole field         -0.0001 Ry au
 
        Potential amp.        0.0065 Ry
        Total length         47.6094 bohr
 

     total cpu time spent up to now is      930.5 secs

     total energy              =   -1125.50020676 Ry
     Harris-Foulkes estimate   =   -1125.50020809 Ry
     estimated scf accuracy    <       0.00001824 Ry

     iteration #  8     ecut=    36.75 Ry     beta=0.30
     Davidson diagonalization with overlap
     ethr =  1.37E-08,  avg # of iterations =  6.3

     negative rho (up, down):  1.744E-05 0.000E+00

     negative rho (up, down):  1.744E-05 0.000E+00

     negative rho (up, down):  1.744E-05 0.000E+00

     negative rho (up, down):  1.744E-05 0.000E+00

     negative rho (up, down):  1.744E-05 0.000E+00

     negative rho (up, down):  1.744E-05 0.000E+00

     negative rho (up, down):  1.744E-05 0.000E+00

     negative rho (up, down):  1.744E-05 0.000E+00

     negative rho (up, down):  1.744E-05 0.000E+00

     negative rho (up, down):  1.744E-05 0.000E+00

     negative rho (up, down):  1.744E-05 0.000E+00

     negative rho (up, down):  1.744E-05 0.000E+00

     negative rho (up, down):  1.744E-05 0.000E+00

     negative rho (up, down):  1.744E-05 0.000E+00

     negative rho (up, down):  1.744E-05 0.000E+00

     negative rho (up, down):  1.744E-05 0.000E+00

     negative rho (up, down):  1.744E-05 0.000E+00

     negative rho (up, down):  1.744E-05 0.000E+00

     negative rho (up, down):  1.744E-05 0.000E+00

     negative rho (up, down):  1.744E-05 0.000E+00

     negative rho (up, down):  1.744E-05 0.000E+00

     negative rho (up, down):  1.744E-05 0.000E+00

     negative rho (up, down):  1.744E-05 0.000E+00

     negative rho (up, down):  1.744E-05 0.000E+00

     negative rho (up, down):  1.744E-05 0.000E+00

     negative rho (up, down):  1.744E-05 0.000E+00

     negative rho (up, down):  1.744E-05 0.000E+00

     negative rho (up, down):  1.744E-05 0.000E+00

     negative rho (up, down):  1.744E-05 0.000E+00

     negative rho (up, down):  1.744E-05 0.000E+00

     negative rho (up, down):  1.744E-05 0.000E+00

     negative rho (up, down):  1.744E-05 0.000E+00

     negative rho (up, down):  1.744E-05 0.000E+00

     negative rho (up, down):  1.744E-05 0.000E+00

     negative rho (up, down):  1.744E-05 0.000E+00
 
     Adding external electric field

     Computed dipole along edir(3) : 
        Dipole               -0.0444 Ry au,         -0.1129 Debye
        Dipole field         -0.0001 Ry au
 
        Potential amp.        0.0069 Ry
        Total length         47.6094 bohr
 

     total cpu time spent up to now is     1045.7 secs

     End of self-consistent calculation

          k = 0.0000 0.0000 0.0000 ( 28997 PWs)   bands (ev):

   -42.3881 -42.3651 -42.3241 -42.3214 -42.3211 -42.3204 -42.2938 -42.2937
   -41.8087 -41.7708 -41.7707 -41.7475 -22.4795 -22.4794 -22.4708 -22.4638
   -22.4637 -22.4379 -22.4254 -22.3877 -22.3392 -22.3312 -22.3311 -22.3145
   -22.2866 -22.2866 -22.1468 -22.1467 -22.1441 -22.1393 -22.1393 -22.1235
   -22.0465 -22.0465 -22.0236 -22.0236 -21.9291 -21.9217 -21.9217 -21.7183
   -21.6950 -21.6949 -21.6664 -21.6332 -21.6226 -21.6226 -21.5282 -21.5282
    -3.5274  -2.9012  -1.9327  -1.1661  -0.6314  -0.6314  -0.6195  -0.5173
    -0.5172  -0.4169  -0.2411  -0.2411   0.0755   0.2945   0.3065   0.3065
     0.7134   0.7134   0.8105   1.1639   1.3513   1.5739   1.6266   1.6266
     1.6933   1.7428   1.7428   2.2229

          k = 0.0000 0.0269 0.0000 ( 29019 PWs)   bands (ev):

   -42.3871 -42.3622 -42.3258 -42.3224 -42.3213 -42.3195 -42.2957 -42.2937
   -41.8060 -41.7727 -41.7707 -41.7482 -22.4648 -22.4586 -22.4505 -22.4491
   -22.4399 -22.4297 -22.4093 -22.3848 -22.3370 -22.3312 -22.3289 -22.3163
   -22.2910 -22.2875 -22.1633 -22.1616 -22.1578 -22.1467 -22.1391 -22.1258
   -22.0764 -22.0532 -22.0524 -22.0298 -21.9141 -21.9080 -21.8997 -21.7152
   -21.6955 -21.6943 -21.6660 -21.6466 -21.6383 -21.6189 -21.5566 -21.5348
    -3.4051  -2.7963  -1.8440  -1.0532  -0.8438  -0.5782  -0.5770  -0.5365
    -0.4331  -0.3403  -0.1052  -0.0765   0.1805   0.3692   0.3904   0.3905
     0.7536   0.7565   0.8423   1.1759   1.3292   1.4769   1.5152   1.5479
     1.6088   1.6738   1.6880   2.0781

          k = 0.0000 0.0538 0.0000 ( 29058 PWs)   bands (ev):

   -42.3851 -42.3545 -42.3331 -42.3229 -42.3213 -42.3172 -42.3001 -42.2938
   -41.7989 -41.7786 -41.7707 -41.7495 -22.4299 -22.4192 -22.4159 -22.4133
   -22.3950 -22.3781 -22.3716 -22.3560 -22.3388 -22.3262 -22.3242 -22.3170
   -22.2999 -22.2899 -22.2044 -22.2033 -22.2015 -22.1801 -22.1564 -22.1270
   -22.1213 -22.1134 -22.0715 -22.0450 -21.8808 -21.8735 -21.8332 -21.7087
   -21.6977 -21.6951 -21.6830 -21.6759 -21.6652 -21.6324 -21.6021 -21.5525
    -3.1128  -2.5107  -1.6175  -1.3645  -0.7975  -0.5963  -0.4711  -0.4564
    -0.1784  -0.1420   0.0762   0.3272   0.4368   0.5656   0.6090   0.6307
     0.8375   0.8617   0.9406   1.1095   1.2304   1.3180   1.3185   1.3657
     1.4147   1.4465   1.4525   1.7461

          k = 0.0000-0.0807 0.0000 ( 29048 PWs)   bands (ev):

   -42.3841 -42.3448 -42.3427 -42.3230 -42.3213 -42.3153 -42.3030 -42.2938
   -41.7920 -41.7850 -41.7707 -41.7500 -22.4099 -22.4079 -22.3920 -22.3890
   -22.3682 -22.3598 -22.3565 -22.3243 -22.3216 -22.3204 -22.3080 -22.2917
   -22.2908 -22.2638 -22.2606 -22.2347 -22.2303 -22.2280 -22.2016 -22.1951
   -22.1035 -22.0966 -22.0960 -22.0559 -21.8587 -21.8489 -21.7417 -21.7340
   -21.7143 -21.7041 -21.6984 -21.6964 -21.6901 -21.6648 -21.5827 -21.5722
    -2.9370  -2.1074  -1.9608  -1.2921  -0.9994  -0.4091  -0.4056  -0.2942
    -0.0692   0.0111   0.0470   0.6892   0.7080   0.7423   0.7657   0.8126
     0.8465   0.9144   0.9940   1.0675   1.0808   1.0948   1.1614   1.1696
     1.3456   1.3833   1.4957   1.4994

          k = 0.0233-0.0135 0.0000 ( 29019 PWs)   bands (ev):

   -42.3871 -42.3622 -42.3258 -42.3224 -42.3213 -42.3195 -42.2957 -42.2938
   -41.8060 -41.7727 -41.7707 -41.7482 -22.4648 -22.4586 -22.4505 -22.4491
   -22.4399 -22.4297 -22.4093 -22.3848 -22.3370 -22.3311 -22.3290 -22.3163
   -22.2910 -22.2875 -22.1633 -22.1616 -22.1578 -22.1468 -22.1391 -22.1258
   -22.0764 -22.0532 -22.0524 -22.0298 -21.9141 -21.9080 -21.8997 -21.7152
   -21.6955 -21.6942 -21.6660 -21.6466 -21.6383 -21.6189 -21.5566 -21.5348
    -3.4051  -2.7963  -1.8440  -1.0532  -0.8438  -0.5782  -0.5770  -0.5365
    -0.4331  -0.3403  -0.1052  -0.0765   0.1805   0.3692   0.3904   0.3905
     0.7536   0.7565   0.8423   1.1759   1.3292   1.4769   1.5152   1.5479
     1.6088   1.6738   1.6880   2.0781

          k = 0.0233 0.0135 0.0000 ( 29019 PWs)   bands (ev):

   -42.3871 -42.3622 -42.3257 -42.3226 -42.3212 -42.3195 -42.2956 -42.2938
   -41.8060 -41.7727 -41.7708 -41.7482 -22.4648 -22.4585 -22.4506 -22.4491
   -22.4399 -22.4297 -22.4093 -22.3848 -22.3370 -22.3312 -22.3288 -22.3163
   -22.2910 -22.2876 -22.1634 -22.1615 -22.1578 -22.1468 -22.1391 -22.1257
   -22.0764 -22.0532 -22.0524 -22.0298 -21.9141 -21.9080 -21.8997 -21.7152
   -21.6954 -21.6943 -21.6660 -21.6466 -21.6382 -21.6189 -21.5566 -21.5348
    -3.4051  -2.7963  -1.8440  -1.0532  -0.8438  -0.5782  -0.5770  -0.5365
    -0.4331  -0.3403  -0.1052  -0.0765   0.1805   0.3692   0.3904   0.3905
     0.7536   0.7565   0.8423   1.1759   1.3292   1.4769   1.5152   1.5479
     1.6088   1.6738   1.6880   2.0781

          k = 0.0233 0.0404 0.0000 ( 29087 PWs)   bands (ev):

   -42.3856 -42.3569 -42.3286 -42.3267 -42.3195 -42.3178 -42.2991 -42.2936
   -41.8011 -41.7760 -41.7714 -41.7491 -22.4411 -22.4289 -22.4208 -22.4142
   -22.4073 -22.3998 -22.3806 -22.3753 -22.3354 -22.3328 -22.3239 -22.3173
   -22.2988 -22.2883 -22.2141 -22.2039 -22.1484 -22.1472 -22.1409 -22.1368
   -22.1297 -22.0997 -22.0673 -22.0430 -21.8940 -21.8680 -21.8661 -21.7105
   -21.6983 -21.6936 -21.6898 -21.6655 -21.6307 -21.6252 -21.6068 -21.5485
    -3.1950  -2.6015  -1.6750  -1.0047  -0.9983  -0.7985  -0.5339  -0.4210
    -0.2100  -0.1188   0.0746   0.1667   0.3433   0.5006   0.5386   0.5614
     0.8207   0.8392   0.9007   1.1576   1.2503   1.3227   1.3877   1.4531
     1.4637   1.5276   1.5675   1.7492

          k = 0.0233-0.0942 0.0000 ( 29098 PWs)   bands (ev):

   -42.3841 -42.3478 -42.3370 -42.3290 -42.3182 -42.3147 -42.3041 -42.2933
   -41.7932 -41.7823 -41.7725 -41.7497 -22.4104 -22.4021 -22.3914 -22.3715
   -22.3675 -22.3539 -22.3508 -22.3331 -22.3282 -22.3196 -22.3162 -22.3085
   -22.3017 -22.2905 -22.2719 -22.2561 -22.2190 -22.1986 -22.1713 -22.1499
   -22.1225 -22.1156 -22.0929 -22.0631 -21.8587 -21.8308 -21.7895 -21.7481
   -21.7046 -21.7003 -21.6931 -21.6912 -21.6650 -21.6488 -21.6033 -21.5731
    -2.9498  -2.2230  -1.6389  -1.3193  -1.0409  -0.8131  -0.4272  -0.2838
     0.0753   0.1158   0.2280   0.4946   0.5774   0.6968   0.7460   0.7963
     0.8738   0.9544   0.9952   1.0569   1.1351   1.1888   1.2392   1.2787
     1.3317   1.3799   1.4128   1.4998

          k = 0.0233-0.0673 0.0000 ( 29098 PWs)   bands (ev):

   -42.3841 -42.3478 -42.3370 -42.3289 -42.3182 -42.3147 -42.3041 -42.2932
   -41.7932 -41.7823 -41.7725 -41.7497 -22.4104 -22.4021 -22.3914 -22.3715
   -22.3675 -22.3540 -22.3508 -22.3330 -22.3283 -22.3196 -22.3162 -22.3085
   -22.3017 -22.2905 -22.2719 -22.2560 -22.2190 -22.1987 -22.1713 -22.1499
   -22.1225 -22.1156 -22.0929 -22.0631 -21.8587 -21.8308 -21.7895 -21.7481
   -21.7045 -21.7003 -21.6931 -21.6912 -21.6650 -21.6488 -21.6033 -21.5731
    -2.9498  -2.2230  -1.6389  -1.3193  -1.0409  -0.8131  -0.4272  -0.2838
     0.0753   0.1158   0.2280   0.4946   0.5774   0.6968   0.7460   0.7963
     0.8739   0.9544   0.9952   1.0569   1.1351   1.1888   1.2392   1.2787
     1.3317   1.3799   1.4128   1.4998

          k = 0.0233-0.0404 0.0000 ( 29087 PWs)   bands (ev):

   -42.3856 -42.3569 -42.3288 -42.3265 -42.3195 -42.3178 -42.2992 -42.2935
   -41.8011 -41.7761 -41.7714 -41.7491 -22.4411 -22.4289 -22.4208 -22.4142
   -22.4073 -22.3998 -22.3806 -22.3753 -22.3355 -22.3327 -22.3240 -22.3173
   -22.2989 -22.2883 -22.2141 -22.2039 -22.1485 -22.1472 -22.1410 -22.1368
   -22.1297 -22.0997 -22.0673 -22.0429 -21.8940 -21.8681 -21.8661 -21.7105
   -21.6984 -21.6935 -21.6898 -21.6655 -21.6308 -21.6252 -21.6068 -21.5485
    -3.1950  -2.6015  -1.6750  -1.0047  -0.9983  -0.7985  -0.5339  -0.4210
    -0.2100  -0.1188   0.0747   0.1667   0.3434   0.5006   0.5386   0.5615
     0.8207   0.8392   0.9007   1.1576   1.2503   1.3226   1.3877   1.4531
     1.4637   1.5276   1.5675   1.7492

          k = 0.0466-0.0269 0.0000 ( 29058 PWs)   bands (ev):

   -42.3851 -42.3545 -42.3331 -42.3229 -42.3214 -42.3172 -42.3001 -42.2938
   -41.7989 -41.7786 -41.7707 -41.7495 -22.4299 -22.4192 -22.4159 -22.4132
   -22.3950 -22.3781 -22.3716 -22.3560 -22.3388 -22.3262 -22.3243 -22.3170
   -22.2998 -22.2899 -22.2044 -22.2033 -22.2016 -22.1801 -22.1564 -22.1270
   -22.1213 -22.1134 -22.0715 -22.0451 -21.8808 -21.8735 -21.8332 -21.7087
   -21.6977 -21.6951 -21.6829 -21.6759 -21.6652 -21.6324 -21.6021 -21.5525
    -3.1129  -2.5107  -1.6175  -1.3645  -0.7975  -0.5963  -0.4711  -0.4564
    -0.1784  -0.1420   0.0762   0.3272   0.4368   0.5656   0.6090   0.6307
     0.8375   0.8617   0.9406   1.1095   1.2304   1.3180   1.3185   1.3657
     1.4147   1.4465   1.4524   1.7461

          k = 0.0466 0.0000 0.0000 ( 29087 PWs)   bands (ev):

   -42.3856 -42.3569 -42.3287 -42.3267 -42.3195 -42.3178 -42.2991 -42.2936
   -41.8011 -41.7760 -41.7714 -41.7491 -22.4410 -22.4289 -22.4208 -22.4142
   -22.4073 -22.3998 -22.3806 -22.3753 -22.3354 -22.3328 -22.3239 -22.3173
   -22.2988 -22.2883 -22.2141 -22.2039 -22.1484 -22.1472 -22.1409 -22.1368
   -22.1297 -22.0997 -22.0673 -22.0430 -21.8940 -21.8681 -21.8661 -21.7105
   -21.6984 -21.6935 -21.6898 -21.6655 -21.6308 -21.6252 -21.6068 -21.5485
    -3.1950  -2.6015  -1.6750  -1.0047  -0.9983  -0.7985  -0.5339  -0.4210
    -0.2100  -0.1188   0.0747   0.1667   0.3433   0.5006   0.5386   0.5614
     0.8207   0.8392   0.9007   1.1576   1.2503   1.3226   1.3877   1.4531
     1.4637   1.5276   1.5675   1.7492

          k = 0.0466 0.0269 0.0000 ( 29058 PWs)   bands (ev):

   -42.3851 -42.3545 -42.3331 -42.3231 -42.3212 -42.3172 -42.3000 -42.2938
   -41.7989 -41.7785 -41.7708 -41.7495 -22.4299 -22.4192 -22.4159 -22.4133
   -22.3951 -22.3781 -22.3716 -22.3560 -22.3388 -22.3263 -22.3241 -22.3170
   -22.2998 -22.2899 -22.2044 -22.2034 -22.2014 -22.1801 -22.1564 -22.1269
   -22.1213 -22.1133 -22.0715 -22.0451 -21.8808 -21.8735 -21.8332 -21.7087
   -21.6977 -21.6952 -21.6830 -21.6758 -21.6652 -21.6324 -21.6021 -21.5525
    -3.1128  -2.5107  -1.6175  -1.3645  -0.7975  -0.5963  -0.4711  -0.4564
    -0.1784  -0.1420   0.0762   0.3272   0.4368   0.5656   0.6090   0.6307
     0.8375   0.8617   0.9406   1.1095   1.2304   1.3179   1.3185   1.3657
     1.4147   1.4465   1.4524   1.7461

          k = 0.0466-0.1076 0.0000 ( 29098 PWs)   bands (ev):

   -42.3841 -42.3478 -42.3369 -42.3290 -42.3181 -42.3148 -42.3040 -42.2933
   -41.7932 -41.7823 -41.7725 -41.7497 -22.4104 -22.4021 -22.3913 -22.3715
   -22.3675 -22.3539 -22.3508 -22.3331 -22.3282 -22.3196 -22.3162 -22.3085
   -22.3017 -22.2905 -22.2719 -22.2561 -22.2190 -22.1986 -22.1713 -22.1499
   -22.1225 -22.1156 -22.0929 -22.0631 -21.8587 -21.8308 -21.7895 -21.7481
   -21.7046 -21.7002 -21.6931 -21.6912 -21.6650 -21.6488 -21.6033 -21.5731
    -2.9498  -2.2230  -1.6389  -1.3193  -1.0409  -0.8131  -0.4272  -0.2838
     0.0753   0.1158   0.2280   0.4946   0.5774   0.6968   0.7460   0.7963
     0.8738   0.9544   0.9952   1.0569   1.1351   1.1888   1.2392   1.2787
     1.3317   1.3799   1.4128   1.4998

          k = 0.0466-0.0807 0.0000 ( 29103 PWs)   bands (ev):

   -42.3836 -42.3404 -42.3375 -42.3372 -42.3167 -42.3111 -42.3087 -42.2928
   -41.7867 -41.7866 -41.7748 -41.7496 -22.4073 -22.3600 -22.3574 -22.3536
   -22.3495 -22.3456 -22.3401 -22.3397 -22.3279 -22.3170 -22.3117 -22.2969
   -22.2934 -22.2926 -22.2873 -22.2716 -22.2710 -22.2613 -22.1304 -22.1303
   -22.1302 -22.1266 -22.1241 -22.0846 -21.8126 -21.8126 -21.7717 -21.7622
   -21.7617 -21.7007 -21.6997 -21.6935 -21.6647 -21.6145 -21.6077 -21.6077
    -2.8754  -1.7491  -1.7326  -1.6172  -0.9546  -0.9316  -0.6629   0.0627
     0.0717   0.3641   0.4357   0.4869   0.4901   0.7868   0.7980   0.9109
     0.9126   0.9802   1.0333   1.0365   1.1351   1.1754   1.1915   1.1938
     1.3584   1.3716   1.3971   1.4101

          k = 0.0466-0.0538 0.0000 ( 29098 PWs)   bands (ev):

   -42.3841 -42.3478 -42.3370 -42.3289 -42.3182 -42.3147 -42.3041 -42.2933
   -41.7932 -41.7824 -41.7724 -41.7497 -22.4104 -22.4021 -22.3914 -22.3715
   -22.3675 -22.3540 -22.3508 -22.3330 -22.3283 -22.3196 -22.3162 -22.3085
   -22.3017 -22.2905 -22.2719 -22.2560 -22.2190 -22.1987 -22.1713 -22.1499
   -22.1225 -22.1156 -22.0929 -22.0631 -21.8586 -21.8308 -21.7895 -21.7481
   -21.7045 -21.7003 -21.6931 -21.6912 -21.6650 -21.6488 -21.6033 -21.5732
    -2.9498  -2.2230  -1.6389  -1.3193  -1.0409  -0.8131  -0.4272  -0.2838
     0.0753   0.1158   0.2280   0.4946   0.5774   0.6968   0.7460   0.7963
     0.8738   0.9544   0.9952   1.0569   1.1351   1.1888   1.2392   1.2788
     1.3317   1.3799   1.4128   1.4998

          k =-0.0699 0.0404 0.0000 ( 29048 PWs)   bands (ev):

   -42.3841 -42.3447 -42.3428 -42.3229 -42.3214 -42.3153 -42.3030 -42.2938
   -41.7920 -41.7850 -41.7707 -41.7500 -22.4099 -22.4079 -22.3921 -22.3890
   -22.3682 -22.3598 -22.3566 -22.3243 -22.3216 -22.3204 -22.3079 -22.2917
   -22.2908 -22.2637 -22.2606 -22.2348 -22.2302 -22.2281 -22.2017 -22.1951
   -22.1035 -22.0965 -22.0960 -22.0559 -21.8587 -21.8489 -21.7417 -21.7341
   -21.7142 -21.7041 -21.6985 -21.6964 -21.6901 -21.6648 -21.5827 -21.5722
    -2.9370  -2.1074  -1.9608  -1.2921  -0.9995  -0.4091  -0.4056  -0.2941
    -0.0692   0.0110   0.0470   0.6892   0.7080   0.7424   0.7657   0.8126
     0.8465   0.9145   0.9940   1.0675   1.0808   1.0948   1.1614   1.1696
     1.3456   1.3832   1.4957   1.4994

          k =-0.0699 0.0673 0.0000 ( 29098 PWs)   bands (ev):

   -42.3841 -42.3478 -42.3370 -42.3289 -42.3182 -42.3148 -42.3041 -42.2933
   -41.7932 -41.7824 -41.7725 -41.7497 -22.4104 -22.4021 -22.3914 -22.3715
   -22.3675 -22.3540 -22.3508 -22.3330 -22.3282 -22.3196 -22.3162 -22.3085
   -22.3017 -22.2905 -22.2719 -22.2561 -22.2190 -22.1986 -22.1713 -22.1499
   -22.1225 -22.1156 -22.0929 -22.0631 -21.8586 -21.8308 -21.7895 -21.7481
   -21.7045 -21.7003 -21.6931 -21.6912 -21.6650 -21.6488 -21.6033 -21.5732
    -2.9498  -2.2230  -1.6389  -1.3193  -1.0409  -0.8131  -0.4272  -0.2838
     0.0753   0.1158   0.2280   0.4946   0.5774   0.6968   0.7460   0.7963
     0.8738   0.9544   0.9952   1.0569   1.1351   1.1888   1.2392   1.2787
     1.3317   1.3799   1.4128   1.4998

          k =-0.0699 0.0942 0.0000 ( 29098 PWs)   bands (ev):

   -42.3841 -42.3478 -42.3369 -42.3290 -42.3181 -42.3148 -42.3040 -42.2933
   -41.7932 -41.7823 -41.7725 -41.7497 -22.4104 -22.4021 -22.3913 -22.3715
   -22.3675 -22.3539 -22.3509 -22.3330 -22.3283 -22.3196 -22.3162 -22.3085
   -22.3017 -22.2905 -22.2719 -22.2561 -22.2190 -22.1986 -22.1713 -22.1499
   -22.1225 -22.1156 -22.0929 -22.0631 -21.8587 -21.8308 -21.7895 -21.7481
   -21.7046 -21.7002 -21.6931 -21.6912 -21.6650 -21.6488 -21.6033 -21.5731
    -2.9498  -2.2230  -1.6389  -1.3193  -1.0409  -0.8131  -0.4272  -0.2838
     0.0753   0.1158   0.2280   0.4946   0.5774   0.6968   0.7460   0.7963
     0.8739   0.9544   0.9952   1.0569   1.1351   1.1888   1.2392   1.2788
     1.3317   1.3799   1.4128   1.4998

          k =-0.0699-0.0404 0.0000 ( 29048 PWs)   bands (ev):

   -42.3841 -42.3449 -42.3426 -42.3232 -42.3212 -42.3154 -42.3029 -42.2938
   -41.7920 -41.7849 -41.7708 -41.7500 -22.4099 -22.4079 -22.3919 -22.3891
   -22.3682 -22.3598 -22.3565 -22.3245 -22.3214 -22.3205 -22.3078 -22.2918
   -22.2908 -22.2639 -22.2605 -22.2348 -22.2304 -22.2279 -22.2017 -22.1950
   -22.1034 -22.0967 -22.0958 -22.0560 -21.8587 -21.8488 -21.7418 -21.7340
   -21.7143 -21.7042 -21.6984 -21.6963 -21.6901 -21.6648 -21.5828 -21.5722
    -2.9370  -2.1074  -1.9608  -1.2921  -0.9995  -0.4091  -0.4056  -0.2942
    -0.0692   0.0111   0.0470   0.6892   0.7080   0.7424   0.7657   0.8126
     0.8465   0.9144   0.9940   1.0675   1.0808   1.0948   1.1615   1.1696
     1.3456   1.3832   1.4957   1.4994

     the Fermi energy is     0.9789 ev

!    total energy              =   -1125.50020282 Ry
     Harris-Foulkes estimate   =   -1125.50020827 Ry
     estimated scf accuracy    <       0.00000831 Ry

     The total energy is the sum of the following terms:

     one-electron contribution =   -5401.10330326 Ry
     hartree contribution      =    2692.68176756 Ry
     xc contribution           =    -339.54620915 Ry
     ewald contribution        =    1922.59630355 Ry
     electric field correction =       0.00000321 Ry
     smearing contrib. (-TS)   =      -0.12876473 Ry

     convergence has been achieved in   8 iterations
 
 BEEF-vdW xc energy contributions
           1 :   -296.205925114754     
           2 :    266.038840401962     
           3 :   -214.056626357570     
           4 :    153.006470213930     
           5 :   -94.7998983920987     
           6 :    46.9395512668087     
           7 :   -11.9581166706707     
           8 :   -10.8330473726903     
           9 :    23.0883413968348     
          10 :   -26.1869740248018     
          11 :    21.3782447110082     
          12 :   -10.6349821115212     
          13 :   -2.83134878577289     
          14 :    15.0324521421370     
          15 :   -22.4832222250586     
          16 :    23.4971801104242     
          17 :   -18.6661315545920     
          18 :    10.2622544686247     
          19 :   -1.02561189335063     
          20 :   -6.88934943355690     
          21 :    12.3086852798131     
          22 :   -14.8394350265662     
          23 :    14.5056546522415     
          24 :   -11.5971757528356     
          25 :    6.76995749840592     
          26 :   -1.14742400502735     
          27 :   -3.84751482495494     
          28 :    6.95737692613659     
          29 :   -7.60080255468768     
          30 :    6.09179409237959     
          31 :   -28.3080231475400     
          32 :   -19.3551642633317     

     Forces acting on atoms (Ry/au):


     negative rho (up, down):  1.744E-05 0.000E+00
     atom    1 type  1   force =    -0.00025103   -0.00016742    0.00568231
     atom    2 type  1   force =     0.00025209   -0.00013866    0.00566620
     atom    3 type  1   force =     0.00002308    0.00029800    0.00566973
     atom    4 type  1   force =    -0.00002367    0.00000807    0.00530307
     atom    5 type  1   force =     0.00003504   -0.00012505    0.00021227
     atom    6 type  1   force =    -0.00003305   -0.00001420   -0.00518975
     atom    7 type  1   force =     0.00008733    0.00004450    0.00024338
     atom    8 type  1   force =    -0.00009236    0.00008998    0.00020542
     atom    9 type  1   force =     0.00001179    0.00000226   -0.01184376
     atom   10 type  1   force =    -0.00000843    0.01967553    0.00655642
     atom   11 type  1   force =     0.01703887   -0.00984309    0.00655508
     atom   12 type  1   force =    -0.01703675   -0.00982713    0.00656102
     atom   13 type  2   force =    -0.00000291   -0.00000279   -0.02562139

     Total force =     0.045683     Total SCF correction =     0.005759
     SCF correction compared to forces is large: reduce conv_thr to get better values


     entering subroutine stress ...


     negative rho (up, down):  1.744E-05 0.000E+00
          total   stress  (Ry/bohr**3)                   (kbar)     P=   -4.22
  -0.00002563  -0.00000000  -0.00000000         -3.77     -0.00     -0.00
  -0.00000000  -0.00002563  -0.00000000         -0.00     -3.77     -0.00
  -0.00000000  -0.00000000  -0.00003486         -0.00     -0.00     -5.13


     number of scf cycles    =   2
     number of bfgs steps    =   1

     energy   old            =   -1125.4977910649 Ry
     energy   new            =   -1125.5002028201 Ry

     CASE: energy  _new < energy  _old


     WARNING: bfgs curvature condition failed, Theta= 0.878
     new trust radius        =       0.0303360390 bohr
     new conv_thr            =       0.0000001000 Ry


ATOMIC_POSITIONS (crystal)
Y1       0.166666667   0.166666667   0.386999750    0   0   0
Y1       0.666666667   0.166666667   0.386999750    0   0   0
Y1       0.166666667   0.666666667   0.386999750    0   0   0
Y1       0.666666667   0.666666667   0.386999750    0   0   0
Y1       0.833333333   0.333333333   0.500000000    0   0   0
Y1       0.333333333   0.333333333   0.500000000    0   0   0
Y1       0.833333333   0.833333333   0.500000000    0   0   0
Y1       0.333333333   0.833333333   0.500000000    0   0   0
Y1       0.000004365  -0.000006688   0.612465101
Y1       0.498067375   0.003861933   0.613318284
Y1       0.003866415   0.498071442   0.613319233
Y1       0.498062738   0.498073790   0.613320449
H1       0.333333029   0.333333162   0.667406729



     Writing output data file calc.save
     Check: negative starting charge=   -0.000597
     NEW-OLD atomic charge density approx. for the potential
     Check: negative starting charge=   -0.000597

     negative rho (up, down):  3.681E-05 0.000E+00
 
     Adding external electric field

     Computed dipole along edir(3) : 
        Dipole               -0.0444 Ry au,         -0.1128 Debye
        Dipole field         -0.0001 Ry au
 
        Potential amp.        0.0069 Ry
        Total length         47.6094 bohr
 

     total cpu time spent up to now is     1147.1 secs

     per-process dynamical memory:   116.9 Mb

     Self-consistent Calculation

     iteration #  1     ecut=    36.75 Ry     beta=0.30
     Davidson diagonalization with overlap
     ethr =  1.00E-06,  avg # of iterations =  9.5

     negative rho (up, down):  2.828E-05 0.000E+00
 
     Adding external electric field

     Computed dipole along edir(3) : 
        Dipole                0.1077 Ry au,          0.2736 Debye
        Dipole field          0.0002 Ry au
 
        Potential amp.       -0.0167 Ry
        Total length         47.6094 bohr
 

     total cpu time spent up to now is     1188.5 secs

     total energy              =   -1125.50105715 Ry
     Harris-Foulkes estimate   =   -1125.50277349 Ry
     estimated scf accuracy    <       0.00367249 Ry

     iteration #  2     ecut=    36.75 Ry     beta=0.30
     Davidson diagonalization with overlap
     ethr =  2.76E-06,  avg # of iterations =  9.1

     negative rho (up, down):  2.513E-05 0.000E+00
 
     Adding external electric field

     Computed dipole along edir(3) : 
        Dipole               -0.0656 Ry au,         -0.1668 Debye
        Dipole field         -0.0001 Ry au
 
        Potential amp.        0.0102 Ry
        Total length         47.6094 bohr
 

     total cpu time spent up to now is     1225.6 secs

     total energy              =   -1125.49007354 Ry
     Harris-Foulkes estimate   =   -1125.51426097 Ry
     estimated scf accuracy    <       0.93228831 Ry

     iteration #  3     ecut=    36.75 Ry     beta=0.30
     Davidson diagonalization with overlap
     ethr =  2.76E-06,  avg # of iterations =  8.7

     negative rho (up, down):  2.465E-05 0.000E+00
 
     Adding external electric field

     Computed dipole along edir(3) : 
        Dipole               -0.0345 Ry au,         -0.0877 Debye
        Dipole field         -0.0001 Ry au
 
        Potential amp.        0.0053 Ry
        Total length         47.6094 bohr
 

     total cpu time spent up to now is     1264.3 secs

     total energy              =   -1125.50088089 Ry
     Harris-Foulkes estimate   =   -1125.50414700 Ry
     estimated scf accuracy    <       0.06295642 Ry

     iteration #  4     ecut=    36.75 Ry     beta=0.30
     Davidson diagonalization with overlap
     ethr =  2.76E-06,  avg # of iterations =  7.5

     negative rho (up, down):  2.277E-05 0.000E+00
 
     Adding external electric field

     Computed dipole along edir(3) : 
        Dipole               -0.0353 Ry au,         -0.0896 Debye
        Dipole field         -0.0001 Ry au
 
        Potential amp.        0.0055 Ry
        Total length         47.6094 bohr
 

     total cpu time spent up to now is     1302.1 secs

     total energy              =   -1125.50252659 Ry
     Harris-Foulkes estimate   =   -1125.50258791 Ry
     estimated scf accuracy    <       0.00037216 Ry

     iteration #  5     ecut=    36.75 Ry     beta=0.30
     Davidson diagonalization with overlap
     ethr =  2.80E-07,  avg # of iterations =  6.2

     negative rho (up, down):  2.062E-05 0.000E+00
 
     Adding external electric field

     Computed dipole along edir(3) : 
        Dipole               -0.0350 Ry au,         -0.0890 Debye
        Dipole field         -0.0001 Ry au
 
        Potential amp.        0.0054 Ry
        Total length         47.6094 bohr
 

     total cpu time spent up to now is     1337.7 secs

     total energy              =   -1125.50256741 Ry
     Harris-Foulkes estimate   =   -1125.50257340 Ry
     estimated scf accuracy    <       0.00003413 Ry

     iteration #  6     ecut=    36.75 Ry     beta=0.30
     Davidson diagonalization with overlap
     ethr =  2.57E-08,  avg # of iterations =  8.2

     negative rho (up, down):  1.853E-05 0.000E+00
 
     Adding external electric field

     Computed dipole along edir(3) : 
        Dipole               -0.0346 Ry au,         -0.0881 Debye
        Dipole field         -0.0001 Ry au
 
        Potential amp.        0.0054 Ry
        Total length         47.6094 bohr
 

     total cpu time spent up to now is     1375.9 secs

     total energy              =   -1125.50257055 Ry
     Harris-Foulkes estimate   =   -1125.50257348 Ry
     estimated scf accuracy    <       0.00000936 Ry

     iteration #  7     ecut=    36.75 Ry     beta=0.30
     Davidson diagonalization with overlap
     ethr =  7.03E-09,  avg # of iterations =  8.2

     negative rho (up, down):  1.791E-05 0.000E+00
 
     Adding external electric field

     Computed dipole along edir(3) : 
        Dipole               -0.0349 Ry au,         -0.0888 Debye
        Dipole field         -0.0001 Ry au
 
        Potential amp.        0.0054 Ry
        Total length         47.6094 bohr
 

     total cpu time spent up to now is     1412.8 secs

     total energy              =   -1125.50257159 Ry
     Harris-Foulkes estimate   =   -1125.50257162 Ry
     estimated scf accuracy    <       0.00000239 Ry

     iteration #  8     ecut=    36.75 Ry     beta=0.30
     Davidson diagonalization with overlap
     ethr =  1.80E-09,  avg # of iterations =  7.5

     negative rho (up, down):  1.777E-05 0.000E+00
 
     Adding external electric field

     Computed dipole along edir(3) : 
        Dipole               -0.0351 Ry au,         -0.0892 Debye
        Dipole field         -0.0001 Ry au
 
        Potential amp.        0.0054 Ry
        Total length         47.6094 bohr
 

     total cpu time spent up to now is     1450.0 secs

     total energy              =   -1125.50257204 Ry
     Harris-Foulkes estimate   =   -1125.50257198 Ry
     estimated scf accuracy    <       0.00000068 Ry

     iteration #  9     ecut=    36.75 Ry     beta=0.30
     Davidson diagonalization with overlap
     ethr =  5.10E-10,  avg # of iterations =  5.3

     negative rho (up, down):  1.771E-05 0.000E+00
 
     Adding external electric field

     Computed dipole along edir(3) : 
        Dipole               -0.0353 Ry au,         -0.0896 Debye
        Dipole field         -0.0001 Ry au
 
        Potential amp.        0.0055 Ry
        Total length         47.6094 bohr
 

     total cpu time spent up to now is     1483.9 secs

     total energy              =   -1125.50257216 Ry
     Harris-Foulkes estimate   =   -1125.50257210 Ry
     estimated scf accuracy    <       0.00000015 Ry

     iteration # 10     ecut=    36.75 Ry     beta=0.30
     Davidson diagonalization with overlap
     ethr =  1.10E-10,  avg # of iterations =  8.4

     negative rho (up, down):  1.759E-05 0.000E+00

     negative rho (up, down):  1.759E-05 0.000E+00

     negative rho (up, down):  1.759E-05 0.000E+00

     negative rho (up, down):  1.759E-05 0.000E+00

     negative rho (up, down):  1.759E-05 0.000E+00

     negative rho (up, down):  1.759E-05 0.000E+00

     negative rho (up, down):  1.759E-05 0.000E+00

     negative rho (up, down):  1.759E-05 0.000E+00

     negative rho (up, down):  1.759E-05 0.000E+00

     negative rho (up, down):  1.759E-05 0.000E+00

     negative rho (up, down):  1.759E-05 0.000E+00

     negative rho (up, down):  1.759E-05 0.000E+00

     negative rho (up, down):  1.759E-05 0.000E+00

     negative rho (up, down):  1.759E-05 0.000E+00

     negative rho (up, down):  1.759E-05 0.000E+00

     negative rho (up, down):  1.759E-05 0.000E+00

     negative rho (up, down):  1.759E-05 0.000E+00

     negative rho (up, down):  1.759E-05 0.000E+00

     negative rho (up, down):  1.759E-05 0.000E+00

     negative rho (up, down):  1.759E-05 0.000E+00

     negative rho (up, down):  1.759E-05 0.000E+00

     negative rho (up, down):  1.759E-05 0.000E+00

     negative rho (up, down):  1.759E-05 0.000E+00

     negative rho (up, down):  1.759E-05 0.000E+00

     negative rho (up, down):  1.759E-05 0.000E+00

     negative rho (up, down):  1.759E-05 0.000E+00

     negative rho (up, down):  1.759E-05 0.000E+00

     negative rho (up, down):  1.759E-05 0.000E+00

     negative rho (up, down):  1.759E-05 0.000E+00

     negative rho (up, down):  1.759E-05 0.000E+00

     negative rho (up, down):  1.759E-05 0.000E+00

     negative rho (up, down):  1.759E-05 0.000E+00

     negative rho (up, down):  1.759E-05 0.000E+00

     negative rho (up, down):  1.759E-05 0.000E+00

     negative rho (up, down):  1.759E-05 0.000E+00
 
[...]
     1.5189   1.5766   1.6075   1.7840

          k = 0.0233-0.0942 0.0000 ( 29098 PWs)   bands (ev):

   -42.3110 -42.2993 -42.2908 -42.2799 -42.2587 -42.2402 -42.2319 -42.1931
   -41.7350 -41.7242 -41.7144 -41.6929 -22.3574 -22.3359 -22.3318 -22.3206
   -22.3125 -22.2959 -22.2882 -22.2815 -22.2775 -22.2721 -22.2549 -22.2428
   -22.2391 -22.2357 -22.2174 -22.1800 -22.1668 -22.1328 -22.1109 -22.0841
   -22.0588 -22.0546 -22.0165 -21.9832 -21.7983 -21.7722 -21.7299 -21.6894
   -21.6491 -21.6421 -21.6392 -21.6344 -21.6034 -21.5915 -21.5451 -21.5162
    -3.4930  -2.2108  -1.5944  -1.2810  -0.9963  -0.7689  -0.3767  -0.2313
     0.1097   0.1621   0.2711   0.5317   0.6164   0.7378   0.7791   0.8727
     0.9040   0.9884   1.0326   1.0779   1.1859   1.2137   1.2998   1.3264
     1.3631   1.4197   1.4624   1.5343

          k = 0.0233-0.0673 0.0000 ( 29098 PWs)   bands (ev):

   -42.3110 -42.2993 -42.2908 -42.2799 -42.2587 -42.2402 -42.2319 -42.1931
   -41.7350 -41.7242 -41.7144 -41.6929 -22.3574 -22.3359 -22.3318 -22.3206
   -22.3125 -22.2959 -22.2882 -22.2815 -22.2775 -22.2721 -22.2549 -22.2428
   -22.2391 -22.2357 -22.2174 -22.1800 -22.1668 -22.1328 -22.1109 -22.0841
   -22.0588 -22.0546 -22.0165 -21.9832 -21.7983 -21.7722 -21.7299 -21.6894
   -21.6491 -21.6421 -21.6392 -21.6344 -21.6034 -21.5915 -21.5451 -21.5162
    -3.4930  -2.2108  -1.5944  -1.2810  -0.9963  -0.7689  -0.3767  -0.2313
     0.1097   0.1621   0.2711   0.5317   0.6164   0.7378   0.7791   0.8727
     0.9040   0.9884   1.0326   1.0779   1.1859   1.2137   1.2998   1.3264
     1.3631   1.4197   1.4624   1.5343

          k = 0.0233-0.0404 0.0000 ( 29087 PWs)   bands (ev):

   -42.3196 -42.2925 -42.2877 -42.2811 -42.2644 -42.2357 -42.2312 -42.1924
   -41.7429 -41.7178 -41.7133 -41.6923 -22.3972 -22.3696 -22.3690 -22.3585
   -22.3490 -22.3240 -22.3148 -22.2979 -22.2929 -22.2845 -22.2826 -22.2434
   -22.2374 -22.2226 -22.1754 -22.1151 -22.1106 -22.1083 -22.0913 -22.0529
   -22.0400 -22.0291 -22.0140 -21.9605 -21.8336 -21.8105 -21.8041 -21.6534
   -21.6419 -21.6398 -21.6334 -21.6036 -21.5728 -21.5666 -21.5499 -21.4913
    -3.6265  -2.6673  -1.6782  -0.9623  -0.9501  -0.7412  -0.4931  -0.3724
    -0.1699  -0.0824   0.1170   0.2056   0.4237   0.5254   0.5995   0.6286
     0.8652   0.8908   0.9456   1.1986   1.2874   1.3632   1.4303   1.4918
     1.5189   1.5766   1.6075   1.7840

          k = 0.0466-0.0269 0.0000 ( 29058 PWs)   bands (ev):

   -42.3172 -42.2958 -42.2855 -42.2823 -42.2627 -42.2376 -42.2308 -42.1927
   -41.7407 -41.7204 -41.7126 -41.6927 -22.3801 -22.3788 -22.3519 -22.3414
   -22.3327 -22.3210 -22.3056 -22.2907 -22.2869 -22.2838 -22.2758 -22.2483
   -22.2342 -22.2243 -22.1655 -22.1623 -22.1179 -22.1149 -22.0896 -22.0829
   -22.0423 -22.0333 -22.0168 -21.9632 -21.8188 -21.8157 -21.7734 -21.6520
   -21.6419 -21.6403 -21.6267 -21.6171 -21.6034 -21.5755 -21.5440 -21.4954
    -3.5813  -2.5527  -1.5985  -1.3269  -0.7399  -0.5519  -0.4236  -0.4148
    -0.1410  -0.1049   0.1340   0.3573   0.5023   0.5876   0.6607   0.6996
     0.8820   0.9189   0.9736   1.1532   1.2691   1.3523   1.3710   1.4128
     1.4538   1.4794   1.5142   1.7760

          k = 0.0466 0.0000 0.0000 ( 29087 PWs)   bands (ev):

   -42.3196 -42.2925 -42.2877 -42.2811 -42.2644 -42.2358 -42.2312 -42.1924
   -41.7429 -41.7178 -41.7133 -41.6923 -22.3972 -22.3696 -22.3690 -22.3585
   -22.3490 -22.3240 -22.3148 -22.2979 -22.2929 -22.2845 -22.2826 -22.2434
   -22.2374 -22.2226 -22.1754 -22.1151 -22.1106 -22.1083 -22.0913 -22.0529
   -22.0400 -22.0291 -22.0140 -21.9605 -21.8336 -21.8105 -21.8041 -21.6534
   -21.6419 -21.6398 -21.6334 -21.6036 -21.5728 -21.5666 -21.5499 -21.4913
    -3.6265  -2.6673  -1.6782  -0.9623  -0.9501  -0.7412  -0.4931  -0.3724
    -0.1699  -0.0824   0.1170   0.2056   0.4237   0.5254   0.5995   0.6286
     0.8652   0.8908   0.9456   1.1986   1.2874   1.3632   1.4303   1.4918
     1.5189   1.5766   1.6075   1.7840

          k = 0.0466 0.0269 0.0000 ( 29058 PWs)   bands (ev):

   -42.3172 -42.2958 -42.2855 -42.2823 -42.2627 -42.2376 -42.2308 -42.1927
   -41.7407 -41.7204 -41.7126 -41.6927 -22.3801 -22.3788 -22.3519 -22.3414
   -22.3327 -22.3210 -22.3056 -22.2907 -22.2869 -22.2838 -22.2758 -22.2483
   -22.2342 -22.2243 -22.1655 -22.1623 -22.1179 -22.1149 -22.0896 -22.0829
   -22.0424 -22.0333 -22.0168 -21.9632 -21.8188 -21.8157 -21.7734 -21.6520
   -21.6419 -21.6404 -21.6267 -21.6171 -21.6034 -21.5755 -21.5440 -21.4954
    -3.5813  -2.5527  -1.5985  -1.3269  -0.7399  -0.5519  -0.4236  -0.4148
    -0.1410  -0.1049   0.1340   0.3573   0.5023   0.5876   0.6607   0.6996
     0.8820   0.9189   0.9736   1.1532   1.2691   1.3523   1.3710   1.4128
     1.4538   1.4794   1.5142   1.7761

          k = 0.0466-0.1076 0.0000 ( 29098 PWs)   bands (ev):

   -42.3110 -42.2993 -42.2908 -42.2799 -42.2587 -42.2402 -42.2319 -42.1931
   -41.7350 -41.7242 -41.7144 -41.6929 -22.3574 -22.3359 -22.3318 -22.3206
   -22.3125 -22.2959 -22.2882 -22.2815 -22.2775 -22.2721 -22.2549 -22.2428
   -22.2391 -22.2357 -22.2174 -22.1800 -22.1668 -22.1328 -22.1109 -22.0841
   -22.0588 -22.0546 -22.0165 -21.9832 -21.7983 -21.7722 -21.7299 -21.6894
   -21.6491 -21.6421 -21.6392 -21.6344 -21.6034 -21.5915 -21.5451 -21.5162
    -3.4930  -2.2108  -1.5944  -1.2810  -0.9963  -0.7689  -0.3767  -0.2313
     0.1097   0.1621   0.2711   0.5317   0.6164   0.7378   0.7791   0.8727
     0.9040   0.9884   1.0326   1.0779   1.1859   1.2137   1.2998   1.3264
     1.3631   1.4197   1.4624   1.5343

          k = 0.0466-0.0807 0.0000 ( 29103 PWs)   bands (ev):

   -42.3056 -42.2984 -42.2984 -42.2786 -42.2564 -42.2412 -42.2331 -42.1932
   -41.7286 -41.7283 -41.7169 -41.6928 -22.3214 -22.3170 -22.3127 -22.3111
   -22.3016 -22.2932 -22.2767 -22.2681 -22.2679 -22.2631 -22.2551 -22.2525
   -22.2455 -22.2383 -22.2279 -22.2130 -22.1987 -22.1512 -22.0924 -22.0921
   -22.0913 -22.0278 -22.0221 -22.0138 -21.7541 -21.7515 -21.7157 -21.7046
   -21.6994 -21.6468 -21.6417 -21.6396 -21.6033 -21.5532 -21.5522 -21.5518
    -3.4503  -1.7048  -1.6852  -1.5872  -0.8970  -0.8801  -0.6337   0.1075
     0.1420   0.4084   0.4624   0.5168   0.5286   0.8426   0.8688   0.9455
     0.9573   0.9894   1.0553   1.0645   1.1073   1.2095   1.2451   1.2537
     1.3596   1.4041   1.4474   1.5138

          k = 0.0466-0.0538 0.0000 ( 29098 PWs)   bands (ev):

   -42.3110 -42.2993 -42.2908 -42.2799 -42.2587 -42.2402 -42.2319 -42.1931
   -41.7349 -41.7242 -41.7144 -41.6929 -22.3574 -22.3359 -22.3318 -22.3206
   -22.3125 -22.2959 -22.2882 -22.2815 -22.2775 -22.2721 -22.2549 -22.2428
   -22.2391 -22.2357 -22.2174 -22.1800 -22.1668 -22.1328 -22.1109 -22.0841
   -22.0588 -22.0546 -22.0165 -21.9832 -21.7983 -21.7722 -21.7299 -21.6894
   -21.6491 -21.6421 -21.6392 -21.6344 -21.6034 -21.5915 -21.5450 -21.5162
    -3.4930  -2.2108  -1.5944  -1.2810  -0.9963  -0.7689  -0.3767  -0.2313
     0.1097   0.1621   0.2711   0.5317   0.6164   0.7378   0.7791   0.8727
     0.9040   0.9884   1.0326   1.0779   1.1859   1.2137   1.2998   1.3264
     1.3631   1.4197   1.4624   1.5343

          k =-0.0699 0.0404 0.0000 ( 29048 PWs)   bands (ev):

   -42.3091 -42.3037 -42.2859 -42.2823 -42.2584 -42.2414 -42.2309 -42.1932
   -41.7337 -41.7269 -41.7126 -41.6933 -22.3550 -22.3531 -22.3311 -22.3274
   -22.3180 -22.2952 -22.2865 -22.2820 -22.2770 -22.2617 -22.2343 -22.2326
   -22.2243 -22.2212 -22.2100 -22.1911 -22.1884 -22.1427 -22.1318 -22.0908
   -22.0595 -22.0570 -22.0027 -21.9775 -21.7946 -21.7938 -21.6837 -21.6720
   -21.6562 -21.6483 -21.6431 -21.6396 -21.6367 -21.6032 -21.5225 -21.5172
    -3.4901  -2.0614  -1.9433  -1.2347  -0.9709  -0.3696  -0.3605  -0.2303
    -0.0306   0.0490   0.0993   0.7213   0.7339   0.7774   0.8007   0.8513
     0.9195   0.9338   1.0056   1.0865   1.1356   1.1592   1.2063   1.2400
     1.3827   1.4342   1.5434   1.5625

          k =-0.0699 0.0673 0.0000 ( 29098 PWs)   bands (ev):

   -42.3110 -42.2993 -42.2908 -42.2799 -42.2587 -42.2402 -42.2319 -42.1931
   -41.7349 -41.7242 -41.7144 -41.6929 -22.3574 -22.3359 -22.3318 -22.3206
   -22.3125 -22.2959 -22.2882 -22.2815 -22.2775 -22.2721 -22.2549 -22.2428
   -22.2391 -22.2357 -22.2174 -22.1800 -22.1668 -22.1328 -22.1109 -22.0841
   -22.0588 -22.0546 -22.0165 -21.9832 -21.7983 -21.7722 -21.7299 -21.6894
   -21.6491 -21.6421 -21.6392 -21.6344 -21.6034 -21.5915 -21.5450 -21.5162
    -3.4930  -2.2108  -1.5944  -1.2810  -0.9963  -0.7689  -0.3767  -0.2313
     0.1097   0.1621   0.2711   0.5317   0.6164   0.7378   0.7791   0.8727
     0.9040   0.9884   1.0326   1.0779   1.1859   1.2137   1.2998   1.3264
     1.3631   1.4197   1.4624   1.5343

          k =-0.0699 0.0942 0.0000 ( 29098 PWs)   bands (ev):

   -42.3110 -42.2993 -42.2908 -42.2799 -42.2587 -42.2402 -42.2319 -42.1931
   -41.7350 -41.7242 -41.7144 -41.6929 -22.3574 -22.3359 -22.3318 -22.3206
   -22.3125 -22.2959 -22.2882 -22.2815 -22.2775 -22.2721 -22.2549 -22.2428
   -22.2391 -22.2357 -22.2174 -22.1800 -22.1668 -22.1328 -22.1109 -22.0841
   -22.0588 -22.0546 -22.0165 -21.9832 -21.7983 -21.7722 -21.7299 -21.6894
   -21.6491 -21.6421 -21.6392 -21.6344 -21.6034 -21.5915 -21.5451 -21.5162
    -3.4930  -2.2108  -1.5944  -1.2810  -0.9963  -0.7689  -0.3767  -0.2313
     0.1097   0.1621   0.2711   0.5317   0.6164   0.7378   0.7791   0.8727
     0.9040   0.9884   1.0326   1.0779   1.1859   1.2137   1.2998   1.3264
     1.3631   1.4197   1.4624   1.5343

          k =-0.0699-0.0404 0.0000 ( 29048 PWs)   bands (ev):

   -42.3091 -42.3037 -42.2859 -42.2823 -42.2584 -42.2414 -42.2308 -42.1932
   -41.7337 -41.7269 -41.7126 -41.6933 -22.3550 -22.3531 -22.3311 -22.3274
   -22.3180 -22.2952 -22.2865 -22.2820 -22.2770 -22.2617 -22.2343 -22.2326
   -22.2243 -22.2212 -22.2100 -22.1911 -22.1884 -22.1427 -22.1318 -22.0908
   -22.0595 -22.0570 -22.0027 -21.9775 -21.7946 -21.7938 -21.6837 -21.6720
   -21.6562 -21.6483 -21.6431 -21.6396 -21.6367 -21.6032 -21.5225 -21.5172
    -3.4901  -2.0614  -1.9433  -1.2347  -0.9709  -0.3696  -0.3605  -0.2303
    -0.0306   0.0490   0.0993   0.7213   0.7339   0.7774   0.8007   0.8513
     0.9195   0.9338   1.0056   1.0865   1.1356   1.1592   1.2063   1.2400
     1.3827   1.4342   1.5434   1.5625

     the Fermi energy is     1.0205 ev

!    total energy              =   -1125.51380162 Ry
     Harris-Foulkes estimate   =   -1125.51380161 Ry
     estimated scf accuracy    <       0.00000001 Ry

     The total energy is the sum of the following terms:

     one-electron contribution =   -5425.05613033 Ry
     hartree contribution      =    2704.88111306 Ry
     xc contribution           =    -339.62678114 Ry
     ewald contribution        =    1934.41756784 Ry
     electric field correction =       0.00000059 Ry
     smearing contrib. (-TS)   =      -0.12957164 Ry

     convergence has been achieved in  11 iterations
 
 BEEF-vdW xc energy contributions
           1 :   -296.286964931068     
           2 :    266.140644041136     
           3 :   -214.169002888929     
           4 :    153.091528447837     
           5 :   -94.8212563084900     
           6 :    46.8902603491933     
           7 :   -11.8664296477246     
           8 :   -10.9244748666409     
           9 :    23.1516194725341     
          10 :   -26.2223204130763     
          11 :    21.4046387112887     
          12 :   -10.6704925917082     
          13 :   -2.78355892891938     
          14 :    14.9850077660501     
          15 :   -22.4538253448966     
          16 :    23.4931539023427     
          17 :   -18.6747392280939     
          18 :    10.2567116040962     
          19 :  -0.985459975425329     
          20 :   -6.95975063695931     
          21 :    12.3812313111426     
          22 :   -14.8835044289018     
          23 :    14.5114043206014     
          24 :   -11.5819469178364     
          25 :    6.76450210730826     
          26 :   -1.17435531446051     
          27 :   -3.78731737735484     
          28 :    6.88213652923275     
          29 :   -7.53166905028741     
          30 :    6.03543846302307     
          31 :   -28.3142526598876     
          32 :   -19.3647427702993     

     Forces acting on atoms (Ry/au):


     negative rho (up, down):  1.659E-05 0.000E+00
     atom    1 type  1   force =     0.00028637    0.00016527    0.00483390
     atom    2 type  1   force =    -0.00028638    0.00016540    0.00483385
     atom    3 type  1   force =     0.00000039   -0.00033061    0.00483393
     atom    4 type  1   force =    -0.00000016   -0.00000023    0.00568866
     atom    5 type  1   force =    -0.00000027    0.00052897   -0.00357007
     atom    6 type  1   force =     0.00000019    0.00000016   -0.00516293
     atom    7 type  1   force =    -0.00045754   -0.00026409   -0.00357041
     atom    8 type  1   force =     0.00045783   -0.00026453   -0.00356977
     atom    9 type  1   force =     0.00000004   -0.00000258    0.00121038
     atom   10 type  1   force =    -0.00000109    0.00107257   -0.00165590
     atom   11 type  1   force =     0.00093313   -0.00053668   -0.00165559
     atom   12 type  1   force =    -0.00093292   -0.00053570   -0.00165599
     atom   13 type  2   force =     0.00000041    0.00000205   -0.00056006

     Total force =     0.003670     Total SCF correction =     0.000199


     entering subroutine stress ...


     negative rho (up, down):  1.659E-05 0.000E+00
          total   stress  (Ry/bohr**3)                   (kbar)     P=   -2.75
  -0.00001826   0.00000000  -0.00000000         -2.69      0.00     -0.00
   0.00000000  -0.00001825   0.00000000          0.00     -2.69      0.00
  -0.00000000   0.00000000  -0.00001950         -0.00      0.00     -2.87


     bfgs converged in  15 scf cycles and  14 bfgs steps
     (criteria: energy <  1.0E+00, force <  1.9E-03)

     End of BFGS Geometry Optimization

     Final energy   =   -1125.5138016213 Ry
Begin final coordinates

ATOMIC_POSITIONS (crystal)
Y1       0.166666667   0.166666667   0.386999750    0   0   0
Y1       0.666666667   0.166666667   0.386999750    0   0   0
Y1       0.166666667   0.666666667   0.386999750    0   0   0
Y1       0.666666667   0.666666667   0.386999750    0   0   0
Y1       0.833333333   0.333333333   0.500000000    0   0   0
Y1       0.333333333   0.333333333   0.500000000    0   0   0
Y1       0.833333333   0.833333333   0.500000000    0   0   0
Y1       0.333333333   0.833333333   0.500000000    0   0   0
Y1      -0.000001100   0.000002806   0.606962531
Y1       0.494092060   0.011818410   0.614018094
Y1       0.011815796   0.494091668   0.614018740
Y1       0.494093751   0.494090316   0.614019334
H1       0.333333829   0.333330262   0.656550845
End final coordinates



     Writing output data file calc.save
 
     init_run     :     18.18s CPU     18.69s WALL (       1 calls)
     electrons    :   6748.01s CPU   7305.19s WALL (      15 calls)
     update_pot   :     57.54s CPU     60.59s WALL (      14 calls)
     forces       :    364.59s CPU    394.26s WALL (      15 calls)
     stress       :   1048.28s CPU   1119.92s WALL (      15 calls)

     Called by init_run:
     wfcinit      :      7.84s CPU      7.95s WALL (       1 calls)
     potinit      :      2.98s CPU      3.18s WALL (       1 calls)

     Called by electrons:
     c_bands      :   2468.48s CPU   2678.53s WALL (     170 calls)
     sum_band     :   1313.02s CPU   1423.49s WALL (     170 calls)
     v_of_rho     :    453.33s CPU    487.19s WALL (     181 calls)
     newd         :   1161.74s CPU   1182.20s WALL (     181 calls)
     mix_rho      :     16.98s CPU     17.34s WALL (     170 calls)
     vdW_energy   :    262.32s CPU    289.88s WALL (     721 calls)
     vdW_ffts     :    668.62s CPU    684.63s WALL (    1472 calls)
     vdW_v        :    252.80s CPU    259.77s WALL (     721 calls)

     Called by c_bands:
     init_us_2    :     15.04s CPU     15.13s WALL (    1855 calls)
     cegterg      :   2088.92s CPU   2134.06s WALL (     850 calls)

     Called by *egterg:
     h_psi        :   1448.73s CPU   1469.49s WALL (    5682 calls)
     s_psi        :    127.60s CPU    127.90s WALL (    5682 calls)
     g_psi        :      8.56s CPU      8.56s WALL (    4827 calls)
     cdiaghg      :    144.51s CPU    145.63s WALL (    5587 calls)

     Called by h_psi:
     add_vuspsi   :    130.39s CPU    130.74s WALL (    5682 calls)

     General routines
     calbec       :    190.98s CPU    193.37s WALL (    6682 calls)
     fft          :   1050.93s CPU   1113.26s WALL (   43521 calls)
     ffts         :      1.08s CPU      1.14s WALL (     351 calls)
     fftw         :    844.06s CPU    865.83s WALL (  418948 calls)
     interpolate  :     10.92s CPU     11.48s WALL (     351 calls)
     davcio       :      0.00s CPU      0.04s WALL (       5 calls)
 
     Parallel routines
     fft_scatter  :   1090.15s CPU   1170.81s WALL (  462820 calls)
 
     PWSCF        :     2h18m CPU        2h30m WALL

 
   This run was terminated on:   2:19:16   3May2018            

=------------------------------------------------------------------------------=
   JOB DONE.
=------------------------------------------------------------------------------=
Job  /afs/slac/g/suncat/bin/suncat-tsmpirun -x LD_LIBRARY_PATH -wdir /scratch/qe556985_l2xs0 pw.x -npool 4 -in pw.inp

TID   HOST_NAME   COMMAND_LINE            STATUS            TERMINATION_TIME
===== ========== ================  =======================  ===================
00000 suncat0040 pw.x -npool 4 -i  Done                     05/03/2018 02:19:16
00001 suncat0040 pw.x -npool 4 -i  Done                     05/03/2018 02:19:16
00002 suncat0040 pw.x -npool 4 -i  Done                     05/03/2018 02:19:16
00003 suncat0040 pw.x -npool 4 -i  Done                     05/03/2018 02:19:16
00004 suncat0040 pw.x -npool 4 -i  Done                     05/03/2018 02:19:16
00005 suncat0040 pw.x -npool 4 -i  Done                     05/03/2018 02:19:16
00006 suncat0040 pw.x -npool 4 -i  Done                     05/03/2018 02:19:16
00007 suncat0040 pw.x -npool 4 -i  Done                     05/03/2018 02:19:16
00008 suncat0037 pw.x -npool 4 -i  Done                     05/03/2018 02:19:16
00009 suncat0037 pw.x -npool 4 -i  Done                     05/03/2018 02:19:16
00010 suncat0037 pw.x -npool 4 -i  Done                     05/03/2018 02:19:16
00011 suncat0037 pw.x -npool 4 -i  Done                     05/03/2018 02:19:16
00012 suncat0037 pw.x -npool 4 -i  Done                     05/03/2018 02:19:16
00013 suncat0037 pw.x -npool 4 -i  Done                     05/03/2018 02:19:16
00014 suncat0037 pw.x -npool 4 -i  Done                     05/03/2018 02:19:16
00015 suncat0037 pw.x -npool 4 -i  Done                     05/03/2018 02:19:16
00016 suncat0025 pw.x -npool 4 -i  Done                     05/03/2018 02:19:16
00017 suncat0025 pw.x -npool 4 -i  Done                     05/03/2018 02:19:16
00018 suncat0025 pw.x -npool 4 -i  Done                     05/03/2018 02:19:16
00019 suncat0025 pw.x -npool 4 -i  Done                     05/03/2018 02:19:16
00020 suncat0025 pw.x -npool 4 -i  Done                     05/03/2018 02:19:16
00021 suncat0025 pw.x -npool 4 -i  Done                     05/03/2018 02:19:16
00022 suncat0025 pw.x -npool 4 -i  Done                     05/03/2018 02:19:16
00023 suncat0025 pw.x -npool 4 -i  Done                     05/03/2018 02:19:16
00024 suncat0199 pw.x -npool 4 -i  Done                     05/03/2018 02:19:16
00025 suncat0199 pw.x -npool 4 -i  Done                     05/03/2018 02:19:16
00026 suncat0199 pw.x -npool 4 -i  Done                     05/03/2018 02:19:16
00027 suncat0199 pw.x -npool 4 -i  Done                     05/03/2018 02:19:16
00028 suncat0199 pw.x -npool 4 -i  Done                     05/03/2018 02:19:16
00029 suncat0199 pw.x -npool 4 -i  Done                     05/03/2018 02:19:16
00030 suncat0199 pw.x -npool 4 -i  Done                     05/03/2018 02:19:16
00031 suncat0199 pw.x -npool 4 -i  Done                     05/03/2018 02:19:16
