  python dir          : /u/if/mamunm/src/espresso
  espresso dir        : /nfs/slac/g/suncatfs/sw/espv18/espresso-dynpy-beef/bin
  pseudo dir          : /u/if/mamunm/psp/gbrv1.5pbe
  ase-espresso py git : GITVERSION



     Program PWSCF v.5.1rc2 (svn rev. 11289) starts on  2May2018 at 18:20:27 

     This program is part of the open-source Quantum ESPRESSO suite
     for quantum simulation of materials; please cite
         "P. Giannozzi et al., J. Phys.:Condens. Matter 21 395502 (2009);
          URL http://www.quantum-espresso.org", 
     in publications or presentations arising from this work. More details at
     http://www.quantum-espresso.org/quote

     Parallel version (MPI), running on    32 processors
     K-points division:     npool     =       4
     R & G space division:  proc/nbgrp/npool/nimage =       8
     Reading input from pw.inp
     Message from routine read_cards :
     DEPRECATED: no units specified in CELL_PARAMETERS card

     Current dimensions of program PWSCF are:
     Max number of different atomic species (ntypx) = 10
     Max number of k-points (npk) =  40000
     Max angular momentum in pseudopotentials (lmaxx) =  3
     Presently stress not available with electric field


     **************************************************************************
     Initializing libbeef V0.1.1 with the BEEF-vdW functional.
     Citation: Wellendorff et al., PRB 85, 235149 (2012).
     **************************************************************************


     IMPORTANT: XC functional enforced from input :
     Exchange-correlation      = BEEF-VDW ( 1  4 27 13 2)
     Any further DFT definition will be discarded
     Please, verify this is what you really want


     Subspace diagonalization in iterative solution of the eigenvalue problem:
     a serial algorithm will be used

 
     Parallelization info
     --------------------
     sticks:   dense  smooth     PW     G-vecs:    dense   smooth      PW
     Min         465     186     53                90387    22883    3523
     Max         466     187     55                90396    22907    3532
     Sum        3721    1495    433               723123   183131   28227
 


     bravais-lattice index     =            0
     lattice parameter (alat)  =       1.8897  a.u.
     unit-cell volume          =    6082.7792 (a.u.)^3
     number of atoms/cell      =           13
     number of atomic types    =            2
     number of electrons       =       145.00
     number of Kohn-Sham states=           82
     kinetic-energy cutoff     =      36.7493  Ry
     charge density cutoff     =     367.4932  Ry
     convergence threshold     =      1.0E-05
     mixing beta               =       0.3000
     number of iterations used =           10  plain     mixing
     Exchange-correlation      = BEEF-VDW ( 1  4 27 13 2)
     nstep                     =           50


     celldm(1)=   1.889726  celldm(2)=   0.000000  celldm(3)=   0.000000
     celldm(4)=   0.000000  celldm(5)=   0.000000  celldm(6)=   0.000000

     crystal axes: (cart. coord. in units of alat)
               a(1) = (   6.421223   0.000000   0.000000 )  
               a(2) = (   3.210611   5.560942   0.000000 )  
               a(3) = (   0.000000   0.000000  25.242906 )  

     reciprocal axes: (cart. coord. in units 2 pi/alat)
               b(1) = (  0.155734 -0.089913  0.000000 )  
               b(2) = (  0.000000  0.179826  0.000000 )  
               b(3) = (  0.000000  0.000000  0.039615 )  


     PseudoPot. # 1 for Zr read from file:
     /u/if/mamunm/psp/gbrv1.5pbe/Zr.UPF
     MD5 check sum: 5db81b1e868ab7776c4564c113de050b
     Pseudo is Ultrasoft + core correction, Zval = 12.0
     Generated by new atomic code, or converted to UPF format
     Using radial grid of  887 points,  6 beta functions with: 
                l(1) =   0
                l(2) =   0
                l(3) =   1
                l(4) =   1
                l(5) =   2
                l(6) =   2
     Q(r) pseudized with  6 coefficients,  rinner =    1.200   1.200   1.200
                                                       1.200   1.200

     PseudoPot. # 2 for H  read from file:
     /u/if/mamunm/psp/gbrv1.5pbe/H.UPF
     MD5 check sum: 761ae9a214b05c3daf00ab9f6b793d6f
     Pseudo is Ultrasoft, Zval =  1.0
     Generated by new atomic code, or converted to UPF format
     Using radial grid of  615 points,  2 beta functions with: 
                l(1) =   0
                l(2) =   0
     Q(r) pseudized with  8 coefficients,  rinner =    0.700

     vdW kernel table read from file vdW_kernel_table
     MD5 check sum: 095c7af220d748ca6e76c0b4c6cfb241

     atomic species   valence    mass     pseudopotential
        Zr1           12.00    91.22400     Zr( 1.00)
        H1             1.00     1.00800     H ( 1.00)

     No symmetry found



   Cartesian axes

     site n.     atom                  positions (alat units)
         1           Zr1 tau(   1) = (   1.6053057   0.9268237  10.0000000  )
         2           Zr1 tau(   2) = (   4.8159170   0.9268237  10.0000000  )
         3           Zr1 tau(   3) = (   3.2106113   3.7072946  10.0000000  )
         4           Zr1 tau(   4) = (   6.4212227   3.7072946  10.0000000  )
         5           Zr1 tau(   5) = (   6.4212227   1.8536473  12.6214532  )
         6           Zr1 tau(   6) = (   3.2106113   1.8536473  12.6214532  )
         7           Zr1 tau(   7) = (   8.0265283   4.6341183  12.6214532  )
         8           Zr1 tau(   8) = (   4.8159170   4.6341183  12.6214532  )
         9           Zr1 tau(   9) = (   0.0000000   0.0000000  15.2429064  )
        10           Zr1 tau(  10) = (   3.2106113   0.0000000  15.2429064  )
        11           Zr1 tau(  11) = (   1.6053057   2.7804710  15.2429064  )
        12           Zr1 tau(  12) = (   4.8159170   2.7804710  15.2429064  )
        13           H1  tau(  13) = (   0.0000000   0.0000000  16.9939064  )

     number of k points=    20  Fermi-Dirac smearing, width (Ry)=  0.0110
                       cart. coord. in units 2pi/alat
        k(    1) = (   0.0000000   0.0000000   0.0000000), wk =   0.0555556
        k(    2) = (   0.0000000   0.0299709   0.0000000), wk =   0.1111111
        k(    3) = (   0.0000000   0.0599419   0.0000000), wk =   0.1111111
        k(    4) = (   0.0000000  -0.0899128   0.0000000), wk =   0.0555556
        k(    5) = (   0.0259556  -0.0149855   0.0000000), wk =   0.1111111
        k(    6) = (   0.0259556   0.0149855   0.0000000), wk =   0.1111111
        k(    7) = (   0.0259556   0.0449564   0.0000000), wk =   0.1111111
        k(    8) = (   0.0259556  -0.1048983   0.0000000), wk =   0.1111111
        k(    9) = (   0.0259556  -0.0749274   0.0000000), wk =   0.1111111
        k(   10) = (   0.0259556  -0.0449564   0.0000000), wk =   0.1111111
        k(   11) = (   0.0519112  -0.0299709   0.0000000), wk =   0.1111111
        k(   12) = (   0.0519112   0.0000000   0.0000000), wk =   0.1111111
        k(   13) = (   0.0519112   0.0299709   0.0000000), wk =   0.1111111
        k(   14) = (   0.0519112  -0.1198838   0.0000000), wk =   0.1111111
        k(   15) = (   0.0519112  -0.0899128   0.0000000), wk =   0.1111111
        k(   16) = (   0.0519112  -0.0599419   0.0000000), wk =   0.1111111
        k(   17) = (  -0.0778668   0.0449564   0.0000000), wk =   0.0555556
        k(   18) = (  -0.0778668   0.0749274   0.0000000), wk =   0.1111111
        k(   19) = (  -0.0778668   0.1048983   0.0000000), wk =   0.1111111
        k(   20) = (  -0.0778668  -0.0449564   0.0000000), wk =   0.0555556

     Dense  grid:   723123 G-vectors     FFT dimensions: (  75,  75, 300)

     Smooth grid:   183131 G-vectors     FFT dimensions: (  48,  48, 192)

     Largest allocated arrays     est. size (Mb)     dimensions
        Kohn-Sham Wavefunctions         3.62 Mb     (    2896,   82)
        NL pseudopotentials             9.63 Mb     (    2896,  218)
        Each V/rho on FFT grid          3.26 Mb     (  213750)
        Each G-vector array             0.69 Mb     (   90391)
        G-vector shells                 0.18 Mb     (   23541)
     Largest temporary arrays     est. size (Mb)     dimensions
        Auxiliary wavefunctions        14.49 Mb     (    2896,  328)
        Each subspace H/S matrix        1.64 Mb     (     328,  328)
        Each <psi_i|beta_j> matrix      0.27 Mb     (     218,   82)
        Arrays for rho mixing          32.62 Mb     (  213750,   10)

     Initial potential from superposition of free atoms
     Check: negative starting charge=   -0.729068

     starting charge  144.97420, renormalised to  145.00000

     negative rho (up, down):  7.292E-01 0.000E+00


     ************************************************************************
     *
     * You are using vdW-DF for exchange-correlation in this calculation.
     * Please cite the following three references that made this development
     * possible:
     *
     *   M. Dion, H. Rydberg, E. Schroder, D. C. Langreth, and
     *   B. I. Lundqvist, Phys. Rev. Lett. 92, 246401 (2004).
     *
     *   T. Thonhauser, V. R. Cooper, S. Li, A. Puzder, P. Hyldgaard, and
     *   D. C. Langreth, Phys. Rev. B 76, 125112 (2007).
     *
     *   G. Roman-Perez and J. M. Soler, Phys. Rev. Lett. 103, 096102 (2009).
     *
     *
     * If you are using vdW-DF2, please also cite:
     *
     *   K. Lee, E. D. Murray, L. Kong, B. I. Lundqvist, and
     *   D. C. Langreth, Phys. Rev. B 82, 081101(R) (2010).
     *
     *
     * If you are calculating the stress with vdW-DF, please also cite:
     *
     *   R. Sabatini, E. Kucukbenli, B. Kolb, T. Thonhauser, and
     *   S. de Gironcoli, J. Phys.: Condens. Matter 24, 424209 (2012).
     *
     ************************************************************************

     Carrying out vdW-DF run using the following parameters:

     Nqs =      20    Nr_points =    1024   r_max =   100.000
     q_mesh =
               0.00001000     0.04494208     0.09755937     0.15916263
               0.23128650     0.31572767     0.41458969     0.53033537
               0.66584808     0.82450364     1.01025438     1.22772762
               1.48234092     1.78043706     2.12944203     2.53805004
               3.01644009     3.57652955     4.23227104     5.00000000

     Gradients computed in reciprocal space

     ************************************************************************


 
     Adding external electric field

     Computed dipole along edir(3) : 
        Dipole               -0.0014 Ry au,         -0.0036 Debye
        Dipole field         -0.0000 Ry au
 
        Potential amp.        0.0003 Ry
        Total length         46.5096 bohr
 
     Starting wfc are  157 randomized atomic wfcs

     total cpu time spent up to now is       14.7 secs

     per-process dynamical memory:    96.4 Mb

     Self-consistent Calculation

     iteration #  1     ecut=    36.75 Ry     beta=0.30
     Davidson diagonalization with overlap
     ethr =  1.00E-02,  avg # of iterations =  2.0

     negative rho (up, down):  7.329E-01 0.000E+00
 
     Adding external electric field

     Computed dipole along edir(3) : 
        Dipole               -2.5230 Ry au,         -6.4129 Debye
        Dipole field         -0.0052 Ry au
 
        Potential amp.        0.4848 Ry
        Total length         46.5096 bohr
 

     total cpu time spent up to now is       34.2 secs

     total energy              =   -1195.20231534 Ry
     Harris-Foulkes estimate   =   -1198.58182321 Ry
     estimated scf accuracy    <       7.13166131 Ry

     iteration #  2     ecut=    36.75 Ry     beta=0.30
     Davidson diagonalization with overlap
     ethr =  4.92E-03,  avg # of iterations =  9.2

     negative rho (up, down):  7.330E-01 0.000E+00
 
     Adding external electric field

     Computed dipole along edir(3) : 
        Dipole                3.2742 Ry au,          8.3221 Debye
        Dipole field          0.0068 Ry au
 
        Potential amp.       -0.6292 Ry
        Total length         46.5096 bohr
 

     total cpu time spent up to now is       62.6 secs

     total energy              =   -1187.24110455 Ry
     Harris-Foulkes estimate   =   -1206.88346530 Ry
     estimated scf accuracy    <     401.34749064 Ry

     iteration #  3     ecut=    36.75 Ry     beta=0.30
     Davidson diagonalization with overlap
     ethr =  4.92E-03,  avg # of iterations = 10.3

     negative rho (up, down):  7.323E-01 0.000E+00
 
     Adding external electric field

     Computed dipole along edir(3) : 
        Dipole                0.0826 Ry au,          0.2101 Debye
        Dipole field          0.0002 Ry au
 
        Potential amp.       -0.0159 Ry
        Total length         46.5096 bohr
 

     total cpu time spent up to now is       94.0 secs

     total energy              =   -1190.83871912 Ry
     Harris-Foulkes estimate   =   -1206.95174801 Ry
     estimated scf accuracy    <     493.08015172 Ry

     iteration #  4     ecut=    36.75 Ry     beta=0.30
     Davidson diagonalization with overlap
     ethr =  4.92E-03,  avg # of iterations =  5.5

     negative rho (up, down):  7.337E-01 0.000E+00
 
     Adding external electric field

     Computed dipole along edir(3) : 
        Dipole                0.1490 Ry au,          0.3788 Debye
        Dipole field          0.0003 Ry au
 
        Potential amp.       -0.0286 Ry
        Total length         46.5096 bohr
 

     total cpu time spent up to now is      119.1 secs

     total energy              =   -1197.97868162 Ry
     Harris-Foulkes estimate   =   -1198.07505421 Ry
     estimated scf accuracy    <       2.15272191 Ry

     iteration #  5     ecut=    36.75 Ry     beta=0.30
     Davidson diagonalization with overlap
     ethr =  1.48E-03,  avg # of iterations =  4.8

     negative rho (up, down):  7.368E-01 0.000E+00
 
     Adding external electric field

     Computed dipole along edir(3) : 
        Dipole               -0.1401 Ry au,         -0.3560 Debye
        Dipole field         -0.0003 Ry au
 
        Potential amp.        0.0269 Ry
        Total length         46.5096 bohr
 

     total cpu time spent up to now is      141.0 secs

     total energy              =   -1197.98492426 Ry
     Harris-Foulkes estimate   =   -1198.04047996 Ry
     estimated scf accuracy    <       0.26001494 Ry

     iteration #  6     ecut=    36.75 Ry     beta=0.30
     Davidson diagonalization with overlap
     ethr =  1.79E-04,  avg # of iterations =  7.5

     negative rho (up, down):  7.394E-01 0.000E+00
 
     Adding external electric field

     Computed dipole along edir(3) : 
        Dipole               -0.1026 Ry au,         -0.2608 Debye
        Dipole field         -0.0002 Ry au
 
        Potential amp.        0.0197 Ry
        Total length         46.5096 bohr
 

     total cpu time spent up to now is      166.5 secs

     total energy              =   -1198.01183030 Ry
     Harris-Foulkes estimate   =   -1198.03376616 Ry
     estimated scf accuracy    <       0.28623729 Ry

     iteration #  7     ecut=    36.75 Ry     beta=0.30
     Davidson diagonalization with overlap
     ethr =  1.79E-04,  avg # of iterations =  1.0

     negative rho (up, down):  7.425E-01 0.000E+00
 
     Adding external electric field

     Computed dipole along edir(3) : 
        Dipole               -0.0645 Ry au,         -0.1640 Debye
        Dipole field         -0.0001 Ry au
 
        Potential amp.        0.0124 Ry
        Total length         46.5096 bohr
 

     total cpu time spent up to now is      186.1 secs

     total energy              =   -1198.01521803 Ry
     Harris-Foulkes estimate   =   -1198.01964527 Ry
     estimated scf accuracy    <       0.08742014 Ry

     iteration #  8     ecut=    36.75 Ry     beta=0.30
     Davidson diagonalization with overlap
     ethr =  6.03E-05,  avg # of iterations =  5.8

     negative rho (up, down):  7.451E-01 0.000E+00
 
     Adding external electric field

     Computed dipole along edir(3) : 
        Dipole               -0.1468 Ry au,         -0.3731 Debye
        Dipole field         -0.0003 Ry au
 
        Potential amp.        0.0282 Ry
        Total length         46.5096 bohr
 

     total cpu time spent up to now is      208.7 secs

     total energy              =   -1198.01610603 Ry
     Harris-Foulkes estimate   =   -1198.02032450 Ry
     estimated scf accuracy    <       0.02972976 Ry

     iteration #  9     ecut=    36.75 Ry     beta=0.30
     Davidson diagonalization with overlap
     ethr =  2.05E-05,  avg # of iterations =  5.0

     negative rho (up, down):  7.460E-01 0.000E+00
 
     Adding external electric field

     Computed dipole along edir(3) : 
        Dipole               -0.1520 Ry au,         -0.3864 Debye
        Dipole field         -0.0003 Ry au
 
        Potential amp.        0.0292 Ry
        Total length         46.5096 bohr
 

     total cpu time spent up to now is      231.2 secs

     total energy              =   -1198.01744299 Ry
     Harris-Foulkes estimate   =   -1198.01857856 Ry
     estimated scf accuracy    <       0.04460220 Ry

     iteration # 10     ecut=    36.75 Ry     beta=0.30
     Davidson diagonalization with overlap
     ethr =  2.05E-05,  avg # of iterations =  1.1

     negative rho (up, down):  7.466E-01 0.000E+00
 
     Adding external electric field

     Computed dipole along edir(3) : 
        Dipole               -0.1382 Ry au,         -0.3513 Debye
        Dipole field         -0.0003 Ry au
 
        Potential amp.        0.0266 Ry
        Total length         46.5096 bohr
 

     total cpu time spent up to now is      251.4 secs

     total energy              =   -1198.01757937 Ry
     Harris-Foulkes estimate   =   -1198.01797642 Ry
     estimated scf accuracy    <       0.02497139 Ry

     iteration # 11     ecut=    36.75 Ry     beta=0.30
     Davidson diagonalization with overlap
     ethr =  1.72E-05,  avg # of iterations =  1.0

     negative rho (up, down):  7.487E-01 0.000E+00
 
     Adding external electric field

     Computed dipole along edir(3) : 
        Dipole               -0.1096 Ry au,         -0.2787 Debye
        Dipole field         -0.0002 Ry au
 
        Potential amp.        0.0211 Ry
        Total length         46.5096 bohr
 

     total cpu time spent up to now is      271.5 secs

     total energy              =   -1198.01777286 Ry
     Harris-Foulkes estimate   =   -1198.01791393 Ry
     estimated scf accuracy    <       0.00480694 Ry

     iteration # 12     ecut=    36.75 Ry     beta=0.30
     Davidson diagonalization with overlap
     ethr =  3.32E-06,  avg # of iterations =  7.7

     negative rho (up, down):  7.479E-01 0.000E+00
 
     Adding external electric field

     Computed dipole along edir(3) : 
        Dipole               -0.1212 Ry au,         -0.3080 Debye
        Dipole field         -0.0003 Ry au
 
        Potential amp.        0.0233 Ry
        Total length         46.5096 bohr
 

     total cpu time spent up to now is      297.5 secs

     total energy              =   -1198.01812249 Ry
     Harris-Foulkes estimate   =   -1198.01876672 Ry
     estimated scf accuracy    <       0.02099454 Ry

     iteration # 13     ecut=    36.75 Ry     beta=0.30
     Davidson diagonalization with overlap
     ethr =  3.32E-06,  avg # of iterations =  2.7

     negative rho (up, down):  7.480E-01 0.000E+00
 
     Adding external electric field

     Computed dipole along edir(3) : 
        Dipole               -0.1334 Ry au,         -0.3390 Debye
        Dipole field         -0.0003 Ry au
 
        Potential amp.        0.0256 Ry
        Total length         46.5096 bohr
 

     total cpu time spent up to now is      318.7 secs

     total energy              =   -1198.01819534 Ry
     Harris-Foulkes estimate   =   -1198.01829727 Ry
     estimated scf accuracy    <       0.00473607 Ry

     iteration # 14     ecut=    36.75 Ry     beta=0.30
     Davidson diagonalization with overlap
     ethr =  3.27E-06,  avg # of iterations =  1.0

     negative rho (up, down):  7.481E-01 0.000E+00
 
     Adding external electric field

     Computed dipole along edir(3) : 
        Dipole               -0.1359 Ry au,         -0.3454 Debye
        Dipole field         -0.0003 Ry au
 
        Potential amp.        0.0261 Ry
        Total length         46.5096 bohr
 

     total cpu time spent up to now is      338.7 secs

     total energy              =   -1198.01825429 Ry
     Harris-Foulkes estimate   =   -1198.01825550 Ry
     estimated scf accuracy    <       0.00119007 Ry

     iteration # 15     ecut=    36.75 Ry     beta=0.30
     Davidson diagonalization with overlap
     ethr =  8.21E-07,  avg # of iterations =  7.5

     negative rho (up, down):  7.481E-01 0.000E+00
 
     Adding external electric field

     Computed dipole along edir(3) : 
        Dipole               -0.1362 Ry au,         -0.3463 Debye
        Dipole field         -0.0003 Ry au
 
        Potential amp.        0.0262 Ry
        Total length         46.5096 bohr
 

     total cpu time spent up to now is      363.4 secs

     total energy              =   -1198.01832511 Ry
     Harris-Foulkes estimate   =   -1198.01833471 Ry
     estimated scf accuracy    <       0.00008948 Ry

     iteration # 16     ecut=    36.75 Ry     beta=0.30
     Davidson diagonalization with overlap
     ethr =  6.17E-08,  avg # of iterations =  5.5

     negative rho (up, down):  7.482E-01 0.000E+00
 
     Adding external electric field

     Computed dipole along edir(3) : 
        Dipole               -0.1358 Ry au,         -0.3451 Debye
        Dipole field         -0.0003 Ry au
 
        Potential amp.        0.0261 Ry
        Total length         46.5096 bohr
 

     total cpu time spent up to now is      388.2 secs

     total energy              =   -1198.01833480 Ry
     Harris-Foulkes estimate   =   -1198.01833690 Ry
     estimated scf accuracy    <       0.00001518 Ry

     iteration # 17     ecut=    36.75 Ry     beta=0.30
     Davidson diagonalization with overlap
     ethr =  1.05E-08,  avg # of iterations =  6.2

     negative rho (up, down):  7.482E-01 0.000E+00
 
     Adding external electric field

     Computed dipole along edir(3) : 
        Dipole               -0.1360 Ry au,         -0.3456 Debye
        Dipole field         -0.0003 Ry au
 
        Potential amp.        0.0261 Ry
        Total length         46.5096 bohr
 

     total cpu time spent up to now is      414.4 secs

     total energy              =   -1198.01834047 Ry
     Harris-Foulkes estimate   =   -1198.01833936 Ry
     estimated scf accuracy    <       0.00002932 Ry

     iteration # 18     ecut=    36.75 Ry     beta=0.30
     Davidson diagonalization with overlap
     ethr =  1.05E-08,  avg # of iterations =  2.1

     negative rho (up, down):  7.482E-01 0.000E+00
 
     Adding external electric field

     Computed dipole along edir(3) : 
        Dipole               -0.1369 Ry au,         -0.3479 Debye
        Dipole field         -0.0003 Ry au
 
        Potential amp.        0.0263 Ry
        Total length         46.5096 bohr
 

     total cpu time spent up to now is      435.0 secs

     total energy              =   -1198.01834053 Ry
     Harris-Foulkes estimate   =   -1198.01834057 Ry
     estimated scf accuracy    <       0.00002712 Ry

     iteration # 19     ecut=    36.75 Ry     beta=0.30
     Davidson diagonalization with overlap
     ethr =  1.05E-08,  avg # of iterations =  4.4

     negative rho (up, down):  7.482E-01 0.000E+00

     negative rho (up, down):  7.482E-01 0.000E+00

     negative rho (up, down):  7.482E-01 0.000E+00

     negative rho (up, down):  7.482E-01 0.000E+00

     negative rho (up, down):  7.482E-01 0.000E+00

     negative rho (up, down):  7.482E-01 0.000E+00

     negative rho (up, down):  7.482E-01 0.000E+00

     negative rho (up, down):  7.482E-01 0.000E+00

     negative rho (up, down):  7.482E-01 0.000E+00

     negative rho (up, down):  7.482E-01 0.000E+00

     negative rho (up, down):  7.482E-01 0.000E+00

     negative rho (up, down):  7.482E-01 0.000E+00

     negative rho (up, down):  7.482E-01 0.000E+00

     negative rho (up, down):  7.482E-01 0.000E+00

     negative rho (up, down):  7.482E-01 0.000E+00

     negative rho (up, down):  7.482E-01 0.000E+00

     negative rho (up, down):  7.482E-01 0.000E+00

     negative rho (up, down):  7.482E-01 0.000E+00

     negative rho (up, down):  7.482E-01 0.000E+00

     negative rho (up, down):  7.482E-01 0.000E+00

     negative rho (up, down):  7.482E-01 0.000E+00

     negative rho (up, down):  7.482E-01 0.000E+00

     negative rho (up, down):  7.482E-01 0.000E+00

     negative rho (up, down):  7.482E-01 0.000E+00

     negative rho (up, down):  7.482E-01 0.000E+00

     negative rho (up, down):  7.482E-01 0.000E+00

     negative rho (up, down):  7.482E-01 0.000E+00

     negative rho (up, down):  7.482E-01 0.000E+00

     negative rho (up, down):  7.482E-01 0.000E+00

     negative rho (up, down):  7.482E-01 0.000E+00

     negative rho (up, down):  7.482E-01 0.000E+00

     negative rho (up, down):  7.482E-01 0.000E+00

     negative rho (up, down):  7.482E-01 0.000E+00

     negative rho (up, down):  7.482E-01 0.000E+00

     negative rho (up, down):  7.482E-01 0.000E+00
 
     Adding external electric field

     Computed dipole along edir(3) : 
        Dipole               -0.1341 Ry au,         -0.3409 Debye
        Dipole field         -0.0003 Ry au
 
        Potential amp.        0.0258 Ry
        Total length         46.5096 bohr
 

     total cpu time spent up to now is      521.1 secs

     End of self-consistent calculation

          k = 0.0000 0.0000 0.0000 ( 22923 PWs)   bands (ev):

   -48.0194 -47.9827 -47.9490 -47.9485 -47.9004 -47.8878 -47.8871 -47.6928
   -47.6133 -47.6130 -47.5995 -47.5340 -26.2918 -26.2715 -26.2714 -26.2369
   -26.2161 -26.2160 -26.2075 -26.1287 -26.1286 -26.1108 -26.0110 -25.9320
   -25.9319 -25.8345 -25.7831 -25.7787 -25.7785 -25.7193 -25.7190 -25.7119
   -25.6726 -25.6723 -25.6015 -25.5505 -25.5505 -25.5347 -25.5344 -25.5029
   -25.4530 -25.4528 -25.4207 -25.4046 -25.4045 -25.3874 -25.2745 -25.2745
    -3.7139  -2.6461  -1.7572  -1.5830  -1.2698  -1.2693  -1.2692  -1.1513
    -1.1513  -0.9663  -0.7188  -0.7188  -0.6797  -0.5200  -0.5200  -0.4258
     0.3147   0.3539   0.3540   1.2362   1.4489   1.4792   1.4792   1.6867
     1.8500   1.9781   1.9782   2.0318   2.1908   2.1908   2.4454   2.4454
     2.4487   2.4487

          k = 0.0000 0.0300 0.0000 ( 22902 PWs)   bands (ev):

   -48.0149 -47.9768 -47.9529 -47.9486 -47.9031 -47.8907 -47.8875 -47.6875
   -47.6176 -47.6132 -47.6007 -47.5343 -26.2637 -26.2462 -26.2346 -26.2090
   -26.1944 -26.1905 -26.1801 -26.1126 -26.1109 -26.0914 -26.0064 -25.9445
   -25.9367 -25.8339 -25.8007 -25.7687 -25.7669 -25.7465 -25.7428 -25.7067
   -25.7064 -25.6759 -25.6178 -25.5859 -25.5618 -25.5429 -25.5329 -25.4967
   -25.4763 -25.4598 -25.4361 -25.4297 -25.4037 -25.3830 -25.3185 -25.2844
    -3.5266  -2.4711  -1.6102  -1.5082  -1.2606  -1.1383  -1.1317  -1.1228
    -1.0170  -0.8769  -0.6063  -0.5213  -0.5041  -0.4126  -0.4006  -0.3181
     0.3605   0.3957   0.4107   1.2013   1.4171   1.4596   1.5090   1.5952
     1.7456   1.7950   1.7976   1.8336   2.0834   2.2635   2.2807   2.2894
     2.3306   2.3640

          k = 0.0000 0.0599 0.0000 ( 22852 PWs)   bands (ev):

   -48.0032 -47.9637 -47.9609 -47.9487 -47.9160 -47.8940 -47.8876 -47.6730
   -47.6315 -47.6132 -47.6020 -47.5351 -26.2058 -26.1839 -26.1605 -26.1531
   -26.1325 -26.1251 -26.0802 -26.0772 -26.0656 -26.0530 -25.9974 -25.9663
   -25.9512 -25.8577 -25.8440 -25.8130 -25.8003 -25.7923 -25.7385 -25.7341
   -25.7168 -25.6806 -25.6688 -25.6031 -25.5925 -25.5877 -25.5436 -25.5141
   -25.4984 -25.4885 -25.4684 -25.4545 -25.4380 -25.3837 -25.3737 -25.3111
    -3.0118  -2.0558  -1.6611  -1.3569  -1.0418  -0.9872  -0.8067  -0.8035
    -0.6728  -0.5996  -0.4025  -0.1078  -0.0587  -0.0410  -0.0044   0.0337
     0.4581   0.4838   0.5771   0.9251   1.1420   1.1859   1.2051   1.2384
     1.4763   1.5745   1.6095   1.6278   1.7457   1.7986   1.8089   1.8491
     1.9344   1.9462

          k = 0.0000-0.0899 0.0000 ( 22880 PWs)   bands (ev):

   -47.9936 -47.9728 -47.9487 -47.9435 -47.9329 -47.8947 -47.8876 -47.6570
   -47.6474 -47.6132 -47.6023 -47.5354 -26.1721 -26.1407 -26.1277 -26.1158
   -26.1048 -26.0803 -26.0480 -26.0391 -26.0186 -25.9876 -25.9724 -25.9528
   -25.9170 -25.9088 -25.9005 -25.8983 -25.8732 -25.8556 -25.7860 -25.7064
   -25.6738 -25.6689 -25.6376 -25.6302 -25.6034 -25.5880 -25.5721 -25.5528
   -25.5487 -25.5142 -25.4849 -25.4736 -25.4601 -25.3729 -25.3558 -25.3407
    -2.4020  -2.2323  -1.6881  -1.2953  -0.9985  -0.5800  -0.5684  -0.5045
    -0.4806  -0.4569  -0.3984   0.2566   0.2825   0.3286   0.3400   0.3593
     0.3967   0.7453   0.7636   0.7838   0.8205   0.8458   0.9173   1.1088
     1.1318   1.1646   1.2674   1.3594   1.3659   1.3877   1.5118   1.5944
     1.6939   1.9410

          k = 0.0260-0.0150 0.0000 ( 22902 PWs)   bands (ev):

   -48.0149 -47.9768 -47.9529 -47.9487 -47.9031 -47.8905 -47.8876 -47.6875
   -47.6175 -47.6132 -47.6007 -47.5343 -26.2637 -26.2462 -26.2346 -26.2090
   -26.1944 -26.1905 -26.1801 -26.1126 -26.1108 -26.0914 -26.0064 -25.9444
   -25.9367 -25.8338 -25.8007 -25.7687 -25.7669 -25.7465 -25.7429 -25.7066
   -25.7064 -25.6759 -25.6178 -25.5859 -25.5618 -25.5429 -25.5330 -25.4967
   -25.4762 -25.4598 -25.4361 -25.4297 -25.4037 -25.3830 -25.3185 -25.2844
    -3.5266  -2.4711  -1.6102  -1.5082  -1.2606  -1.1383  -1.1317  -1.1228
    -1.0170  -0.8769  -0.6063  -0.5213  -0.5041  -0.4126  -0.4006  -0.3181
     0.3605   0.3957   0.4107   1.2013   1.4171   1.4596   1.5091   1.5952
     1.7456   1.7950   1.7976   1.8336   2.0835   2.2635   2.2807   2.2895
     2.3305   2.3641

          k = 0.0260 0.0150 0.0000 ( 22902 PWs)   bands (ev):

   -48.0149 -47.9768 -47.9525 -47.9490 -47.9030 -47.8912 -47.8871 -47.6875
   -47.6177 -47.6130 -47.6008 -47.5343 -26.2637 -26.2463 -26.2345 -26.2090
   -26.1944 -26.1904 -26.1801 -26.1127 -26.1107 -26.0914 -26.0064 -25.9445
   -25.9366 -25.8339 -25.8008 -25.7686 -25.7669 -25.7468 -25.7425 -25.7065
   -25.7064 -25.6761 -25.6179 -25.5859 -25.5618 -25.5430 -25.5328 -25.4967
   -25.4763 -25.4597 -25.4361 -25.4297 -25.4036 -25.3830 -25.3185 -25.2844
    -3.5266  -2.4711  -1.6102  -1.5082  -1.2606  -1.1383  -1.1317  -1.1228
    -1.0170  -0.8769  -0.6062  -0.5213  -0.5041  -0.4126  -0.4006  -0.3181
     0.3605   0.3957   0.4107   1.2013   1.4171   1.4597   1.5090   1.5952
     1.7456   1.7950   1.7976   1.8335   2.0834   2.2635   2.2806   2.2896
     2.3305   2.3641

          k = 0.0260 0.0450 0.0000 ( 22896 PWs)   bands (ev):

   -48.0067 -47.9660 -47.9600 -47.9490 -47.9087 -47.8990 -47.8848 -47.6776
   -47.6245 -47.6171 -47.6003 -47.5349 -26.2229 -26.1895 -26.1789 -26.1697
   -26.1629 -26.1266 -26.1216 -26.0869 -26.0846 -26.0626 -25.9994 -25.9622
   -25.9464 -25.8507 -25.8415 -25.8178 -25.7550 -25.7466 -25.7390 -25.7184
   -25.7145 -25.6954 -25.6908 -25.5968 -25.5844 -25.5759 -25.5356 -25.5176
   -25.4920 -25.4733 -25.4613 -25.4248 -25.4190 -25.3987 -25.3716 -25.3060
    -3.1736  -2.1665  -1.5428  -1.2500  -1.2052  -1.1436  -0.9804  -0.8782
    -0.8137  -0.5799  -0.3544  -0.3154  -0.2077  -0.1775  -0.1222  -0.0809
     0.4386   0.4746   0.4933   1.0758   1.2110   1.2406   1.3073   1.3929
     1.5569   1.5900   1.6701   1.7052   1.8283   1.9211   1.9413   1.9807
     2.0125   2.0513

          k = 0.0260-0.1049 0.0000 ( 22856 PWs)   bands (ev):

   -47.9941 -47.9717 -47.9493 -47.9476 -47.9233 -47.9054 -47.8823 -47.6607
   -47.6390 -47.6216 -47.5985 -47.5355 -26.1612 -26.1337 -26.1302 -26.1059
   -26.1007 -26.0630 -26.0532 -26.0421 -26.0300 -25.9977 -25.9902 -25.9733
   -25.9654 -25.9332 -25.9237 -25.8501 -25.8328 -25.8076 -25.7578 -25.7034
   -25.6974 -25.6905 -25.6670 -25.6332 -25.6210 -25.5927 -25.5711 -25.5441
   -25.5176 -25.4913 -25.4791 -25.4632 -25.4545 -25.3909 -25.3711 -25.3429
    -2.5634  -1.9338  -1.6391  -1.2746  -1.0968  -0.8722  -0.6123  -0.5624
    -0.4212  -0.2221  -0.1932   0.1485   0.1809   0.2110   0.2417   0.2922
     0.5203   0.6300   0.6798   0.7367   0.8783   0.9228   0.9977   1.0151
     1.0438   1.1866   1.3046   1.3685   1.4623   1.5117   1.5275   1.5904
     1.6661   1.6862

          k = 0.0260-0.0749 0.0000 ( 22856 PWs)   bands (ev):

   -47.9941 -47.9719 -47.9492 -47.9476 -47.9235 -47.9052 -47.8824 -47.6608
   -47.6389 -47.6216 -47.5985 -47.5355 -26.1612 -26.1337 -26.1303 -26.1059
   -26.1008 -26.0630 -26.0531 -26.0421 -26.0300 -25.9977 -25.9902 -25.9731
   -25.9656 -25.9333 -25.9238 -25.8500 -25.8326 -25.8077 -25.7578 -25.7034
   -25.6974 -25.6906 -25.6670 -25.6332 -25.6208 -25.5928 -25.5713 -25.5441
   -25.5177 -25.4912 -25.4791 -25.4632 -25.4546 -25.3909 -25.3710 -25.3429
    -2.5634  -1.9338  -1.6391  -1.2746  -1.0968  -0.8722  -0.6123  -0.5624
    -0.4212  -0.2221  -0.1932   0.1485   0.1809   0.2110   0.2417   0.2922
     0.5203   0.6300   0.6798   0.7367   0.8783   0.9228   0.9976   1.0151
     1.0438   1.1866   1.3046   1.3686   1.4623   1.5117   1.5276   1.5903
     1.6661   1.6862

          k = 0.0260-0.0450 0.0000 ( 22896 PWs)   bands (ev):

   -48.0067 -47.9659 -47.9603 -47.9488 -47.9090 -47.8985 -47.8850 -47.6776
   -47.6242 -47.6174 -47.6002 -47.5349 -26.2229 -26.1894 -26.1789 -26.1697
   -26.1630 -26.1266 -26.1217 -26.0868 -26.0847 -26.0625 -25.9995 -25.9620
   -25.9466 -25.8508 -25.8415 -25.8177 -25.7551 -25.7466 -25.7390 -25.7185
   -25.7143 -25.6954 -25.6906 -25.5968 -25.5844 -25.5759 -25.5358 -25.5176
   -25.4920 -25.4733 -25.4614 -25.4248 -25.4191 -25.3987 -25.3715 -25.3060
    -3.1736  -2.1665  -1.5428  -1.2500  -1.2052  -1.1436  -0.9805  -0.8782
    -0.8137  -0.5798  -0.3544  -0.3154  -0.2077  -0.1775  -0.1222  -0.0809
     0.4386   0.4745   0.4933   1.0758   1.2109   1.2406   1.3073   1.3929
     1.5569   1.5900   1.6701   1.7052   1.8283   1.9211   1.9413   1.9807
     2.0126   2.0513

          k = 0.0519-0.0300 0.0000 ( 22852 PWs)   bands (ev):

   -48.0032 -47.9636 -47.9609 -47.9487 -47.9160 -47.8939 -47.8877 -47.6730
   -47.6314 -47.6132 -47.6019 -47.5351 -26.2059 -26.1839 -26.1605 -26.1531
   -26.1325 -26.1250 -26.0802 -26.0772 -26.0656 -26.0530 -25.9974 -25.9662
   -25.9512 -25.8577 -25.8439 -25.8131 -25.8002 -25.7922 -25.7385 -25.7341
   -25.7168 -25.6806 -25.6689 -25.6031 -25.5925 -25.5877 -25.5436 -25.5140
   -25.4984 -25.4885 -25.4683 -25.4545 -25.4380 -25.3837 -25.3737 -25.3111
    -3.0118  -2.0558  -1.6611  -1.3569  -1.0418  -0.9872  -0.8067  -0.8035
    -0.6728  -0.5996  -0.4025  -0.1078  -0.0587  -0.0410  -0.0044   0.0337
     0.4581   0.4838   0.5771   0.9251   1.1420   1.1859   1.2050   1.2384
     1.4763   1.5745   1.6095   1.6278   1.7457   1.7986   1.8089   1.8491
     1.9344   1.9462

          k = 0.0519 0.0000 0.0000 ( 22896 PWs)   bands (ev):

   -48.0067 -47.9660 -47.9599 -47.9491 -47.9087 -47.8990 -47.8848 -47.6776
   -47.6244 -47.6172 -47.6003 -47.5349 -26.2229 -26.1895 -26.1789 -26.1697
   -26.1629 -26.1266 -26.1216 -26.0869 -26.0845 -26.0626 -25.9994 -25.9621
   -25.9465 -25.8507 -25.8415 -25.8178 -25.7550 -25.7466 -25.7390 -25.7184
   -25.7144 -25.6954 -25.6908 -25.5968 -25.5844 -25.5759 -25.5356 -25.5176
   -25.4920 -25.4733 -25.4614 -25.4248 -25.4190 -25.3987 -25.3716 -25.3060
    -3.1736  -2.1665  -1.5428  -1.2500  -1.2052  -1.1436  -0.9805  -0.8782
    -0.8137  -0.5799  -0.3544  -0.3154  -0.2077  -0.1775  -0.1222  -0.0809
     0.4386   0.4746   0.4932   1.0758   1.2109   1.2406   1.3073   1.3929
     1.5569   1.5900   1.6701   1.7052   1.8283   1.9211   1.9413   1.9807
     2.0125   2.0513

          k = 0.0519 0.0300 0.0000 ( 22852 PWs)   bands (ev):

   -48.0033 -47.9632 -47.9609 -47.9490 -47.9158 -47.8947 -47.8871 -47.6730
   -47.6316 -47.6130 -47.6020 -47.5351 -26.2060 -26.1841 -26.1605 -26.1529
   -26.1325 -26.1249 -26.0800 -26.0773 -26.0655 -26.0531 -25.9972 -25.9665
   -25.9510 -25.8578 -25.8441 -25.8127 -25.8001 -25.7924 -25.7385 -25.7341
   -25.7168 -25.6807 -25.6690 -25.6032 -25.5925 -25.5877 -25.5434 -25.5142
   -25.4982 -25.4885 -25.4684 -25.4544 -25.4380 -25.3836 -25.3737 -25.3111
    -3.0118  -2.0558  -1.6612  -1.3569  -1.0418  -0.9872  -0.8067  -0.8035
    -0.6728  -0.5996  -0.4025  -0.1078  -0.0588  -0.0410  -0.0044   0.0338
     0.4581   0.4838   0.5771   0.9251   1.1421   1.1859   1.2051   1.2384
     1.4763   1.5745   1.6095   1.6278   1.7457   1.7986   1.8089   1.8490
     1.9343   1.9462

          k = 0.0519-0.1199 0.0000 ( 22856 PWs)   bands (ev):

   -47.9943 -47.9714 -47.9495 -47.9477 -47.9231 -47.9056 -47.8823 -47.6607
   -47.6391 -47.6215 -47.5985 -47.5355 -26.1613 -26.1338 -26.1305 -26.1057
   -26.1007 -26.0629 -26.0533 -26.0419 -26.0301 -25.9976 -25.9902 -25.9731
   -25.9657 -25.9332 -25.9238 -25.8500 -25.8326 -25.8076 -25.7578 -25.7035
   -25.6975 -25.6906 -25.6670 -25.6332 -25.6209 -25.5928 -25.5712 -25.5439
   -25.5177 -25.4912 -25.4791 -25.4631 -25.4545 -25.3909 -25.3711 -25.3430
    -2.5634  -1.9338  -1.6391  -1.2746  -1.0968  -0.8721  -0.6123  -0.5624
    -0.4212  -0.2221  -0.1932   0.1484   0.1809   0.2110   0.2417   0.2922
     0.5203   0.6300   0.6798   0.7367   0.8783   0.9228   0.9976   1.0151
     1.0438   1.1865   1.3046   1.3685   1.4624   1.5117   1.5276   1.5903
     1.6661   1.6861

          k = 0.0519-0.0899 0.0000 ( 22914 PWs)   bands (ev):

   -47.9828 -47.9823 -47.9498 -47.9363 -47.9218 -47.9211 -47.8796 -47.6482
   -47.6439 -47.6317 -47.5961 -47.5357 -26.1085 -26.1074 -26.0921 -26.0838
   -26.0594 -26.0537 -26.0351 -26.0276 -26.0138 -26.0103 -25.9938 -25.9543
   -25.9540 -25.9533 -25.9493 -25.9125 -25.9117 -25.7983 -25.7196 -25.7029
   -25.6999 -25.6966 -25.6816 -25.6375 -25.6284 -25.6233 -25.5636 -25.5592
   -25.5515 -25.4902 -25.4814 -25.4607 -25.4129 -25.4083 -25.3964 -25.3639
    -2.1327  -1.8028  -1.7961  -1.4400  -0.8955  -0.8938  -0.6088  -0.0492
    -0.0358   0.0158   0.0228   0.0335   0.0344   0.4702   0.4869   0.5056
     0.5994   0.5995   0.6063   0.6123   0.6153   0.6281   0.6288   0.9070
     1.0960   1.1030   1.1264   1.1887   1.2075   1.2818   1.4353   1.4956
     1.4960   1.5218

          k = 0.0519-0.0599 0.0000 ( 22856 PWs)   bands (ev):

   -47.9941 -47.9718 -47.9492 -47.9476 -47.9235 -47.9052 -47.8824 -47.6608
   -47.6389 -47.6217 -47.5985 -47.5355 -26.1612 -26.1337 -26.1303 -26.1059
   -26.1008 -26.0630 -26.0531 -26.0421 -26.0300 -25.9977 -25.9902 -25.9731
   -25.9656 -25.9333 -25.9238 -25.8500 -25.8326 -25.8077 -25.7578 -25.7034
   -25.6974 -25.6906 -25.6670 -25.6332 -25.6209 -25.5928 -25.5713 -25.5441
   -25.5177 -25.4912 -25.4791 -25.4632 -25.4546 -25.3909 -25.3710 -25.3429
    -2.5634  -1.9338  -1.6391  -1.2746  -1.0968  -0.8722  -0.6123  -0.5624
    -0.4212  -0.2221  -0.1932   0.1485   0.1809   0.2110   0.2417   0.2922
     0.5203   0.6300   0.6798   0.7367   0.8782   0.9228   0.9976   1.0151
     1.0438   1.1866   1.3046   1.3686   1.4623   1.5117   1.5275   1.5903
     1.6661   1.6862

          k =-0.0779 0.0450 0.0000 ( 22880 PWs)   bands (ev):

   -47.9936 -47.9727 -47.9487 -47.9435 -47.9329 -47.8946 -47.8877 -47.6570
   -47.6473 -47.6132 -47.6023 -47.5354 -26.1721 -26.1407 -26.1277 -26.1158
   -26.1047 -26.0803 -26.0480 -26.0391 -26.0186 -25.9875 -25.9725 -25.9528
   -25.9169 -25.9088 -25.9006 -25.8983 -25.8731 -25.8556 -25.7860 -25.7064
   -25.6738 -25.6690 -25.6375 -25.6302 -25.6034 -25.5880 -25.5721 -25.5528
   -25.5486 -25.5143 -25.4849 -25.4736 -25.4601 -25.3729 -25.3558 -25.3406
    -2.4020  -2.2323  -1.6881  -1.2953  -0.9985  -0.5800  -0.5684  -0.5045
    -0.4806  -0.4568  -0.3984   0.2566   0.2825   0.3286   0.3400   0.3593
     0.3967   0.7453   0.7636   0.7838   0.8205   0.8458   0.9173   1.1088
     1.1318   1.1646   1.2674   1.3594   1.3660   1.3876   1.5118   1.5945
     1.6939   1.9409

          k =-0.0779 0.0749 0.0000 ( 22856 PWs)   bands (ev):

   -47.9942 -47.9716 -47.9493 -47.9476 -47.9234 -47.9053 -47.8824 -47.6608
   -47.6390 -47.6216 -47.5985 -47.5355 -26.1612 -26.1337 -26.1302 -26.1060
   -26.1007 -26.0630 -26.0532 -26.0420 -26.0300 -25.9977 -25.9902 -25.9733
   -25.9654 -25.9332 -25.9237 -25.8501 -25.8328 -25.8076 -25.7578 -25.7035
   -25.6974 -25.6906 -25.6669 -25.6332 -25.6209 -25.5927 -25.5712 -25.5441
   -25.5176 -25.4913 -25.4791 -25.4632 -25.4545 -25.3909 -25.3711 -25.3429
    -2.5634  -1.9338  -1.6391  -1.2746  -1.0968  -0.8722  -0.6123  -0.5624
    -0.4212  -0.2221  -0.1932   0.1485   0.1809   0.2110   0.2417   0.2922
     0.5203   0.6300   0.6798   0.7367   0.8783   0.9228   0.9977   1.0151
     1.0438   1.1866   1.3046   1.3685   1.4623   1.5117   1.5275   1.5904
     1.6661   1.6862

          k =-0.0779 0.1049 0.0000 ( 22856 PWs)   bands (ev):

   -47.9943 -47.9713 -47.9495 -47.9477 -47.9231 -47.9056 -47.8823 -47.6607
   -47.6391 -47.6215 -47.5985 -47.5355 -26.1613 -26.1338 -26.1305 -26.1057
   -26.1006 -26.0629 -26.0533 -26.0419 -26.0300 -25.9976 -25.9902 -25.9731
   -25.9657 -25.9332 -25.9238 -25.8500 -25.8326 -25.8077 -25.7578 -25.7035
   -25.6975 -25.6906 -25.6670 -25.6332 -25.6209 -25.5928 -25.5712 -25.5440
   -25.5177 -25.4912 -25.4791 -25.4631 -25.4545 -25.3909 -25.3710 -25.3430
    -2.5634  -1.9338  -1.6391  -1.2746  -1.0968  -0.8721  -0.6123  -0.5624
    -0.4212  -0.2221  -0.1932   0.1485   0.1809   0.2110   0.2417   0.2922
     0.5203   0.6300   0.6798   0.7367   0.8783   0.9228   0.9976   1.0151
     1.0438   1.1865   1.3046   1.3685   1.4624   1.5117   1.5276   1.5903
     1.6661   1.6861

          k =-0.0779-0.0450 0.0000 ( 22880 PWs)   bands (ev):

   -47.9939 -47.9721 -47.9490 -47.9438 -47.9324 -47.8953 -47.8872 -47.6568
   -47.6477 -47.6130 -47.6024 -47.5354 -26.1723 -26.1410 -26.1279 -26.1155
   -26.1044 -26.0801 -26.0480 -26.0389 -26.0187 -25.9877 -25.9723 -25.9529
   -25.9171 -25.9085 -25.9007 -25.8978 -25.8738 -25.8552 -25.7860 -25.7065
   -25.6739 -25.6692 -25.6380 -25.6298 -25.6033 -25.5880 -25.5719 -25.5528
   -25.5488 -25.5141 -25.4849 -25.4737 -25.4600 -25.3729 -25.3556 -25.3408
    -2.4020  -2.2324  -1.6881  -1.2954  -0.9984  -0.5800  -0.5684  -0.5045
    -0.4806  -0.4569  -0.3984   0.2565   0.2825   0.3286   0.3400   0.3593
     0.3967   0.7453   0.7636   0.7839   0.8206   0.8458   0.9173   1.1089
     1.1318   1.1646   1.2673   1.3595   1.3659   1.3876   1.5119   1.5944
     1.6938   1.9410

     the Fermi energy is     1.3031 ev

!    total energy              =   -1198.01833817 Ry
     Harris-Foulkes estimate   =   -1198.01834443 Ry
     estimated scf accuracy    <       0.00000538 Ry

     The total energy is the sum of the following terms:

     one-electron contribution =   -8219.99477294 Ry
     hartree contribution      =    4100.20697609 Ry
     xc contribution           =    -221.25678352 Ry
     ewald contribution        =    3143.14564484 Ry
     electric field correction =       0.00003716 Ry
     smearing contrib. (-TS)   =      -0.11943979 Ry

     convergence has been achieved in  19 iterations
 
 BEEF-vdW xc energy contributions
           1 :   -189.530690961757     
           2 :    171.542487548827     
           3 :   -141.213394668821     
           4 :    107.088540067873     
           5 :   -76.9056232690991     
           6 :    54.8636586189299     
           7 :   -40.9502238575501     
           8 :    32.2594691877481     
           9 :   -25.2626908491267     
          10 :    17.7349594264838     
          11 :   -9.48728301247377     
          12 :    1.83043843584562     
          13 :    3.65181793813724     
          14 :   -6.21119072375700     
          15 :    6.33686945843652     
          16 :   -5.35266891681181     
          17 :    4.57802672503504     
          18 :   -4.61844509949464     
          19 :    5.19488041328640     
          20 :   -5.53874055364923     
          21 :    5.02623859444344     
          22 :   -3.61992935086965     
          23 :    1.86459137296421     
          24 :  -0.500469785551672     
          25 :  -9.791163510442402E-003
          26 :  -0.269877370394681     
          27 :   0.853249127467620     
          28 :   -1.18336660892453     
          29 :   0.985733746481060     
          30 :  -0.403221552121209     
          31 :   -21.9379977631828     
          32 :   -16.3446359677198     

     Forces acting on atoms (Ry/au):


     negative rho (up, down):  7.482E-01 0.000E+00
     atom    1 type  1   force =    -0.00006283   -0.00003481    0.01532286
     atom    2 type  1   force =     0.00006646   -0.00005999    0.01534845
     atom    3 type  1   force =    -0.00002297    0.00008548    0.01534067
     atom    4 type  1   force =     0.00002450    0.00001006    0.01680284
     atom    5 type  1   force =     0.00005186    0.00918998   -0.01103009
     atom    6 type  1   force =    -0.00005275   -0.00003782   -0.00039886
     atom    7 type  1   force =    -0.00799743   -0.00460969   -0.01095880
     atom    8 type  1   force =     0.00799020   -0.00454411   -0.01102828
     atom    9 type  1   force =    -0.00001210   -0.00000639   -0.05789415
     atom   10 type  1   force =     0.00001637    0.00280334   -0.01300393
     atom   11 type  1   force =     0.00243260   -0.00138764   -0.01299969
     atom   12 type  1   force =    -0.00243273   -0.00140800   -0.01300610
     atom   13 type  2   force =    -0.00000117   -0.00000041    0.06750507

     Total force =     0.091867     Total SCF correction =     0.006546


     entering subroutine stress ...


     negative rho (up, down):  7.482E-01 0.000E+00
          total   stress  (Ry/bohr**3)                   (kbar)     P=   -9.77
  -0.00007820  -0.00000000  -0.00000000        -11.50     -0.00     -0.00
  -0.00000000  -0.00007820  -0.00000000         -0.00    -11.50     -0.00
  -0.00000000  -0.00000000  -0.00004286         -0.00     -0.00     -6.31


     BFGS Geometry Optimization

     number of scf cycles    =   1
     number of bfgs steps    =   0

     energy   new            =   -1198.0183381686 Ry

     new trust radius        =       0.0675050722 bohr
     new conv_thr            =       0.0000099958 Ry


ATOMIC_POSITIONS (crystal)
Zr1      0.166666667   0.166666667   0.396150897    0   0   0
Zr1      0.666666667   0.166666667   0.396150897    0   0   0
Zr1      0.166666667   0.666666667   0.396150897    0   0   0
Zr1      0.666666667   0.666666667   0.396150897    0   0   0
Zr1      0.833333333   0.333333333   0.500000000    0   0   0
Zr1      0.333333333   0.333333333   0.500000000    0   0   0
Zr1      0.833333333   0.833333333   0.500000000    0   0   0
Zr1      0.333333333   0.833333333   0.500000000    0   0   0
Zr1     -0.000000693  -0.000000608   0.602635444
Zr1      0.499867967   0.000266765   0.603576496
Zr1      0.000266496   0.499867952   0.603576585
Zr1      0.499866509   0.499866015   0.603576451
H1      -0.000000077  -0.000000039   0.674630261



     Writing output data file calc.save
     Check: negative starting charge=   -0.729068
     NEW-OLD atomic charge density approx. for the potential
     Check: negative starting charge=   -0.729090

     negative rho (up, down):  7.482E-01 0.000E+00
 
     Adding external electric field

     Computed dipole along edir(3) : 
        Dipole               -0.1343 Ry au,         -0.3414 Debye
        Dipole field         -0.0003 Ry au
 
        Potential amp.        0.0258 Ry
        Total length         46.5096 bohr
 

     total cpu time spent up to now is      614.7 secs

     per-process dynamical memory:    88.9 Mb

     Self-consistent Calculation

     iteration #  1     ecut=    36.75 Ry     beta=0.30
     Davidson diagonalization with overlap
     ethr =  1.00E-06,  avg # of iterations =  8.9

     negative rho (up, down):  7.483E-01 0.000E+00
 
     Adding external electric field

     Computed dipole along edir(3) : 
        Dipole               -0.0415 Ry au,         -0.1055 Debye
        Dipole field         -0.0001 Ry au
 
        Potential amp.        0.0080 Ry
        Total length         46.5096 bohr
 

     total cpu time spent up to now is      649.0 secs

     total energy              =   -1198.02085579 Ry
     Harris-Foulkes estimate   =   -1198.02549655 Ry
     estimated scf accuracy    <       0.00982061 Ry

     iteration #  2     ecut=    36.75 Ry     beta=0.30
     Davidson diagonalization with overlap
     ethr =  6.77E-06,  avg # of iterations =  6.2

     negative rho (up, down):  7.483E-01 0.000E+00
 
     Adding external electric field

     Computed dipole along edir(3) : 
        Dipole               -0.2453 Ry au,         -0.6235 Debye
        Dipole field         -0.0005 Ry au
 
        Potential amp.        0.0471 Ry
        Total length         46.5096 bohr
 

     total cpu time spent up to now is      675.9 secs

     total energy              =   -1198.00419264 Ry
     Harris-Foulkes estimate   =   -1198.04111577 Ry
     estimated scf accuracy    <       0.86952926 Ry

     iteration #  3     ecut=    36.75 Ry     beta=0.30
     Davidson diagonalization with overlap
     ethr =  6.77E-06,  avg # of iterations =  7.3

     negative rho (up, down):  7.483E-01 0.000E+00
 
     Adding external electric field

     Computed dipole along edir(3) : 
        Dipole               -0.1284 Ry au,         -0.3264 Debye
        Dipole field         -0.0003 Ry au
 
        Potential amp.        0.0247 Ry
        Total length         46.5096 bohr
 

     total cpu time spent up to now is      703.1 secs

     total energy              =   -1198.01030612 Ry
     Harris-Foulkes estimate   =   -1198.03977687 Ry
     estimated scf accuracy    <       1.36613019 Ry

     iteration #  4     ecut=    36.75 Ry     beta=0.30
     Davidson diagonalization with overlap
     ethr =  6.77E-06,  avg # of iterations =  6.2

     negative rho (up, down):  7.483E-01 0.000E+00
 
     Adding external electric field

     Computed dipole along edir(3) : 
        Dipole               -0.1420 Ry au,         -0.3609 Debye
        Dipole field         -0.0003 Ry au
 
        Potential amp.        0.0273 Ry
        Total length         46.5096 bohr
 

     total cpu time spent up to now is      728.7 secs

     total energy              =   -1198.02485513 Ry
     Harris-Foulkes estimate   =   -1198.02492036 Ry
     estimated scf accuracy    <       0.00045106 Ry

     iteration #  5     ecut=    36.75 Ry     beta=0.30
     Davidson diagonalization with overlap
     ethr =  3.11E-07,  avg # of iterations =  4.7

     negative rho (up, down):  7.483E-01 0.000E+00
 
     Adding external electric field

     Computed dipole along edir(3) : 
        Dipole               -0.1456 Ry au,         -0.3702 Debye
        Dipole field         -0.0003 Ry au
 
        Potential amp.        0.0280 Ry
        Total length         46.5096 bohr
 

     total cpu time spent up to now is      753.0 secs

     total energy              =   -1198.02489357 Ry
     Harris-Foulkes estimate   =   -1198.02491752 Ry
     estimated scf accuracy    <       0.00017928 Ry

     iteration #  6     ecut=    36.75 Ry     beta=0.30
     Davidson diagonalization with overlap
     ethr =  1.24E-07,  avg # of iterations =  4.3

     negative rho (up, down):  7.483E-01 0.000E+00
 
     Adding external electric field

     Computed dipole along edir(3) : 
        Dipole               -0.1449 Ry au,         -0.3684 Debye
        Dipole field         -0.0003 Ry au
 
        Potential amp.        0.0278 Ry
        Total length         46.5096 bohr
 

     total cpu time spent up to now is      777.0 secs

     total energy              =   -1198.02491064 Ry
     Harris-Foulkes estimate   =   -1198.02491654 Ry
     estimated scf accuracy    <       0.00005936 Ry

     iteration #  7     ecut=    36.75 Ry     beta=0.30
     Davidson diagonalization with overlap
     ethr =  4.09E-08,  avg # of iterations =  3.8

     negative rho (up, down):  7.483E-01 0.000E+00
 
     Adding external electric field

     Computed dipole along edir(3) : 
        Dipole               -0.1453 Ry au,         -0.3694 Debye
        Dipole field         -0.0003 Ry au
 
        Potential amp.        0.0279 Ry
        Total length         46.5096 bohr
 

     total cpu time spent up to now is      800.2 secs

     total energy              =   -1198.02491837 Ry
     Harris-Foulkes estimate   =   -1198.02491700 Ry
     estimated scf accuracy    <       0.00001133 Ry

     iteration #  8     ecut=    36.75 Ry     beta=0.30
     Davidson diagonalization with overlap
     ethr =  7.81E-09,  avg # of iterations =  4.7

     negative rho (up, down):  7.483E-01 0.000E+00

     negative rho (up, down):  7.483E-01 0.000E+00

     negative rho (up, down):  7.483E-01 0.000E+00

     negative rho (up, down):  7.483E-01 0.000E+00

     negative rho (up, down):  7.483E-01 0.000E+00

     negative rho (up, down):  7.483E-01 0.000E+00

     negative rho (up, down):  7.483E-01 0.000E+00

     negative rho (up, down):  7.483E-01 0.000E+00

     negative rho (up, down):  7.483E-01 0.000E+00

     negative rho (up, down):  7.483E-01 0.000E+00

     negative rho (up, down):  7.483E-01 0.000E+00

     negative rho (up, down):  7.483E-01 0.000E+00

     negative rho (up, down):  7.483E-01 0.000E+00

     negative rho (up, down):  7.483E-01 0.000E+00

     negative rho (up, down):  7.483E-01 0.000E+00

     negative rho (up, down):  7.483E-01 0.000E+00

     negative rho (up, down):  7.483E-01 0.000E+00

     negative rho (up, down):  7.483E-01 0.000E+00

     negative rho (up, down):  7.483E-01 0.000E+00

     negative rho (up, down):  7.483E-01 0.000E+00

     negative rho (up, down):  7.483E-01 0.000E+00

     negative rho (up, down):  7.483E-01 0.000E+00

     negative rho (up, down):  7.483E-01 0.000E+00

     negative rho (up, down):  7.483E-01 0.000E+00

     negative rho (up, down):  7.483E-01 0.000E+00

     negative rho (up, down):  7.483E-01 0.000E+00

     negative rho (up, down):  7.483E-01 0.000E+00

     negative rho (up, down):  7.483E-01 0.000E+00

     negative rho (up, down):  7.483E-01 0.000E+00

     negative rho (up, down):  7.483E-01 0.000E+00

     negative rho (up, down):  7.483E-01 0.000E+00

     negative rho (up, down):  7.483E-01 0.000E+00

     negative rho (up, down):  7.483E-01 0.000E+00

     negative rho (up, down):  7.483E-01 0.000E+00

     negative rho (up, down):  7.483E-01 0.000E+00
 
     Adding external electric field

     Computed dipole along edir(3) : 
        Dipole               -0.1407 Ry au,         -0.3575 Debye
        Dipole field         -0.0003 Ry au
 
        Potential amp.        0.0270 Ry
        Total length         46.5096 bohr
 

     total cpu time spent up to now is      883.9 secs

     End of self-consistent calculation

          k = 0.0000 0.0000 0.0000 ( 22923 PWs)   bands (ev):

   -48.0339 -47.9897 -47.9638 -47.9623 -47.9072 -47.8953 -47.8942 -47.6978
   -47.6170 -47.6165 -47.6074 -47.5711 -26.3042 -26.2833 -26.2826 -26.2456
   -26.2311 -26.2303 -26.2215 -26.1409 -26.1402 -26.1192 -26.0215 -25.9436
   -25.9424 -25.8428 -25.7978 -25.7855 -25.7849 -25.7269 -25.7265 -25.7192
   -25.6879 -25.6868 -25.6153 -25.5578 -25.5578 -25.5431 -25.5427 -25.5100
   -25.4695 -25.4692 -25.4253 -25.4175 -25.4173 -25.3939 -25.2796 -25.2795
    -3.7231  -2.6510  -1.7672  -1.5368  -1.2887  -1.2886  -1.2837  -1.1662
    -1.1662  -0.9573  -0.7318  -0.7316  -0.6877  -0.5335  -0.5334  -0.4340
     0.3036   0.3439   0.3443   1.2298   1.4475   1.4798   1.4799   1.6849
     1.8504   1.9679   1.9684   2.0433   2.1740   2.1741   2.4287   2.4288
     2.4360   2.4360

          k = 0.0000 0.0300 0.0000 ( 22902 PWs)   bands (ev):

   -48.0293 -47.9839 -47.9676 -47.9626 -47.9098 -47.8984 -47.8945 -47.6925
   -47.6216 -47.6169 -47.6082 -47.5713 -26.2761 -26.2577 -26.2461 -26.2184
   -26.2083 -26.2055 -26.1931 -26.1248 -26.1235 -26.0998 -26.0166 -25.9553
   -25.9471 -25.8430 -25.8155 -25.7752 -25.7738 -25.7539 -25.7498 -25.7212
   -25.7142 -25.6901 -25.6281 -25.5965 -25.5691 -25.5576 -25.5427 -25.5044
   -25.4876 -25.4738 -25.4459 -25.4419 -25.4127 -25.3891 -25.3234 -25.2895
    -3.5352  -2.4738  -1.5979  -1.4846  -1.2741  -1.1553  -1.1504  -1.1346
    -1.0321  -0.8744  -0.6169  -0.5351  -0.5159  -0.4259  -0.4142  -0.3277
     0.3498   0.3849   0.4023   1.1952   1.4130   1.4549   1.5074   1.5888
     1.7495   1.7860   1.7931   1.8270   2.0709   2.2513   2.2666   2.2715
     2.3214   2.3562

          k = 0.0000 0.0599 0.0000 ( 22852 PWs)   bands (ev):

   -48.0176 -47.9784 -47.9679 -47.9627 -47.9228 -47.9016 -47.8945 -47.6781
   -47.6361 -47.6169 -47.6088 -47.5720 -26.2187 -26.1948 -26.1747 -26.1618
   -26.1457 -26.1411 -26.0938 -26.0904 -26.0764 -26.0616 -26.0065 -25.9760
   -25.9610 -25.8722 -25.8539 -25.8201 -25.8133 -25.8018 -25.7460 -25.7404
   -25.7240 -25.6918 -25.6787 -25.6249 -25.6036 -25.5998 -25.5552 -25.5198
   -25.5040 -25.4956 -25.4779 -25.4742 -25.4437 -25.3896 -25.3784 -25.3163
    -3.0178  -2.0427  -1.6612  -1.3357  -1.0551  -0.9894  -0.8232  -0.8187
    -0.6889  -0.6120  -0.4109  -0.1209  -0.0731  -0.0578  -0.0207   0.0250
     0.4482   0.4707   0.5699   0.9167   1.1302   1.1739   1.1928   1.2318
     1.4667   1.5627   1.5974   1.6224   1.7343   1.7912   1.7986   1.8471
     1.9180   1.9397

          k = 0.0000-0.0899 0.0000 ( 22880 PWs)   bands (ev):

   -48.0077 -47.9878 -47.9627 -47.9505 -47.9398 -47.9022 -47.8945 -47.6624
   -47.6520 -47.6169 -47.6090 -47.5723 -26.1851 -26.1508 -26.1429 -26.1237
   -26.1190 -26.0977 -26.0624 -26.0483 -26.0288 -25.9972 -25.9826 -25.9650
   -25.9249 -25.9191 -25.9130 -25.9080 -25.8821 -25.8628 -25.7977 -25.7128
   -25.6958 -25.6818 -25.6450 -25.6373 -25.6213 -25.5931 -25.5809 -25.5606
   -25.5547 -25.5253 -25.4921 -25.4810 -25.4781 -25.3775 -25.3605 -25.3464
    -2.3911  -2.2438  -1.6616  -1.3054  -0.9856  -0.5945  -0.5837  -0.5189
    -0.4909  -0.4735  -0.4109   0.2425   0.2684   0.3168   0.3178   0.3484
     0.3839   0.7323   0.7487   0.7731   0.8085   0.8357   0.9035   1.1003
     1.1218   1.1486   1.2607   1.3461   1.3533   1.3778   1.5175   1.5800
     1.6959   1.9364

          k = 0.0260-0.0150 0.0000 ( 22902 PWs)   bands (ev):

   -48.0293 -47.9839 -47.9675 -47.9626 -47.9098 -47.8985 -47.8944 -47.6925
   -47.6216 -47.6168 -47.6082 -47.5713 -26.2762 -26.2577 -26.2461 -26.2184
   -26.2083 -26.2055 -26.1931 -26.1249 -26.1234 -26.0999 -26.0166 -25.9553
   -25.9471 -25.8430 -25.8155 -25.7752 -25.7738 -25.7540 -25.7498 -25.7212
   -25.7142 -25.6902 -25.6281 -25.5965 -25.5691 -25.5576 -25.5426 -25.5044
   -25.4877 -25.4738 -25.4458 -25.4419 -25.4127 -25.3891 -25.3234 -25.2895
    -3.5352  -2.4738  -1.5979  -1.4846  -1.2741  -1.1553  -1.1504  -1.1346
    -1.0321  -0.8744  -0.6169  -0.5351  -0.5159  -0.4259  -0.4142  -0.3277
     0.3498   0.3849   0.4023   1.1952   1.4130   1.4549   1.5074   1.5888
     1.7495   1.7860   1.7931   1.8269   2.0709   2.2513   2.2666   2.2716
     2.3214   2.3562

          k = 0.0260 0.0150 0.0000 ( 22902 PWs)   bands (ev):

   -48.0294 -47.9839 -47.9663 -47.9638 -47.9100 -47.8974 -47.8953 -47.6925
   -47.6219 -47.6165 -47.6083 -47.5713 -26.2765 -26.2572 -26.2464 -26.2188
   -26.2083 -26.2048 -26.1933 -26.1254 -26.1228 -26.0999 -26.0166 -25.9544
   -25.9479 -25.8430 -25.8156 -25.7756 -25.7734 -25.7536 -25.7502 -25.7204
   -25.7142 -25.6910 -25.6280 -25.5965 -25.5691 -25.5579 -25.5423 -25.5043
   -25.4879 -25.4736 -25.4458 -25.4421 -25.4126 -25.3891 -25.3233 -25.2895
    -3.5352  -2.4738  -1.5979  -1.4847  -1.2741  -1.1554  -1.1503  -1.1346
    -1.0321  -0.8745  -0.6169  -0.5349  -0.5160  -0.4258  -0.4143  -0.3276
     0.3497   0.3852   0.4021   1.1952   1.4130   1.4549   1.5075   1.5889
     1.7495   1.7857   1.7933   1.8270   2.0709   2.2513   2.2665   2.2718
     2.3214   2.3563

          k = 0.0260 0.0450 0.0000 ( 22896 PWs)   bands (ev):

   -48.0212 -47.9741 -47.9729 -47.9635 -47.9159 -47.9059 -47.8922 -47.6826
   -47.6288 -47.6217 -47.6066 -47.5718 -26.2355 -26.1994 -26.1923 -26.1834
   -26.1753 -26.1385 -26.1341 -26.1001 -26.0980 -26.0711 -26.0090 -25.9713
   -25.9570 -25.8655 -25.8504 -25.8268 -25.7669 -25.7534 -25.7470 -25.7260
   -25.7214 -25.7054 -25.7028 -25.6090 -25.5982 -25.5918 -25.5486 -25.5237
   -25.4998 -25.4851 -25.4758 -25.4307 -25.4278 -25.4052 -25.3760 -25.3110
    -3.1806  -2.1609  -1.5063  -1.2642  -1.2171  -1.1479  -0.9973  -0.8853
    -0.8284  -0.5931  -0.3671  -0.3258  -0.2207  -0.1902  -0.1405  -0.0907
     0.4276   0.4629   0.4861   1.0696   1.1997   1.2310   1.2972   1.3865
     1.5467   1.5851   1.6591   1.6995   1.8129   1.9151   1.9310   1.9782
     2.0029   2.0439

          k = 0.0260-0.1049 0.0000 ( 22856 PWs)   bands (ev):

   -48.0085 -47.9862 -47.9635 -47.9546 -47.9304 -47.9126 -47.8895 -47.6659
   -47.6437 -47.6264 -47.6041 -47.5724 -26.1741 -26.1482 -26.1408 -26.1182
   -26.1149 -26.0755 -26.0673 -26.0538 -26.0396 -26.0084 -25.9990 -25.9835
   -25.9757 -25.9425 -25.9335 -25.8615 -25.8442 -25.8191 -25.7656 -25.7158
   -25.7067 -25.6989 -25.6767 -25.6403 -25.6301 -25.6118 -25.5819 -25.5600
   -25.5232 -25.4989 -25.4880 -25.4748 -25.4630 -25.3965 -25.3756 -25.3480
    -2.5638  -1.9129  -1.6378  -1.2700  -1.1072  -0.8760  -0.6261  -0.5727
    -0.4384  -0.2384  -0.2049   0.1340   0.1663   0.1943   0.2295   0.2778
     0.5074   0.6198   0.6685   0.7252   0.8655   0.9103   0.9875   1.0052
     1.0306   1.1747   1.3026   1.3564   1.4549   1.4977   1.5171   1.5799
     1.6581   1.6869

          k = 0.0260-0.0749 0.0000 ( 22856 PWs)   bands (ev):

   -48.0082 -47.9867 -47.9632 -47.9546 -47.9302 -47.9128 -47.8895 -47.6660
   -47.6436 -47.6265 -47.6041 -47.5724 -26.1741 -26.1481 -26.1408 -26.1181
   -26.1151 -26.0754 -26.0670 -26.0540 -26.0396 -26.0082 -25.9991 -25.9838
   -25.9759 -25.9426 -25.9338 -25.8612 -25.8441 -25.8189 -25.7657 -25.7156
   -25.7067 -25.6989 -25.6767 -25.6403 -25.6300 -25.6119 -25.5820 -25.5602
   -25.5232 -25.4988 -25.4880 -25.4748 -25.4630 -25.3966 -25.3756 -25.3480
    -2.5638  -1.9129  -1.6378  -1.2699  -1.1073  -0.8760  -0.6260  -0.5728
    -0.4384  -0.2384  -0.2049   0.1340   0.1664   0.1943   0.2295   0.2777
     0.5074   0.6198   0.6686   0.7251   0.8656   0.9103   0.9875   1.0052
     1.0307   1.1746   1.3027   1.3564   1.4548   1.4979   1.5169   1.5799
     1.6580   1.6870

          k = 0.0260-0.0450 0.0000 ( 22896 PWs)   bands (ev):

   -48.0211 -47.9751 -47.9730 -47.9627 -47.9153 -47.9066 -47.8919 -47.6826
   -47.6286 -47.6220 -47.6065 -47.5718 -26.2353 -26.1996 -26.1919 -26.1834
   -26.1755 -26.1381 -26.1347 -26.0995 -26.0987 -26.0710 -26.0089 -25.9720
   -25.9565 -25.8657 -25.8504 -25.8269 -25.7671 -25.7531 -25.7471 -25.7259
   -25.7216 -25.7047 -25.7028 -25.6090 -25.5981 -25.5919 -25.5489 -25.5235
   -25.4998 -25.4850 -25.4760 -25.4307 -25.4279 -25.4052 -25.3760 -25.3110
    -3.1806  -2.1609  -1.5062  -1.2642  -1.2171  -1.1478  -0.9973  -0.8854
    -0.8284  -0.5931  -0.3670  -0.3259  -0.2207  -0.1901  -0.1406  -0.0907
     0.4278   0.4626   0.4862   1.0696   1.1998   1.2308   1.2972   1.3864
     1.5468   1.5850   1.6592   1.6994   1.8129   1.9151   1.9310   1.9782
     2.0029   2.0440

          k = 0.0519-0.0300 0.0000 ( 22852 PWs)   bands (ev):

   -48.0176 -47.9782 -47.9679 -47.9627 -47.9228 -47.9017 -47.8945 -47.6781
   -47.6362 -47.6168 -47.6088 -47.5720 -26.2188 -26.1948 -26.1747 -26.1618
   -26.1457 -26.1410 -26.0938 -26.0905 -26.0764 -26.0616 -26.0065 -25.9760
   -25.9610 -25.8722 -25.8539 -25.8201 -25.8132 -25.8018 -25.7460 -25.7404
   -25.7239 -25.6918 -25.6788 -25.6249 -25.6036 -25.5998 -25.5551 -25.5199
   -25.5040 -25.4956 -25.4780 -25.4742 -25.4437 -25.3896 -25.3784 -25.3163
    -3.0178  -2.0427  -1.6612  -1.3357  -1.0551  -0.9894  -0.8232  -0.8186
    -0.6889  -0.6120  -0.4109  -0.1209  -0.0731  -0.0578  -0.0207   0.0250
     0.4482   0.4707   0.5699   0.9167   1.1302   1.1739   1.1928   1.2318
     1.4667   1.5627   1.5974   1.6224   1.7343   1.7912   1.7986   1.8471
     1.9180   1.9397

          k = 0.0519 0.0000 0.0000 ( 22896 PWs)   bands (ev):

   -48.0212 -47.9740 -47.9729 -47.9636 -47.9158 -47.9059 -47.8921 -47.6826
   -47.6289 -47.6216 -47.6066 -47.5718 -26.2355 -26.1994 -26.1923 -26.1834
   -26.1753 -26.1385 -26.1341 -26.1001 -26.0980 -26.0711 -26.0090 -25.9713
   -25.9570 -25.8655 -25.8504 -25.8268 -25.7669 -25.7534 -25.7470 -25.7260
   -25.7214 -25.7054 -25.7028 -25.6090 -25.5982 -25.5918 -25.5485 -25.5237
   -25.4998 -25.4851 -25.4758 -25.4307 -25.4278 -25.4053 -25.3760 -25.3111
    -3.1806  -2.1609  -1.5063  -1.2642  -1.2171  -1.1479  -0.9973  -0.8853
    -0.8284  -0.5931  -0.3671  -0.3258  -0.2207  -0.1902  -0.1405  -0.0907
     0.4276   0.4629   0.4861   1.0696   1.1997   1.2310   1.2972   1.3865
     1.5467   1.5851   1.6591   1.6995   1.8129   1.9151   1.9311   1.9782
     2.0029   2.0438

          k = 0.0519 0.0300 0.0000 ( 22852 PWs)   bands (ev):

   -48.0179 -47.9768 -47.9679 -47.9638 -47.9232 -47.9006 -47.8953 -47.6780
   -47.6364 -47.6165 -47.6090 -47.5720 -26.2195 -26.1941 -26.1748 -26.1624
   -26.1456 -26.1402 -26.0931 -26.0912 -26.0763 -26.0617 -26.0066 -25.9752
   -25.9617 -25.8726 -25.8537 -25.8206 -25.8123 -25.8014 -25.7459 -25.7409
   -25.7238 -25.6925 -25.6790 -25.6251 -25.6034 -25.5998 -25.5548 -25.5201
   -25.5039 -25.4956 -25.4781 -25.4739 -25.4437 -25.3895 -25.3784 -25.3163
    -3.0178  -2.0426  -1.6613  -1.3357  -1.0553  -0.9891  -0.8230  -0.8188
    -0.6889  -0.6120  -0.4109  -0.1208  -0.0732  -0.0578  -0.0205   0.0249
     0.4479   0.4711   0.5699   0.9167   1.1302   1.1740   1.1928   1.2319
     1.4667   1.5626   1.5976   1.6223   1.7344   1.7911   1.7987   1.8472
     1.9179   1.9399

          k = 0.0519-0.1199 0.0000 ( 22856 PWs)   bands (ev):

   -48.0090 -47.9851 -47.9641 -47.9545 -47.9307 -47.9123 -47.8896 -47.6658
   -47.6439 -47.6262 -47.6041 -47.5725 -26.1747 -26.1483 -26.1407 -26.1180
   -26.1146 -26.0751 -26.0677 -26.0534 -26.0396 -26.0081 -25.9990 -25.9839
   -25.9756 -25.9426 -25.9338 -25.8611 -25.8440 -25.8188 -25.7657 -25.7163
   -25.7068 -25.6991 -25.6768 -25.6403 -25.6299 -25.6119 -25.5817 -25.5599
   -25.5233 -25.4989 -25.4881 -25.4747 -25.4630 -25.3965 -25.3756 -25.3481
    -2.5637  -1.9129  -1.6379  -1.2699  -1.1073  -0.8760  -0.6261  -0.5727
    -0.4384  -0.2384  -0.2050   0.1340   0.1663   0.1943   0.2294   0.2778
     0.5074   0.6199   0.6685   0.7251   0.8656   0.9103   0.9874   1.0053
     1.0308   1.1747   1.3026   1.3564   1.4549   1.4979   1.5169   1.5800
     1.6580   1.6869

          k = 0.0519-0.0899 0.0000 ( 22914 PWs)   bands (ev):

   -47.9976 -47.9961 -47.9641 -47.9429 -47.9293 -47.9283 -47.8867 -47.6542
   -47.6475 -47.6372 -47.6012 -47.5728 -26.1236 -26.1227 -26.1053 -26.0967
   -26.0739 -26.0636 -26.0453 -26.0365 -26.0236 -26.0233 -26.0038 -25.9620
   -25.9615 -25.9606 -25.9568 -25.9290 -25.9270 -25.8133 -25.7324 -25.7097
   -25.7071 -25.7034 -25.6888 -25.6459 -25.6382 -25.6340 -25.5821 -25.5773
   -25.5601 -25.4999 -25.4891 -25.4712 -25.4172 -25.4145 -25.4021 -25.3679
    -2.0973  -1.8149  -1.8078  -1.4241  -0.9053  -0.9048  -0.6122  -0.0767
    -0.0448  -0.0007   0.0069   0.0171   0.0213   0.4522   0.4717   0.4947
     0.5843   0.5856   0.5952   0.5973   0.6053   0.6120   0.6238   0.9048
     1.0926   1.0965   1.1117   1.1784   1.1968   1.2700   1.4324   1.4818
     1.4934   1.5113

          k = 0.0519-0.0599 0.0000 ( 22856 PWs)   bands (ev):

   -48.0082 -47.9866 -47.9632 -47.9546 -47.9301 -47.9129 -47.8894 -47.6659
   -47.6437 -47.6265 -47.6041 -47.5724 -26.1741 -26.1481 -26.1408 -26.1180
   -26.1151 -26.0754 -26.0670 -26.0540 -26.0396 -26.0082 -25.9991 -25.9838
   -25.9759 -25.9426 -25.9338 -25.8612 -25.8440 -25.8188 -25.7657 -25.7157
   -25.7067 -25.6989 -25.6767 -25.6403 -25.6299 -25.6119 -25.5820 -25.5602
   -25.5232 -25.4988 -25.4880 -25.4748 -25.4630 -25.3966 -25.3755 -25.3480
    -2.5638  -1.9129  -1.6378  -1.2699  -1.1073  -0.8760  -0.6260  -0.5728
    -0.4384  -0.2384  -0.2049   0.1340   0.1664   0.1943   0.2295   0.2778
     0.5074   0.6198   0.6686   0.7251   0.8656   0.9103   0.9875   1.0052
     1.0307   1.1746   1.3027   1.3564   1.4548   1.4979   1.5169   1.5799
     1.6580   1.6870

          k =-0.0779 0.0450 0.0000 ( 22880 PWs)   bands (ev):

   -48.0078 -47.9876 -47.9628 -47.9505 -47.9398 -47.9023 -47.8945 -47.6623
   -47.6522 -47.6168 -47.6090 -47.5723 -26.1852 -26.1508 -26.1429 -26.1237
   -26.1189 -26.0977 -26.0625 -26.0482 -26.0289 -25.9972 -25.9826 -25.9650
   -25.9249 -25.9190 -25.9131 -25.9080 -25.8822 -25.8628 -25.7977 -25.7128
   -25.6959 -25.6819 -25.6450 -25.6373 -25.6213 -25.5931 -25.5809 -25.5605
   -25.5548 -25.5252 -25.4921 -25.4810 -25.4781 -25.3775 -25.3605 -25.3465
    -2.3911  -2.2439  -1.6616  -1.3055  -0.9856  -0.5945  -0.5838  -0.5189
    -0.4909  -0.4736  -0.4109   0.2424   0.2685   0.3168   0.3179   0.3483
     0.3840   0.7323   0.7487   0.7731   0.8085   0.8357   0.9035   1.1004
     1.1217   1.1487   1.2607   1.3461   1.3533   1.3777   1.5175   1.5800
     1.6959   1.9364

          k =-0.0779 0.0749 0.0000 ( 22856 PWs)   bands (ev):

   -48.0085 -47.9861 -47.9635 -47.9546 -47.9303 -47.9127 -47.8895 -47.6659
   -47.6438 -47.6264 -47.6041 -47.5725 -26.1741 -26.1483 -26.1408 -26.1182
   -26.1148 -26.0755 -26.0674 -26.0538 -26.0396 -26.0084 -25.9990 -25.9835
   -25.9757 -25.9425 -25.9335 -25.8615 -25.8442 -25.8190 -25.7656 -25.7158
   -25.7068 -25.6989 -25.6767 -25.6403 -25.6301 -25.6118 -25.5819 -25.5600
   -25.5232 -25.4989 -25.4880 -25.4748 -25.4630 -25.3965 -25.3756 -25.3480
    -2.5638  -1.9129  -1.6377  -1.2700  -1.1073  -0.8760  -0.6261  -0.5727
    -0.4384  -0.2384  -0.2049   0.1340   0.1663   0.1943   0.2295   0.2778
     0.5074   0.6198   0.6686   0.7252   0.8655   0.9103   0.9875   1.0052
     1.0306   1.1747   1.3026   1.3564   1.4549   1.4977   1.5171   1.5799
     1.6581   1.6869

          k =-0.0779 0.1049 0.0000 ( 22856 PWs)   bands (ev):

   -48.0090 -47.9850 -47.9641 -47.9545 -47.9307 -47.9123 -47.8896 -47.6658
   -47.6440 -47.6262 -47.6041 -47.5725 -26.1747 -26.1484 -26.1407 -26.1180
   -26.1146 -26.0751 -26.0677 -26.0534 -26.0396 -26.0081 -25.9990 -25.9839
   -25.9756 -25.9426 -25.9337 -25.8612 -25.8440 -25.8188 -25.7657 -25.7163
   -25.7068 -25.6991 -25.6768 -25.6403 -25.6299 -25.6119 -25.5817 -25.5598
   -25.5233 -25.4989 -25.4881 -25.4747 -25.4630 -25.3965 -25.3756 -25.3481
    -2.5637  -1.9129  -1.6379  -1.2699  -1.1073  -0.8760  -0.6261  -0.5727
    -0.4384  -0.2384  -0.2050   0.1340   0.1663   0.1943   0.2294   0.2779
     0.5074   0.6199   0.6685   0.7251   0.8656   0.9103   0.9874   1.0053
     1.0308   1.1747   1.3026   1.3564   1.4549   1.4979   1.5169   1.5800
     1.6580   1.6869

          k =-0.0779-0.0450 0.0000 ( 22880 PWs)   bands (ev):

   -48.0088 -47.9855 -47.9639 -47.9500 -47.9405 -47.9012 -47.8953 -47.6620
   -47.6525 -47.6165 -47.6092 -47.5723 -26.1861 -26.1499 -26.1436 -26.1245
   -26.1178 -26.0968 -26.0627 -26.0479 -26.0291 -25.9962 -25.9832 -25.9658
   -25.9248 -25.9182 -25.9140 -25.9077 -25.8811 -25.8635 -25.7975 -25.7133
   -25.6960 -25.6829 -25.6442 -25.6381 -25.6209 -25.5931 -25.5804 -25.5605
   -25.5551 -25.5250 -25.4920 -25.4812 -25.4778 -25.3775 -25.3601 -25.3469
    -2.3910  -2.2440  -1.6616  -1.3055  -0.9855  -0.5943  -0.5840  -0.5187
    -0.4910  -0.4736  -0.4109   0.2422   0.2687   0.3165   0.3181   0.3485
     0.3839   0.7324   0.7488   0.7731   0.8081   0.8362   0.9034   1.1005
     1.1217   1.1488   1.2607   1.3460   1.3534   1.3776   1.5173   1.5801
     1.6959   1.9365

     the Fermi energy is     1.2942 ev

!    total energy              =   -1198.02443944 Ry
     Harris-Foulkes estimate   =   -1198.02492256 Ry
     estimated scf accuracy    <       0.00000400 Ry

     The total energy is the sum of the following terms:

     one-electron contribution =   -8233.42922976 Ry
     hartree contribution      =    4106.92834030 Ry
     xc contribution           =    -221.25003919 Ry
     ewald contribution        =    3149.84540091 Ry
     electric field correction =       0.00004087 Ry
     smearing contrib. (-TS)   =      -0.11895257 Ry

     convergence has been achieved in   8 iterations
 
 BEEF-vdW xc energy contributions
           1 :   -189.511452225256     
           2 :    171.527883672754     
           3 :   -141.205640681537     
           4 :    107.085345291699     
           5 :   -76.9009435213389     
           6 :    54.8519597793211     
           7 :   -40.9313938361287     
           8 :    32.2402658749412     
           9 :   -25.2526238061469     
          10 :    17.7390298505034     
          11 :   -9.50116229667893     
          12 :    1.84226162822890     
          13 :    3.65389722728469     
          14 :   -6.23107205033602     
          15 :    6.36786776145149     
          16 :   -5.38190209352499     
          17 :    4.59474212908535     
          18 :   -4.62069596440480     
          19 :    5.19025456651826     
          20 :   -5.53897387827359     
          21 :    5.03946077488365     
          22 :   -3.64558631167995     
          23 :    1.89430194814670     
          24 :  -0.524075413524429     
          25 :   2.718136869674481E-003
          26 :  -0.274514747670963     
          27 :   0.858653604154426     
          28 :   -1.19720168990796     
          29 :    1.00935090770781     
          30 :  -0.431009402693576     
          31 :   -21.9366768409002     
          32 :   -16.3444774315976     

     Forces acting on atoms (Ry/au):


     negative rho (up, down):  7.483E-01 0.000E+00
     atom    1 type  1   force =    -0.00021585   -0.00014760    0.01550662
     atom    2 type  1   force =     0.00023257   -0.00019163    0.01553816
     atom    3 type  1   force =    -0.00003271    0.00030461    0.01554224
     atom    4 type  1   force =     0.00002997    0.00003795    0.01702590
     atom    5 type  1   force =     0.00005529    0.00919296   -0.01220801
     atom    6 type  1   force =    -0.00008661   -0.00006880   -0.00083775
     atom    7 type  1   force =    -0.00800146   -0.00460074   -0.01216986
     atom    8 type  1   force =     0.00800256   -0.00453433   -0.01218879
     atom    9 type  1   force =     0.00001235   -0.00001527   -0.02870962
     atom   10 type  1   force =    -0.00000526    0.00233293   -0.01215458
     atom   11 type  1   force =     0.00203570   -0.00116024   -0.01213632
     atom   12 type  1   force =    -0.00202608   -0.00114908   -0.01205457
     atom   13 type  2   force =    -0.00000048   -0.00000075    0.03884658

     Total force =     0.052820     Total SCF correction =     0.001788


     entering subroutine stress ...


     negative rho (up, down):  7.483E-01 0.000E+00
          total   stress  (Ry/bohr**3)                   (kbar)     P=  -10.00
  -0.00007587   0.00000001  -0.00000000        -11.16      0.00     -0.00
   0.00000001  -0.00007588  -0.00000000          0.00    -11.16     -0.00
  -0.00000000  -0.00000000  -0.00005216         -0.00     -0.00     -7.67


     number of scf cycles    =   2
     number of bfgs steps    =   1

     energy   old            =   -1198.0183381686 Ry
     energy   new            =   -1198.0244394356 Ry

     CASE: energy  _new < energy  _old

     new trust radius        =       0.0742555794 bohr
     new conv_thr            =       0.0000001000 Ry


ATOMIC_POSITIONS (crystal)
Zr1      0.166666667   0.166666667   0.396150897    0   0   0
Zr1      0.666666667   0.166666667   0.396150897    0   0   0
Zr1      0.166666667   0.666666667   0.396150897    0   0   0
Zr1      0.666666667   0.666666667   0.396150897    0   0   0
Zr1      0.833333333   0.333333333   0.500000000    0   0   0
Zr1      0.333333333   0.333333333   0.500000000    0   0   0
Zr1      0.833333333   0.833333333   0.500000000    0   0   0
Zr1      0.333333333   0.833333333   0.500000000    0   0   0
Zr1      0.000002481  -0.000003303   0.601477732
Zr1      0.499657628   0.000685967   0.603096812
Zr1      0.000687460   0.499659497   0.603097608
Zr1      0.499654521   0.499659427   0.603100614
H1      -0.000000087  -0.000000172   0.676186911



     Writing output data file calc.save
     Check: negative starting charge=   -0.729090
     NEW-OLD atomic charge density approx. for the potential
     Check: negative starting charge=   -0.728250

     negative rho (up, down):  7.473E-01 0.000E+00
 
     Adding external electric field

     Computed dipole along edir(3) : 
        Dipole               -0.1409 Ry au,         -0.3582 Debye
        Dipole field         -0.0003 Ry au
 
        Potential amp.        0.0271 Ry
        Total length         46.5096 bohr
 

     total cpu time spent up to now is      962.3 secs

     per-process dynamical memory:    88.9 Mb

     Self-consistent Calculation

     iteration #  1     ecut=    36.75 Ry     beta=0.30
     Davidson diagonalization with overlap
     ethr =  1.00E-06,  avg # of iterations =  9.3

     negative rho (up, down):  7.474E-01 0.000E+00
 
     Adding external electric field

     Computed dipole along edir(3) : 
        Dipole               -0.1261 Ry au,         -0.3205 Debye
        Dipole field         -0.0003 Ry au
 
        Potential amp.        0.0242 Ry
        Total length         46.5096 bohr
 

     total cpu time spent up to now is      994.5 secs

     total energy              =   -1198.02683699 Ry
     Harris-Foulkes estimate   =   -1198.02900374 Ry
     estimated scf accuracy    <       0.00485655 Ry

     iteration #  2     ecut=    36.75 Ry     beta=0.30
     Davidson diagonalization with overlap
     ethr =  3.35E-06,  avg # of iterations =  5.2

     negative rho (up, down):  7.474E-01 0.000E+00
 
     Adding external electric field

     Computed dipole along edir(3) : 
        Dipole               -0.1469 Ry au,         -0.3734 Debye
        Dipole field         -0.0003 Ry au
 
        Potential amp.        0.0282 Ry
        Total length         46.5096 bohr
 

     total cpu time spent up to now is     1019.1 secs

     total energy              =   -1198.02378138 Ry
     Harris-Foulkes estimate   =   -1198.03317887 Ry
     estimated scf accuracy    <       0.10193750 Ry

     iteration #  3     ecut=    36.75 Ry     beta=0.30
     Davidson diagonalization with overlap
     ethr =  3.35E-06,  avg # of iterations =  5.5

     negative rho (up, down):  7.474E-01 0.000E+00
 
     Adding external electric field

     Computed dipole along edir(3) : 
        Dipole               -0.1136 Ry au,         -0.2887 Debye
        Dipole field         -0.0002 Ry au
 
        Potential amp.        0.0218 Ry
        Total length         46.5096 bohr
 

     total cpu time spent up to now is     1043.6 secs

     total energy              =   -1198.02805826 Ry
     Harris-Foulkes estimate   =   -1198.02879518 Ry
     estimated scf accuracy    <       0.01463999 Ry

     iteration #  4     ecut=    36.75 Ry     beta=0.30
     Davidson diagonalization with overlap
     ethr =  3.35E-06,  avg # of iterations =  5.1

     negative rho (up, down):  7.474E-01 0.000E+00
 
     Adding external electric field

     Computed dipole along edir(3) : 
        Dipole               -0.1505 Ry au,         -0.3826 Debye
        Dipole field         -0.0003 Ry au
 
        Potential amp.        0.0289 Ry
        Total length         46.5096 bohr
 

     total cpu time spent up to now is     1065.6 secs

     total energy              =   -1198.02808384 Ry
     Harris-Foulkes estimate   =   -1198.02904897 Ry
     estimated scf accuracy    <       0.04772086 Ry

     iteration #  5     ecut=    36.75 Ry     beta=0.30
     Davidson diagonalization with overlap
     ethr =  3.35E-06,  avg # of iterations =  5.3

     negative rho (up, down):  7.474E-01 0.000E+00
 
     Adding external electric field

     Computed dipole along edir(3) : 
        Dipole               -0.1577 Ry au,         -0.4008 Debye
        Dipole field         -0.0003 Ry au
 
        Potential amp.        0.0303 Ry
        Total length         46.5096 bohr
 

     total cpu time spent up to now is     1087.8 secs

[...]
     1.5332   1.5841

          k = 0.0260-0.0749 0.0000 ( 22856 PWs)   bands (ev):

   -48.0530 -48.0391 -48.0290 -48.0142 -48.0114 -47.9917 -47.9885 -47.8101
   -47.7318 -47.7117 -47.6932 -47.6408 -26.2629 -26.2408 -26.2311 -26.2093
   -26.2002 -26.1587 -26.1505 -26.1398 -26.1250 -26.0905 -26.0851 -26.0685
   -26.0529 -26.0308 -26.0003 -25.9507 -25.9150 -25.8975 -25.8560 -25.8213
   -25.7860 -25.7625 -25.7532 -25.7352 -25.7241 -25.7004 -25.6790 -25.6519
   -25.5927 -25.5820 -25.5651 -25.5339 -25.5207 -25.5053 -25.4626 -25.4068
    -2.6415  -1.9446  -1.6764  -1.3309  -1.1956  -0.9296  -0.7459  -0.6416
    -0.5777  -0.3599  -0.3155  -0.0089   0.0339   0.0483   0.1154   0.1568
     0.3980   0.4717   0.5611   0.6024   0.7432   0.8081   0.8597   0.8945
     0.9403   1.0706   1.1662   1.2374   1.3653   1.3941   1.4210   1.5057
     1.5332   1.5841

          k = 0.0260-0.0450 0.0000 ( 22896 PWs)   bands (ev):

   -48.0718 -48.0526 -48.0135 -48.0055 -48.0022 -47.9913 -47.9909 -47.8088
   -47.7459 -47.7004 -47.6916 -47.6394 -26.3265 -26.2917 -26.2837 -26.2796
   -26.2636 -26.2213 -26.2192 -26.1899 -26.1870 -26.1558 -26.0848 -26.0468
   -26.0288 -25.9432 -25.9214 -25.9139 -25.8327 -25.8258 -25.8159 -25.7987
   -25.7959 -25.7866 -25.7787 -25.7502 -25.6984 -25.6898 -25.6499 -25.5912
   -25.5879 -25.5739 -25.5365 -25.5129 -25.4999 -25.4968 -25.4553 -25.3718
    -3.2714  -2.2000  -1.4992  -1.3799  -1.3238  -1.2327  -1.1193  -0.9805
    -0.9174  -0.7030  -0.4669  -0.4409  -0.3615  -0.3194  -0.2547  -0.2035
     0.3339   0.3649   0.3812   0.9886   1.0659   1.1277   1.1887   1.2369
     1.4419   1.5097   1.5808   1.5945   1.7315   1.8051   1.8255   1.8762
     1.9344   1.9702

          k = 0.0519-0.0300 0.0000 ( 22852 PWs)   bands (ev):

   -48.0667 -48.0488 -48.0213 -48.0061 -47.9999 -47.9942 -47.9905 -47.8093
   -47.7420 -47.7048 -47.6905 -47.6401 -26.3052 -26.2920 -26.2695 -26.2468
   -26.2370 -26.2288 -26.1797 -26.1792 -26.1596 -26.1462 -26.0853 -26.0506
   -26.0379 -25.9408 -25.9240 -25.9143 -25.8940 -25.8753 -25.8401 -25.7898
   -25.7868 -25.7815 -25.7678 -25.7497 -25.6987 -25.6979 -25.6532 -25.6019
   -25.5797 -25.5701 -25.5644 -25.5317 -25.5115 -25.4930 -25.4603 -25.3760
    -3.1063  -2.0643  -1.7507  -1.3437  -1.1658  -1.0358  -0.9510  -0.9475
    -0.8044  -0.7104  -0.5120  -0.2554  -0.2158  -0.1902  -0.1115  -0.0970
     0.3474   0.3781   0.4532   0.8186   0.9872   1.0679   1.0685   1.1259
     1.3662   1.4479   1.4956   1.5171   1.6471   1.6953   1.6987   1.7351
     1.8189   1.8793

          k = 0.0519 0.0000 0.0000 ( 22896 PWs)   bands (ev):

   -48.0718 -48.0526 -48.0135 -48.0055 -48.0022 -47.9913 -47.9909 -47.8088
   -47.7459 -47.7004 -47.6916 -47.6394 -26.3265 -26.2917 -26.2837 -26.2796
   -26.2636 -26.2213 -26.2192 -26.1899 -26.1870 -26.1558 -26.0848 -26.0468
   -26.0288 -25.9432 -25.9214 -25.9139 -25.8327 -25.8258 -25.8159 -25.7987
   -25.7959 -25.7867 -25.7787 -25.7502 -25.6984 -25.6898 -25.6499 -25.5912
   -25.5879 -25.5739 -25.5365 -25.5129 -25.4999 -25.4967 -25.4553 -25.3718
    -3.2714  -2.2000  -1.4992  -1.3799  -1.3238  -1.2327  -1.1193  -0.9805
    -0.9174  -0.7030  -0.4668  -0.4409  -0.3615  -0.3194  -0.2547  -0.2035
     0.3339   0.3649   0.3812   0.9886   1.0659   1.1277   1.1887   1.2369
     1.4420   1.5098   1.5808   1.5945   1.7315   1.8051   1.8255   1.8762
     1.9344   1.9702

          k = 0.0519 0.0300 0.0000 ( 22852 PWs)   bands (ev):

   -48.0667 -48.0488 -48.0213 -48.0060 -47.9999 -47.9942 -47.9906 -47.8093
   -47.7420 -47.7048 -47.6905 -47.6401 -26.3052 -26.2920 -26.2695 -26.2468
   -26.2370 -26.2288 -26.1797 -26.1792 -26.1596 -26.1462 -26.0853 -26.0506
   -26.0379 -25.9408 -25.9240 -25.9143 -25.8940 -25.8753 -25.8401 -25.7898
   -25.7868 -25.7815 -25.7678 -25.7497 -25.6987 -25.6979 -25.6532 -25.6018
   -25.5797 -25.5701 -25.5644 -25.5317 -25.5115 -25.4930 -25.4603 -25.3760
    -3.1063  -2.0643  -1.7507  -1.3437  -1.1658  -1.0359  -0.9510  -0.9475
    -0.8044  -0.7104  -0.5120  -0.2554  -0.2158  -0.1902  -0.1115  -0.0970
     0.3474   0.3781   0.4532   0.8186   0.9872   1.0679   1.0685   1.1259
     1.3662   1.4479   1.4956   1.5171   1.6471   1.6954   1.6988   1.7351
     1.8189   1.8793

          k = 0.0519-0.1199 0.0000 ( 22856 PWs)   bands (ev):

   -48.0530 -48.0391 -48.0290 -48.0142 -48.0114 -47.9917 -47.9886 -47.8101
   -47.7317 -47.7118 -47.6932 -47.6408 -26.2629 -26.2408 -26.2311 -26.2092
   -26.2002 -26.1587 -26.1505 -26.1398 -26.1250 -26.0905 -26.0851 -26.0685
   -26.0529 -26.0308 -26.0003 -25.9507 -25.9150 -25.8975 -25.8560 -25.8213
   -25.7860 -25.7625 -25.7532 -25.7352 -25.7240 -25.7004 -25.6790 -25.6519
   -25.5927 -25.5820 -25.5651 -25.5339 -25.5207 -25.5053 -25.4626 -25.4068
    -2.6415  -1.9446  -1.6763  -1.3309  -1.1956  -0.9296  -0.7459  -0.6416
    -0.5777  -0.3599  -0.3155  -0.0089   0.0339   0.0484   0.1154   0.1568
     0.3980   0.4717   0.5611   0.6024   0.7432   0.8081   0.8597   0.8945
     0.9403   1.0706   1.1661   1.2374   1.3653   1.3941   1.4210   1.5057
     1.5332   1.5841

          k = 0.0519-0.0899 0.0000 ( 22914 PWs)   bands (ev):

   -48.0401 -48.0314 -48.0281 -48.0268 -48.0216 -47.9928 -47.9857 -47.8105
   -47.7202 -47.7199 -47.6966 -47.6409 -26.2218 -26.2067 -26.1928 -26.1874
   -26.1563 -26.1432 -26.1245 -26.1204 -26.1126 -26.0975 -26.0691 -26.0583
   -26.0574 -26.0569 -26.0380 -26.0215 -26.0036 -25.8872 -25.8025 -25.7960
   -25.7941 -25.7907 -25.7676 -25.7578 -25.7435 -25.6857 -25.6679 -25.6645
   -25.6425 -25.5911 -25.5552 -25.5313 -25.5166 -25.4880 -25.4561 -25.4560
    -2.0877  -1.9203  -1.9149  -1.4007  -1.0073  -0.9964  -0.6323  -0.2810
    -0.1451  -0.1410  -0.1114  -0.0862  -0.0847   0.3120   0.3324   0.3525
     0.4102   0.4105   0.4287   0.4941   0.5045   0.5541   0.5706   0.7631
     0.9872   0.9884   1.0309   1.0390   1.1115   1.1851   1.2879   1.3655
     1.3685   1.4252

          k = 0.0519-0.0599 0.0000 ( 22856 PWs)   bands (ev):

   -48.0530 -48.0391 -48.0290 -48.0142 -48.0114 -47.9917 -47.9885 -47.8101
   -47.7318 -47.7117 -47.6932 -47.6408 -26.2629 -26.2408 -26.2311 -26.2093
   -26.2002 -26.1587 -26.1505 -26.1398 -26.1250 -26.0905 -26.0851 -26.0685
   -26.0529 -26.0308 -26.0003 -25.9507 -25.9150 -25.8975 -25.8560 -25.8213
   -25.7860 -25.7625 -25.7532 -25.7352 -25.7241 -25.7004 -25.6790 -25.6519
   -25.5927 -25.5820 -25.5651 -25.5339 -25.5207 -25.5053 -25.4626 -25.4068
    -2.6415  -1.9446  -1.6764  -1.3309  -1.1956  -0.9296  -0.7459  -0.6416
    -0.5777  -0.3599  -0.3155  -0.0089   0.0339   0.0483   0.1154   0.1568
     0.3980   0.4717   0.5611   0.6024   0.7432   0.8081   0.8597   0.8945
     0.9403   1.0706   1.1662   1.2374   1.3653   1.3941   1.4210   1.5057
     1.5332   1.5841

          k =-0.0779 0.0450 0.0000 ( 22880 PWs)   bands (ev):

   -48.0482 -48.0405 -48.0370 -48.0160 -48.0003 -47.9942 -47.9905 -47.8101
   -47.7298 -47.7160 -47.6905 -47.6412 -26.2674 -26.2484 -26.2332 -26.2123
   -26.2067 -26.1870 -26.1479 -26.1341 -26.1129 -26.0823 -26.0669 -26.0301
   -26.0129 -26.0096 -25.9724 -25.9677 -25.9670 -25.9536 -25.8838 -25.8588
   -25.7537 -25.7445 -25.7394 -25.7263 -25.7210 -25.6761 -25.6591 -25.6405
   -25.6404 -25.5942 -25.5685 -25.5559 -25.5286 -25.5082 -25.4387 -25.3979
    -2.4383  -2.3526  -1.6344  -1.4048  -0.9768  -0.7174  -0.7037  -0.6312
    -0.6076  -0.5943  -0.5029   0.1002   0.1165   0.1435   0.2083   0.2170
     0.2860   0.5894   0.6163   0.6275   0.7217   0.7250   0.8267   0.9845
     1.0034   1.0915   1.1414   1.2295   1.2664   1.2979   1.3881   1.4907
     1.5512   1.7589

          k =-0.0779 0.0749 0.0000 ( 22856 PWs)   bands (ev):

   -48.0530 -48.0391 -48.0290 -48.0142 -48.0114 -47.9917 -47.9885 -47.8101
   -47.7317 -47.7118 -47.6932 -47.6408 -26.2629 -26.2408 -26.2311 -26.2093
   -26.2002 -26.1587 -26.1505 -26.1398 -26.1250 -26.0905 -26.0851 -26.0685
   -26.0529 -26.0308 -26.0003 -25.9507 -25.9150 -25.8975 -25.8560 -25.8213
   -25.7860 -25.7625 -25.7532 -25.7352 -25.7240 -25.7004 -25.6790 -25.6519
   -25.5927 -25.5820 -25.5651 -25.5339 -25.5207 -25.5053 -25.4626 -25.4068
    -2.6415  -1.9446  -1.6764  -1.3309  -1.1956  -0.9296  -0.7459  -0.6416
    -0.5777  -0.3599  -0.3155  -0.0089   0.0339   0.0483   0.1154   0.1568
     0.3980   0.4717   0.5611   0.6023   0.7433   0.8081   0.8597   0.8945
     0.9403   1.0706   1.1662   1.2374   1.3653   1.3941   1.4210   1.5057
     1.5332   1.5841

          k =-0.0779 0.1049 0.0000 ( 22856 PWs)   bands (ev):

   -48.0530 -48.0391 -48.0290 -48.0142 -48.0114 -47.9917 -47.9886 -47.8101
   -47.7317 -47.7118 -47.6932 -47.6408 -26.2629 -26.2408 -26.2311 -26.2092
   -26.2002 -26.1587 -26.1505 -26.1398 -26.1250 -26.0905 -26.0851 -26.0685
   -26.0529 -26.0308 -26.0003 -25.9507 -25.9150 -25.8975 -25.8560 -25.8214
   -25.7860 -25.7625 -25.7532 -25.7352 -25.7240 -25.7004 -25.6790 -25.6519
   -25.5927 -25.5820 -25.5651 -25.5339 -25.5207 -25.5053 -25.4626 -25.4068
    -2.6415  -1.9446  -1.6763  -1.3309  -1.1956  -0.9296  -0.7459  -0.6416
    -0.5777  -0.3599  -0.3155  -0.0089   0.0339   0.0484   0.1154   0.1568
     0.3980   0.4717   0.5611   0.6024   0.7432   0.8081   0.8597   0.8945
     0.9403   1.0706   1.1661   1.2374   1.3653   1.3941   1.4210   1.5057
     1.5332   1.5841

          k =-0.0779-0.0450 0.0000 ( 22880 PWs)   bands (ev):

   -48.0482 -48.0405 -48.0370 -48.0160 -48.0003 -47.9942 -47.9906 -47.8101
   -47.7298 -47.7160 -47.6905 -47.6412 -26.2675 -26.2484 -26.2332 -26.2123
   -26.2067 -26.1870 -26.1479 -26.1341 -26.1129 -26.0823 -26.0669 -26.0301
   -26.0129 -26.0096 -25.9724 -25.9677 -25.9670 -25.9536 -25.8837 -25.8588
   -25.7537 -25.7445 -25.7394 -25.7263 -25.7210 -25.6761 -25.6591 -25.6404
   -25.6404 -25.5942 -25.5685 -25.5559 -25.5286 -25.5082 -25.4387 -25.3979
    -2.4383  -2.3526  -1.6344  -1.4048  -0.9768  -0.7174  -0.7037  -0.6312
    -0.6076  -0.5943  -0.5029   0.1002   0.1165   0.1434   0.2084   0.2170
     0.2860   0.5894   0.6163   0.6275   0.7217   0.7250   0.8267   0.9845
     1.0035   1.0915   1.1414   1.2295   1.2664   1.2979   1.3881   1.4908
     1.5512   1.7590

     the Fermi energy is     1.1890 ev

!    total energy              =   -1198.03345938 Ry
     Harris-Foulkes estimate   =   -1198.03345951 Ry
     estimated scf accuracy    <       0.00000002 Ry

     The total energy is the sum of the following terms:

     one-electron contribution =   -8300.50146532 Ry
     hartree contribution      =    4140.09821582 Ry
     xc contribution           =    -221.32060604 Ry
     ewald contribution        =    3183.80715150 Ry
     electric field correction =       0.00012310 Ry
     smearing contrib. (-TS)   =      -0.11687845 Ry

     convergence has been achieved in  11 iterations
 
 BEEF-vdW xc energy contributions
           1 :   -189.594999504409     
           2 :    171.629376344856     
           3 :   -141.325217323133     
           4 :    107.198044075462     
           5 :   -76.9720547292355     
           6 :    54.8636328777448     
           7 :   -40.8966846220164     
           8 :    32.1957073435237     
           9 :   -25.2373607684962     
          10 :    17.7739759428309     
          11 :   -9.57717614750402     
          12 :    1.92224913928436     
          13 :    3.61706799989298     
          14 :   -6.26652605597235     
          15 :    6.46474708407715     
          16 :   -5.49167709559765     
          17 :    4.66134859742778     
          18 :   -4.61908160489128     
          19 :    5.14451875351489     
          20 :   -5.50564720873956     
          21 :    5.06758942170984     
          22 :   -3.74227467829203     
          23 :    2.01938157057353     
          24 :  -0.616539267675364     
          25 :   2.057674999622350E-002
          26 :  -0.221738005777411     
          27 :   0.782008722910206     
          28 :   -1.15545063292126     
          29 :    1.03523816132872     
          30 :  -0.511413832004052     
          31 :   -21.9432585627552     
          32 :   -16.3534827282537     

     Forces acting on atoms (Ry/au):


     negative rho (up, down):  7.480E-01 0.000E+00
     atom    1 type  1   force =     0.00005550    0.00003206    0.01364013
     atom    2 type  1   force =    -0.00005540    0.00003191    0.01364107
     atom    3 type  1   force =    -0.00000011   -0.00006389    0.01364108
     atom    4 type  1   force =     0.00000007    0.00000015    0.01660492
     atom    5 type  1   force =     0.00000277    0.00231565   -0.01347951
     atom    6 type  1   force =    -0.00000191   -0.00000125   -0.01720770
     atom    7 type  1   force =    -0.00200929   -0.00116037   -0.01346821
     atom    8 type  1   force =     0.00200737   -0.00115581   -0.01347934
     atom    9 type  1   force =    -0.00000177   -0.00000167   -0.00102462
     atom   10 type  1   force =     0.00000406    0.00058367   -0.00027235
     atom   11 type  1   force =     0.00050848   -0.00028783   -0.00027244
     atom   12 type  1   force =    -0.00050872   -0.00029324   -0.00026311
     atom   13 type  2   force =    -0.00000104    0.00000063    0.00194009

     Total force =     0.002461     Total SCF correction =     0.000318
     SCF correction compared to forces is large: reduce conv_thr to get better values


     entering subroutine stress ...


     negative rho (up, down):  7.480E-01 0.000E+00
          total   stress  (Ry/bohr**3)                   (kbar)     P=   -8.24
  -0.00006095   0.00000000   0.00000000         -8.97      0.00      0.00
   0.00000000  -0.00006096   0.00000000          0.00     -8.97      0.00
   0.00000000   0.00000000  -0.00004605          0.00      0.00     -6.77


     bfgs converged in  15 scf cycles and  14 bfgs steps
     (criteria: energy <  1.0E+00, force <  1.9E-03)

     End of BFGS Geometry Optimization

     Final energy   =   -1198.0334593842 Ry
Begin final coordinates

ATOMIC_POSITIONS (crystal)
Zr1      0.166666667   0.166666667   0.396150897    0   0   0
Zr1      0.666666667   0.166666667   0.396150897    0   0   0
Zr1      0.166666667   0.666666667   0.396150897    0   0   0
Zr1      0.666666667   0.666666667   0.396150897    0   0   0
Zr1      0.833333333   0.333333333   0.500000000    0   0   0
Zr1      0.333333333   0.333333333   0.500000000    0   0   0
Zr1      0.833333333   0.833333333   0.500000000    0   0   0
Zr1      0.333333333   0.833333333   0.500000000    0   0   0
Zr1      0.000003354   0.000000247   0.605801177
Zr1      0.498126862   0.003735517   0.599161402
Zr1      0.003737530   0.498123678   0.599161511
Zr1      0.498135550   0.498132333   0.599157771
H1      -0.000003984   0.000005355   0.681414468
End final coordinates



     Writing output data file calc.save
 
     init_run     :     13.67s CPU     14.14s WALL (       1 calls)
     electrons    :   4725.90s CPU   5056.66s WALL (      15 calls)
     update_pot   :     43.61s CPU     46.61s WALL (      14 calls)
     forces       :    265.54s CPU    282.78s WALL (      15 calls)
     stress       :    782.46s CPU    834.82s WALL (      15 calls)

     Called by init_run:
     wfcinit      :      5.80s CPU      5.89s WALL (       1 calls)
     potinit      :      2.19s CPU      2.39s WALL (       1 calls)

     Called by electrons:
     c_bands      :   1789.86s CPU   1888.89s WALL (     162 calls)
     sum_band     :    889.80s CPU    956.59s WALL (     162 calls)
     v_of_rho     :    338.23s CPU    379.29s WALL (     176 calls)
     newd         :    839.73s CPU    855.17s WALL (     176 calls)
     mix_rho      :     11.42s CPU     11.70s WALL (     162 calls)
     vdW_energy   :    190.59s CPU    209.75s WALL (     716 calls)
     vdW_ffts     :    477.36s CPU    496.88s WALL (    1462 calls)
     vdW_v        :    195.19s CPU    200.31s WALL (     716 calls)

     Called by c_bands:
     init_us_2    :     11.33s CPU     11.39s WALL (    1775 calls)
     cegterg      :   1603.52s CPU   1644.44s WALL (     810 calls)

     Called by *egterg:
     h_psi        :   1057.22s CPU   1079.47s WALL (    5052 calls)
     s_psi        :     99.92s CPU    100.31s WALL (    5052 calls)
     g_psi        :      6.70s CPU      6.69s WALL (    4237 calls)
     cdiaghg      :    145.20s CPU    146.20s WALL (    4972 calls)

     Called by h_psi:
     add_vuspsi   :    102.51s CPU    102.83s WALL (    5052 calls)

     General routines
     calbec       :    152.51s CPU    154.89s WALL (    6012 calls)
     fft          :    773.14s CPU    839.81s WALL (   43179 calls)
     ffts         :      0.76s CPU      0.80s WALL (     338 calls)
     fftw         :    635.24s CPU    657.42s WALL (  421606 calls)
     interpolate  :      7.18s CPU      7.57s WALL (     338 calls)
     davcio       :      0.00s CPU      0.03s WALL (       5 calls)
 
     Parallel routines
     fft_scatter  :    857.06s CPU    941.92s WALL (  465123 calls)
 
     PWSCF        :     1h38m CPU        1h45m WALL

 
   This run was terminated on:  20: 5:44   2May2018            

=------------------------------------------------------------------------------=
   JOB DONE.
=------------------------------------------------------------------------------=
Job  /afs/slac/g/suncat/bin/suncat-tsmpirun -x LD_LIBRARY_PATH -wdir /scratch/qe836424_FmVPl pw.x -npool 4 -in pw.inp

TID   HOST_NAME   COMMAND_LINE            STATUS            TERMINATION_TIME
===== ========== ================  =======================  ===================
00000 suncat0076 pw.x -npool 4 -i  Done                     05/02/2018 20:05:44
00001 suncat0076 pw.x -npool 4 -i  Done                     05/02/2018 20:05:44
00002 suncat0076 pw.x -npool 4 -i  Done                     05/02/2018 20:05:44
00003 suncat0076 pw.x -npool 4 -i  Done                     05/02/2018 20:05:44
00004 suncat0076 pw.x -npool 4 -i  Done                     05/02/2018 20:05:44
00005 suncat0076 pw.x -npool 4 -i  Done                     05/02/2018 20:05:44
00006 suncat0076 pw.x -npool 4 -i  Done                     05/02/2018 20:05:44
00007 suncat0076 pw.x -npool 4 -i  Done                     05/02/2018 20:05:44
00008 suncat0073 pw.x -npool 4 -i  Done                     05/02/2018 20:05:44
00009 suncat0073 pw.x -npool 4 -i  Done                     05/02/2018 20:05:44
00010 suncat0073 pw.x -npool 4 -i  Done                     05/02/2018 20:05:44
00011 suncat0073 pw.x -npool 4 -i  Done                     05/02/2018 20:05:44
00012 suncat0073 pw.x -npool 4 -i  Done                     05/02/2018 20:05:44
00013 suncat0073 pw.x -npool 4 -i  Done                     05/02/2018 20:05:44
00014 suncat0073 pw.x -npool 4 -i  Done                     05/02/2018 20:05:44
00015 suncat0073 pw.x -npool 4 -i  Done                     05/02/2018 20:05:44
00016 suncat0071 pw.x -npool 4 -i  Done                     05/02/2018 20:05:44
00017 suncat0071 pw.x -npool 4 -i  Done                     05/02/2018 20:05:44
00018 suncat0071 pw.x -npool 4 -i  Done                     05/02/2018 20:05:44
00019 suncat0071 pw.x -npool 4 -i  Done                     05/02/2018 20:05:44
00020 suncat0071 pw.x -npool 4 -i  Done                     05/02/2018 20:05:44
00021 suncat0071 pw.x -npool 4 -i  Done                     05/02/2018 20:05:44
00022 suncat0071 pw.x -npool 4 -i  Done                     05/02/2018 20:05:44
00023 suncat0071 pw.x -npool 4 -i  Done                     05/02/2018 20:05:44
00024 suncat0068 pw.x -npool 4 -i  Done                     05/02/2018 20:05:44
00025 suncat0068 pw.x -npool 4 -i  Done                     05/02/2018 20:05:44
00026 suncat0068 pw.x -npool 4 -i  Done                     05/02/2018 20:05:44
00027 suncat0068 pw.x -npool 4 -i  Done                     05/02/2018 20:05:44
00028 suncat0068 pw.x -npool 4 -i  Done                     05/02/2018 20:05:44
00029 suncat0068 pw.x -npool 4 -i  Done                     05/02/2018 20:05:44
00030 suncat0068 pw.x -npool 4 -i  Done                     05/02/2018 20:05:44
00031 suncat0068 pw.x -npool 4 -i  Done                     05/02/2018 20:05:44
