  python dir          : /u/if/mamunm/src/espresso
  espresso dir        : /nfs/slac/g/suncatfs/sw/espv18/espresso-dynpy-beef/bin
  pseudo dir          : /u/if/mamunm/psp/gbrv1.5pbe
  ase-espresso py git : GITVERSION



     Program PWSCF v.5.1rc2 (svn rev. 11289) starts on  3May2018 at  7:43: 1 

     This program is part of the open-source Quantum ESPRESSO suite
     for quantum simulation of materials; please cite
         "P. Giannozzi et al., J. Phys.:Condens. Matter 21 395502 (2009);
          URL http://www.quantum-espresso.org", 
     in publications or presentations arising from this work. More details at
     http://www.quantum-espresso.org/quote

     Parallel version (MPI), running on    32 processors
     K-points division:     npool     =       4
     R & G space division:  proc/nbgrp/npool/nimage =       8
     Reading input from pw.inp
     Message from routine read_cards :
     DEPRECATED: no units specified in CELL_PARAMETERS card

     Current dimensions of program PWSCF are:
     Max number of different atomic species (ntypx) = 10
     Max number of k-points (npk) =  40000
     Max angular momentum in pseudopotentials (lmaxx) =  3
     Presently stress not available with electric field


     **************************************************************************
     Initializing libbeef V0.1.1 with the BEEF-vdW functional.
     Citation: Wellendorff et al., PRB 85, 235149 (2012).
     **************************************************************************


     IMPORTANT: XC functional enforced from input :
     Exchange-correlation      = BEEF-VDW ( 1  4 27 13 2)
     Any further DFT definition will be discarded
     Please, verify this is what you really want


     Subspace diagonalization in iterative solution of the eigenvalue problem:
     a serial algorithm will be used

 
     Parallelization info
     --------------------
     sticks:   dense  smooth     PW     G-vecs:    dense   smooth      PW
     Min         358     144     41                67928    17211    2707
     Max         359     145     43                67951    17239    2717
     Sum        2869    1159    337               543535   137813   21685
 


     bravais-lattice index     =            0
     lattice parameter (alat)  =       1.8897  a.u.
     unit-cell volume          =    4569.9960 (a.u.)^3
     number of atoms/cell      =           13
     number of atomic types    =            2
     number of electrons       =       196.00
     number of Kohn-Sham states=          108
     kinetic-energy cutoff     =      36.7493  Ry
     charge density cutoff     =     367.4932  Ry
     convergence threshold     =      1.0E-05
     mixing beta               =       0.3000
     number of iterations used =           10  plain     mixing
     Exchange-correlation      = BEEF-VDW ( 1  4 27 13 2)
     nstep                     =           50


     celldm(1)=   1.889726  celldm(2)=   0.000000  celldm(3)=   0.000000
     celldm(4)=   0.000000  celldm(5)=   0.000000  celldm(6)=   0.000000

     crystal axes: (cart. coord. in units of alat)
               a(1) = (   5.637663   0.000000   0.000000 )  
               a(2) = (   2.818831   4.882359   0.000000 )  
               a(3) = (   0.000000   0.000000  24.603132 )  

     reciprocal axes: (cart. coord. in units 2 pi/alat)
               b(1) = (  0.177378 -0.102410  0.000000 )  
               b(2) = (  0.000000  0.204819  0.000000 )  
               b(3) = (  0.000000  0.000000  0.040645 )  


     PseudoPot. # 1 for Pd read from file:
     /u/if/mamunm/psp/gbrv1.5pbe/Pd.UPF
     MD5 check sum: 2d733d2bc2cbfd217af676df1668a4bc
     Pseudo is Ultrasoft + core correction, Zval = 16.0
     Generated by new atomic code, or converted to UPF format
     Using radial grid of  887 points,  6 beta functions with: 
                l(1) =   0
                l(2) =   0
                l(3) =   1
                l(4) =   1
                l(5) =   2
                l(6) =   2
     Q(r) pseudized with  8 coefficients,  rinner =    1.130   1.130   1.130
                                                       1.130   1.130

     PseudoPot. # 2 for C  read from file:
     /u/if/mamunm/psp/gbrv1.5pbe/C.UPF
     MD5 check sum: d1aef80898a10debaa0f26306b886e00
     Pseudo is Ultrasoft + core correction, Zval =  4.0
     Generated by new atomic code, or converted to UPF format
     Using radial grid of  721 points,  4 beta functions with: 
                l(1) =   0
                l(2) =   0
                l(3) =   1
                l(4) =   1
     Q(r) pseudized with  8 coefficients,  rinner =    1.100   1.100   1.100


     vdW kernel table read from file vdW_kernel_table
     MD5 check sum: 095c7af220d748ca6e76c0b4c6cfb241

     atomic species   valence    mass     pseudopotential
        Pd1           16.00   106.42000     Pd( 1.00)
        C1             4.00    12.01100     C ( 1.00)

     No symmetry found



   Cartesian axes

     site n.     atom                  positions (alat units)
         1           Pd1 tau(   1) = (   1.4094157   0.8137265  10.0000000  )
         2           Pd1 tau(   2) = (   4.2282471   0.8137265  10.0000000  )
         3           Pd1 tau(   3) = (   2.8188314   3.2549061  10.0000000  )
         4           Pd1 tau(   4) = (   5.6376627   3.2549061  10.0000000  )
         5           Pd1 tau(   5) = (   5.6376627   1.6274531  12.3015662  )
         6           Pd1 tau(   6) = (   2.8188314   1.6274531  12.3015662  )
         7           Pd1 tau(   7) = (   7.0470784   4.0686326  12.3015662  )
         8           Pd1 tau(   8) = (   4.2282471   4.0686326  12.3015662  )
         9           Pd1 tau(   9) = (   0.0000000   0.0000000  14.6031324  )
        10           Pd1 tau(  10) = (   2.8188314   0.0000000  14.6031324  )
        11           Pd1 tau(  11) = (   1.4094157   2.4411796  14.6031324  )
        12           Pd1 tau(  12) = (   4.2282471   2.4411796  14.6031324  )
        13           C1  tau(  13) = (   1.4094157   0.8137265  16.0006324  )

     number of k points=    20  Fermi-Dirac smearing, width (Ry)=  0.0110
                       cart. coord. in units 2pi/alat
        k(    1) = (   0.0000000   0.0000000   0.0000000), wk =   0.0555556
        k(    2) = (   0.0000000   0.0341365   0.0000000), wk =   0.1111111
        k(    3) = (   0.0000000   0.0682730   0.0000000), wk =   0.1111111
        k(    4) = (   0.0000000  -0.1024095   0.0000000), wk =   0.0555556
        k(    5) = (   0.0295631  -0.0170683   0.0000000), wk =   0.1111111
        k(    6) = (   0.0295631   0.0170683   0.0000000), wk =   0.1111111
        k(    7) = (   0.0295631   0.0512048   0.0000000), wk =   0.1111111
        k(    8) = (   0.0295631  -0.1194778   0.0000000), wk =   0.1111111
        k(    9) = (   0.0295631  -0.0853413   0.0000000), wk =   0.1111111
        k(   10) = (   0.0295631  -0.0512048   0.0000000), wk =   0.1111111
        k(   11) = (   0.0591262  -0.0341365   0.0000000), wk =   0.1111111
        k(   12) = (   0.0591262  -0.0000000   0.0000000), wk =   0.1111111
        k(   13) = (   0.0591262   0.0341365   0.0000000), wk =   0.1111111
        k(   14) = (   0.0591262  -0.1365460   0.0000000), wk =   0.1111111
        k(   15) = (   0.0591262  -0.1024095   0.0000000), wk =   0.1111111
        k(   16) = (   0.0591262  -0.0682730   0.0000000), wk =   0.1111111
        k(   17) = (  -0.0886892   0.0512048   0.0000000), wk =   0.0555556
        k(   18) = (  -0.0886892   0.0853413   0.0000000), wk =   0.1111111
        k(   19) = (  -0.0886892   0.1194778   0.0000000), wk =   0.1111111
        k(   20) = (  -0.0886892  -0.0512048   0.0000000), wk =   0.0555556

     Dense  grid:   543535 G-vectors     FFT dimensions: (  72,  72, 288)

     Smooth grid:   137813 G-vectors     FFT dimensions: (  45,  45, 180)

     Largest allocated arrays     est. size (Mb)     dimensions
        Kohn-Sham Wavefunctions         3.62 Mb     (    2194,  108)
        NL pseudopotentials             7.50 Mb     (    2194,  224)
        Each V/rho on FFT grid          2.85 Mb     (  186624)
        Each G-vector array             0.52 Mb     (   67930)
        G-vector shells                 0.13 Mb     (   17595)
     Largest temporary arrays     est. size (Mb)     dimensions
        Auxiliary wavefunctions        14.46 Mb     (    2194,  432)
        Each subspace H/S matrix        2.85 Mb     (     432,  432)
        Each <psi_i|beta_j> matrix      0.37 Mb     (     224,  108)
        Arrays for rho mixing          28.48 Mb     (  186624,   10)

     Initial potential from superposition of free atoms
     Check: negative starting charge=   -0.904052

     starting charge  189.99988, renormalised to  196.00000

     negative rho (up, down):  9.326E-01 0.000E+00


     ************************************************************************
     *
     * You are using vdW-DF for exchange-correlation in this calculation.
     * Please cite the following three references that made this development
     * possible:
     *
     *   M. Dion, H. Rydberg, E. Schroder, D. C. Langreth, and
     *   B. I. Lundqvist, Phys. Rev. Lett. 92, 246401 (2004).
     *
     *   T. Thonhauser, V. R. Cooper, S. Li, A. Puzder, P. Hyldgaard, and
     *   D. C. Langreth, Phys. Rev. B 76, 125112 (2007).
     *
     *   G. Roman-Perez and J. M. Soler, Phys. Rev. Lett. 103, 096102 (2009).
     *
     *
     * If you are using vdW-DF2, please also cite:
     *
     *   K. Lee, E. D. Murray, L. Kong, B. I. Lundqvist, and
     *   D. C. Langreth, Phys. Rev. B 82, 081101(R) (2010).
     *
     *
     * If you are calculating the stress with vdW-DF, please also cite:
     *
     *   R. Sabatini, E. Kucukbenli, B. Kolb, T. Thonhauser, and
     *   S. de Gironcoli, J. Phys.: Condens. Matter 24, 424209 (2012).
     *
     ************************************************************************

     Carrying out vdW-DF run using the following parameters:

     Nqs =      20    Nr_points =    1024   r_max =   100.000
     q_mesh =
               0.00001000     0.04494208     0.09755937     0.15916263
               0.23128650     0.31572767     0.41458969     0.53033537
               0.66584808     0.82450364     1.01025438     1.22772762
               1.48234092     1.78043706     2.12944203     2.53805004
               3.01644009     3.57652955     4.23227104     5.00000000

     Gradients computed in reciprocal space

     ************************************************************************


 
     Adding external electric field

     Computed dipole along edir(3) : 
        Dipole               -0.8827 Ry au,         -2.2436 Debye
        Dipole field         -0.0024 Ry au
 
        Potential amp.        0.2201 Ry
        Total length         45.3309 bohr
 
     Starting wfc are  148 randomized atomic wfcs

     total cpu time spent up to now is       11.6 secs

     per-process dynamical memory:    83.4 Mb

     Self-consistent Calculation

     iteration #  1     ecut=    36.75 Ry     beta=0.30
     Davidson diagonalization with overlap
     ethr =  1.00E-02,  avg # of iterations =  4.5

     negative rho (up, down):  9.258E-01 0.000E+00
 
     Adding external electric field

     Computed dipole along edir(3) : 
        Dipole               15.0485 Ry au,         38.2495 Debye
        Dipole field          0.0414 Ry au
 
        Potential amp.       -3.7516 Ry
        Total length         45.3309 bohr
 

     total cpu time spent up to now is       32.8 secs

     total energy              =   -2385.91968142 Ry
     Harris-Foulkes estimate   =   -2412.78639202 Ry
     estimated scf accuracy    <      57.35263445 Ry

     iteration #  2     ecut=    36.75 Ry     beta=0.30
     Davidson diagonalization with overlap
     ethr =  1.00E-02,  avg # of iterations = 10.7

     negative rho (up, down):  9.255E-01 0.000E+00
 
     Adding external electric field

     Computed dipole along edir(3) : 
        Dipole               -0.8984 Ry au,         -2.2836 Debye
        Dipole field         -0.0025 Ry au
 
        Potential amp.        0.2240 Ry
        Total length         45.3309 bohr
 

     total cpu time spent up to now is       65.0 secs

     total energy              =   -2364.77645350 Ry
     Harris-Foulkes estimate   =   -2510.26888266 Ry
     estimated scf accuracy    <    3033.97093187 Ry

     iteration #  3     ecut=    36.75 Ry     beta=0.30
     Davidson diagonalization with overlap
     ethr =  1.00E-02,  avg # of iterations =  8.0

     negative rho (up, down):  9.298E-01 0.000E+00
 
     Adding external electric field

     Computed dipole along edir(3) : 
        Dipole                0.8276 Ry au,          2.1036 Debye
        Dipole field          0.0023 Ry au
 
        Potential amp.       -0.2063 Ry
        Total length         45.3309 bohr
 

     total cpu time spent up to now is       94.9 secs

     total energy              =   -2398.39098501 Ry
     Harris-Foulkes estimate   =   -2420.76460852 Ry
     estimated scf accuracy    <     238.46164232 Ry

     iteration #  4     ecut=    36.75 Ry     beta=0.30
     Davidson diagonalization with overlap
     ethr =  1.00E-02,  avg # of iterations =  4.5

     negative rho (up, down):  9.333E-01 0.000E+00
 
     Adding external electric field

     Computed dipole along edir(3) : 
        Dipole                1.2415 Ry au,          3.1556 Debye
        Dipole field          0.0034 Ry au
 
        Potential amp.       -0.3095 Ry
        Total length         45.3309 bohr
 

     total cpu time spent up to now is      119.2 secs

     total energy              =   -2407.13268011 Ry
     Harris-Foulkes estimate   =   -2410.78208100 Ry
     estimated scf accuracy    <      16.54890744 Ry

     iteration #  5     ecut=    36.75 Ry     beta=0.30
     Davidson diagonalization with overlap
     ethr =  8.44E-03,  avg # of iterations =  2.0

     negative rho (up, down):  9.343E-01 0.000E+00
 
     Adding external electric field

     Computed dipole along edir(3) : 
        Dipole                0.0343 Ry au,          0.0871 Debye
        Dipole field          0.0001 Ry au
 
        Potential amp.       -0.0085 Ry
        Total length         45.3309 bohr
 

     total cpu time spent up to now is      137.3 secs

     total energy              =   -2408.36662563 Ry
     Harris-Foulkes estimate   =   -2409.27230524 Ry
     estimated scf accuracy    <       8.35186552 Ry

     iteration #  6     ecut=    36.75 Ry     beta=0.30
     Davidson diagonalization with overlap
     ethr =  4.26E-03,  avg # of iterations =  1.0

     negative rho (up, down):  9.352E-01 0.000E+00
 
     Adding external electric field

     Computed dipole along edir(3) : 
        Dipole               -0.0003 Ry au,         -0.0007 Debye
        Dipole field         -0.0000 Ry au
 
        Potential amp.        0.0001 Ry
        Total length         45.3309 bohr
 

     total cpu time spent up to now is      154.7 secs

     total energy              =   -2408.70939187 Ry
     Harris-Foulkes estimate   =   -2409.10825535 Ry
     estimated scf accuracy    <       7.23595503 Ry

     iteration #  7     ecut=    36.75 Ry     beta=0.30
     Davidson diagonalization with overlap
     ethr =  3.69E-03,  avg # of iterations =  1.0

     negative rho (up, down):  9.360E-01 0.000E+00
 
     Adding external electric field

     Computed dipole along edir(3) : 
        Dipole               -0.1182 Ry au,         -0.3005 Debye
        Dipole field         -0.0003 Ry au
 
        Potential amp.        0.0295 Ry
        Total length         45.3309 bohr
 

     total cpu time spent up to now is      172.2 secs

     total energy              =   -2408.80931883 Ry
     Harris-Foulkes estimate   =   -2408.86036590 Ry
     estimated scf accuracy    <       0.43073886 Ry

     iteration #  8     ecut=    36.75 Ry     beta=0.30
     Davidson diagonalization with overlap
     ethr =  2.20E-04,  avg # of iterations =  3.0

     negative rho (up, down):  9.369E-01 0.000E+00
 
     Adding external electric field

     Computed dipole along edir(3) : 
        Dipole               -0.2011 Ry au,         -0.5111 Debye
        Dipole field         -0.0006 Ry au
 
        Potential amp.        0.0501 Ry
        Total length         45.3309 bohr
 

     total cpu time spent up to now is      190.9 secs

     total energy              =   -2408.81139299 Ry
     Harris-Foulkes estimate   =   -2408.84630132 Ry
     estimated scf accuracy    <       0.49385951 Ry

     iteration #  9     ecut=    36.75 Ry     beta=0.30
     Davidson diagonalization with overlap
     ethr =  2.20E-04,  avg # of iterations =  1.0

     negative rho (up, down):  9.374E-01 0.000E+00
 
     Adding external electric field

     Computed dipole along edir(3) : 
        Dipole               -0.2154 Ry au,         -0.5474 Debye
        Dipole field         -0.0006 Ry au
 
        Potential amp.        0.0537 Ry
        Total length         45.3309 bohr
 

     total cpu time spent up to now is      208.3 secs

     total energy              =   -2408.81531884 Ry
     Harris-Foulkes estimate   =   -2408.82740361 Ry
     estimated scf accuracy    <       0.07564737 Ry

     iteration # 10     ecut=    36.75 Ry     beta=0.30
     Davidson diagonalization with overlap
     ethr =  3.86E-05,  avg # of iterations =  3.0

     negative rho (up, down):  9.390E-01 0.000E+00
 
     Adding external electric field

     Computed dipole along edir(3) : 
        Dipole               -0.3587 Ry au,         -0.9118 Debye
        Dipole field         -0.0010 Ry au
 
        Potential amp.        0.0894 Ry
        Total length         45.3309 bohr
 

     total cpu time spent up to now is      226.8 secs

     total energy              =   -2408.81526116 Ry
     Harris-Foulkes estimate   =   -2408.82198590 Ry
     estimated scf accuracy    <       0.05257946 Ry

     iteration # 11     ecut=    36.75 Ry     beta=0.30
     Davidson diagonalization with overlap
     ethr =  2.68E-05,  avg # of iterations =  2.9

     negative rho (up, down):  9.394E-01 0.000E+00
 
     Adding external electric field

     Computed dipole along edir(3) : 
        Dipole               -0.3577 Ry au,         -0.9092 Debye
        Dipole field         -0.0010 Ry au
 
        Potential amp.        0.0892 Ry
        Total length         45.3309 bohr
 

     total cpu time spent up to now is      246.0 secs

     total energy              =   -2408.81416874 Ry
     Harris-Foulkes estimate   =   -2408.82027042 Ry
     estimated scf accuracy    <       0.04400162 Ry

     iteration # 12     ecut=    36.75 Ry     beta=0.30
     Davidson diagonalization with overlap
     ethr =  2.24E-05,  avg # of iterations =  1.0

     negative rho (up, down):  9.398E-01 0.000E+00
 
     Adding external electric field

     Computed dipole along edir(3) : 
        Dipole               -0.3432 Ry au,         -0.8724 Debye
        Dipole field         -0.0009 Ry au
 
        Potential amp.        0.0856 Ry
        Total length         45.3309 bohr
 

     total cpu time spent up to now is      263.5 secs

     total energy              =   -2408.81640690 Ry
     Harris-Foulkes estimate   =   -2408.81750504 Ry
     estimated scf accuracy    <       0.02327045 Ry

     iteration # 13     ecut=    36.75 Ry     beta=0.30
     Davidson diagonalization with overlap
     ethr =  1.19E-05,  avg # of iterations =  1.0

     negative rho (up, down):  9.403E-01 0.000E+00
 
     Adding external electric field

     Computed dipole along edir(3) : 
        Dipole               -0.2925 Ry au,         -0.7434 Debye
        Dipole field         -0.0008 Ry au
 
        Potential amp.        0.0729 Ry
        Total length         45.3309 bohr
 

     total cpu time spent up to now is      281.0 secs

     total energy              =   -2408.81660262 Ry
     Harris-Foulkes estimate   =   -2408.81735573 Ry
     estimated scf accuracy    <       0.00781198 Ry

     iteration # 14     ecut=    36.75 Ry     beta=0.30
     Davidson diagonalization with overlap
     ethr =  3.99E-06,  avg # of iterations =  1.4

     negative rho (up, down):  9.409E-01 0.000E+00
 
     Adding external electric field

     Computed dipole along edir(3) : 
        Dipole               -0.2386 Ry au,         -0.6064 Debye
        Dipole field         -0.0007 Ry au
 
        Potential amp.        0.0595 Ry
        Total length         45.3309 bohr
 

     total cpu time spent up to now is      298.7 secs

     total energy              =   -2408.81698312 Ry
     Harris-Foulkes estimate   =   -2408.81702774 Ry
     estimated scf accuracy    <       0.00031431 Ry

     iteration # 15     ecut=    36.75 Ry     beta=0.30
     Davidson diagonalization with overlap
     ethr =  1.60E-07,  avg # of iterations =  2.9

     negative rho (up, down):  9.411E-01 0.000E+00
 
     Adding external electric field

     Computed dipole along edir(3) : 
        Dipole               -0.2254 Ry au,         -0.5730 Debye
        Dipole field         -0.0006 Ry au
 
        Potential amp.        0.0562 Ry
        Total length         45.3309 bohr
 

     total cpu time spent up to now is      317.8 secs

     total energy              =   -2408.81700955 Ry
     Harris-Foulkes estimate   =   -2408.81706233 Ry
     estimated scf accuracy    <       0.00056224 Ry

     iteration # 16     ecut=    36.75 Ry     beta=0.30
     Davidson diagonalization with overlap
     ethr =  1.60E-07,  avg # of iterations =  1.3

     negative rho (up, down):  9.414E-01 0.000E+00
 
     Adding external electric field

     Computed dipole along edir(3) : 
        Dipole               -0.2148 Ry au,         -0.5460 Debye
        Dipole field         -0.0006 Ry au
 
        Potential amp.        0.0536 Ry
        Total length         45.3309 bohr
 

     total cpu time spent up to now is      335.5 secs

     total energy              =   -2408.81703471 Ry
     Harris-Foulkes estimate   =   -2408.81705711 Ry
     estimated scf accuracy    <       0.00018881 Ry

     iteration # 17     ecut=    36.75 Ry     beta=0.30
     Davidson diagonalization with overlap
     ethr =  9.63E-08,  avg # of iterations =  1.1

     negative rho (up, down):  9.418E-01 0.000E+00
 
     Adding external electric field

     Computed dipole along edir(3) : 
        Dipole               -0.2017 Ry au,         -0.5126 Debye
        Dipole field         -0.0006 Ry au
 
        Potential amp.        0.0503 Ry
        Total length         45.3309 bohr
 

     total cpu time spent up to now is      352.9 secs

     total energy              =   -2408.81704762 Ry
     Harris-Foulkes estimate   =   -2408.81706436 Ry
     estimated scf accuracy    <       0.00007812 Ry

     iteration # 18     ecut=    36.75 Ry     beta=0.30
     Davidson diagonalization with overlap
     ethr =  3.99E-08,  avg # of iterations =  1.1

     negative rho (up, down):  9.419E-01 0.000E+00
 
     Adding external electric field

     Computed dipole along edir(3) : 
        Dipole               -0.1994 Ry au,         -0.5068 Debye
        Dipole field         -0.0005 Ry au
 
        Potential amp.        0.0497 Ry
        Total length         45.3309 bohr
 

     total cpu time spent up to now is      370.4 secs

     total energy              =   -2408.81704858 Ry
     Harris-Foulkes estimate   =   -2408.81705267 Ry
     estimated scf accuracy    <       0.00001202 Ry

     iteration # 19     ecut=    36.75 Ry     beta=0.30
     Davidson diagonalization with overlap
     ethr =  6.13E-09,  avg # of iterations =  2.0

     negative rho (up, down):  9.421E-01 0.000E+00

     negative rho (up, down):  9.421E-01 0.000E+00

     negative rho (up, down):  9.421E-01 0.000E+00

     negative rho (up, down):  9.421E-01 0.000E+00

     negative rho (up, down):  9.421E-01 0.000E+00

     negative rho (up, down):  9.421E-01 0.000E+00

     negative rho (up, down):  9.421E-01 0.000E+00

     negative rho (up, down):  9.421E-01 0.000E+00

     negative rho (up, down):  9.421E-01 0.000E+00

     negative rho (up, down):  9.421E-01 0.000E+00

     negative rho (up, down):  9.421E-01 0.000E+00

     negative rho (up, down):  9.421E-01 0.000E+00

     negative rho (up, down):  9.421E-01 0.000E+00

     negative rho (up, down):  9.421E-01 0.000E+00

     negative rho (up, down):  9.421E-01 0.000E+00

     negative rho (up, down):  9.421E-01 0.000E+00

     negative rho (up, down):  9.421E-01 0.000E+00

     negative rho (up, down):  9.421E-01 0.000E+00

     negative rho (up, down):  9.421E-01 0.000E+00

     negative rho (up, down):  9.421E-01 0.000E+00

     negative rho (up, down):  9.421E-01 0.000E+00

     negative rho (up, down):  9.421E-01 0.000E+00

     negative rho (up, down):  9.421E-01 0.000E+00

     negative rho (up, down):  9.421E-01 0.000E+00

     negative rho (up, down):  9.421E-01 0.000E+00

     negative rho (up, down):  9.421E-01 0.000E+00

     negative rho (up, down):  9.421E-01 0.000E+00

     negative rho (up, down):  9.421E-01 0.000E+00

     negative rho (up, down):  9.421E-01 0.000E+00

     negative rho (up, down):  9.421E-01 0.000E+00

     negative rho (up, down):  9.421E-01 0.000E+00

     negative rho (up, down):  9.421E-01 0.000E+00

     negative rho (up, down):  9.421E-01 0.000E+00

     negative rho (up, down):  9.421E-01 0.000E+00

     negative rho (up, down):  9.421E-01 0.000E+00
 
     Adding external electric field

     Computed dipole along edir(3) : 
        Dipole               -0.2027 Ry au,         -0.5151 Debye
        Dipole field         -0.0006 Ry au
 
        Potential amp.        0.0505 Ry
        Total length         45.3309 bohr
 

     total cpu time spent up to now is      434.8 secs

     End of self-consistent calculation

          k = 0.0000 0.0000 0.0000 ( 17231 PWs)   bands (ev):

   -49.6734 -49.5390 -49.5390 -49.2940 -49.2940 -49.2359 -49.1961 -49.1580
   -49.1580 -49.1248 -49.0946 -49.0945 -49.0050 -48.9931 -48.9930 -48.9593
   -48.9532 -48.9346 -48.9345 -48.8800 -48.8800 -48.8722 -48.8721 -48.8613
   -48.7122 -48.7122 -48.7000 -48.6496 -48.6496 -48.6465 -48.6465 -48.5833
   -48.5426 -48.5293 -48.5293 -48.5149  -9.2929  -4.9070  -3.9227  -3.8521
    -3.8521  -3.7380  -3.6657  -3.5725  -3.5725  -3.5107  -3.3848  -3.3848
    -3.3741  -3.2110  -3.2110  -3.1782  -2.6278  -2.6278  -2.2834  -1.9944
    -1.9944  -1.9296  -1.9296  -1.9049  -1.7957  -1.6877  -1.6877  -1.4952
    -1.4952  -1.4665  -1.3678  -1.3678  -1.1900  -1.1899  -1.1767  -0.7269
    -0.7269  -0.6905  -0.5498  -0.3890  -0.3890  -0.3708  -0.1897  -0.1897
    -0.0724  -0.0723   0.2968   0.2969   0.3344   0.4148   0.4148   0.4933
     0.5116   0.5183   0.5183   0.6727   0.6727   0.7818   0.7838   0.7838
     0.9769   0.9769   0.9845   1.2451   1.6114   1.7882   1.7882   2.9256
     3.3637   3.3638   3.5898   4.4216

          k = 0.0000 0.0341 0.0000 ( 17192 PWs)   bands (ev):

   -49.6645 -49.5452 -49.5376 -49.2904 -49.2883 -49.2312 -49.2012 -49.1593
   -49.1552 -49.1143 -49.0899 -49.0883 -49.0036 -48.9922 -48.9919 -48.9590
   -48.9572 -48.9429 -48.9336 -48.8954 -48.8837 -48.8657 -48.8619 -48.8527
   -48.7211 -48.7151 -48.7015 -48.6651 -48.6534 -48.6504 -48.6477 -48.5825
   -48.5420 -48.5302 -48.5292 -48.5148  -9.2694  -4.7191  -3.8241  -3.7559
    -3.7207  -3.5920  -3.5251  -3.4894  -3.4389  -3.3959  -3.3135  -3.2946
    -3.2810  -3.1246  -3.0678  -3.0474  -2.6135  -2.5669  -2.2578  -2.0536
    -2.0531  -1.9200  -1.8412  -1.8337  -1.7735  -1.7510  -1.6477  -1.5871
    -1.5333  -1.4404  -1.4066  -1.3054  -1.2541  -1.1801  -1.1651  -0.8891
    -0.8303  -0.7320  -0.6015  -0.5316  -0.4784  -0.4763  -0.3303  -0.3087
    -0.1393  -0.0750   0.1056   0.1240   0.1558   0.2570   0.3034   0.3275
     0.3470   0.3585   0.4682   0.4916   0.5306   0.5606   0.5827   0.6492
     0.7510   0.7703   0.8109   1.2321   1.4909   1.8470   1.9451   2.3405
     3.1660   3.2820   3.5286   3.7356

          k = 0.0000 0.0683 0.0000 ( 17196 PWs)   bands (ev):

   -49.6421 -49.5620 -49.5348 -49.2829 -49.2734 -49.2183 -49.2153 -49.1704
   -49.1505 -49.0925 -49.0749 -49.0585 -49.0004 -48.9927 -48.9918 -48.9763
   -48.9632 -48.9535 -48.9352 -48.9256 -48.8938 -48.8494 -48.8405 -48.8200
   -48.7429 -48.7321 -48.7067 -48.6935 -48.6638 -48.6583 -48.6499 -48.5810
   -48.5405 -48.5322 -48.5290 -48.5148  -9.2219  -4.2322  -3.6965  -3.4833
    -3.3895  -3.3624  -3.2664  -3.1732  -3.0914  -3.0891  -3.0439  -3.0225
    -3.0065  -2.8914  -2.7610  -2.7503  -2.4845  -2.3718  -2.2426  -2.2216
    -2.1708  -2.0377  -1.9810  -1.8323  -1.7617  -1.7395  -1.6444  -1.5556
    -1.5065  -1.4325  -1.3840  -1.3252  -1.2724  -1.2446  -1.2023  -1.1198
    -1.0113  -0.9296  -0.8384  -0.7624  -0.7448  -0.6561  -0.6207  -0.5606
    -0.5532  -0.4495  -0.3982  -0.3416  -0.1723  -0.1566  -0.0746  -0.0018
     0.0336   0.0940   0.1627   0.1770   0.3003   0.3407   0.3711   0.4707
     0.5021   0.5911   0.6370   0.7403   1.0149   1.7105   1.8694   2.5878
     3.0190   3.2873   3.5907   4.2515

          k = 0.0000-0.1024 0.0000 ( 17240 PWs)   bands (ev):

   -49.6255 -49.5759 -49.5333 -49.2790 -49.2613 -49.2272 -49.2056 -49.1837
   -49.1487 -49.0803 -49.0622 -49.0132 -49.0096 -48.9997 -48.9968 -48.9823
   -48.9798 -48.9651 -48.9514 -48.9171 -48.9029 -48.8385 -48.8264 -48.7781
   -48.7579 -48.7519 -48.7441 -48.6832 -48.6744 -48.6623 -48.6511 -48.5802
   -48.5394 -48.5336 -48.5290 -48.5147  -9.1980  -3.8631  -3.6425  -3.4025
    -3.1943  -3.1122  -3.1115  -3.0110  -2.9249  -2.8640  -2.8493  -2.8082
    -2.7211  -2.6163  -2.5613  -2.5311  -2.5249  -2.3455  -2.2565  -2.2379
    -2.1070  -2.0566  -2.0419  -1.9943  -1.9411  -1.7746  -1.7448  -1.6294
    -1.5920  -1.4218  -1.3957  -1.3476  -1.2712  -1.2521  -1.1939  -1.1415
    -1.0993  -1.0665  -1.0506  -0.9696  -0.8850  -0.8177  -0.7870  -0.7289
    -0.6920  -0.6470  -0.5742  -0.5507  -0.4421  -0.4344  -0.3309  -0.3196
    -0.2586  -0.0871  -0.0230   0.0349   0.0573   0.0912   0.2916   0.4924
     0.5256   0.5813   0.7471   0.7541   0.7911   1.6782   1.8712   2.6156
     3.2307   3.3262   3.8377   4.0292

          k = 0.0296-0.0171 0.0000 ( 17192 PWs)   bands (ev):

   -49.6645 -49.5452 -49.5376 -49.2904 -49.2883 -49.2312 -49.2012 -49.1593
   -49.1552 -49.1143 -49.0899 -49.0883 -49.0036 -48.9923 -48.9918 -48.9590
   -48.9572 -48.9429 -48.9335 -48.8953 -48.8838 -48.8657 -48.8619 -48.8527
   -48.7211 -48.7150 -48.7015 -48.6651 -48.6534 -48.6504 -48.6477 -48.5825
   -48.5420 -48.5302 -48.5292 -48.5148  -9.2694  -4.7191  -3.8242  -3.7559
    -3.7207  -3.5920  -3.5251  -3.4894  -3.4389  -3.3959  -3.3135  -3.2946
    -3.2810  -3.1246  -3.0678  -3.0474  -2.6134  -2.5669  -2.2578  -2.0537
    -2.0531  -1.9200  -1.8412  -1.8337  -1.7735  -1.7511  -1.6477  -1.5871
    -1.5333  -1.4404  -1.4066  -1.3054  -1.2541  -1.1801  -1.1651  -0.8891
    -0.8303  -0.7320  -0.6015  -0.5316  -0.4784  -0.4763  -0.3303  -0.3087
    -0.1393  -0.0750   0.1056   0.1240   0.1558   0.2570   0.3034   0.3275
     0.3469   0.3585   0.4682   0.4916   0.5307   0.5606   0.5827   0.6492
     0.7509   0.7703   0.8109   1.2321   1.4909   1.8470   1.9451   2.3405
     3.1660   3.2820   3.5286   3.7356

          k = 0.0296 0.0171 0.0000 ( 17192 PWs)   bands (ev):

   -49.6645 -49.5452 -49.5376 -49.2904 -49.2883 -49.2312 -49.2012 -49.1593
   -49.1552 -49.1143 -49.0899 -49.0883 -49.0036 -48.9922 -48.9918 -48.9590
   -48.9572 -48.9429 -48.9335 -48.8953 -48.8838 -48.8656 -48.8619 -48.8527
   -48.7211 -48.7151 -48.7015 -48.6651 -48.6534 -48.6504 -48.6477 -48.5825
   -48.5420 -48.5302 -48.5292 -48.5148  -9.2694  -4.7191  -3.8242  -3.7559
    -3.7207  -3.5920  -3.5251  -3.4894  -3.4389  -3.3959  -3.3135  -3.2946
    -3.2810  -3.1246  -3.0678  -3.0474  -2.6135  -2.5669  -2.2578  -2.0537
    -2.0531  -1.9200  -1.8412  -1.8337  -1.7735  -1.7511  -1.6477  -1.5871
    -1.5333  -1.4404  -1.4066  -1.3054  -1.2541  -1.1801  -1.1651  -0.8891
    -0.8303  -0.7320  -0.6015  -0.5316  -0.4784  -0.4763  -0.3303  -0.3087
    -0.1393  -0.0750   0.1056   0.1240   0.1558   0.2570   0.3034   0.3275
     0.3469   0.3585   0.4682   0.4916   0.5307   0.5606   0.5827   0.6492
     0.7510   0.7703   0.8109   1.2321   1.4909   1.8470   1.9451   2.3405
     3.1660   3.2820   3.5286   3.7356

          k = 0.0296 0.0512 0.0000 ( 17186 PWs)   bands (ev):

   -49.6485 -49.5573 -49.5352 -49.2848 -49.2778 -49.2224 -49.2112 -49.1648
   -49.1529 -49.0975 -49.0759 -49.0737 -49.0013 -48.9937 -48.9900 -48.9767
   -48.9543 -48.9452 -48.9356 -48.9216 -48.8918 -48.8549 -48.8410 -48.8356
   -48.7446 -48.7112 -48.7050 -48.6923 -48.6614 -48.6556 -48.6501 -48.5813
   -48.5409 -48.5317 -48.5290 -48.5148  -9.2338  -4.3751  -3.6901  -3.5753
    -3.4814  -3.3809  -3.3346  -3.2947  -3.2035  -3.1873  -3.1318  -3.1150
    -3.0735  -2.9409  -2.8778  -2.8033  -2.5519  -2.4480  -2.2412  -2.1661
    -2.0951  -2.0132  -1.9316  -1.8856  -1.7655  -1.7049  -1.6644  -1.5438
    -1.5020  -1.4302  -1.4190  -1.3325  -1.2715  -1.2120  -1.1556  -1.0936
    -1.0005  -0.8910  -0.7651  -0.7364  -0.6413  -0.5760  -0.5339  -0.4604
    -0.4165  -0.3190  -0.2829  -0.2639  -0.0869  -0.0468   0.0258   0.0864
     0.1025   0.1508   0.1931   0.3345   0.3922   0.4407   0.4579   0.5234
     0.5903   0.6146   0.6402   1.1446   1.3244   1.5905   1.8151   2.0222
     2.6655   3.1429   3.8049   4.3399

          k = 0.0296-0.1195 0.0000 ( 17183 PWs)   bands (ev):

   -49.6247 -49.5774 -49.5327 -49.2789 -49.2614 -49.2277 -49.2071 -49.1787
   -49.1515 -49.0772 -49.0557 -49.0362 -49.0145 -48.9966 -48.9924 -48.9870
   -48.9709 -48.9516 -48.9470 -48.9259 -48.9054 -48.8369 -48.8182 -48.7975
   -48.7736 -48.7407 -48.7185 -48.6936 -48.6755 -48.6603 -48.6530 -48.5802
   -48.5392 -48.5340 -48.5288 -48.5147  -9.1980  -3.8852  -3.5599  -3.2988
    -3.2174  -3.1580  -3.0500  -3.0067  -2.9323  -2.8958  -2.8385  -2.8025
    -2.7282  -2.6681  -2.6201  -2.5425  -2.4587  -2.3690  -2.3177  -2.2445
    -2.1330  -2.1059  -2.0530  -1.9570  -1.9035  -1.8210  -1.7406  -1.6649
    -1.6066  -1.5384  -1.4868  -1.4403  -1.3734  -1.3362  -1.2569  -1.2381
    -1.1432  -1.0542  -0.9659  -0.9477  -0.8878  -0.8280  -0.7570  -0.7082
    -0.6182  -0.5733  -0.5265  -0.4571  -0.3901  -0.3134  -0.2559  -0.2094
    -0.0778  -0.0041   0.0537   0.1117   0.2611   0.3048   0.3825   0.4396
     0.5025   0.5192   0.6155   0.6617   0.9870   1.3806   1.6777   1.9959
     2.7014   3.2857   3.9641   4.5343

          k = 0.0296-0.0853 0.0000 ( 17183 PWs)   bands (ev):

   -49.6247 -49.5774 -49.5327 -49.2789 -49.2614 -49.2277 -49.2071 -49.1787
   -49.1515 -49.0772 -49.0557 -49.0362 -49.0145 -48.9966 -48.9924 -48.9870
   -48.9709 -48.9516 -48.9470 -48.9259 -48.9054 -48.8369 -48.8182 -48.7975
   -48.7736 -48.7407 -48.7185 -48.6936 -48.6755 -48.6603 -48.6530 -48.5802
   -48.5392 -48.5340 -48.5288 -48.5147  -9.1980  -3.8852  -3.5599  -3.2988
    -3.2174  -3.1580  -3.0500  -3.0067  -2.9323  -2.8958  -2.8385  -2.8025
    -2.7282  -2.6681  -2.6201  -2.5425  -2.4587  -2.3690  -2.3177  -2.2445
    -2.1330  -2.1059  -2.0530  -1.9570  -1.9035  -1.8210  -1.7406  -1.6649
    -1.6066  -1.5384  -1.4868  -1.4403  -1.3734  -1.3362  -1.2569  -1.2381
    -1.1432  -1.0542  -0.9659  -0.9477  -0.8878  -0.8280  -0.7570  -0.7082
    -0.6182  -0.5733  -0.5265  -0.4571  -0.3901  -0.3134  -0.2559  -0.2094
    -0.0778  -0.0041   0.0537   0.1117   0.2611   0.3048   0.3825   0.4396
     0.5025   0.5192   0.6155   0.6617   0.9870   1.3806   1.6777   1.9959
     2.7014   3.2857   3.9641   4.5343

          k = 0.0296-0.0512 0.0000 ( 17186 PWs)   bands (ev):

   -49.6485 -49.5573 -49.5352 -49.2848 -49.2778 -49.2224 -49.2112 -49.1648
   -49.1529 -49.0975 -49.0759 -49.0737 -49.0013 -48.9937 -48.9900 -48.9768
   -48.9543 -48.9452 -48.9356 -48.9216 -48.8918 -48.8549 -48.8410 -48.8356
   -48.7446 -48.7112 -48.7050 -48.6923 -48.6614 -48.6556 -48.6501 -48.5813
   -48.5409 -48.5317 -48.5290 -48.5148  -9.2338  -4.3751  -3.6901  -3.5753
    -3.4814  -3.3809  -3.3346  -3.2947  -3.2035  -3.1873  -3.1318  -3.1150
    -3.0735  -2.9409  -2.8778  -2.8033  -2.5519  -2.4480  -2.2412  -2.1661
    -2.0951  -2.0132  -1.9316  -1.8856  -1.7655  -1.7049  -1.6645  -1.5438
    -1.5020  -1.4302  -1.4191  -1.3325  -1.2715  -1.2120  -1.1556  -1.0936
    -1.0005  -0.8910  -0.7651  -0.7364  -0.6413  -0.5760  -0.5339  -0.4604
    -0.4165  -0.3190  -0.2829  -0.2639  -0.0869  -0.0468   0.0258   0.0864
     0.1025   0.1508   0.1931   0.3345   0.3922   0.4407   0.4579   0.5234
     0.5903   0.6146   0.6402   1.1446   1.3244   1.5905   1.8151   2.0222
     2.6655   3.1429   3.8049   4.3399

          k = 0.0591-0.0341 0.0000 ( 17196 PWs)   bands (ev):

   -49.6422 -49.5620 -49.5348 -49.2829 -49.2733 -49.2183 -49.2153 -49.1704
   -49.1506 -49.0925 -49.0750 -49.0585 -49.0005 -48.9927 -48.9917 -48.9763
   -48.9632 -48.9535 -48.9352 -48.9256 -48.8939 -48.8494 -48.8405 -48.8200
   -48.7429 -48.7321 -48.7067 -48.6935 -48.6638 -48.6583 -48.6499 -48.5810
   -48.5405 -48.5322 -48.5290 -48.5148  -9.2219  -4.2322  -3.6965  -3.4833
    -3.3895  -3.3624  -3.2664  -3.1732  -3.0914  -3.0891  -3.0439  -3.0225
    -3.0065  -2.8914  -2.7610  -2.7503  -2.4845  -2.3718  -2.2426  -2.2216
    -2.1708  -2.0377  -1.9810  -1.8323  -1.7617  -1.7395  -1.6444  -1.5556
    -1.5065  -1.4325  -1.3840  -1.3252  -1.2724  -1.2446  -1.2023  -1.1198
    -1.0113  -0.9296  -0.8384  -0.7623  -0.7448  -0.6561  -0.6207  -0.5605
    -0.5532  -0.4495  -0.3982  -0.3416  -0.1723  -0.1566  -0.0746  -0.0018
     0.0336   0.0940   0.1627   0.1770   0.3004   0.3407   0.3711   0.4707
     0.5021   0.5911   0.6369   0.7404   1.0149   1.7105   1.8694   2.5878
     3.0190   3.2873   3.5907   4.2514

          k = 0.0591-0.0000 0.0000 ( 17186 PWs)   bands (ev):

   -49.6485 -49.5573 -49.5352 -49.2848 -49.2777 -49.2224 -49.2112 -49.1648
   -49.1530 -49.0975 -49.0759 -49.0737 -49.0013 -48.9938 -48.9899 -48.9768
   -48.9543 -48.9453 -48.9356 -48.9216 -48.8918 -48.8549 -48.8410 -48.8356
   -48.7446 -48.7112 -48.7050 -48.6923 -48.6614 -48.6556 -48.6501 -48.5813
   -48.5409 -48.5317 -48.5290 -48.5148  -9.2338  -4.3751  -3.6901  -3.5753
    -3.4814  -3.3809  -3.3346  -3.2947  -3.2035  -3.1873  -3.1318  -3.1150
    -3.0735  -2.9409  -2.8778  -2.8033  -2.5519  -2.4480  -2.2412  -2.1661
    -2.0951  -2.0132  -1.9316  -1.8856  -1.7655  -1.7049  -1.6645  -1.5438
    -1.5020  -1.4302  -1.4190  -1.3325  -1.2715  -1.2120  -1.1556  -1.0937
    -1.0005  -0.8910  -0.7651  -0.7364  -0.6413  -0.5760  -0.5339  -0.4604
    -0.4165  -0.3190  -0.2829  -0.2639  -0.0869  -0.0468   0.0258   0.0864
     0.1025   0.1508   0.1931   0.3345   0.3922   0.4408   0.4579   0.5233
     0.5903   0.6146   0.6402   1.1446   1.3244   1.5905   1.8151   2.0222
     2.6655   3.1429   3.8049   4.3399

          k = 0.0591 0.0341 0.0000 ( 17196 PWs)   bands (ev):

   -49.6422 -49.5620 -49.5348 -49.2829 -49.2733 -49.2183 -49.2153 -49.1704
   -49.1506 -49.0925 -49.0750 -49.0585 -49.0005 -48.9927 -48.9917 -48.9763
   -48.9632 -48.9535 -48.9352 -48.9256 -48.8939 -48.8494 -48.8405 -48.8200
   -48.7429 -48.7321 -48.7067 -48.6935 -48.6638 -48.6583 -48.6499 -48.5810
   -48.5405 -48.5322 -48.5290 -48.5148  -9.2219  -4.2322  -3.6965  -3.4833
    -3.3895  -3.3624  -3.2664  -3.1732  -3.0914  -3.0891  -3.0439  -3.0225
    -3.0065  -2.8914  -2.7610  -2.7503  -2.4845  -2.3718  -2.2426  -2.2216
    -2.1708  -2.0377  -1.9810  -1.8323  -1.7617  -1.7395  -1.6444  -1.5556
    -1.5065  -1.4325  -1.3840  -1.3252  -1.2724  -1.2446  -1.2023  -1.1198
    -1.0113  -0.9296  -0.8384  -0.7624  -0.7448  -0.6561  -0.6207  -0.5605
    -0.5532  -0.4495  -0.3982  -0.3416  -0.1723  -0.1566  -0.0746  -0.0018
     0.0336   0.0940   0.1627   0.1770   0.3004   0.3407   0.3711   0.4707
     0.5020   0.5911   0.6370   0.7404   1.0149   1.7105   1.8694   2.5878
     3.0190   3.2873   3.5907   4.2514

          k = 0.0591-0.1365 0.0000 ( 17183 PWs)   bands (ev):

   -49.6247 -49.5774 -49.5327 -49.2789 -49.2613 -49.2277 -49.2071 -49.1787
   -49.1516 -49.0771 -49.0558 -49.0362 -49.0145 -48.9966 -48.9925 -48.9870
   -48.9710 -48.9516 -48.9469 -48.9258 -48.9054 -48.8369 -48.8182 -48.7975
   -48.7736 -48.7407 -48.7185 -48.6936 -48.6755 -48.6603 -48.6530 -48.5802
   -48.5392 -48.5340 -48.5288 -48.5147  -9.1980  -3.8852  -3.5599  -3.2988
    -3.2174  -3.1580  -3.0500  -3.0067  -2.9323  -2.8958  -2.8385  -2.8025
    -2.7282  -2.6681  -2.6201  -2.5425  -2.4587  -2.3690  -2.3177  -2.2445
    -2.1330  -2.1059  -2.0530  -1.9570  -1.9035  -1.8210  -1.7406  -1.6649
    -1.6066  -1.5384  -1.4868  -1.4403  -1.3734  -1.3362  -1.2569  -1.2381
    -1.1432  -1.0542  -0.9659  -0.9477  -0.8878  -0.8280  -0.7570  -0.7082
    -0.6182  -0.5733  -0.5265  -0.4571  -0.3901  -0.3134  -0.2559  -0.2094
    -0.0778  -0.0041   0.0537   0.1117   0.2611   0.3048   0.3825   0.4396
     0.5025   0.5192   0.6155   0.6617   0.9870   1.3806   1.6777   1.9959
     2.7014   3.2857   3.9641   4.5343

          k = 0.0591-0.1024 0.0000 ( 17208 PWs)   bands (ev):

   -49.6024 -49.5991 -49.5314 -49.2766 -49.2471 -49.2426 -49.1964 -49.1861
   -49.1539 -49.0533 -49.0491 -49.0284 -49.0196 -49.0135 -48.9952 -48.9886
   -48.9807 -48.9505 -48.9327 -48.9251 -48.9246 -48.8164 -48.8080 -48.7852
   -48.7840 -48.7741 -48.6982 -48.6978 -48.6937 -48.6581 -48.6577 -48.5798
   -48.5372 -48.5363 -48.5285 -48.5147  -9.1861  -3.7040  -3.2712  -3.2565
    -3.0473  -2.9507  -2.8920  -2.8352  -2.8128  -2.7954  -2.7132  -2.7040
    -2.6782  -2.5911  -2.5907  -2.5520  -2.4206  -2.3836  -2.3564  -2.2164
    -2.1834  -2.0687  -2.0207  -1.9686  -1.9652  -1.9374  -1.8530  -1.8422
    -1.7125  -1.6499  -1.6437  -1.6345  -1.6211  -1.5638  -1.2773  -1.2660
    -1.2599  -1.1609  -1.1558  -1.1356  -1.0448  -0.9628  -0.7197  -0.6833
    -0.5065  -0.5027  -0.4837  -0.4159  -0.3094  -0.2668  -0.1412  -0.1402
    -0.0636   0.0417   0.1331   0.1491   0.2811   0.3520   0.3540   0.4260
     0.4354   0.5121   0.5236   0.5397   0.8555   0.8596   1.2161   1.9007
     2.5414   3.1930   4.2980   4.4085

          k = 0.0591-0.0683 0.0000 ( 17183 PWs)   bands (ev):

   -49.6247 -49.5774 -49.5327 -49.2789 -49.2613 -49.2277 -49.2071 -49.1787
   -49.1516 -49.0771 -49.0558 -49.0362 -49.0145 -48.9966 -48.9925 -48.9870
   -48.9710 -48.9516 -48.9469 -48.9258 -48.9054 -48.8369 -48.8182 -48.7975
   -48.7736 -48.7407 -48.7185 -48.6936 -48.6755 -48.6603 -48.6530 -48.5802
   -48.5391 -48.5340 -48.5287 -48.5147  -9.1980  -3.8852  -3.5599  -3.2988
    -3.2174  -3.1580  -3.0500  -3.0067  -2.9323  -2.8958  -2.8385  -2.8025
    -2.7282  -2.6681  -2.6201  -2.5425  -2.4587  -2.3690  -2.3177  -2.2445
    -2.1330  -2.1059  -2.0530  -1.9570  -1.9035  -1.8210  -1.7406  -1.6649
    -1.6066  -1.5384  -1.4868  -1.4403  -1.3734  -1.3362  -1.2569  -1.2381
    -1.1432  -1.0542  -0.9659  -0.9477  -0.8878  -0.8280  -0.7570  -0.7082
    -0.6182  -0.5733  -0.5265  -0.4571  -0.3901  -0.3134  -0.2559  -0.2094
    -0.0778  -0.0041   0.0537   0.1117   0.2611   0.3048   0.3825   0.4396
     0.5025   0.5192   0.6156   0.6617   0.9870   1.3806   1.6777   1.9959
     2.7014   3.2857   3.9641   4.5343

          k =-0.0887 0.0512 0.0000 ( 17240 PWs)   bands (ev):

   -49.6255 -49.5759 -49.5334 -49.2790 -49.2612 -49.2272 -49.2056 -49.1837
   -49.1487 -49.0802 -49.0623 -49.0132 -49.0097 -48.9996 -48.9968 -48.9823
   -48.9799 -48.9651 -48.9514 -48.9170 -48.9029 -48.8385 -48.8263 -48.7781
   -48.7579 -48.7519 -48.7441 -48.6832 -48.6744 -48.6623 -48.6511 -48.5802
   -48.5394 -48.5336 -48.5289 -48.5147  -9.1980  -3.8631  -3.6425  -3.4025
    -3.1944  -3.1122  -3.1115  -3.0110  -2.9249  -2.8640  -2.8492  -2.8082
    -2.7211  -2.6163  -2.5613  -2.5312  -2.5249  -2.3455  -2.2565  -2.2378
    -2.1070  -2.0566  -2.0419  -1.9943  -1.9411  -1.7746  -1.7448  -1.6294
    -1.5920  -1.4218  -1.3957  -1.3476  -1.2712  -1.2522  -1.1938  -1.1414
    -1.0992  -1.0665  -1.0506  -0.9696  -0.8850  -0.8177  -0.7870  -0.7289
    -0.6920  -0.6470  -0.5742  -0.5507  -0.4421  -0.4344  -0.3309  -0.3196
    -0.2586  -0.0871  -0.0230   0.0349   0.0573   0.0912   0.2916   0.4924
     0.5256   0.5813   0.7470   0.7541   0.7911   1.6782   1.8712   2.6156
     3.2307   3.3262   3.8377   4.0292

          k =-0.0887 0.0853 0.0000 ( 17183 PWs)   bands (ev):

   -49.6247 -49.5774 -49.5327 -49.2789 -49.2613 -49.2277 -49.2071 -49.1787
   -49.1516 -49.0771 -49.0558 -49.0362 -49.0146 -48.9966 -48.9924 -48.9870
   -48.9709 -48.9516 -48.9469 -48.9258 -48.9054 -48.8369 -48.8182 -48.7975
   -48.7736 -48.7407 -48.7185 -48.6936 -48.6755 -48.6604 -48.6529 -48.5802
   -48.5391 -48.5340 -48.5287 -48.5147  -9.1980  -3.8852  -3.5599  -3.2988
    -3.2174  -3.1580  -3.0500  -3.0067  -2.9323  -2.8958  -2.8385  -2.8025
    -2.7282  -2.6681  -2.6201  -2.5425  -2.4587  -2.3690  -2.3177  -2.2445
    -2.1330  -2.1059  -2.0530  -1.9570  -1.9035  -1.8210  -1.7406  -1.6649
    -1.6066  -1.5384  -1.4868  -1.4403  -1.3734  -1.3362  -1.2569  -1.2381
    -1.1432  -1.0542  -0.9659  -0.9477  -0.8878  -0.8280  -0.7570  -0.7082
    -0.6182  -0.5733  -0.5265  -0.4571  -0.3901  -0.3134  -0.2559  -0.2094
    -0.0778  -0.0041   0.0537   0.1117   0.2611   0.3048   0.3825   0.4396
     0.5026   0.5191   0.6156   0.6617   0.9870   1.3806   1.6777   1.9959
     2.7014   3.2857   3.9641   4.5343

          k =-0.0887 0.1195 0.0000 ( 17183 PWs)   bands (ev):

   -49.6247 -49.5774 -49.5327 -49.2789 -49.2613 -49.2277 -49.2071 -49.1787
   -49.1516 -49.0771 -49.0558 -49.0362 -49.0146 -48.9966 -48.9924 -48.9870
   -48.9709 -48.9516 -48.9470 -48.9258 -48.9054 -48.8369 -48.8182 -48.7975
   -48.7736 -48.7407 -48.7185 -48.6936 -48.6755 -48.6604 -48.6529 -48.5802
   -48.5392 -48.5340 -48.5288 -48.5147  -9.1980  -3.8852  -3.5599  -3.2988
    -3.2174  -3.1580  -3.0500  -3.0067  -2.9323  -2.8958  -2.8385  -2.8025
    -2.7282  -2.6681  -2.6201  -2.5425  -2.4587  -2.3690  -2.3177  -2.2445
    -2.1330  -2.1059  -2.0530  -1.9570  -1.9035  -1.8210  -1.7406  -1.6649
    -1.6066  -1.5384  -1.4868  -1.4403  -1.3734  -1.3362  -1.2569  -1.2381
    -1.1432  -1.0542  -0.9659  -0.9477  -0.8878  -0.8280  -0.7570  -0.7082
    -0.6182  -0.5733  -0.5265  -0.4571  -0.3901  -0.3134  -0.2559  -0.2094
    -0.0778  -0.0041   0.0537   0.1117   0.2611   0.3048   0.3825   0.4396
     0.5026   0.5192   0.6155   0.6617   0.9870   1.3806   1.6777   1.9959
     2.7014   3.2857   3.9641   4.5343

          k =-0.0887-0.0512 0.0000 ( 17240 PWs)   bands (ev):

   -49.6255 -49.5759 -49.5334 -49.2790 -49.2612 -49.2272 -49.2056 -49.1837
   -49.1487 -49.0802 -49.0623 -49.0132 -49.0097 -48.9996 -48.9968 -48.9823
   -48.9799 -48.9651 -48.9514 -48.9170 -48.9029 -48.8385 -48.8264 -48.7781
   -48.7579 -48.7519 -48.7441 -48.6832 -48.6744 -48.6623 -48.6511 -48.5802
   -48.5394 -48.5336 -48.5290 -48.5147  -9.1980  -3.8631  -3.6425  -3.4025
    -3.1944  -3.1122  -3.1115  -3.0110  -2.9249  -2.8640  -2.8492  -2.8082
    -2.7211  -2.6163  -2.5613  -2.5312  -2.5249  -2.3455  -2.2565  -2.2378
    -2.1070  -2.0566  -2.0419  -1.9943  -1.9411  -1.7746  -1.7448  -1.6294
    -1.5920  -1.4218  -1.3957  -1.3476  -1.2712  -1.2522  -1.1938  -1.1414
    -1.0993  -1.0665  -1.0506  -0.9696  -0.8850  -0.8177  -0.7870  -0.7289
    -0.6920  -0.6470  -0.5742  -0.5507  -0.4421  -0.4344  -0.3309  -0.3196
    -0.2586  -0.0871  -0.0230   0.0349   0.0573   0.0912   0.2916   0.4924
     0.5256   0.5813   0.7471   0.7541   0.7911   1.6782   1.8712   2.6156
     3.2307   3.3262   3.8377   4.0292

     the Fermi energy is     0.7532 ev

!    total energy              =   -2408.81704639 Ry
     Harris-Foulkes estimate   =   -2408.81704589 Ry
     estimated scf accuracy    <       0.00000251 Ry

     The total energy is the sum of the following terms:

     one-electron contribution =  -20520.03508966 Ry
     hartree contribution      =   10308.86315355 Ry
     xc contribution           =    -393.51490037 Ry
     ewald contribution        =    8195.97201710 Ry
     electric field correction =       0.00011293 Ry
     smearing contrib. (-TS)   =      -0.10233994 Ry

     convergence has been achieved in  19 iterations
 
 BEEF-vdW xc energy contributions
           1 :   -342.556078127777     
           2 :    313.042774958339     
           3 :   -262.688978030182     
           4 :    205.021637896609     
           5 :   -153.144489403505     
           6 :    115.425354879399     
           7 :   -93.6801240949042     
           8 :    84.1641859464152     
           9 :   -80.5135458621219     
          10 :    77.0526959583644     
          11 :   -70.9741696321556     
          12 :    62.6458596162215     
          13 :   -54.3259242292127     
          14 :    48.2804147823225     
          15 :   -45.3978783030455     
          16 :    44.8982610775785     
          17 :   -45.0471815115384     
          18 :    44.2736590480353     
          19 :   -41.9906110781808     
          20 :    38.7077590552591     
          21 :   -35.5036370856285     
          22 :    33.2711396916741     
          23 :   -32.2113659297041     
          24 :    31.8256351409668     
          25 :   -31.3303148515393     
          26 :    30.1805567821330     
          27 :   -28.3719472058427     
          28 :    26.3648514495378     
          29 :   -24.7268867190523     
          30 :    23.7492027180415     
          31 :   -33.4602888471477     
          32 :   -24.7332590949608     

     Forces acting on atoms (Ry/au):


     negative rho (up, down):  9.421E-01 0.000E+00
     atom    1 type  1   force =     0.00000032    0.00000076    0.00083461
     atom    2 type  1   force =    -0.00000088    0.00139019   -0.00276164
     atom    3 type  1   force =     0.00120687   -0.00069271   -0.00275458
     atom    4 type  1   force =    -0.00120614   -0.00069240   -0.00275517
     atom    5 type  1   force =    -0.00380284    0.00219624   -0.00697638
     atom    6 type  1   force =     0.00380309    0.00219503   -0.00697467
     atom    7 type  1   force =    -0.00000159    0.00000126   -0.00202222
     atom    8 type  1   force =     0.00000170   -0.00439693   -0.00695005
     atom    9 type  1   force =     0.03537694    0.02042038    0.05537037
     atom   10 type  1   force =    -0.03537715    0.02042086    0.05536845
     atom   11 type  1   force =     0.00000052   -0.04084157    0.05536554
     atom   12 type  1   force =    -0.00000075   -0.00000030    0.00030503
     atom   13 type  2   force =    -0.00000008   -0.00000082   -0.13604929

     Total force =     0.180863     Total SCF correction =     0.001815


     entering subroutine stress ...


     negative rho (up, down):  9.421E-01 0.000E+00
          total   stress  (Ry/bohr**3)                   (kbar)     P=  -13.47
  -0.00010878  -0.00000000  -0.00000000        -16.00     -0.00     -0.00
  -0.00000000  -0.00010877  -0.00000000         -0.00    -16.00     -0.00
  -0.00000000  -0.00000000  -0.00005722         -0.00     -0.00     -8.42


     BFGS Geometry Optimization

     number of scf cycles    =   1
     number of bfgs steps    =   0

     energy   new            =   -2408.8170463864 Ry

     new trust radius        =       0.1360492902 bohr
     new conv_thr            =       0.0000099958 Ry


ATOMIC_POSITIONS (crystal)
Pd1      0.166666667   0.166666667   0.406452311    0   0   0
Pd1      0.666666667   0.166666667   0.406452311    0   0   0
Pd1      0.166666667   0.666666667   0.406452311    0   0   0
Pd1      0.666666667   0.666666667   0.406452311    0   0   0
Pd1      0.833333333   0.333333333   0.500000000    0   0   0
Pd1      0.333333333   0.333333333   0.500000000    0   0   0
Pd1      0.833333333   0.833333333   0.500000000    0   0   0
Pd1      0.333333333   0.833333333   0.500000000    0   0   0
Pd1      0.002214006   0.002213275   0.594738624
Pd1      0.495572673   0.002213327   0.594738583
Pd1      0.002213367   0.495573364   0.594738520
Pd1      0.499999945   0.499999967   0.593554250
C1       0.166666704   0.166666577   0.647423179



     Writing output data file calc.save
     Check: negative starting charge=   -0.904052
     NEW-OLD atomic charge density approx. for the potential
     Check: negative starting charge=   -0.906260

     negative rho (up, down):  9.441E-01 0.000E+00
 
     Adding external electric field

     Computed dipole along edir(3) : 
        Dipole               -0.1195 Ry au,         -0.3036 Debye
        Dipole field         -0.0003 Ry au
 
        Potential amp.        0.0298 Ry
        Total length         45.3309 bohr
 

     total cpu time spent up to now is      495.5 secs

     per-process dynamical memory:   109.9 Mb

     Self-consistent Calculation

     iteration #  1     ecut=    36.75 Ry     beta=0.30
     Davidson diagonalization with overlap
     ethr =  1.00E-06,  avg # of iterations =  4.2

     negative rho (up, down):  9.442E-01 0.000E+00
 
     Adding external electric field

     Computed dipole along edir(3) : 
        Dipole               -1.0196 Ry au,         -2.5916 Debye
        Dipole field         -0.0028 Ry au
 
        Potential amp.        0.2542 Ry
        Total length         45.3309 bohr
 

     total cpu time spent up to now is      526.1 secs

     total energy              =   -2408.78784548 Ry
     Harris-Foulkes estimate   =   -2408.84778108 Ry
     estimated scf accuracy    <       0.12677821 Ry

     iteration #  2     ecut=    36.75 Ry     beta=0.30
     Davidson diagonalization with overlap
     ethr =  6.47E-05,  avg # of iterations =  5.0

     negative rho (up, down):  9.443E-01 0.000E+00
 
     Adding external electric field

     Computed dipole along edir(3) : 
        Dipole               -0.2068 Ry au,         -0.5256 Debye
        Dipole field         -0.0006 Ry au
 
        Potential amp.        0.0516 Ry
        Total length         45.3309 bohr
 

     total cpu time spent up to now is      548.8 secs

     total energy              =   -2408.45097188 Ry
     Harris-Foulkes estimate   =   -2409.30424193 Ry
     estimated scf accuracy    <      22.80267685 Ry

     iteration #  3     ecut=    36.75 Ry     beta=0.30
     Davidson diagonalization with overlap
     ethr =  6.47E-05,  avg # of iterations =  4.2

     negative rho (up, down):  9.445E-01 0.000E+00
 
     Adding external electric field

     Computed dipole along edir(3) : 
        Dipole               -0.2132 Ry au,         -0.5419 Debye
        Dipole field         -0.0006 Ry au
 
        Potential amp.        0.0532 Ry
        Total length         45.3309 bohr
 

     total cpu time spent up to now is      571.3 secs

     total energy              =   -2408.83072133 Ry
     Harris-Foulkes estimate   =   -2408.85995985 Ry
     estimated scf accuracy    <       0.28675528 Ry

     iteration #  4     ecut=    36.75 Ry     beta=0.30
     Davidson diagonalization with overlap
     ethr =  6.47E-05,  avg # of iterations =  2.0

     negative rho (up, down):  9.446E-01 0.000E+00
 
     Adding external electric field

     Computed dipole along edir(3) : 
        Dipole               -0.1701 Ry au,         -0.4324 Debye
        Dipole field         -0.0005 Ry au
 
        Potential amp.        0.0424 Ry
        Total length         45.3309 bohr
 

     total cpu time spent up to now is      589.7 secs

     total energy              =   -2408.84346734 Ry
     Harris-Foulkes estimate   =   -2408.84963215 Ry
     estimated scf accuracy    <       0.09045555 Ry

     iteration #  5     ecut=    36.75 Ry     beta=0.30
     Davidson diagonalization with overlap
     ethr =  4.62E-05,  avg # of iterations =  1.0

     negative rho (up, down):  9.447E-01 0.000E+00
 
     Adding external electric field

     Computed dipole along edir(3) : 
        Dipole               -0.1749 Ry au,         -0.4444 Debye
        Dipole field         -0.0005 Ry au
 
        Potential amp.        0.0436 Ry
        Total length         45.3309 bohr
 

     total cpu time spent up to now is      607.7 secs

     total energy              =   -2408.84606940 Ry
     Harris-Foulkes estimate   =   -2408.84622062 Ry
     estimated scf accuracy    <       0.00111180 Ry

     iteration #  6     ecut=    36.75 Ry     beta=0.30
     Davidson diagonalization with overlap
     ethr =  5.67E-07,  avg # of iterations =  3.1

     negative rho (up, down):  9.447E-01 0.000E+00
 
     Adding external electric field

     Computed dipole along edir(3) : 
        Dipole               -0.1708 Ry au,         -0.4341 Debye
        Dipole field         -0.0005 Ry au
 
        Potential amp.        0.0426 Ry
        Total length         45.3309 bohr
 

     total cpu time spent up to now is      627.7 secs

     total energy              =   -2408.84611247 Ry
     Harris-Foulkes estimate   =   -2408.84622906 Ry
     estimated scf accuracy    <       0.00054123 Ry

     iteration #  7     ecut=    36.75 Ry     beta=0.30
     Davidson diagonalization with overlap
     ethr =  2.76E-07,  avg # of iterations =  2.0

     negative rho (up, down):  9.448E-01 0.000E+00
 
     Adding external electric field

     Computed dipole along edir(3) : 
        Dipole               -0.1707 Ry au,         -0.4339 Debye
        Dipole field         -0.0005 Ry au
 
        Potential amp.        0.0426 Ry
        Total length         45.3309 bohr
 

     total cpu time spent up to now is      646.4 secs

     total energy              =   -2408.84617519 Ry
     Harris-Foulkes estimate   =   -2408.84621288 Ry
     estimated scf accuracy    <       0.00058927 Ry

     iteration #  8     ecut=    36.75 Ry     beta=0.30
     Davidson diagonalization with overlap
     ethr =  2.76E-07,  avg # of iterations =  1.0

     negative rho (up, down):  9.448E-01 0.000E+00
 
     Adding external electric field

     Computed dipole along edir(3) : 
        Dipole               -0.1709 Ry au,         -0.4344 Debye
        Dipole field         -0.0005 Ry au
 
        Potential amp.        0.0426 Ry
        Total length         45.3309 bohr
 

     total cpu time spent up to now is      664.4 secs

     total energy              =   -2408.84618006 Ry
     Harris-Foulkes estimate   =   -2408.84619576 Ry
     estimated scf accuracy    <       0.00015943 Ry

     iteration #  9     ecut=    36.75 Ry     beta=0.30
     Davidson diagonalization with overlap
     ethr =  8.13E-08,  avg # of iterations =  1.0

     negative rho (up, down):  9.449E-01 0.000E+00
 
     Adding external electric field

     Computed dipole along edir(3) : 
        Dipole               -0.1726 Ry au,         -0.4386 Debye
        Dipole field         -0.0005 Ry au
 
        Potential amp.        0.0430 Ry
        Total length         45.3309 bohr
 

     total cpu time spent up to now is      682.4 secs

     total energy              =   -2408.84618877 Ry
     Harris-Foulkes estimate   =   -2408.84618901 Ry
     estimated scf accuracy    <       0.00002568 Ry

     iteration # 10     ecut=    36.75 Ry     beta=0.30
     Davidson diagonalization with overlap
     ethr =  1.31E-08,  avg # of iterations =  2.0

     negative rho (up, down):  9.449E-01 0.000E+00
 
     Adding external electric field

     Computed dipole along edir(3) : 
        Dipole               -0.1728 Ry au,         -0.4393 Debye
        Dipole field         -0.0005 Ry au
 
        Potential amp.        0.0431 Ry
        Total length         45.3309 bohr
 

     total cpu time spent up to now is      700.9 secs

     total energy              =   -2408.84619073 Ry
     Harris-Foulkes estimate   =   -2408.84619198 Ry
     estimated scf accuracy    <       0.00001249 Ry

     iteration # 11     ecut=    36.75 Ry     beta=0.30
     Davidson diagonalization with overlap
     ethr =  6.37E-09,  avg # of iterations =  1.3

     negative rho (up, down):  9.449E-01 0.000E+00

     negative rho (up, down):  9.449E-01 0.000E+00

     negative rho (up, down):  9.449E-01 0.000E+00

     negative rho (up, down):  9.449E-01 0.000E+00

     negative rho (up, down):  9.449E-01 0.000E+00

     negative rho (up, down):  9.449E-01 0.000E+00

     negative rho (up, down):  9.449E-01 0.000E+00

     negative rho (up, down):  9.449E-01 0.000E+00

     negative rho (up, down):  9.449E-01 0.000E+00

     negative rho (up, down):  9.449E-01 0.000E+00

     negative rho (up, down):  9.449E-01 0.000E+00

     negative rho (up, down):  9.449E-01 0.000E+00

     negative rho (up, down):  9.449E-01 0.000E+00

     negative rho (up, down):  9.449E-01 0.000E+00

     negative rho (up, down):  9.449E-01 0.000E+00

     negative rho (up, down):  9.449E-01 0.000E+00

     negative rho (up, down):  9.449E-01 0.000E+00

     negative rho (up, down):  9.449E-01 0.000E+00

     negative rho (up, down):  9.449E-01 0.000E+00

     negative rho (up, down):  9.449E-01 0.000E+00

     negative rho (up, down):  9.449E-01 0.000E+00

     negative rho (up, down):  9.449E-01 0.000E+00

     negative rho (up, down):  9.449E-01 0.000E+00

     negative rho (up, down):  9.449E-01 0.000E+00

     negative rho (up, down):  9.449E-01 0.000E+00

     negative rho (up, down):  9.449E-01 0.000E+00

     negative rho (up, down):  9.449E-01 0.000E+00

     negative rho (up, down):  9.449E-01 0.000E+00

     negative rho (up, down):  9.449E-01 0.000E+00

     negative rho (up, down):  9.449E-01 0.000E+00

     negative rho (up, down):  9.449E-01 0.000E+00

     negative rho (up, down):  9.449E-01 0.000E+00

     negative rho (up, down):  9.449E-01 0.000E+00

     negative rho (up, down):  9.449E-01 0.000E+00

     negative rho (up, down):  9.449E-01 0.000E+00
 
     Adding external electric field

     Computed dipole along edir(3) : 
        Dipole               -0.1670 Ry au,         -0.4244 Debye
        Dipole field         -0.0005 Ry au
 
        Potential amp.        0.0416 Ry
        Total length         45.3309 bohr
 

     total cpu time spent up to now is      765.0 secs

     End of self-consistent calculation

          k = 0.0000 0.0000 0.0000 ( 17231 PWs)   bands (ev):

   -49.7592 -49.6180 -49.6180 -49.3124 -49.3123 -49.2467 -49.2152 -49.1604
   -49.1603 -49.0851 -49.0648 -49.0648 -48.9608 -48.9485 -48.9484 -48.9106
   -48.9092 -48.8919 -48.8918 -48.8377 -48.8376 -48.8348 -48.8348 -48.8223
   -48.6788 -48.6787 -48.6653 -48.6155 -48.6155 -48.6001 -48.6001 -48.5528
   -48.5066 -48.4933 -48.4931 -48.4781  -9.6604  -4.8622  -3.9697  -3.9459
    -3.9459  -3.7321  -3.6261  -3.5331  -3.5331  -3.4692  -3.3627  -3.3626
    -3.3343  -3.2055  -3.2055  -3.1435  -2.7299  -2.7299  -2.2567  -2.0113
    -2.0113  -1.9360  -1.9360  -1.8680  -1.7720  -1.6486  -1.6486  -1.4769
    -1.4768  -1.4204  -1.3354  -1.3354  -1.1749  -1.1748  -1.1380  -0.7350
    -0.7349  -0.6528  -0.5531  -0.3654  -0.3654  -0.3289  -0.1612  -0.1612
    -0.0492  -0.0492   0.3279   0.3279   0.3382   0.4338   0.4339   0.4986
     0.5231   0.5435   0.5436   0.6819   0.6819   0.8179   0.8218   0.8219
     1.0111   1.0111   1.0190   1.3637   1.6257   1.8852   1.8852   3.0228
     3.4417   3.4417   3.6179   4.4758

          k = 0.0000 0.0341 0.0000 ( 17192 PWs)   bands (ev):

   -49.7504 -49.6245 -49.6169 -49.3090 -49.3067 -49.2424 -49.2201 -49.1654
   -49.1603 -49.0749 -49.0572 -49.0536 -48.9589 -48.9478 -48.9471 -48.9151
   -48.9078 -48.9000 -48.8907 -48.8513 -48.8398 -48.8303 -48.8267 -48.8148
   -48.6876 -48.6813 -48.6671 -48.6309 -48.6193 -48.6036 -48.6011 -48.5521
   -48.5060 -48.4940 -48.4932 -48.4780  -9.6359  -4.6763  -3.9215  -3.8257
    -3.8213  -3.5810  -3.4847  -3.4504  -3.3975  -3.3559  -3.2844  -3.2713
    -3.2402  -3.1204  -3.0728  -3.0257  -2.7039  -2.6647  -2.2348  -2.0627
    -2.0557  -1.9174  -1.8469  -1.8010  -1.7482  -1.7063  -1.6271  -1.5589
    -1.4916  -1.4120  -1.3733  -1.2767  -1.2224  -1.1734  -1.1549  -0.8799
    -0.8258  -0.6922  -0.5990  -0.5108  -0.4600  -0.4532  -0.3068  -0.2791
    -0.0983  -0.0575   0.1223   0.1226   0.1800   0.2700   0.3263   0.3542
     0.3771   0.3810   0.4777   0.5188   0.5590   0.5903   0.6129   0.6834
     0.7867   0.8017   0.8445   1.2763   1.6125   1.9549   1.9950   2.3913
     3.2382   3.3364   3.6068   3.8011

          k = 0.0000 0.0683 0.0000 ( 17196 PWs)   bands (ev):

   -49.7285 -49.6418 -49.6146 -49.3020 -49.2922 -49.2334 -49.2308 -49.1797
   -49.1601 -49.0532 -49.0370 -49.0179 -48.9547 -48.9494 -48.9474 -48.9323
   -48.9199 -48.9030 -48.8909 -48.8827 -48.8496 -48.8150 -48.8045 -48.7853
   -48.7095 -48.6977 -48.6723 -48.6596 -48.6296 -48.6108 -48.6032 -48.5507
   -48.5043 -48.4959 -48.4930 -48.4779  -9.5864  -4.2125  -3.8206  -3.5309
    -3.5082  -3.3567  -3.2442  -3.1505  -3.0563  -3.0539  -3.0182  -2.9852
    -2.9666  -2.8821  -2.8218  -2.7838  -2.5058  -2.4287  -2.2244  -2.1914
    -2.1511  -2.0152  -1.9444  -1.8156  -1.7319  -1.7222  -1.6191  -1.5625
    -1.4805  -1.4134  -1.3727  -1.3021  -1.2479  -1.2139  -1.1614  -1.0898
    -0.9776  -0.9054  -0.8148  -0.7464  -0.7258  -0.6623  -0.5991  -0.5399
    -0.5343  -0.4272  -0.3547  -0.3227  -0.1673  -0.1325  -0.0404   0.0049
     0.0669   0.1188   0.1897   0.2054   0.3261   0.3754   0.4181   0.5036
     0.5276   0.6180   0.6679   0.7659   1.0748   1.8240   1.9811   2.6494
     3.1032   3.3349   3.6588   4.2999

          k = 0.0000-0.1024 0.0000 ( 17240 PWs)   bands (ev):

   -49.7129 -49.6552 -49.6135 -49.2984 -49.2809 -49.2443 -49.2206 -49.1917
   -49.1601 -49.0405 -49.0220 -48.9707 -48.9685 -48.9567 -48.9501 -48.9373
   -48.9357 -48.9208 -48.9004 -48.8747 -48.8581 -48.8047 -48.7903 -48.7463
   -48.7230 -48.7171 -48.7093 -48.6498 -48.6398 -48.6144 -48.6043 -48.5500
   -48.5031 -48.4973 -48.4929 -48.4779  -9.5614  -3.9708  -3.6131  -3.4261
    -3.2763  -3.2602  -3.0805  -2.9946  -2.9597  -2.8535  -2.8431  -2.7954
    -2.6990  -2.5894  -2.5359  -2.5334  -2.5035  -2.3525  -2.2600  -2.2394
    -2.0775  -2.0091  -2.0059  -1.9775  -1.9118  -1.7561  -1.7231  -1.6012
    -1.5997  -1.4247  -1.3727  -1.3073  -1.2461  -1.2379  -1.1649  -1.1023
    -1.0696  -1.0405  -1.0216  -0.9365  -0.8522  -0.8107  -0.7738  -0.7142
    -0.6777  -0.6195  -0.5582  -0.5515  -0.4025  -0.3977  -0.3167  -0.2738
    -0.2299  -0.0642  -0.0039   0.0625   0.0840   0.1307   0.3158   0.5161
     0.5561   0.6084   0.7738   0.7788   0.8788   1.7628   1.9820   2.7283
     3.2754   3.3746   3.8707   4.1277

          k = 0.0296-0.0171 0.0000 ( 17192 PWs)   bands (ev):

   -49.7504 -49.6246 -49.6169 -49.3090 -49.3067 -49.2424 -49.2201 -49.1654
   -49.1603 -49.0749 -49.0571 -49.0536 -48.9589 -48.9477 -48.9471 -48.9152
   -48.9078 -48.9000 -48.8907 -48.8513 -48.8398 -48.8304 -48.8266 -48.8148
   -48.6876 -48.6812 -48.6671 -48.6309 -48.6193 -48.6036 -48.6011 -48.5521
   -48.5059 -48.4940 -48.4931 -48.4780  -9.6359  -4.6763  -3.9215  -3.8257
    -3.8213  -3.5810  -3.4847  -3.4504  -3.3975  -3.3559  -3.2844  -3.2713
    -3.2402  -3.1204  -3.0728  -3.0257  -2.7039  -2.6647  -2.2348  -2.0627
    -2.0557  -1.9174  -1.8469  -1.8010  -1.7482  -1.7063  -1.6271  -1.5589
    -1.4916  -1.4120  -1.3733  -1.2767  -1.2224  -1.1734  -1.1549  -0.8799
    -0.8258  -0.6922  -0.5990  -0.5108  -0.4601  -0.4532  -0.3068  -0.2791
    -0.0983  -0.0575   0.1223   0.1226   0.1800   0.2700   0.3263   0.3542
     0.3771   0.3810   0.4777   0.5188   0.5590   0.5903   0.6129   0.6834
     0.7867   0.8017   0.8445   1.2763   1.6125   1.9549   1.9950   2.3913
     3.2382   3.3364   3.6068   3.8011

          k = 0.0296 0.0171 0.0000 ( 17192 PWs)   bands (ev):

   -49.7504 -49.6246 -49.6169 -49.3090 -49.3067 -49.2424 -49.2201 -49.1654
   -49.1603 -49.0749 -49.0571 -49.0537 -48.9589 -48.9477 -48.9472 -48.9152
   -48.9078 -48.9000 -48.8907 -48.8513 -48.8398 -48.8304 -48.8266 -48.8148
   -48.6877 -48.6812 -48.6671 -48.6310 -48.6193 -48.6036 -48.6011 -48.5521
   -48.5059 -48.4941 -48.4931 -48.4780  -9.6359  -4.6763  -3.9215  -3.8257
    -3.8213  -3.5810  -3.4847  -3.4504  -3.3975  -3.3559  -3.2844  -3.2713
    -3.2402  -3.1204  -3.0728  -3.0257  -2.7039  -2.6647  -2.2348  -2.0627
    -2.0557  -1.9174  -1.8469  -1.8010  -1.7482  -1.7063  -1.6271  -1.5589
    -1.4916  -1.4120  -1.3733  -1.2767  -1.2224  -1.1734  -1.1549  -0.8799
    -0.8258  -0.6922  -0.5990  -0.5108  -0.4601  -0.4532  -0.3068  -0.2791
    -0.0983  -0.0575   0.1223   0.1226   0.1800   0.2700   0.3263   0.3542
     0.3771   0.3810   0.4777   0.5188   0.5590   0.5903   0.6129   0.6834
     0.7867   0.8017   0.8445   1.2763   1.6125   1.9549   1.9950   2.3913
     3.2382   3.3364   3.6068   3.8011

          k = 0.0296 0.0512 0.0000 ( 17186 PWs)   bands (ev):

   -49.7347 -49.6370 -49.6149 -49.3038 -49.2964 -49.2345 -49.2294 -49.1742
   -49.1612 -49.0590 -49.0376 -49.0348 -48.9559 -48.9503 -48.9451 -48.9328
   -48.9040 -48.9021 -48.8928 -48.8773 -48.8476 -48.8199 -48.8066 -48.7991
   -48.7107 -48.6776 -48.6708 -48.6579 -48.6273 -48.6084 -48.6033 -48.5510
   -48.5047 -48.4955 -48.4929 -48.4779  -9.5988  -4.3424  -3.8259  -3.6635
    -3.5743  -3.3374  -3.3134  -3.2582  -3.1735  -3.1500  -3.1055  -3.0752
    -3.0353  -2.9523  -2.8737  -2.8446  -2.6119  -2.5103  -2.2258  -2.1437
    -2.0780  -1.9962  -1.9022  -1.8693  -1.7335  -1.6832  -1.6578  -1.5244
    -1.4814  -1.4110  -1.3899  -1.3073  -1.2443  -1.1937  -1.1293  -1.0580
    -0.9775  -0.8587  -0.7602  -0.7164  -0.6153  -0.5808  -0.5044  -0.4459
    -0.3985  -0.2975  -0.2657  -0.2374  -0.0501  -0.0161   0.0466   0.1089
     0.1239   0.1833   0.2078   0.3642   0.4251   0.4759   0.4775   0.5640
     0.6142   0.6482   0.6680   1.1807   1.3615   1.7042   1.8787   2.1103
     2.7165   3.2685   3.9302   4.3766

          k = 0.0296-0.1195 0.0000 ( 17183 PWs)   bands (ev):

   -49.7123 -49.6564 -49.6129 -49.2983 -49.2810 -49.2447 -49.2212 -49.1882
   -49.1625 -49.0376 -49.0147 -48.9947 -48.9721 -48.9507 -48.9486 -48.9420
   -48.9276 -48.9036 -48.9000 -48.8828 -48.8610 -48.8027 -48.7831 -48.7639
   -48.7391 -48.7064 -48.6842 -48.6597 -48.6412 -48.6127 -48.6060 -48.5500
   -48.5029 -48.4977 -48.4927 -48.4779  -9.5614  -3.9556  -3.6069  -3.3777
    -3.3122  -3.2163  -3.0238  -2.9765  -2.9118  -2.8679  -2.8353  -2.7926
    -2.7197  -2.6834  -2.6164  -2.5402  -2.4281  -2.3557  -2.3184  -2.2314
    -2.1026  -2.0887  -2.0333  -1.9336  -1.8878  -1.8022  -1.7187  -1.6363
    -1.5936  -1.5158  -1.4550  -1.4165  -1.3544  -1.3079  -1.2389  -1.2098
    -1.1097  -1.0300  -0.9435  -0.9208  -0.8528  -0.8059  -0.7438  -0.6881
    -0.6126  -0.5444  -0.5109  -0.4469  -0.3527  -0.2856  -0.2250  -0.1913
    -0.0493   0.0157   0.0817   0.1394   0.2842   0.3338   0.4036   0.4701
     0.5328   0.5538   0.6391   0.7030   1.0571   1.4225   1.7643   2.0732
     2.8225   3.3893   4.0760   4.5856

          k = 0.0296-0.0853 0.0000 ( 17183 PWs)   bands (ev):

   -49.7123 -49.6564 -49.6129 -49.2983 -49.2809 -49.2447 -49.2212 -49.1882
   -49.1625 -49.0376 -49.0147 -48.9947 -48.9722 -48.9507 -48.9485 -48.9420
   -48.9276 -48.9036 -48.9000 -48.8828 -48.8610 -48.8027 -48.7831 -48.7639
   -48.7391 -48.7064 -48.6842 -48.6597 -48.6412 -48.6127 -48.6059 -48.5500
   -48.5029 -48.4977 -48.4927 -48.4779  -9.5614  -3.9556  -3.6069  -3.3777
    -3.3122  -3.2163  -3.0238  -2.9765  -2.9118  -2.8679  -2.8353  -2.7926
    -2.7197  -2.6834  -2.6164  -2.5402  -2.4281  -2.3557  -2.3184  -2.2314
    -2.1026  -2.0887  -2.0333  -1.9336  -1.8878  -1.8022  -1.7187  -1.6363
    -1.5936  -1.5158  -1.4550  -1.4165  -1.3544  -1.3079  -1.2389  -1.2098
    -1.1097  -1.0300  -0.9435  -0.9208  -0.8528  -0.8059  -0.7438  -0.6881
    -0.6126  -0.5444  -0.5109  -0.4469  -0.3527  -0.2856  -0.2250  -0.1913
    -0.0493   0.0157   0.0817   0.1394   0.2842   0.3338   0.4036   0.4701
     0.5328   0.5538   0.6391   0.7030   1.0571   1.4225   1.7643   2.0732
     2.8225   3.3893   4.0760   4.5856

          k = 0.0296-0.0512 0.0000 ( 17186 PWs)   bands (ev):

   -49.7347 -49.6370 -49.6149 -49.3038 -49.2964 -49.2345 -49.2294 -49.1742
   -49.1613 -49.0590 -49.0377 -49.0348 -48.9559 -48.9503 -48.9451 -48.9328
   -48.9040 -48.9021 -48.8928 -48.8773 -48.8477 -48.8199 -48.8066 -48.7991
   -48.7107 -48.6776 -48.6708 -48.6579 -48.6273 -48.6084 -48.6033 -48.5510
   -48.5047 -48.4955 -48.4929 -48.4779  -9.5988  -4.3424  -3.8259  -3.6635
    -3.5743  -3.3374  -3.3134  -3.2582  -3.1735  -3.1500  -3.1055  -3.0752
    -3.0353  -2.9523  -2.8737  -2.8446  -2.6119  -2.5103  -2.2258  -2.1437
    -2.0780  -1.9962  -1.9022  -1.8693  -1.7335  -1.6832  -1.6578  -1.5244
    -1.4814  -1.4110  -1.3899  -1.3073  -1.2443  -1.1937  -1.1293  -1.0580
    -0.9775  -0.8587  -0.7602  -0.7164  -0.6153  -0.5808  -0.5044  -0.4459
    -0.3985  -0.2975  -0.2657  -0.2374  -0.0501  -0.0161   0.0466   0.1089
     0.1239   0.1833   0.2078   0.3641   0.4251   0.4759   0.4775   0.5640
     0.6142   0.6482   0.6680   1.1807   1.3615   1.7042   1.8787   2.1103
     2.7165   3.2685   3.9302   4.3766

          k = 0.0591-0.0341 0.0000 ( 17196 PWs)   bands (ev):

   -49.7285 -49.6418 -49.6146 -49.3020 -49.2922 -49.2334 -49.2308 -49.1798
   -49.1601 -49.0533 -49.0370 -49.0179 -48.9547 -48.9493 -48.9475 -48.9323
   -48.9198 -48.9030 -48.8909 -48.8827 -48.8496 -48.8151 -48.8044 -48.7853
   -48.7096 -48.6976 -48.6723 -48.6596 -48.6296 -48.6108 -48.6032 -48.5507
   -48.5043 -48.4960 -48.4929 -48.4779  -9.5864  -4.2125  -3.8206  -3.5308
    -3.5082  -3.3567  -3.2442  -3.1504  -3.0563  -3.0539  -3.0182  -2.9852
    -2.9666  -2.8821  -2.8218  -2.7838  -2.5058  -2.4287  -2.2244  -2.1914
    -2.1511  -2.0152  -1.9444  -1.8156  -1.7319  -1.7222  -1.6191  -1.5624
    -1.4805  -1.4134  -1.3727  -1.3021  -1.2479  -1.2139  -1.1614  -1.0898
    -0.9776  -0.9054  -0.8148  -0.7464  -0.7257  -0.6623  -0.5992  -0.5399
    -0.5343  -0.4272  -0.3547  -0.3227  -0.1673  -0.1325  -0.0404   0.0049
     0.0669   0.1188   0.1897   0.2054   0.3261   0.3754   0.4181   0.5036
     0.5277   0.6179   0.6679   0.7659   1.0748   1.8240   1.9811   2.6493
     3.1032   3.3349   3.6588   4.2999

          k = 0.0591-0.0000 0.0000 ( 17186 PWs)   bands (ev):

   -49.7347 -49.6370 -49.6149 -49.3038 -49.2965 -49.2345 -49.2294 -49.1742
   -49.1612 -49.0590 -49.0376 -49.0349 -48.9559 -48.9502 -48.9452 -48.9328
   -48.9040 -48.9021 -48.8928 -48.8773 -48.8476 -48.8199 -48.8066 -48.7991
   -48.7107 -48.6776 -48.6708 -48.6579 -48.6273 -48.6084 -48.6033 -48.5510
   -48.5047 -48.4956 -48.4928 -48.4779  -9.5988  -4.3424  -3.8259  -3.6635
    -3.5743  -3.3374  -3.3134  -3.2582  -3.1735  -3.1500  -3.1055  -3.0752
    -3.0353  -2.9523  -2.8737  -2.8446  -2.6119  -2.5103  -2.2258  -2.1438
    -2.0780  -1.9962  -1.9022  -1.8693  -1.7335  -1.6832  -1.6578  -1.5244
    -1.4814  -1.4110  -1.3899  -1.3073  -1.2443  -1.1937  -1.1293  -1.0580
    -0.9775  -0.8587  -0.7602  -0.7164  -0.6154  -0.5808  -0.5044  -0.4459
    -0.3985  -0.2975  -0.2657  -0.2374  -0.0501  -0.0161   0.0466   0.1088
     0.1239   0.1833   0.2078   0.3642   0.4251   0.4760   0.4775   0.5640
     0.6142   0.6481   0.6680   1.1807   1.3615   1.7042   1.8787   2.1103
     2.7165   3.2685   3.9302   4.3766

          k = 0.0591 0.0341 0.0000 ( 17196 PWs)   bands (ev):

   -49.7285 -49.6418 -49.6146 -49.3020 -49.2922 -49.2334 -49.2308 -49.1798
   -49.1601 -49.0533 -49.0370 -49.0179 -48.9547 -48.9493 -48.9475 -48.9324
   -48.9198 -48.9030 -48.8909 -48.8827 -48.8496 -48.8151 -48.8044 -48.7853
   -48.7096 -48.6976 -48.6723 -48.6596 -48.6296 -48.6108 -48.6032 -48.5507
   -48.5043 -48.4961 -48.4929 -48.4779  -9.5864  -4.2125  -3.8206  -3.5308
    -3.5082  -3.3567  -3.2442  -3.1504  -3.0563  -3.0539  -3.0182  -2.9852
    -2.9666  -2.8821  -2.8218  -2.7838  -2.5058  -2.4287  -2.2244  -2.1914
    -2.1511  -2.0152  -1.9444  -1.8156  -1.7319  -1.7222  -1.6191  -1.5624
    -1.4805  -1.4134  -1.3727  -1.3021  -1.2479  -1.2139  -1.1614  -1.0898
    -0.9776  -0.9054  -0.8148  -0.7464  -0.7257  -0.6623  -0.5992  -0.5399
    -0.5343  -0.4272  -0.3547  -0.3227  -0.1673  -0.1325  -0.0404   0.0049
     0.0669   0.1188   0.1897   0.2054   0.3261   0.3754   0.4181   0.5036
     0.5277   0.6179   0.6679   0.7659   1.0748   1.8240   1.9811   2.6493
     3.1032   3.3349   3.6588   4.2999

          k = 0.0591-0.1365 0.0000 ( 17183 PWs)   bands (ev):

   -49.7123 -49.6564 -49.6129 -49.2983 -49.2810 -49.2447 -49.2212 -49.1882
   -49.1625 -49.0376 -49.0146 -48.9946 -48.9722 -48.9507 -48.9485 -48.9421
   -48.9275 -48.9036 -48.9000 -48.8829 -48.8610 -48.8027 -48.7831 -48.7639
   -48.7391 -48.7063 -48.6842 -48.6598 -48.6412 -48.6127 -48.6060 -48.5500
   -48.5028 -48.4978 -48.4926 -48.4779  -9.5614  -3.9556  -3.6069  -3.3777
    -3.3122  -3.2163  -3.0239  -2.9765  -2.9118  -2.8679  -2.8354  -2.7926
    -2.7196  -2.6834  -2.6164  -2.5402  -2.4281  -2.3557  -2.3184  -2.2314
    -2.1026  -2.0887  -2.0333  -1.9336  -1.8877  -1.8022  -1.7187  -1.6363
    -1.5936  -1.5158  -1.4550  -1.4165  -1.3544  -1.3079  -1.2389  -1.2098
    -1.1097  -1.0300  -0.9435  -0.9208  -0.8528  -0.8059  -0.7438  -0.6882
    -0.6126  -0.5444  -0.5109  -0.4469  -0.3527  -0.2856  -0.2250  -0.1913
    -0.0493   0.0157   0.0818   0.1394   0.2842   0.3338   0.4037   0.4701
     0.5327   0.5538   0.6391   0.7030   1.0571   1.4225   1.7643   2.0732
     2.8225   3.3893   4.0760   4.5856

          k = 0.0591-0.1024 0.0000 ( 17208 PWs)   bands (ev):

   -49.6984 -49.6698 -49.6118 -49.2963 -49.2708 -49.2552 -49.2136 -49.1937
   -49.1652 -49.0115 -49.0092 -48.9858 -48.9761 -48.9716 -48.9488 -48.9433
   -48.9373 -48.8993 -48.8907 -48.8804 -48.8800 -48.7832 -48.7741 -48.7510
   -48.7492 -48.7390 -48.6644 -48.6639 -48.6591 -48.6108 -48.6102 -48.5496
   -48.5010 -48.4999 -48.4925 -48.4778  -9.5489  -3.8533  -3.3006  -3.2661
    -3.2176  -3.1027  -2.9008  -2.7980  -2.7483  -2.7339  -2.6867  -2.6837
    -2.6442  -2.5751  -2.5675  -2.5061  -2.4031  -2.3960  -2.3498  -2.1885
    -2.1431  -2.0696  -2.0171  -1.9763  -1.9588  -1.9124  -1.8475  -1.8172
    -1.6825  -1.6238  -1.6057  -1.6036  -1.5863  -1.5247  -1.2445  -1.2398
    -1.2261  -1.1354  -1.1269  -1.1140  -1.0107  -0.9622  -0.6911  -0.6805
    -0.5175  -0.4795  -0.4497  -0.3865  -0.2629  -0.2515  -0.1330  -0.0856
    -0.0589   0.0620   0.1567   0.1728   0.3055   0.3711   0.3856   0.4410
     0.4599   0.5423   0.5665   0.5666   0.9015   0.9115   1.3107   1.9747
     2.6724   3.3410   4.3911   4.4675

          k = 0.0591-0.0683 0.0000 ( 17183 PWs)   bands (ev):

   -49.7123 -49.6564 -49.6129 -49.2983 -49.2810 -49.2447 -49.2212 -49.1882
   -49.1625 -49.0376 -49.0147 -48.9946 -48.9722 -48.9507 -48.9485 -48.9420
   -48.9275 -48.9036 -48.9000 -48.8829 -48.8610 -48.8027 -48.7831 -48.7639
   -48.7392 -48.7063 -48.6842 -48.6598 -48.6412 -48.6127 -48.6060 -48.5500
   -48.5029 -48.4978 -48.4927 -48.4779  -9.5614  -3.9556  -3.6069  -3.3777
    -3.3122  -3.2163  -3.0239  -2.9765  -2.9118  -2.8679  -2.8354  -2.7926
    -2.7197  -2.6834  -2.6164  -2.5402  -2.4281  -2.3557  -2.3184  -2.2314
    -2.1026  -2.0887  -2.0333  -1.9336  -1.8878  -1.8022  -1.7187  -1.6363
    -1.5936  -1.5158  -1.4550  -1.4165  -1.3544  -1.3079  -1.2389  -1.2098
    -1.1097  -1.0300  -0.9435  -0.9208  -0.8528  -0.8059  -0.7438  -0.6881
    -0.6126  -0.5444  -0.5109  -0.4469  -0.3527  -0.2856  -0.2250  -0.1913
    -0.0493   0.0157   0.0818   0.1394   0.2842   0.3338   0.4037   0.4701
     0.5327   0.5538   0.6391   0.7030   1.0571   1.4225   1.7643   2.0732
     2.8225   3.3893   4.0760   4.5856

          k =-0.0887 0.0512 0.0000 ( 17240 PWs)   bands (ev):

   -49.7128 -49.6552 -49.6134 -49.2984 -49.2809 -49.2443 -49.2206 -49.1918
   -49.1600 -49.0406 -49.0219 -48.9707 -48.9684 -48.9568 -48.9502 -48.9374
   -48.9356 -48.9208 -48.9004 -48.8747 -48.8580 -48.8047 -48.7902 -48.7463
   -48.7229 -48.7172 -48.7093 -48.6499 -48.6397 -48.6144 -48.6043 -48.5500
   -48.5031 -48.4975 -48.4928 -48.4779  -9.5614  -3.9708  -3.6131  -3.4261
    -3.2763  -3.2602  -3.0805  -2.9946  -2.9597  -2.8535  -2.8431  -2.7954
    -2.6990  -2.5894  -2.5358  -2.5334  -2.5035  -2.3525  -2.2600  -2.2393
    -2.0775  -2.0091  -2.0059  -1.9776  -1.9118  -1.7561  -1.7232  -1.6012
    -1.5997  -1.4247  -1.3727  -1.3074  -1.2461  -1.2379  -1.1649  -1.1023
    -1.0695  -1.0404  -1.0216  -0.9365  -0.8522  -0.8107  -0.7738  -0.7141
    -0.6777  -0.6195  -0.5582  -0.5515  -0.4025  -0.3977  -0.3167  -0.2738
    -0.2299  -0.0642  -0.0039   0.0626   0.0840   0.1307   0.3158   0.5162
[...]
    -1.4365  -1.3463  -1.2933  -1.2868  -1.2145  -1.1393  -1.1059  -1.0237
    -0.9172  -0.8324  -0.7413  -0.7279  -0.6395  -0.5966  -0.5102  -0.4729
    -0.4533  -0.3669  -0.2786  -0.2199  -0.1510  -0.0095   0.0425   0.0938
     0.1730   0.2245   0.2903   0.3121   0.4170   0.4971   0.5536   0.6194
     0.6853   0.7261   0.7900   0.8597   1.2472   2.1618   2.1666   2.7373
     3.3188   3.5541   3.8050   4.5171

          k = 0.0591-0.0000 0.0000 ( 17186 PWs)   bands (ev):

   -50.0390 -49.9239 -49.8951 -49.3882 -49.3789 -49.3169 -49.2893 -49.2462
   -49.2357 -48.9304 -48.9149 -48.9111 -48.8331 -48.8186 -48.8033 -48.7980
   -48.7893 -48.7688 -48.7612 -48.7489 -48.7203 -48.6912 -48.6797 -48.6755
   -48.5860 -48.5533 -48.5423 -48.5305 -48.5007 -48.4798 -48.4758 -48.4331
   -48.3820 -48.3725 -48.3639 -48.3617 -10.4449  -4.7324  -4.3603  -4.1473
    -3.9856  -3.2989  -3.2296  -3.1582  -3.0814  -3.0505  -3.0256  -2.9586
    -2.9356  -2.9066  -2.8667  -2.7844  -2.6764  -2.5297  -2.1244  -2.0959
    -2.0933  -1.9684  -1.8615  -1.7484  -1.6854  -1.6615  -1.5814  -1.4701
    -1.4203  -1.3589  -1.3108  -1.2289  -1.1594  -1.1349  -1.0653  -1.0216
    -0.9078  -0.8055  -0.7362  -0.6842  -0.5999  -0.4975  -0.4177  -0.3697
    -0.3226  -0.2595  -0.1771  -0.1336   0.0142   0.1007   0.1333   0.1927
     0.2185   0.2641   0.3188   0.4700   0.5298   0.5596   0.6026   0.6624
     0.7130   0.7651   0.8274   1.2412   1.4171   1.9807   2.1051   2.4414
     2.7605   3.6718   4.1783   4.5712

          k = 0.0591 0.0341 0.0000 ( 17196 PWs)   bands (ev):

   -50.0313 -49.9307 -49.8948 -49.3868 -49.3753 -49.3206 -49.2865 -49.2502
   -49.2354 -48.9219 -48.9181 -48.8918 -48.8325 -48.8166 -48.8103 -48.7967
   -48.7871 -48.7866 -48.7599 -48.7510 -48.7220 -48.6873 -48.6787 -48.6612
   -48.5863 -48.5694 -48.5452 -48.5330 -48.5028 -48.4817 -48.4757 -48.4327
   -48.3820 -48.3720 -48.3644 -48.3617 -10.4250  -4.7663  -4.2726  -4.0000
    -3.9115  -3.2739  -3.2166  -3.1063  -3.0270  -2.9291  -2.8964  -2.8792
    -2.8543  -2.8327  -2.7902  -2.7557  -2.4948  -2.4783  -2.1879  -2.1202
    -2.0596  -2.0256  -1.8423  -1.7562  -1.6955  -1.6648  -1.5612  -1.5430
    -1.4365  -1.3463  -1.2933  -1.2868  -1.2145  -1.1393  -1.1059  -1.0237
    -0.9172  -0.8324  -0.7413  -0.7279  -0.6395  -0.5966  -0.5102  -0.4729
    -0.4533  -0.3669  -0.2786  -0.2199  -0.1510  -0.0095   0.0425   0.0938
     0.1730   0.2245   0.2903   0.3121   0.4170   0.4971   0.5536   0.6194
     0.6853   0.7261   0.7900   0.8597   1.2472   2.1618   2.1666   2.7373
     3.3188   3.5541   3.8050   4.5170

          k = 0.0591-0.1365 0.0000 ( 17183 PWs)   bands (ev):

   -50.0100 -49.9512 -49.8934 -49.3849 -49.3642 -49.3310 -49.2791 -49.2578
   -49.2371 -48.9087 -48.8919 -48.8661 -48.8450 -48.8312 -48.8144 -48.8026
   -48.7924 -48.7829 -48.7702 -48.7515 -48.7317 -48.6773 -48.6577 -48.6417
   -48.6123 -48.5791 -48.5570 -48.5333 -48.5143 -48.4832 -48.4779 -48.4319
   -48.3821 -48.3707 -48.3660 -48.3615 -10.3844  -4.7918  -4.1928  -3.7538
    -3.5621  -3.1484  -3.0304  -2.8910  -2.8830  -2.7785  -2.7551  -2.6713
    -2.6509  -2.6006  -2.5398  -2.4717  -2.4004  -2.3405  -2.2602  -2.1905
    -2.0637  -2.0381  -1.9715  -1.8923  -1.8350  -1.7587  -1.7019  -1.6437
    -1.5464  -1.4873  -1.4120  -1.3332  -1.2956  -1.2048  -1.1719  -1.1404
    -1.0456  -0.9332  -0.8762  -0.8333  -0.7929  -0.7136  -0.6926  -0.6117
    -0.5646  -0.4701  -0.4314  -0.3810  -0.2464  -0.1946  -0.1449  -0.0681
     0.0680   0.1127   0.2033   0.2454   0.3923   0.4232   0.4959   0.5833
     0.6369   0.6767   0.7283   0.8650   1.2780   1.5391   2.0388   2.3026
     3.1296   3.6762   4.3416   4.6845

          k = 0.0591-0.1024 0.0000 ( 17208 PWs)   bands (ev):

   -49.9825 -49.9785 -49.8924 -49.3840 -49.3527 -49.3419 -49.2715 -49.2648
   -49.2386 -48.8816 -48.8809 -48.8562 -48.8550 -48.8477 -48.8297 -48.7995
   -48.7909 -48.7837 -48.7592 -48.7591 -48.7423 -48.6606 -48.6505 -48.6257
   -48.6255 -48.6079 -48.5375 -48.5369 -48.5323 -48.4817 -48.4811 -48.4315
   -48.3821 -48.3693 -48.3675 -48.3613 -10.3638  -4.7951  -4.1807  -3.6521
    -3.1148  -3.0552  -2.9439  -2.7606  -2.6984  -2.6784  -2.6179  -2.5335
    -2.5209  -2.4902  -2.4249  -2.4056  -2.3443  -2.3433  -2.2043  -2.1547
    -2.1071  -2.0867  -2.0737  -2.0703  -1.9602  -1.8568  -1.8144  -1.7774
    -1.6762  -1.5721  -1.5212  -1.4850  -1.4685  -1.3428  -1.2170  -1.1259
    -1.1012  -1.0708  -1.0595  -1.0428  -0.8667  -0.8478  -0.7079  -0.6870
    -0.6073  -0.3527  -0.3467  -0.2991  -0.2642  -0.1778  -0.0717   0.0636
     0.1310   0.1840   0.2088   0.3023   0.3812   0.4580   0.5090   0.5307
     0.5354   0.6461   0.6788   0.7149   1.0522   1.1229   1.7138   2.1408
     3.0330   3.7665   4.4584   4.6964

          k = 0.0591-0.0683 0.0000 ( 17183 PWs)   bands (ev):

   -50.0099 -49.9512 -49.8934 -49.3849 -49.3642 -49.3310 -49.2791 -49.2578
   -49.2371 -48.9087 -48.8919 -48.8661 -48.8450 -48.8312 -48.8144 -48.8026
   -48.7924 -48.7829 -48.7702 -48.7515 -48.7317 -48.6773 -48.6577 -48.6417
   -48.6123 -48.5791 -48.5570 -48.5333 -48.5143 -48.4832 -48.4779 -48.4319
   -48.3821 -48.3707 -48.3660 -48.3615 -10.3844  -4.7918  -4.1928  -3.7538
    -3.5621  -3.1484  -3.0304  -2.8910  -2.8830  -2.7785  -2.7551  -2.6713
    -2.6509  -2.6006  -2.5398  -2.4717  -2.4004  -2.3405  -2.2602  -2.1905
    -2.0637  -2.0381  -1.9715  -1.8923  -1.8350  -1.7587  -1.7019  -1.6437
    -1.5464  -1.4873  -1.4120  -1.3332  -1.2956  -1.2048  -1.1719  -1.1404
    -1.0456  -0.9332  -0.8762  -0.8333  -0.7929  -0.7136  -0.6926  -0.6117
    -0.5646  -0.4701  -0.4314  -0.3810  -0.2464  -0.1946  -0.1449  -0.0681
     0.0680   0.1127   0.2033   0.2454   0.3923   0.4232   0.4959   0.5833
     0.6369   0.6767   0.7283   0.8650   1.2780   1.5391   2.0388   2.3026
     3.1296   3.6762   4.3416   4.6845

          k =-0.0887 0.0512 0.0000 ( 17240 PWs)   bands (ev):

   -50.0105 -49.9501 -49.8939 -49.3844 -49.3650 -49.3306 -49.2786 -49.2596
   -49.2358 -48.9077 -48.9042 -48.8412 -48.8347 -48.8293 -48.8228 -48.8204
   -48.7903 -48.7884 -48.7773 -48.7421 -48.7304 -48.6793 -48.6636 -48.6285
   -48.5933 -48.5912 -48.5796 -48.5247 -48.5120 -48.4845 -48.4765 -48.4319
   -48.3821 -48.3707 -48.3657 -48.3616 -10.3846  -4.8157  -4.1290  -3.7588
    -3.4733  -3.3655  -3.0840  -2.9736  -2.9330  -2.7592  -2.7104  -2.6918
    -2.6157  -2.5203  -2.4928  -2.4766  -2.4123  -2.3385  -2.2665  -2.1795
    -1.9973  -1.9617  -1.9316  -1.8596  -1.8073  -1.7494  -1.7074  -1.6555
    -1.5844  -1.4434  -1.4044  -1.2599  -1.2283  -1.1641  -1.0313  -1.0073
    -0.9684  -0.9268  -0.9016  -0.8954  -0.8235  -0.7111  -0.7050  -0.6592
    -0.5357  -0.5111  -0.4855  -0.4809  -0.3769  -0.2694  -0.2428  -0.1294
    -0.1030   0.0503   0.0820   0.1912   0.1993   0.3229   0.4056   0.6023
     0.6499   0.7185   0.8431   0.8700   1.2418   1.9864   2.1624   2.9230
     3.4590   3.6093   3.9021   4.3846

          k =-0.0887 0.0853 0.0000 ( 17183 PWs)   bands (ev):

   -50.0100 -49.9512 -49.8934 -49.3849 -49.3642 -49.3310 -49.2791 -49.2578
   -49.2371 -48.9087 -48.8919 -48.8661 -48.8450 -48.8312 -48.8143 -48.8026
   -48.7923 -48.7829 -48.7702 -48.7515 -48.7317 -48.6773 -48.6577 -48.6417
   -48.6124 -48.5790 -48.5570 -48.5333 -48.5143 -48.4832 -48.4779 -48.4319
   -48.3821 -48.3707 -48.3659 -48.3615 -10.3844  -4.7918  -4.1928  -3.7538
    -3.5621  -3.1484  -3.0304  -2.8911  -2.8830  -2.7784  -2.7551  -2.6713
    -2.6509  -2.6006  -2.5398  -2.4717  -2.4004  -2.3405  -2.2602  -2.1906
    -2.0637  -2.0381  -1.9715  -1.8923  -1.8350  -1.7587  -1.7019  -1.6437
    -1.5464  -1.4873  -1.4120  -1.3332  -1.2956  -1.2048  -1.1719  -1.1404
    -1.0456  -0.9332  -0.8762  -0.8334  -0.7929  -0.7136  -0.6926  -0.6117
    -0.5646  -0.4700  -0.4314  -0.3811  -0.2464  -0.1946  -0.1449  -0.0681
     0.0680   0.1127   0.2034   0.2454   0.3923   0.4232   0.4959   0.5833
     0.6369   0.6767   0.7283   0.8650   1.2780   1.5391   2.0388   2.3026
     3.1296   3.6762   4.3416   4.6846

          k =-0.0887 0.1195 0.0000 ( 17183 PWs)   bands (ev):

   -50.0100 -49.9512 -49.8934 -49.3849 -49.3642 -49.3310 -49.2791 -49.2578
   -49.2371 -48.9087 -48.8919 -48.8661 -48.8450 -48.8312 -48.8143 -48.8026
   -48.7923 -48.7829 -48.7702 -48.7515 -48.7317 -48.6773 -48.6577 -48.6417
   -48.6124 -48.5790 -48.5570 -48.5333 -48.5143 -48.4832 -48.4779 -48.4319
   -48.3821 -48.3707 -48.3659 -48.3615 -10.3845  -4.7918  -4.1928  -3.7539
    -3.5621  -3.1484  -3.0304  -2.8910  -2.8830  -2.7784  -2.7551  -2.6713
    -2.6509  -2.6006  -2.5397  -2.4717  -2.4004  -2.3405  -2.2602  -2.1906
    -2.0637  -2.0381  -1.9715  -1.8923  -1.8350  -1.7587  -1.7019  -1.6437
    -1.5464  -1.4873  -1.4120  -1.3332  -1.2956  -1.2048  -1.1719  -1.1404
    -1.0456  -0.9332  -0.8762  -0.8334  -0.7929  -0.7136  -0.6926  -0.6117
    -0.5646  -0.4700  -0.4314  -0.3811  -0.2464  -0.1946  -0.1449  -0.0681
     0.0680   0.1127   0.2034   0.2454   0.3923   0.4232   0.4959   0.5833
     0.6369   0.6767   0.7283   0.8650   1.2780   1.5391   2.0388   2.3026
     3.1296   3.6762   4.3416   4.6846

          k =-0.0887-0.0512 0.0000 ( 17240 PWs)   bands (ev):

   -50.0105 -49.9501 -49.8939 -49.3844 -49.3650 -49.3306 -49.2786 -49.2596
   -49.2358 -48.9077 -48.9042 -48.8412 -48.8347 -48.8293 -48.8228 -48.8204
   -48.7903 -48.7884 -48.7773 -48.7421 -48.7304 -48.6793 -48.6636 -48.6285
   -48.5933 -48.5912 -48.5796 -48.5247 -48.5120 -48.4845 -48.4765 -48.4319
   -48.3821 -48.3708 -48.3657 -48.3616 -10.3846  -4.8157  -4.1290  -3.7588
    -3.4733  -3.3655  -3.0840  -2.9736  -2.9330  -2.7592  -2.7104  -2.6918
    -2.6157  -2.5203  -2.4928  -2.4766  -2.4123  -2.3385  -2.2665  -2.1795
    -1.9973  -1.9617  -1.9316  -1.8596  -1.8073  -1.7494  -1.7074  -1.6555
    -1.5844  -1.4434  -1.4044  -1.2599  -1.2283  -1.1641  -1.0313  -1.0073
    -0.9684  -0.9268  -0.9016  -0.8954  -0.8235  -0.7111  -0.7050  -0.6592
    -0.5357  -0.5111  -0.4855  -0.4809  -0.3768  -0.2694  -0.2428  -0.1294
    -0.1030   0.0503   0.0820   0.1912   0.1993   0.3229   0.4056   0.6023
     0.6499   0.7185   0.8431   0.8700   1.2418   1.9864   2.1624   2.9230
     3.4590   3.6093   3.9021   4.3846

     the Fermi energy is     0.9033 ev

!    total energy              =   -2408.88460790 Ry
     Harris-Foulkes estimate   =   -2408.88460815 Ry
     estimated scf accuracy    <       0.00000004 Ry

     The total energy is the sum of the following terms:

     one-electron contribution =  -20447.67911574 Ry
     hartree contribution      =   10273.01861705 Ry
     xc contribution           =    -393.76383718 Ry
     ewald contribution        =    8159.63442046 Ry
     electric field correction =       0.00001806 Ry
     smearing contrib. (-TS)   =      -0.09471054 Ry

     convergence has been achieved in  12 iterations
 
 BEEF-vdW xc energy contributions
           1 :   -342.808566905173     
           2 :    313.355773814151     
           3 :   -263.072964387000     
           4 :    205.434884610498     
           5 :   -153.518337015433     
           6 :    115.689457348730     
           7 :   -93.7852307287575     
           8 :    84.1017354355128     
           9 :   -80.3257046402624     
          10 :    76.8248186002378     
          11 :   -70.8059473577543     
          12 :    62.6105971757208     
          13 :   -54.4373177662318     
          14 :    48.4829646608340     
          15 :   -45.5878755794531     
          16 :    44.9707161378619     
          17 :   -44.9474013210915     
          18 :    44.0262612749110     
          19 :   -41.6900496391823     
          20 :    38.4727719629865     
          21 :   -35.4177355322502     
          22 :    33.3412600144509     
          23 :   -32.3677091608756     
          24 :    31.9626677869610     
          25 :   -31.3646429279410     
          26 :    30.0931704922168     
          27 :   -28.2126847956264     
          28 :    26.2191833827924     
          29 :   -24.6660924551060     
          30 :    23.7928454955069     
          31 :   -33.4755163639064     
          32 :   -24.7611093498558     

     Forces acting on atoms (Ry/au):


     negative rho (up, down):  9.448E-01 0.000E+00
     atom    1 type  1   force =     0.00000001   -0.00000451    0.00103956
     atom    2 type  1   force =    -0.00000001   -0.00005473   -0.00311786
     atom    3 type  1   force =    -0.00004386    0.00002925   -0.00312343
     atom    4 type  1   force =     0.00004385    0.00002928   -0.00312361
     atom    5 type  1   force =    -0.00065913    0.00038692   -0.00244292
     atom    6 type  1   force =     0.00065918    0.00038690   -0.00244247
     atom    7 type  1   force =    -0.00000008   -0.00000698    0.01495831
     atom    8 type  1   force =     0.00000004   -0.00076648   -0.00245294
     atom    9 type  1   force =    -0.00045397   -0.00025629   -0.00074479
     atom   10 type  1   force =     0.00045415   -0.00025483   -0.00074471
     atom   11 type  1   force =     0.00000140    0.00051934   -0.00074257
     atom   12 type  1   force =    -0.00000132   -0.00000666    0.00141105
     atom   13 type  2   force =    -0.00000025   -0.00000122    0.00152638

     Total force =     0.002607     Total SCF correction =     0.000160


     entering subroutine stress ...


     negative rho (up, down):  9.448E-01 0.000E+00
          total   stress  (Ry/bohr**3)                   (kbar)     P=   -4.53
  -0.00004261  -0.00000000  -0.00000000         -6.27     -0.00     -0.00
  -0.00000000  -0.00004261  -0.00000000         -0.00     -6.27     -0.00
  -0.00000000  -0.00000000  -0.00000715         -0.00     -0.00     -1.05


     bfgs converged in  13 scf cycles and  12 bfgs steps
     (criteria: energy <  1.0E+00, force <  1.9E-03)

     End of BFGS Geometry Optimization

     Final energy   =   -2408.8846078960 Ry
Begin final coordinates

ATOMIC_POSITIONS (crystal)
Pd1      0.166666667   0.166666667   0.406452311    0   0   0
Pd1      0.666666667   0.166666667   0.406452311    0   0   0
Pd1      0.166666667   0.666666667   0.406452311    0   0   0
Pd1      0.666666667   0.666666667   0.406452311    0   0   0
Pd1      0.833333333   0.333333333   0.500000000    0   0   0
Pd1      0.333333333   0.333333333   0.500000000    0   0   0
Pd1      0.833333333   0.833333333   0.500000000    0   0   0
Pd1      0.333333333   0.833333333   0.500000000    0   0   0
Pd1     -0.002583950  -0.002590354   0.597246459
Pd1      0.505174386  -0.002590889   0.597246388
Pd1     -0.002587829   0.505174554   0.597246397
Pd1      0.499998295   0.500004156   0.592452903
C1       0.166666686   0.166667069   0.634595096
End final coordinates



     Writing output data file calc.save
 
     init_run     :     10.80s CPU     11.15s WALL (       1 calls)
     electrons    :   3711.72s CPU   3950.29s WALL (      13 calls)
     update_pot   :     32.73s CPU     34.56s WALL (      12 calls)
     forces       :    182.82s CPU    195.10s WALL (      13 calls)
     stress       :    568.77s CPU    589.77s WALL (      13 calls)

     Called by init_run:
     wfcinit      :      4.47s CPU      4.54s WALL (       1 calls)
     potinit      :      1.73s CPU      1.86s WALL (       1 calls)

     Called by electrons:
     c_bands      :   1509.50s CPU   1567.51s WALL (     155 calls)
     sum_band     :    750.40s CPU    800.06s WALL (     155 calls)
     v_of_rho     :    240.15s CPU    261.42s WALL (     168 calls)
     newd         :    581.53s CPU    590.02s WALL (     168 calls)
     mix_rho      :      8.96s CPU      9.09s WALL (     155 calls)
     vdW_energy   :    127.84s CPU    142.95s WALL (     636 calls)
     vdW_ffts     :    321.81s CPU    338.55s WALL (    1298 calls)
     vdW_v        :    126.13s CPU    131.27s WALL (     636 calls)

     Called by c_bands:
     init_us_2    :      8.65s CPU      8.68s WALL (    1685 calls)
     cegterg      :   1416.81s CPU   1451.51s WALL (     775 calls)

     Called by *egterg:
     h_psi        :    962.86s CPU    982.57s WALL (    2623 calls)
     s_psi        :     76.29s CPU     76.44s WALL (    2623 calls)
     g_psi        :      5.00s CPU      5.01s WALL (    1843 calls)
     cdiaghg      :    110.80s CPU    111.60s WALL (    2558 calls)

     Called by h_psi:
     add_vuspsi   :     78.85s CPU     79.02s WALL (    2623 calls)

     General routines
     calbec       :    126.03s CPU    127.59s WALL (    3528 calls)
     fft          :    493.11s CPU    531.42s WALL (   38439 calls)
     ffts         :      0.56s CPU      0.60s WALL (     323 calls)
     fftw         :    616.29s CPU    637.61s WALL (  473510 calls)
     interpolate  :      5.34s CPU      5.48s WALL (     323 calls)
     davcio       :      0.00s CPU      0.03s WALL (       5 calls)
 
     Parallel routines
     fft_scatter  :    625.68s CPU    684.74s WALL (  512272 calls)
 
     PWSCF        :     1h15m CPU        1h20m WALL

 
   This run was terminated on:   9: 3:39   3May2018            

=------------------------------------------------------------------------------=
   JOB DONE.
=------------------------------------------------------------------------------=
Job  /afs/slac/g/suncat/bin/suncat-tsmpirun -x LD_LIBRARY_PATH -wdir /scratch/qe671672_f51Bb pw.x -npool 4 -in pw.inp

TID   HOST_NAME   COMMAND_LINE            STATUS            TERMINATION_TIME
===== ========== ================  =======================  ===================
00000 suncat0176 pw.x -npool 4 -i  Done                     05/03/2018 09:03:39
00001 suncat0176 pw.x -npool 4 -i  Done                     05/03/2018 09:03:39
00002 suncat0176 pw.x -npool 4 -i  Done                     05/03/2018 09:03:39
00003 suncat0176 pw.x -npool 4 -i  Done                     05/03/2018 09:03:39
00004 suncat0176 pw.x -npool 4 -i  Done                     05/03/2018 09:03:39
00005 suncat0176 pw.x -npool 4 -i  Done                     05/03/2018 09:03:39
00006 suncat0176 pw.x -npool 4 -i  Done                     05/03/2018 09:03:39
00007 suncat0176 pw.x -npool 4 -i  Done                     05/03/2018 09:03:39
00008 suncat0172 pw.x -npool 4 -i  Done                     05/03/2018 09:03:39
00009 suncat0172 pw.x -npool 4 -i  Done                     05/03/2018 09:03:39
00010 suncat0172 pw.x -npool 4 -i  Done                     05/03/2018 09:03:39
00011 suncat0172 pw.x -npool 4 -i  Done                     05/03/2018 09:03:39
00012 suncat0172 pw.x -npool 4 -i  Done                     05/03/2018 09:03:39
00013 suncat0172 pw.x -npool 4 -i  Done                     05/03/2018 09:03:39
00014 suncat0172 pw.x -npool 4 -i  Done                     05/03/2018 09:03:39
00015 suncat0172 pw.x -npool 4 -i  Done                     05/03/2018 09:03:39
00016 suncat0150 pw.x -npool 4 -i  Done                     05/03/2018 09:03:39
00017 suncat0150 pw.x -npool 4 -i  Done                     05/03/2018 09:03:39
00018 suncat0150 pw.x -npool 4 -i  Done                     05/03/2018 09:03:39
00019 suncat0150 pw.x -npool 4 -i  Done                     05/03/2018 09:03:39
00020 suncat0150 pw.x -npool 4 -i  Done                     05/03/2018 09:03:39
00021 suncat0150 pw.x -npool 4 -i  Done                     05/03/2018 09:03:39
00022 suncat0150 pw.x -npool 4 -i  Done                     05/03/2018 09:03:39
00023 suncat0150 pw.x -npool 4 -i  Done                     05/03/2018 09:03:39
00024 suncat0141 pw.x -npool 4 -i  Done                     05/03/2018 09:03:39
00025 suncat0141 pw.x -npool 4 -i  Done                     05/03/2018 09:03:39
00026 suncat0141 pw.x -npool 4 -i  Done                     05/03/2018 09:03:39
00027 suncat0141 pw.x -npool 4 -i  Done                     05/03/2018 09:03:39
00028 suncat0141 pw.x -npool 4 -i  Done                     05/03/2018 09:03:39
00029 suncat0141 pw.x -npool 4 -i  Done                     05/03/2018 09:03:39
00030 suncat0141 pw.x -npool 4 -i  Done                     05/03/2018 09:03:39
00031 suncat0141 pw.x -npool 4 -i  Done                     05/03/2018 09:03:39
