  python dir          : /u/if/mamunm/src/espresso
  espresso dir        : /nfs/slac/g/suncatfs/sw/espv18/espresso-dynpy-beef/bin
  pseudo dir          : /u/if/mamunm/psp/gbrv1.5pbe
  ase-espresso py git : GITVERSION



     Program PWSCF v.5.1rc2 (svn rev. 11289) starts on 23Apr2018 at  4:24: 7 

     This program is part of the open-source Quantum ESPRESSO suite
     for quantum simulation of materials; please cite
         "P. Giannozzi et al., J. Phys.:Condens. Matter 21 395502 (2009);
          URL http://www.quantum-espresso.org", 
     in publications or presentations arising from this work. More details at
     http://www.quantum-espresso.org/quote

     Parallel version (MPI), running on    32 processors
     K-points division:     npool     =       4
     R & G space division:  proc/nbgrp/npool/nimage =       8
     Reading input from pw.inp
     Message from routine read_cards :
     DEPRECATED: no units specified in CELL_PARAMETERS card

     Current dimensions of program PWSCF are:
     Max number of different atomic species (ntypx) = 10
     Max number of k-points (npk) =  40000
     Max angular momentum in pseudopotentials (lmaxx) =  3
     Presently stress not available with electric field


     **************************************************************************
     Initializing libbeef V0.1.1 with the BEEF-vdW functional.
     Citation: Wellendorff et al., PRB 85, 235149 (2012).
     **************************************************************************


     IMPORTANT: XC functional enforced from input :
     Exchange-correlation      = BEEF-VDW ( 1  4 27 13 2)
     Any further DFT definition will be discarded
     Please, verify this is what you really want


     Subspace diagonalization in iterative solution of the eigenvalue problem:
     a serial algorithm will be used

 
     Parallelization info
     --------------------
     sticks:   dense  smooth     PW     G-vecs:    dense   smooth      PW
     Min         510     204     57               100238    25367    3855
     Max         511     205     58               100257    25401    3866
     Sum        4081    1639    463               801953   203051   30885
 


     bravais-lattice index     =            0
     lattice parameter (alat)  =       1.8897  a.u.
     unit-cell volume          =    6741.9070 (a.u.)^3
     number of atoms/cell      =           14
     number of atomic types    =            3
     number of electrons       =       174.00
     number of Kohn-Sham states=           97
     kinetic-energy cutoff     =      36.7493  Ry
     charge density cutoff     =     367.4932  Ry
     convergence threshold     =      1.0E-05
     mixing beta               =       0.3000
     number of iterations used =           10  plain     mixing
     Exchange-correlation      = BEEF-VDW ( 1  4 27 13 2)
     nstep                     =           50


     celldm(1)=   1.889726  celldm(2)=   0.000000  celldm(3)=   0.000000
     celldm(4)=   0.000000  celldm(5)=   0.000000  celldm(6)=   0.000000

     crystal axes: (cart. coord. in units of alat)
               a(1) = (   6.726993   0.000000   0.000000 )  
               a(2) = (   3.363497   5.825747   0.000000 )  
               a(3) = (   0.000000   0.000000  25.492567 )  

     reciprocal axes: (cart. coord. in units 2 pi/alat)
               b(1) = (  0.148655 -0.085826  0.000000 )  
               b(2) = (  0.000000  0.171652  0.000000 )  
               b(3) = (  0.000000  0.000000  0.039227 )  


     PseudoPot. # 1 for Sn read from file:
     /u/if/mamunm/psp/gbrv1.5pbe/Sn.UPF
     MD5 check sum: 469debedee59599fedebd795477fea03
     Pseudo is Ultrasoft + core correction, Zval = 14.0
     Generated by new atomic code, or converted to UPF format
     Using radial grid of  891 points,  6 beta functions with: 
                l(1) =   0
                l(2) =   0
                l(3) =   1
                l(4) =   1
                l(5) =   2
                l(6) =   2
     Q(r) pseudized with  8 coefficients,  rinner =    1.350   1.350   1.350
                                                       1.350   1.350

     PseudoPot. # 2 for N  read from file:
     /u/if/mamunm/psp/gbrv1.5pbe/N.UPF
     MD5 check sum: 95339753478d7afb44899504a8723017
     Pseudo is Ultrasoft + core correction, Zval =  5.0
     Generated by new atomic code, or converted to UPF format
     Using radial grid of  729 points,  4 beta functions with: 
                l(1) =   0
                l(2) =   0
                l(3) =   1
                l(4) =   1
     Q(r) pseudized with  8 coefficients,  rinner =    0.900   0.900   0.900


     PseudoPot. # 3 for H  read from file:
     /u/if/mamunm/psp/gbrv1.5pbe/H.UPF
     MD5 check sum: 761ae9a214b05c3daf00ab9f6b793d6f
     Pseudo is Ultrasoft, Zval =  1.0
     Generated by new atomic code, or converted to UPF format
     Using radial grid of  615 points,  2 beta functions with: 
                l(1) =   0
                l(2) =   0
     Q(r) pseudized with  8 coefficients,  rinner =    0.700

     vdW kernel table read from file vdW_kernel_table
     MD5 check sum: 095c7af220d748ca6e76c0b4c6cfb241

     atomic species   valence    mass     pseudopotential
        Sn1           14.00   118.71000     Sn( 1.00)
        N1             5.00    14.00700     N ( 1.00)
        H1             1.00     1.00800     H ( 1.00)

     No symmetry found



   Cartesian axes

     site n.     atom                  positions (alat units)
         1           Sn1 tau(   1) = (   1.6817483   0.9709578  10.0000000  )
         2           Sn1 tau(   2) = (   5.0452448   0.9709578  10.0000000  )
         3           Sn1 tau(   3) = (   3.3634965   3.8838312  10.0000000  )
         4           Sn1 tau(   4) = (   6.7269931   3.8838312  10.0000000  )
         5           Sn1 tau(   5) = (   6.7269931   1.9419156  12.7462834  )
         6           Sn1 tau(   6) = (   3.3634965   1.9419156  12.7462834  )
         7           Sn1 tau(   7) = (   8.4087413   4.8547891  12.7462834  )
         8           Sn1 tau(   8) = (   5.0452448   4.8547891  12.7462834  )
         9           Sn1 tau(   9) = (   0.0000000   0.0000000  15.4925668  )
        10           Sn1 tau(  10) = (   3.3634965   0.0000000  15.4925668  )
        11           Sn1 tau(  11) = (   1.6817483   2.9128734  15.4925668  )
        12           Sn1 tau(  12) = (   5.0452448   2.9128734  15.4925668  )
        13           N1  tau(  13) = (   3.3634965   1.9419156  16.8575668  )
        14           H1  tau(  14) = (   3.3634965   1.9419156  17.9075668  )

     number of k points=    20  Fermi-Dirac smearing, width (Ry)=  0.0110
                       cart. coord. in units 2pi/alat
        k(    1) = (   0.0000000   0.0000000   0.0000000), wk =   0.0555556
        k(    2) = (   0.0000000   0.0286086   0.0000000), wk =   0.1111111
        k(    3) = (   0.0000000   0.0572173   0.0000000), wk =   0.1111111
        k(    4) = (   0.0000000  -0.0858259   0.0000000), wk =   0.0555556
        k(    5) = (   0.0247758  -0.0143043   0.0000000), wk =   0.1111111
        k(    6) = (   0.0247758   0.0143043   0.0000000), wk =   0.1111111
        k(    7) = (   0.0247758   0.0429130   0.0000000), wk =   0.1111111
        k(    8) = (   0.0247758  -0.1001302   0.0000000), wk =   0.1111111
        k(    9) = (   0.0247758  -0.0715216   0.0000000), wk =   0.1111111
        k(   10) = (   0.0247758  -0.0429130   0.0000000), wk =   0.1111111
        k(   11) = (   0.0495516  -0.0286086   0.0000000), wk =   0.1111111
        k(   12) = (   0.0495516   0.0000000   0.0000000), wk =   0.1111111
        k(   13) = (   0.0495516   0.0286086   0.0000000), wk =   0.1111111
        k(   14) = (   0.0495516  -0.1144345   0.0000000), wk =   0.1111111
        k(   15) = (   0.0495516  -0.0858259   0.0000000), wk =   0.1111111
        k(   16) = (   0.0495516  -0.0572173   0.0000000), wk =   0.1111111
        k(   17) = (  -0.0743274   0.0429130   0.0000000), wk =   0.0555556
        k(   18) = (  -0.0743274   0.0715216   0.0000000), wk =   0.1111111
        k(   19) = (  -0.0743274   0.1001302   0.0000000), wk =   0.1111111
        k(   20) = (  -0.0743274  -0.0429130   0.0000000), wk =   0.0555556

     Dense  grid:   801953 G-vectors     FFT dimensions: (  80,  80, 300)

     Smooth grid:   203051 G-vectors     FFT dimensions: (  50,  50, 192)

     Largest allocated arrays     est. size (Mb)     dimensions
        Kohn-Sham Wavefunctions         4.75 Mb     (    3208,   97)
        NL pseudopotentials            11.06 Mb     (    3208,  226)
        Each V/rho on FFT grid          3.71 Mb     (  243200)
        Each G-vector array             0.76 Mb     (  100244)
        G-vector shells                 0.21 Mb     (   27655)
     Largest temporary arrays     est. size (Mb)     dimensions
        Auxiliary wavefunctions        18.99 Mb     (    3208,  388)
        Each subspace H/S matrix        2.30 Mb     (     388,  388)
        Each <psi_i|beta_j> matrix      0.33 Mb     (     226,   97)
        Arrays for rho mixing          37.11 Mb     (  243200,   10)

     Initial potential from superposition of free atoms
     Check: negative starting charge=   -0.001395

     starting charge  161.99944, renormalised to  174.00000

     negative rho (up, down):  1.498E-03 0.000E+00


     ************************************************************************
     *
     * You are using vdW-DF for exchange-correlation in this calculation.
     * Please cite the following three references that made this development
     * possible:
     *
     *   M. Dion, H. Rydberg, E. Schroder, D. C. Langreth, and
     *   B. I. Lundqvist, Phys. Rev. Lett. 92, 246401 (2004).
     *
     *   T. Thonhauser, V. R. Cooper, S. Li, A. Puzder, P. Hyldgaard, and
     *   D. C. Langreth, Phys. Rev. B 76, 125112 (2007).
     *
     *   G. Roman-Perez and J. M. Soler, Phys. Rev. Lett. 103, 096102 (2009).
     *
     *
     * If you are using vdW-DF2, please also cite:
     *
     *   K. Lee, E. D. Murray, L. Kong, B. I. Lundqvist, and
     *   D. C. Langreth, Phys. Rev. B 82, 081101(R) (2010).
     *
     *
     * If you are calculating the stress with vdW-DF, please also cite:
     *
     *   R. Sabatini, E. Kucukbenli, B. Kolb, T. Thonhauser, and
     *   S. de Gironcoli, J. Phys.: Condens. Matter 24, 424209 (2012).
     *
     ************************************************************************

     Carrying out vdW-DF run using the following parameters:

     Nqs =      20    Nr_points =    1024   r_max =   100.000
     q_mesh =
               0.00001000     0.04494208     0.09755937     0.15916263
               0.23128650     0.31572767     0.41458969     0.53033537
               0.66584808     0.82450364     1.01025438     1.22772762
               1.48234092     1.78043706     2.12944203     2.53805004
               3.01644009     3.57652955     4.23227104     5.00000000

     Gradients computed in reciprocal space

     ************************************************************************


 
     Adding external electric field

     Computed dipole along edir(3) : 
        Dipole               -3.6000 Ry au,         -9.1502 Debye
        Dipole field         -0.0067 Ry au
 
        Potential amp.        0.6303 Ry
        Total length         46.9696 bohr
 
     Starting wfc are  113 randomized atomic wfcs

     total cpu time spent up to now is       15.8 secs

     per-process dynamical memory:   106.9 Mb

     Self-consistent Calculation

     iteration #  1     ecut=    36.75 Ry     beta=0.30
     Davidson diagonalization with overlap
     ethr =  1.00E-02,  avg # of iterations =  8.7

     negative rho (up, down):  4.373E-04 0.000E+00
 
     Adding external electric field

     Computed dipole along edir(3) : 
        Dipole               40.6942 Ry au,        103.4344 Debye
        Dipole field          0.0759 Ry au
 
        Potential amp.       -7.1254 Ry
        Total length         46.9696 bohr
 

     total cpu time spent up to now is       53.3 secs

     total energy              =   -1900.72201354 Ry
     Harris-Foulkes estimate   =   -1954.01291787 Ry
     estimated scf accuracy    <     113.26229039 Ry

     iteration #  2     ecut=    36.75 Ry     beta=0.30
     Davidson diagonalization with overlap
     ethr =  1.00E-02,  avg # of iterations = 18.4
 
     Adding external electric field

     Computed dipole along edir(3) : 
        Dipole                7.3591 Ry au,         18.7049 Debye
        Dipole field          0.0137 Ry au
 
        Potential amp.       -1.2885 Ry
        Total length         46.9696 bohr
 

     total cpu time spent up to now is      125.1 secs

     total energy              =   -1758.27014314 Ry
     Harris-Foulkes estimate   =   -2186.64872169 Ry
     estimated scf accuracy    <   11394.60718224 Ry

     iteration #  3     ecut=    36.75 Ry     beta=0.30
     Davidson diagonalization with overlap
     ethr =  1.00E-02,  avg # of iterations =  9.3
 
     Adding external electric field

     Computed dipole along edir(3) : 
        Dipole                6.8755 Ry au,         17.4758 Debye
        Dipole field          0.0128 Ry au
 
        Potential amp.       -1.2039 Ry
        Total length         46.9696 bohr
 

     total cpu time spent up to now is      174.2 secs

     total energy              =   -1944.50911529 Ry
     Harris-Foulkes estimate   =   -1975.08932072 Ry
     estimated scf accuracy    <     251.39471779 Ry

     iteration #  4     ecut=    36.75 Ry     beta=0.30
     Davidson diagonalization with overlap
     ethr =  1.00E-02,  avg # of iterations =  6.0
 
     Adding external electric field

     Computed dipole along edir(3) : 
        Dipole                4.1620 Ry au,         10.5787 Debye
        Dipole field          0.0078 Ry au
 
        Potential amp.       -0.7287 Ry
        Total length         46.9696 bohr
 

     total cpu time spent up to now is      206.7 secs

     total energy              =   -1949.28138442 Ry
     Harris-Foulkes estimate   =   -1952.62978172 Ry
     estimated scf accuracy    <      20.75301182 Ry

     iteration #  5     ecut=    36.75 Ry     beta=0.30
     Davidson diagonalization with overlap
     ethr =  1.00E-02,  avg # of iterations =  2.5
 
     Adding external electric field

     Computed dipole along edir(3) : 
        Dipole                3.3851 Ry au,          8.6041 Debye
        Dipole field          0.0063 Ry au
 
        Potential amp.       -0.5927 Ry
        Total length         46.9696 bohr
 

     total cpu time spent up to now is      232.5 secs

     total energy              =   -1949.81260945 Ry
     Harris-Foulkes estimate   =   -1950.45822491 Ry
     estimated scf accuracy    <       3.56176125 Ry

     iteration #  6     ecut=    36.75 Ry     beta=0.30
     Davidson diagonalization with overlap
     ethr =  2.05E-03,  avg # of iterations =  2.9
 
     Adding external electric field

     Computed dipole along edir(3) : 
        Dipole                1.9779 Ry au,          5.0273 Debye
        Dipole field          0.0037 Ry au
 
        Potential amp.       -0.3463 Ry
        Total length         46.9696 bohr
 

     total cpu time spent up to now is      258.6 secs

     total energy              =   -1949.79327910 Ry
     Harris-Foulkes estimate   =   -1950.06200529 Ry
     estimated scf accuracy    <       0.70065611 Ry

     iteration #  7     ecut=    36.75 Ry     beta=0.30
     Davidson diagonalization with overlap
     ethr =  4.03E-04,  avg # of iterations =  3.2
 
     Adding external electric field

     Computed dipole along edir(3) : 
        Dipole                0.8369 Ry au,          2.1273 Debye
        Dipole field          0.0016 Ry au
 
        Potential amp.       -0.1465 Ry
        Total length         46.9696 bohr
 

     total cpu time spent up to now is      285.6 secs

     total energy              =   -1949.75851665 Ry
     Harris-Foulkes estimate   =   -1949.88480634 Ry
     estimated scf accuracy    <       0.53960564 Ry

     iteration #  8     ecut=    36.75 Ry     beta=0.30
     Davidson diagonalization with overlap
     ethr =  3.10E-04,  avg # of iterations =  2.5

     negative rho (up, down):  1.885E-08 0.000E+00
 
     Adding external electric field

     Computed dipole along edir(3) : 
        Dipole                0.5168 Ry au,          1.3136 Debye
        Dipole field          0.0010 Ry au
 
        Potential amp.       -0.0905 Ry
        Total length         46.9696 bohr
 

     total cpu time spent up to now is      311.5 secs

     total energy              =   -1949.77373737 Ry
     Harris-Foulkes estimate   =   -1949.80393023 Ry
     estimated scf accuracy    <       0.07859566 Ry

     iteration #  9     ecut=    36.75 Ry     beta=0.30
     Davidson diagonalization with overlap
     ethr =  4.52E-05,  avg # of iterations =  6.1

     negative rho (up, down):  1.227E-04 0.000E+00
 
     Adding external electric field

     Computed dipole along edir(3) : 
        Dipole                0.1124 Ry au,          0.2856 Debye
        Dipole field          0.0002 Ry au
 
        Potential amp.       -0.0197 Ry
        Total length         46.9696 bohr
 

     total cpu time spent up to now is      341.3 secs

     total energy              =   -1949.77885236 Ry
     Harris-Foulkes estimate   =   -1949.78674501 Ry
     estimated scf accuracy    <       0.02843025 Ry

     iteration # 10     ecut=    36.75 Ry     beta=0.30
     Davidson diagonalization with overlap
     ethr =  1.63E-05,  avg # of iterations =  6.9

     negative rho (up, down):  2.507E-05 0.000E+00
 
     Adding external electric field

     Computed dipole along edir(3) : 
        Dipole                0.0899 Ry au,          0.2284 Debye
        Dipole field          0.0002 Ry au
 
        Potential amp.       -0.0157 Ry
        Total length         46.9696 bohr
 

     total cpu time spent up to now is      372.1 secs

     total energy              =   -1949.78233838 Ry
     Harris-Foulkes estimate   =   -1949.78297236 Ry
     estimated scf accuracy    <       0.00903068 Ry

     iteration # 11     ecut=    36.75 Ry     beta=0.30
     Davidson diagonalization with overlap
     ethr =  5.19E-06,  avg # of iterations =  3.7

     negative rho (up, down):  9.428E-05 0.000E+00
 
     Adding external electric field

     Computed dipole along edir(3) : 
        Dipole                0.0512 Ry au,          0.1301 Debye
        Dipole field          0.0001 Ry au
 
        Potential amp.       -0.0090 Ry
        Total length         46.9696 bohr
 

     total cpu time spent up to now is      399.3 secs

     total energy              =   -1949.78290000 Ry
     Harris-Foulkes estimate   =   -1949.78282593 Ry
     estimated scf accuracy    <       0.00074457 Ry

     iteration # 12     ecut=    36.75 Ry     beta=0.30
     Davidson diagonalization with overlap
     ethr =  4.28E-07,  avg # of iterations =  5.0

     negative rho (up, down):  8.346E-05 0.000E+00
 
     Adding external electric field

     Computed dipole along edir(3) : 
        Dipole                0.0600 Ry au,          0.1526 Debye
        Dipole field          0.0001 Ry au
 
        Potential amp.       -0.0105 Ry
        Total length         46.9696 bohr
 

     total cpu time spent up to now is      434.7 secs

     total energy              =   -1949.78292360 Ry
     Harris-Foulkes estimate   =   -1949.78316250 Ry
     estimated scf accuracy    <       0.00291208 Ry

     iteration # 13     ecut=    36.75 Ry     beta=0.30
     Davidson diagonalization with overlap
     ethr =  4.28E-07,  avg # of iterations =  4.4

     negative rho (up, down):  2.292E-04 0.000E+00
 
     Adding external electric field

     Computed dipole along edir(3) : 
        Dipole                0.0494 Ry au,          0.1255 Debye
        Dipole field          0.0001 Ry au
 
        Potential amp.       -0.0086 Ry
        Total length         46.9696 bohr
 

     total cpu time spent up to now is      462.5 secs

     total energy              =   -1949.78305227 Ry
     Harris-Foulkes estimate   =   -1949.78307594 Ry
     estimated scf accuracy    <       0.00005385 Ry

     iteration # 14     ecut=    36.75 Ry     beta=0.30
     Davidson diagonalization with overlap
     ethr =  3.09E-08,  avg # of iterations =  4.8

     negative rho (up, down):  3.621E-04 0.000E+00
 
     Adding external electric field

     Computed dipole along edir(3) : 
        Dipole                0.0664 Ry au,          0.1687 Debye
        Dipole field          0.0001 Ry au
 
        Potential amp.       -0.0116 Ry
        Total length         46.9696 bohr
 

     total cpu time spent up to now is      492.3 secs

     total energy              =   -1949.78303231 Ry
     Harris-Foulkes estimate   =   -1949.78311614 Ry
     estimated scf accuracy    <       0.00100282 Ry

     iteration # 15     ecut=    36.75 Ry     beta=0.30
     Davidson diagonalization with overlap
     ethr =  3.09E-08,  avg # of iterations =  5.0

     negative rho (up, down):  7.137E-04 0.000E+00

     negative rho (up, down):  7.137E-04 0.000E+00

     negative rho (up, down):  7.137E-04 0.000E+00

     negative rho (up, down):  7.137E-04 0.000E+00

     negative rho (up, down):  7.137E-04 0.000E+00

     negative rho (up, down):  7.137E-04 0.000E+00

     negative rho (up, down):  7.137E-04 0.000E+00

     negative rho (up, down):  7.137E-04 0.000E+00

     negative rho (up, down):  7.137E-04 0.000E+00

     negative rho (up, down):  7.137E-04 0.000E+00

     negative rho (up, down):  7.137E-04 0.000E+00

     negative rho (up, down):  7.137E-04 0.000E+00

     negative rho (up, down):  7.137E-04 0.000E+00

     negative rho (up, down):  7.137E-04 0.000E+00

     negative rho (up, down):  7.137E-04 0.000E+00

     negative rho (up, down):  7.137E-04 0.000E+00

     negative rho (up, down):  7.137E-04 0.000E+00

     negative rho (up, down):  7.137E-04 0.000E+00

     negative rho (up, down):  7.137E-04 0.000E+00

     negative rho (up, down):  7.137E-04 0.000E+00

     negative rho (up, down):  7.137E-04 0.000E+00

     negative rho (up, down):  7.137E-04 0.000E+00

     negative rho (up, down):  7.137E-04 0.000E+00

     negative rho (up, down):  7.137E-04 0.000E+00

     negative rho (up, down):  7.137E-04 0.000E+00

     negative rho (up, down):  7.137E-04 0.000E+00

     negative rho (up, down):  7.137E-04 0.000E+00

     negative rho (up, down):  7.137E-04 0.000E+00

     negative rho (up, down):  7.137E-04 0.000E+00

     negative rho (up, down):  7.137E-04 0.000E+00

     negative rho (up, down):  7.137E-04 0.000E+00

     negative rho (up, down):  7.137E-04 0.000E+00

     negative rho (up, down):  7.137E-04 0.000E+00

     negative rho (up, down):  7.137E-04 0.000E+00

     negative rho (up, down):  7.137E-04 0.000E+00
 
     Adding external electric field

     Computed dipole along edir(3) : 
        Dipole                0.1036 Ry au,          0.2633 Debye
        Dipole field          0.0002 Ry au
 
        Potential amp.       -0.0181 Ry
        Total length         46.9696 bohr
 

     total cpu time spent up to now is      598.2 secs

     End of self-consistent calculation

          k = 0.0000 0.0000 0.0000 ( 25377 PWs)   bands (ev):

   -21.2037 -21.1927 -21.1927 -21.1803 -21.1698 -21.1698 -21.1617 -21.1466
   -21.1466 -21.1434 -21.1367 -21.1316 -21.1276 -21.1276 -21.1258 -21.1255
   -21.1254 -21.1110 -21.1110 -21.1100 -21.1084 -21.1084 -21.1055 -21.1055
   -21.1036 -21.0977 -21.0977 -21.0927 -21.0812 -21.0812 -21.0737 -21.0616
   -21.0616 -21.0464 -21.0464 -21.0359 -21.0359 -21.0119 -21.0111 -21.0111
   -21.0073 -21.0047 -21.0047 -20.9917 -20.9844 -20.9760 -20.9760 -20.9711
   -20.9710 -20.9674 -20.9674 -20.9641 -20.9575 -20.9558 -20.9557 -20.9478
   -20.9478 -20.9376 -20.9376 -20.9355 -14.0602  -9.8496  -8.6143  -6.9596
    -5.9723  -5.8460  -5.8460  -5.4886  -5.4886  -5.4199  -4.6934  -4.6419
    -4.6419  -4.3604  -3.0984  -3.0984  -2.7459  -2.3750  -2.3750  -2.3398
    -1.8197  -1.6895  -1.6895  -0.3165  -0.3165  -0.2387   0.6487   1.8594
     1.8594   1.9353   2.5050   2.5050   2.8551   3.1680   3.4209   3.5159
     3.5159

          k = 0.0000 0.0286 0.0000 ( 25365 PWs)   bands (ev):

   -21.1959 -21.1863 -21.1823 -21.1741 -21.1654 -21.1605 -21.1562 -21.1452
   -21.1407 -21.1399 -21.1326 -21.1285 -21.1275 -21.1237 -21.1217 -21.1197
   -21.1174 -21.1134 -21.1132 -21.1097 -21.1087 -21.1039 -21.1027 -21.1002
   -21.0986 -21.0958 -21.0902 -21.0901 -21.0819 -21.0814 -21.0730 -21.0630
   -21.0623 -21.0487 -21.0461 -21.0432 -21.0400 -21.0164 -21.0141 -21.0124
   -21.0115 -21.0082 -21.0055 -20.9992 -20.9910 -20.9826 -20.9809 -20.9776
   -20.9774 -20.9708 -20.9703 -20.9678 -20.9626 -20.9598 -20.9588 -20.9549
   -20.9519 -20.9442 -20.9438 -20.9363 -14.0582  -9.7250  -8.4986  -6.8853
    -6.7685  -6.1822  -6.1359  -5.8434  -5.4075  -5.3899  -4.6381  -4.5371
    -4.4279  -4.2398  -2.8150  -2.6836  -2.4825  -2.3429  -2.2864  -2.1481
    -1.4849  -1.3217  -0.8819  -0.6262  -0.2691   0.2746   0.9422   1.0840
     1.7123   1.7826   2.3381   2.6245   2.7344   2.8845   3.1543   3.2795
     3.5361

          k = 0.0000 0.0572 0.0000 ( 25367 PWs)   bands (ev):

   -21.1829 -21.1681 -21.1625 -21.1568 -21.1516 -21.1472 -21.1414 -21.1394
   -21.1346 -21.1272 -21.1252 -21.1241 -21.1201 -21.1171 -21.1151 -21.1129
   -21.1127 -21.1089 -21.1053 -21.1041 -21.1010 -21.0994 -21.0948 -21.0925
   -21.0920 -21.0868 -21.0842 -21.0813 -21.0784 -21.0728 -21.0692 -21.0653
   -21.0625 -21.0616 -21.0539 -21.0497 -21.0422 -21.0322 -21.0270 -21.0221
   -21.0201 -21.0167 -21.0137 -21.0056 -21.0033 -21.0008 -20.9991 -20.9957
   -20.9883 -20.9848 -20.9815 -20.9753 -20.9744 -20.9688 -20.9678 -20.9652
   -20.9624 -20.9519 -20.9506 -20.9364 -14.0542  -9.3508  -8.1516  -7.8638
    -6.8203  -6.5433  -6.4378  -6.3878  -5.5746  -5.5186  -5.1807  -4.3571
    -4.3071  -3.7740  -2.1883  -2.1390  -2.0375  -1.8316  -1.6445  -1.0939
    -0.8593  -0.8038  -0.3937  -0.1174   0.2155   0.4969   0.7303   0.9737
     1.1628   1.6220   1.7743   1.9894   2.0082   2.4043   2.7356   3.2266
     3.2512

          k = 0.0000-0.0858 0.0000 ( 25386 PWs)   bands (ev):

   -21.1725 -21.1672 -21.1543 -21.1467 -21.1433 -21.1359 -21.1355 -21.1332
   -21.1283 -21.1215 -21.1210 -21.1178 -21.1131 -21.1109 -21.1093 -21.1073
   -21.1057 -21.1020 -21.1015 -21.0998 -21.0978 -21.0968 -21.0924 -21.0915
   -21.0894 -21.0893 -21.0855 -21.0839 -21.0733 -21.0709 -21.0694 -21.0658
   -21.0640 -21.0594 -21.0515 -21.0449 -21.0402 -21.0340 -21.0323 -21.0309
   -21.0288 -21.0259 -21.0236 -21.0179 -21.0148 -21.0117 -21.0042 -21.0033
   -20.9996 -20.9944 -20.9922 -20.9869 -20.9787 -20.9759 -20.9699 -20.9676
   -20.9662 -20.9528 -20.9514 -20.9364 -14.0521  -8.7368  -8.7183  -7.5978
    -7.5550  -6.5687  -6.5469  -6.0744  -5.9058  -5.5879  -5.5202  -4.3180
    -4.3075  -3.4535  -2.2613  -1.5592  -1.3478  -1.2473  -1.2275  -1.0361
    -0.8640  -0.6179  -0.1317   0.0479   0.5073   0.6248   0.8486   1.0127
     1.2453   1.4573   1.6559   1.7871   2.0646   2.1284   2.1567   2.4759
     2.5852

          k = 0.0248-0.0143 0.0000 ( 25365 PWs)   bands (ev):

   -21.1959 -21.1863 -21.1823 -21.1741 -21.1654 -21.1605 -21.1562 -21.1452
   -21.1407 -21.1399 -21.1326 -21.1285 -21.1275 -21.1237 -21.1217 -21.1197
   -21.1174 -21.1134 -21.1132 -21.1097 -21.1087 -21.1039 -21.1027 -21.1002
   -21.0986 -21.0958 -21.0902 -21.0902 -21.0819 -21.0814 -21.0730 -21.0630
   -21.0623 -21.0487 -21.0461 -21.0432 -21.0400 -21.0164 -21.0141 -21.0124
   -21.0115 -21.0082 -21.0055 -20.9992 -20.9910 -20.9826 -20.9809 -20.9776
   -20.9774 -20.9708 -20.9703 -20.9678 -20.9626 -20.9598 -20.9588 -20.9549
   -20.9519 -20.9442 -20.9438 -20.9363 -14.0582  -9.7250  -8.4986  -6.8853
    -6.7685  -6.1822  -6.1359  -5.8434  -5.4075  -5.3899  -4.6381  -4.5371
    -4.4279  -4.2398  -2.8150  -2.6836  -2.4825  -2.3429  -2.2864  -2.1481
    -1.4849  -1.3217  -0.8819  -0.6262  -0.2691   0.2746   0.9422   1.0840
     1.7123   1.7826   2.3381   2.6245   2.7344   2.8845   3.1543   3.2795
     3.5362

          k = 0.0248 0.0143 0.0000 ( 25365 PWs)   bands (ev):

   -21.1959 -21.1863 -21.1823 -21.1741 -21.1654 -21.1605 -21.1562 -21.1452
   -21.1407 -21.1399 -21.1326 -21.1285 -21.1275 -21.1237 -21.1217 -21.1197
   -21.1174 -21.1134 -21.1132 -21.1097 -21.1087 -21.1039 -21.1027 -21.1002
   -21.0986 -21.0958 -21.0902 -21.0901 -21.0819 -21.0814 -21.0730 -21.0630
   -21.0623 -21.0487 -21.0461 -21.0432 -21.0400 -21.0164 -21.0141 -21.0124
   -21.0115 -21.0082 -21.0055 -20.9992 -20.9910 -20.9826 -20.9809 -20.9776
   -20.9774 -20.9708 -20.9703 -20.9678 -20.9626 -20.9598 -20.9588 -20.9549
   -20.9519 -20.9442 -20.9438 -20.9363 -14.0582  -9.7250  -8.4986  -6.8853
    -6.7685  -6.1822  -6.1359  -5.8434  -5.4075  -5.3899  -4.6381  -4.5371
    -4.4279  -4.2398  -2.8150  -2.6836  -2.4825  -2.3429  -2.2864  -2.1481
    -1.4849  -1.3217  -0.8819  -0.6262  -0.2691   0.2746   0.9422   1.0840
     1.7123   1.7826   2.3381   2.6245   2.7344   2.8845   3.1543   3.2796
     3.5361

          k = 0.0248 0.0429 0.0000 ( 25362 PWs)   bands (ev):

   -21.1823 -21.1768 -21.1643 -21.1620 -21.1593 -21.1475 -21.1434 -21.1421
   -21.1360 -21.1296 -21.1283 -21.1249 -21.1223 -21.1205 -21.1199 -21.1148
   -21.1138 -21.1111 -21.1069 -21.1065 -21.1010 -21.0998 -21.0971 -21.0966
   -21.0923 -21.0892 -21.0879 -21.0815 -21.0791 -21.0770 -21.0713 -21.0642
   -21.0615 -21.0595 -21.0517 -21.0466 -21.0433 -21.0278 -21.0227 -21.0198
   -21.0157 -21.0134 -21.0098 -21.0057 -21.0027 -20.9974 -20.9916 -20.9889
   -20.9851 -20.9803 -20.9745 -20.9729 -20.9709 -20.9696 -20.9658 -20.9612
   -20.9596 -20.9523 -20.9462 -20.9406 -14.0552  -9.4756  -8.2672  -7.2893
    -7.2349  -6.6472  -6.3112  -6.1359  -5.5367  -5.1517  -4.9139  -4.6854
    -4.3427  -3.9509  -2.5341  -2.0882  -2.0089  -1.9195  -1.7934  -1.6103
    -1.2005  -0.8238  -0.4715  -0.2909   0.2161   0.5355   0.7391   0.8851
     1.1539   1.4766   1.9093   2.3861   2.5992   2.7828   2.9013   3.1071
     3.2012

          k = 0.0248-0.1001 0.0000 ( 25368 PWs)   bands (ev):

   -21.1682 -21.1584 -21.1530 -21.1471 -21.1436 -21.1409 -21.1366 -21.1319
   -21.1295 -21.1245 -21.1222 -21.1186 -21.1161 -21.1145 -21.1131 -21.1108
   -21.1074 -21.1044 -21.1018 -21.0994 -21.0976 -21.0962 -21.0934 -21.0908
   -21.0882 -21.0871 -21.0814 -21.0779 -21.0769 -21.0729 -21.0689 -21.0640
   -21.0603 -21.0579 -21.0545 -21.0489 -21.0421 -21.0399 -21.0350 -21.0323
   -21.0277 -21.0243 -21.0182 -21.0158 -21.0106 -21.0072 -21.0051 -21.0020
   -20.9977 -20.9951 -20.9861 -20.9850 -20.9773 -20.9756 -20.9722 -20.9675
   -20.9655 -20.9556 -20.9521 -20.9425 -14.0521  -8.9767  -8.2319  -7.8062
    -7.4986  -7.1204  -6.4585  -6.1816  -5.5962  -5.4293  -4.9507  -4.8007
    -4.1527  -3.6161  -2.2536  -1.9505  -1.7526  -1.2957  -1.0287  -0.8618
    -0.6615  -0.3497  -0.1593   0.0136   0.1555   0.5240   0.8289   1.0266
     1.1134   1.5623   1.7418   2.0861   2.2577   2.4090   2.5407   2.7405
     2.8517

          k = 0.0248-0.0715 0.0000 ( 25368 PWs)   bands (ev):

   -21.1682 -21.1584 -21.1530 -21.1471 -21.1436 -21.1409 -21.1366 -21.1319
   -21.1295 -21.1245 -21.1222 -21.1186 -21.1161 -21.1145 -21.1131 -21.1108
   -21.1074 -21.1044 -21.1018 -21.0994 -21.0976 -21.0962 -21.0934 -21.0908
   -21.0882 -21.0871 -21.0814 -21.0779 -21.0769 -21.0729 -21.0689 -21.0640
   -21.0603 -21.0579 -21.0545 -21.0489 -21.0421 -21.0399 -21.0350 -21.0323
   -21.0277 -21.0243 -21.0182 -21.0158 -21.0106 -21.0072 -21.0051 -21.0020
   -20.9977 -20.9951 -20.9861 -20.9850 -20.9773 -20.9756 -20.9722 -20.9675
   -20.9655 -20.9556 -20.9521 -20.9425 -14.0521  -8.9767  -8.2319  -7.8062
    -7.4986  -7.1204  -6.4585  -6.1816  -5.5962  -5.4293  -4.9507  -4.8008
    -4.1527  -3.6161  -2.2536  -1.9505  -1.7526  -1.2957  -1.0287  -0.8618
    -0.6615  -0.3497  -0.1593   0.0136   0.1555   0.5240   0.8289   1.0266
     1.1134   1.5623   1.7418   2.0861   2.2577   2.4090   2.5407   2.7405
     2.8517

          k = 0.0248-0.0429 0.0000 ( 25362 PWs)   bands (ev):

   -21.1823 -21.1768 -21.1643 -21.1620 -21.1593 -21.1475 -21.1434 -21.1421
   -21.1360 -21.1296 -21.1283 -21.1249 -21.1223 -21.1205 -21.1199 -21.1148
   -21.1137 -21.1111 -21.1069 -21.1065 -21.1010 -21.0998 -21.0971 -21.0966
   -21.0923 -21.0892 -21.0879 -21.0815 -21.0791 -21.0770 -21.0713 -21.0642
   -21.0615 -21.0595 -21.0517 -21.0466 -21.0433 -21.0278 -21.0226 -21.0198
   -21.0157 -21.0134 -21.0098 -21.0056 -21.0027 -20.9974 -20.9916 -20.9889
   -20.9851 -20.9803 -20.9745 -20.9729 -20.9709 -20.9696 -20.9658 -20.9612
   -20.9596 -20.9523 -20.9462 -20.9406 -14.0552  -9.4756  -8.2672  -7.2893
    -7.2349  -6.6472  -6.3112  -6.1359  -5.5367  -5.1516  -4.9139  -4.6854
    -4.3427  -3.9509  -2.5341  -2.0882  -2.0089  -1.9195  -1.7934  -1.6103
    -1.2005  -0.8238  -0.4715  -0.2909   0.2161   0.5355   0.7391   0.8851
     1.1539   1.4766   1.9093   2.3861   2.5992   2.7828   2.9013   3.1071
     3.2012

          k = 0.0496-0.0286 0.0000 ( 25367 PWs)   bands (ev):

   -21.1829 -21.1682 -21.1625 -21.1568 -21.1516 -21.1472 -21.1414 -21.1394
   -21.1346 -21.1272 -21.1251 -21.1241 -21.1201 -21.1171 -21.1151 -21.1129
   -21.1127 -21.1089 -21.1053 -21.1041 -21.1010 -21.0994 -21.0948 -21.0925
   -21.0920 -21.0868 -21.0842 -21.0813 -21.0784 -21.0728 -21.0692 -21.0653
   -21.0625 -21.0616 -21.0539 -21.0497 -21.0422 -21.0322 -21.0270 -21.0221
   -21.0201 -21.0167 -21.0137 -21.0056 -21.0033 -21.0008 -20.9991 -20.9957
   -20.9883 -20.9848 -20.9815 -20.9753 -20.9744 -20.9688 -20.9677 -20.9652
   -20.9624 -20.9519 -20.9506 -20.9364 -14.0542  -9.3508  -8.1516  -7.8638
    -6.8203  -6.5433  -6.4378  -6.3878  -5.5746  -5.5186  -5.1807  -4.3571
    -4.3071  -3.7740  -2.1883  -2.1390  -2.0375  -1.8316  -1.6445  -1.0939
    -0.8593  -0.8038  -0.3937  -0.1174   0.2155   0.4969   0.7303   0.9737
     1.1628   1.6220   1.7743   1.9894   2.0082   2.4043   2.7356   3.2266
     3.2512

          k = 0.0496 0.0000 0.0000 ( 25362 PWs)   bands (ev):

   -21.1823 -21.1768 -21.1643 -21.1620 -21.1593 -21.1475 -21.1434 -21.1421
   -21.1360 -21.1296 -21.1283 -21.1248 -21.1223 -21.1205 -21.1199 -21.1148
   -21.1138 -21.1111 -21.1069 -21.1066 -21.1010 -21.0998 -21.0971 -21.0966
   -21.0923 -21.0892 -21.0879 -21.0815 -21.0791 -21.0770 -21.0713 -21.0642
   -21.0615 -21.0595 -21.0517 -21.0466 -21.0433 -21.0278 -21.0226 -21.0198
   -21.0157 -21.0134 -21.0098 -21.0056 -21.0027 -20.9974 -20.9916 -20.9889
   -20.9851 -20.9803 -20.9745 -20.9729 -20.9709 -20.9696 -20.9658 -20.9612
   -20.9596 -20.9523 -20.9462 -20.9406 -14.0552  -9.4756  -8.2672  -7.2893
    -7.2349  -6.6472  -6.3112  -6.1359  -5.5367  -5.1517  -4.9139  -4.6854
    -4.3427  -3.9509  -2.5341  -2.0882  -2.0089  -1.9195  -1.7934  -1.6103
    -1.2005  -0.8238  -0.4715  -0.2909   0.2161   0.5355   0.7391   0.8850
     1.1539   1.4766   1.9093   2.3861   2.5992   2.7828   2.9013   3.1071
     3.2012

          k = 0.0496 0.0286 0.0000 ( 25367 PWs)   bands (ev):

   -21.1829 -21.1682 -21.1625 -21.1568 -21.1516 -21.1472 -21.1414 -21.1394
   -21.1346 -21.1272 -21.1251 -21.1241 -21.1201 -21.1171 -21.1151 -21.1129
   -21.1127 -21.1089 -21.1053 -21.1041 -21.1010 -21.0994 -21.0948 -21.0925
   -21.0920 -21.0868 -21.0842 -21.0813 -21.0784 -21.0728 -21.0692 -21.0653
   -21.0625 -21.0616 -21.0539 -21.0497 -21.0422 -21.0322 -21.0270 -21.0221
   -21.0201 -21.0167 -21.0137 -21.0056 -21.0033 -21.0008 -20.9991 -20.9957
   -20.9882 -20.9848 -20.9815 -20.9753 -20.9744 -20.9688 -20.9678 -20.9652
   -20.9624 -20.9519 -20.9506 -20.9364 -14.0542  -9.3508  -8.1516  -7.8638
    -6.8203  -6.5433  -6.4378  -6.3878  -5.5746  -5.5187  -5.1807  -4.3571
    -4.3071  -3.7740  -2.1883  -2.1390  -2.0375  -1.8316  -1.6445  -1.0939
    -0.8593  -0.8038  -0.3937  -0.1174   0.2155   0.4969   0.7303   0.9737
     1.1628   1.6220   1.7743   1.9894   2.0082   2.4043   2.7356   3.2266
     3.2512

          k = 0.0496-0.1144 0.0000 ( 25368 PWs)   bands (ev):

   -21.1682 -21.1584 -21.1530 -21.1471 -21.1436 -21.1409 -21.1366 -21.1319
   -21.1295 -21.1245 -21.1222 -21.1186 -21.1161 -21.1145 -21.1131 -21.1108
   -21.1074 -21.1044 -21.1018 -21.0994 -21.0976 -21.0962 -21.0934 -21.0908
   -21.0882 -21.0871 -21.0814 -21.0779 -21.0769 -21.0729 -21.0689 -21.0640
   -21.0603 -21.0579 -21.0545 -21.0489 -21.0421 -21.0399 -21.0350 -21.0323
   -21.0277 -21.0243 -21.0182 -21.0158 -21.0106 -21.0073 -21.0051 -21.0020
   -20.9977 -20.9951 -20.9861 -20.9850 -20.9773 -20.9756 -20.9722 -20.9675
   -20.9655 -20.9556 -20.9521 -20.9425 -14.0521  -8.9767  -8.2319  -7.8062
    -7.4986  -7.1204  -6.4585  -6.1816  -5.5962  -5.4293  -4.9507  -4.8008
    -4.1527  -3.6161  -2.2536  -1.9505  -1.7526  -1.2957  -1.0287  -0.8618
    -0.6615  -0.3497  -0.1593   0.0136   0.1555   0.5240   0.8289   1.0266
     1.1134   1.5623   1.7418   2.0861   2.2577   2.4090   2.5407   2.7405
     2.8517

          k = 0.0496-0.0858 0.0000 ( 25314 PWs)   bands (ev):

   -21.1509 -21.1463 -21.1438 -21.1421 -21.1388 -21.1371 -21.1333 -21.1331
   -21.1311 -21.1285 -21.1259 -21.1201 -21.1174 -21.1165 -21.1139 -21.1086
   -21.1074 -21.1028 -21.1009 -21.0967 -21.0966 -21.0951 -21.0885 -21.0879
   -21.0865 -21.0856 -21.0769 -21.0760 -21.0717 -21.0687 -21.0671 -21.0583
   -21.0580 -21.0561 -21.0548 -21.0504 -21.0499 -21.0487 -21.0451 -21.0393
   -21.0318 -21.0256 -21.0215 -21.0139 -21.0137 -21.0092 -21.0088 -21.0050
   -21.0022 -20.9932 -20.9875 -20.9860 -20.9847 -20.9797 -20.9732 -20.9686
   -20.9678 -20.9584 -20.9529 -20.9510 -14.0511  -8.3625  -8.3559  -8.3473
    -7.3131  -7.1873  -7.1860  -5.8336  -5.5747  -5.5606  -4.6455  -4.6440
    -4.3411  -3.5687  -2.3857  -1.9381  -1.3614  -1.3106  -1.3018  -0.6564
    -0.5749  -0.5587   0.4076   0.4083   0.5469   0.7919   0.8293   1.1252
     1.4559   1.5118   1.6754   1.9417   2.0866   2.2595   2.5221   2.5341
     2.8371

          k = 0.0496-0.0572 0.0000 ( 25368 PWs)   bands (ev):

   -21.1682 -21.1584 -21.1530 -21.1471 -21.1436 -21.1409 -21.1366 -21.1319
   -21.1295 -21.1245 -21.1222 -21.1186 -21.1161 -21.1145 -21.1131 -21.1108
   -21.1073 -21.1044 -21.1018 -21.0994 -21.0976 -21.0962 -21.0934 -21.0908
   -21.0882 -21.0871 -21.0814 -21.0779 -21.0769 -21.0729 -21.0689 -21.0640
   -21.0603 -21.0579 -21.0545 -21.0489 -21.0421 -21.0399 -21.0350 -21.0323
   -21.0277 -21.0243 -21.0182 -21.0158 -21.0106 -21.0072 -21.0051 -21.0020
   -20.9977 -20.9951 -20.9861 -20.9850 -20.9773 -20.9756 -20.9722 -20.9675
   -20.9655 -20.9556 -20.9521 -20.9425 -14.0521  -8.9767  -8.2319  -7.8062
    -7.4986  -7.1204  -6.4585  -6.1816  -5.5962  -5.4293  -4.9507  -4.8007
    -4.1527  -3.6161  -2.2536  -1.9505  -1.7526  -1.2957  -1.0287  -0.8618
    -0.6615  -0.3497  -0.1593   0.0136   0.1555   0.5240   0.8289   1.0266
     1.1134   1.5623   1.7418   2.0861   2.2577   2.4090   2.5407   2.7405
     2.8517

          k =-0.0743 0.0429 0.0000 ( 25386 PWs)   bands (ev):

   -21.1726 -21.1672 -21.1543 -21.1467 -21.1433 -21.1359 -21.1355 -21.1332
   -21.1284 -21.1215 -21.1210 -21.1178 -21.1131 -21.1109 -21.1093 -21.1073
   -21.1057 -21.1020 -21.1015 -21.0999 -21.0978 -21.0968 -21.0924 -21.0915
   -21.0894 -21.0893 -21.0855 -21.0839 -21.0733 -21.0709 -21.0694 -21.0658
   -21.0640 -21.0594 -21.0515 -21.0449 -21.0402 -21.0340 -21.0323 -21.0309
   -21.0288 -21.0259 -21.0236 -21.0179 -21.0148 -21.0117 -21.0042 -21.0032
   -20.9996 -20.9944 -20.9922 -20.9869 -20.9787 -20.9759 -20.9699 -20.9676
   -20.9662 -20.9528 -20.9515 -20.9363 -14.0521  -8.7368  -8.7183  -7.5978
    -7.5550  -6.5687  -6.5469  -6.0744  -5.9058  -5.5879  -5.5202  -4.3180
    -4.3075  -3.4535  -2.2613  -1.5592  -1.3478  -1.2473  -1.2275  -1.0361
    -0.8640  -0.6179  -0.1317   0.0479   0.5073   0.6248   0.8486   1.0127
     1.2452   1.4573   1.6559   1.7871   2.0646   2.1284   2.1567   2.4759
     2.5852

          k =-0.0743 0.0715 0.0000 ( 25368 PWs)   bands (ev):

   -21.1682 -21.1584 -21.1530 -21.1471 -21.1436 -21.1409 -21.1366 -21.1319
   -21.1295 -21.1245 -21.1222 -21.1186 -21.1161 -21.1145 -21.1131 -21.1108
   -21.1073 -21.1044 -21.1018 -21.0994 -21.0976 -21.0962 -21.0934 -21.0908
   -21.0882 -21.0871 -21.0814 -21.0779 -21.0769 -21.0729 -21.0689 -21.0640
   -21.0603 -21.0579 -21.0545 -21.0489 -21.0421 -21.0399 -21.0350 -21.0323
   -21.0277 -21.0243 -21.0182 -21.0158 -21.0106 -21.0072 -21.0051 -21.0020
   -20.9977 -20.9951 -20.9861 -20.9850 -20.9773 -20.9756 -20.9722 -20.9675
   -20.9655 -20.9556 -20.9521 -20.9425 -14.0521  -8.9767  -8.2319  -7.8062
    -7.4986  -7.1204  -6.4585  -6.1816  -5.5962  -5.4293  -4.9507  -4.8007
    -4.1527  -3.6161  -2.2536  -1.9505  -1.7526  -1.2957  -1.0287  -0.8618
    -0.6615  -0.3497  -0.1593   0.0136   0.1555   0.5240   0.8289   1.0266
     1.1134   1.5623   1.7418   2.0861   2.2577   2.4090   2.5407   2.7405
     2.8517

          k =-0.0743 0.1001 0.0000 ( 25368 PWs)   bands (ev):

   -21.1682 -21.1584 -21.1530 -21.1471 -21.1436 -21.1409 -21.1366 -21.1319
   -21.1295 -21.1245 -21.1222 -21.1186 -21.1161 -21.1145 -21.1131 -21.1108
   -21.1074 -21.1044 -21.1018 -21.0994 -21.0976 -21.0962 -21.0934 -21.0908
   -21.0882 -21.0871 -21.0814 -21.0779 -21.0769 -21.0729 -21.0689 -21.0640
   -21.0603 -21.0579 -21.0545 -21.0489 -21.0421 -21.0399 -21.0350 -21.0323
   -21.0277 -21.0243 -21.0182 -21.0158 -21.0106 -21.0073 -21.0051 -21.0020
   -20.9977 -20.9951 -20.9861 -20.9850 -20.9773 -20.9756 -20.9722 -20.9675
   -20.9655 -20.9556 -20.9521 -20.9425 -14.0521  -8.9767  -8.2319  -7.8062
    -7.4986  -7.1204  -6.4585  -6.1816  -5.5962  -5.4293  -4.9507  -4.8008
    -4.1527  -3.6161  -2.2536  -1.9505  -1.7526  -1.2957  -1.0287  -0.8618
    -0.6615  -0.3497  -0.1593   0.0136   0.1555   0.5240   0.8289   1.0266
     1.1134   1.5623   1.7418   2.0861   2.2577   2.4090   2.5407   2.7405
     2.8517

          k =-0.0743-0.0429 0.0000 ( 25386 PWs)   bands (ev):

   -21.1726 -21.1672 -21.1542 -21.1467 -21.1433 -21.1359 -21.1355 -21.1332
   -21.1284 -21.1215 -21.1210 -21.1178 -21.1131 -21.1108 -21.1093 -21.1073
   -21.1057 -21.1020 -21.1015 -21.0998 -21.0978 -21.0968 -21.0924 -21.0915
   -21.0894 -21.0892 -21.0855 -21.0839 -21.0733 -21.0709 -21.0694 -21.0658
   -21.0640 -21.0594 -21.0515 -21.0450 -21.0402 -21.0340 -21.0323 -21.0309
   -21.0288 -21.0259 -21.0236 -21.0179 -21.0148 -21.0117 -21.0042 -21.0033
   -20.9996 -20.9944 -20.9922 -20.9869 -20.9787 -20.9759 -20.9699 -20.9676
   -20.9662 -20.9528 -20.9514 -20.9364 -14.0521  -8.7368  -8.7184  -7.5978
    -7.5550  -6.5687  -6.5469  -6.0744  -5.9058  -5.5879  -5.5202  -4.3180
    -4.3075  -3.4534  -2.2613  -1.5592  -1.3478  -1.2473  -1.2275  -1.0361
    -0.8640  -0.6179  -0.1317   0.0479   0.5073   0.6248   0.8486   1.0127
     1.2452   1.4573   1.6559   1.7871   2.0646   2.1284   2.1567   2.4759
     2.5852

     the Fermi energy is     0.9009 ev

!    total energy              =   -1949.78306408 Ry
     Harris-Foulkes estimate   =   -1949.78305925 Ry
     estimated scf accuracy    <       0.00000601 Ry

     The total energy is the sum of the following terms:

     one-electron contribution =  -10680.58353221 Ry
     hartree contribution      =    5406.56021688 Ry
     xc contribution           =    -540.19009997 Ry
     ewald contribution        =    3864.47484183 Ry
     electric field correction =       0.00002000 Ry
     smearing contrib. (-TS)   =      -0.04451061 Ry

     convergence has been achieved in  15 iterations
 
 BEEF-vdW xc energy contributions
           1 :   -474.509751215793     
           2 :    434.233505181463     
           3 :   -365.946185900712     
           4 :    288.656893820929     
           5 :   -220.370703807843     
           6 :    171.780864610456     
           7 :   -143.903676246809     
           8 :    130.144895280963     
           9 :   -121.258024306859     
          10 :    110.416107408489     
          11 :   -95.9112382991675     
          12 :    80.5328702032816     
          13 :   -68.5926108527660     
          14 :    62.6865376550574     
          15 :   -62.1020149703766     
          16 :    63.5294869111314     
          17 :   -63.3142563177809     
          18 :    59.6659886116402     
          19 :   -53.4764239274254     
          20 :    47.3997817906521     
          21 :   -43.9568654921890     
          22 :    43.9324141269652     
          23 :   -46.0288832611940     
          24 :    47.8604532500356     
          25 :   -47.5338521688680     
          26 :    44.7664734043508     
          27 :   -40.8887336383247     
          28 :    37.8375252084217     
          29 :   -36.8724953804985     
          30 :    37.8461005644222     
          31 :   -41.6743561769438     
          32 :   -30.3174308244518     

     Forces acting on atoms (Ry/au):


     negative rho (up, down):  7.137E-04 0.000E+00
     atom    1 type  1   force =     0.00042316    0.00025091    0.00340615
     atom    2 type  1   force =    -0.00041868    0.00023613    0.00340709
     atom    3 type  1   force =     0.00000251   -0.00047949    0.00338223
     atom    4 type  1   force =    -0.00001342   -0.00000842    0.00128945
     atom    5 type  1   force =     0.00000655   -0.00208717   -0.01328527
     atom    6 type  1   force =    -0.00000441    0.00000084    0.00263778
     atom    7 type  1   force =     0.00179215    0.00104185   -0.01328207
     atom    8 type  1   force =    -0.00179508    0.00104521   -0.01328388
     atom    9 type  1   force =     0.00000546   -0.00000895   -0.00697059
     atom   10 type  1   force =    -0.00000814    0.02072754    0.02761300
     atom   11 type  1   force =     0.01796431   -0.01036356    0.02760343
     atom   12 type  1   force =    -0.01795675   -0.01035713    0.02760805
     atom   13 type  2   force =     0.00000099    0.00000144   -0.01584985
     atom   14 type  3   force =     0.00000134    0.00000079   -0.03427551

     Total force =     0.071068     Total SCF correction =     0.001872


     entering subroutine stress ...


     negative rho (up, down):  7.137E-04 0.000E+00
          total   stress  (Ry/bohr**3)                   (kbar)     P=    3.01
   0.00003185  -0.00000000   0.00000000          4.69     -0.00      0.00
  -0.00000000   0.00003185   0.00000000         -0.00      4.69      0.00
   0.00000000   0.00000000  -0.00000230          0.00      0.00     -0.34


     BFGS Geometry Optimization

     number of scf cycles    =   1
     number of bfgs steps    =   0

     energy   new            =   -1949.7830640848 Ry

     new trust radius        =       0.0345269340 bohr
     new conv_thr            =       0.0000099958 Ry


ATOMIC_POSITIONS (crystal)
Sn1      0.166666667   0.166666667   0.392271209    0   0   0
Sn1      0.666666667   0.166666667   0.392271209    0   0   0
Sn1      0.166666667   0.666666667   0.392271209    0   0   0
Sn1      0.666666667   0.666666667   0.392271209    0   0   0
Sn1      0.833333333   0.333333333   0.500000000    0   0   0
Sn1      0.333333333   0.333333333   0.500000000    0   0   0
Sn1      0.833333333   0.833333333   0.500000000    0   0   0
Sn1      0.333333333   0.833333333   0.500000000    0   0   0
Sn1      0.000000836  -0.000000813   0.607584095
Sn1      0.499057975   0.001882770   0.608301985
Sn1      0.001883841   0.499058634   0.608301786
Sn1      0.499057828   0.499059218   0.608301882
N1       0.333333345   0.333333464   0.660944799
H1       0.333333403   0.333333405   0.701750794



     Writing output data file calc.save
     Check: negative starting charge=   -0.001395
     NEW-OLD atomic charge density approx. for the potential
     Check: negative starting charge=   -0.001391

     negative rho (up, down):  7.345E-04 0.000E+00
 
     Adding external electric field

     Computed dipole along edir(3) : 
        Dipole                0.1794 Ry au,          0.4561 Debye
        Dipole field          0.0003 Ry au
 
        Potential amp.       -0.0314 Ry
        Total length         46.9696 bohr
 

     total cpu time spent up to now is      692.6 secs

     per-process dynamical memory:   103.5 Mb

     Self-consistent Calculation

     iteration #  1     ecut=    36.75 Ry     beta=0.30
     Davidson diagonalization with overlap
     ethr =  1.00E-06,  avg # of iterations =  5.0

     negative rho (up, down):  7.256E-04 0.000E+00
 
     Adding external electric field

     Computed dipole along edir(3) : 
        Dipole               -0.4823 Ry au,         -1.2258 Debye
        Dipole field         -0.0009 Ry au
 
        Potential amp.        0.0844 Ry
        Total length         46.9696 bohr
 

     total cpu time spent up to now is      734.4 secs

     total energy              =   -1949.77271446 Ry
     Harris-Foulkes estimate   =   -1949.78868480 Ry
     estimated scf accuracy    <       0.03269388 Ry

     iteration #  2     ecut=    36.75 Ry     beta=0.30
     Davidson diagonalization with overlap
     ethr =  1.88E-05,  avg # of iterations =  8.0

     negative rho (up, down):  7.087E-04 0.000E+00
 
     Adding external electric field

     Computed dipole along edir(3) : 
        Dipole                0.1148 Ry au,          0.2917 Debye
        Dipole field          0.0002 Ry au
 
        Potential amp.       -0.0201 Ry
        Total length         46.9696 bohr
 

     total cpu time spent up to now is      767.0 secs

     total energy              =   -1949.71374014 Ry
     Harris-Foulkes estimate   =   -1949.86078625 Ry
     estimated scf accuracy    <       2.50091904 Ry

     iteration #  3     ecut=    36.75 Ry     beta=0.30
     Davidson diagonalization with overlap
     ethr =  1.88E-05,  avg # of iterations =  6.9

     negative rho (up, down):  7.114E-04 0.000E+00
 
     Adding external electric field

     Computed dipole along edir(3) : 
        Dipole                0.1067 Ry au,          0.2712 Debye
        Dipole field          0.0002 Ry au
 
        Potential amp.       -0.0187 Ry
        Total length         46.9696 bohr
 

     total cpu time spent up to now is      798.8 secs

     total energy              =   -1949.78739226 Ry
     Harris-Foulkes estimate   =   -1949.78815225 Ry
     estimated scf accuracy    <       0.00423018 Ry

     iteration #  4     ecut=    36.75 Ry     beta=0.30
     Davidson diagonalization with overlap
     ethr =  2.43E-06,  avg # of iterations =  3.5

     negative rho (up, down):  7.124E-04 0.000E+00
 
     Adding external electric field

     Computed dipole along edir(3) : 
        Dipole                0.1067 Ry au,          0.2711 Debye
        Dipole field          0.0002 Ry au
 
        Potential amp.       -0.0187 Ry
        Total length         46.9696 bohr
 

     total cpu time spent up to now is      826.3 secs

     total energy              =   -1949.78779054 Ry
     Harris-Foulkes estimate   =   -1949.78779535 Ry
     estimated scf accuracy    <       0.00007370 Ry

     iteration #  5     ecut=    36.75 Ry     beta=0.30
     Davidson diagonalization with overlap
     ethr =  4.24E-08,  avg # of iterations =  4.5

     negative rho (up, down):  7.131E-04 0.000E+00
 
     Adding external electric field

     Computed dipole along edir(3) : 
        Dipole                0.1054 Ry au,          0.2678 Debye
        Dipole field          0.0002 Ry au
 
        Potential amp.       -0.0184 Ry
        Total length         46.9696 bohr
 

     total cpu time spent up to now is      856.1 secs

     total energy              =   -1949.78781046 Ry
     Harris-Foulkes estimate   =   -1949.78781127 Ry
     estimated scf accuracy    <       0.00002141 Ry

     iteration #  6     ecut=    36.75 Ry     beta=0.30
     Davidson diagonalization with overlap
     ethr =  1.23E-08,  avg # of iterations =  3.0

     negative rho (up, down):  7.178E-04 0.000E+00

     negative rho (up, down):  7.178E-04 0.000E+00

     negative rho (up, down):  7.178E-04 0.000E+00

     negative rho (up, down):  7.178E-04 0.000E+00

     negative rho (up, down):  7.178E-04 0.000E+00

     negative rho (up, down):  7.178E-04 0.000E+00

     negative rho (up, down):  7.178E-04 0.000E+00

     negative rho (up, down):  7.178E-04 0.000E+00

     negative rho (up, down):  7.178E-04 0.000E+00

     negative rho (up, down):  7.178E-04 0.000E+00

     negative rho (up, down):  7.178E-04 0.000E+00

     negative rho (up, down):  7.178E-04 0.000E+00

     negative rho (up, down):  7.178E-04 0.000E+00

     negative rho (up, down):  7.178E-04 0.000E+00

     negative rho (up, down):  7.178E-04 0.000E+00

     negative rho (up, down):  7.178E-04 0.000E+00

     negative rho (up, down):  7.178E-04 0.000E+00

     negative rho (up, down):  7.178E-04 0.000E+00

     negative rho (up, down):  7.178E-04 0.000E+00

     negative rho (up, down):  7.178E-04 0.000E+00

     negative rho (up, down):  7.178E-04 0.000E+00

     negative rho (up, down):  7.178E-04 0.000E+00

     negative rho (up, down):  7.178E-04 0.000E+00

     negative rho (up, down):  7.178E-04 0.000E+00

     negative rho (up, down):  7.178E-04 0.000E+00

     negative rho (up, down):  7.178E-04 0.000E+00

     negative rho (up, down):  7.178E-04 0.000E+00

     negative rho (up, down):  7.178E-04 0.000E+00

     negative rho (up, down):  7.178E-04 0.000E+00

     negative rho (up, down):  7.178E-04 0.000E+00

     negative rho (up, down):  7.178E-04 0.000E+00

     negative rho (up, down):  7.178E-04 0.000E+00

     negative rho (up, down):  7.178E-04 0.000E+00

     negative rho (up, down):  7.178E-04 0.000E+00

     negative rho (up, down):  7.178E-04 0.000E+00
 
     Adding external electric field

     Computed dipole along edir(3) : 
        Dipole                0.1228 Ry au,          0.3121 Debye
        Dipole field          0.0002 Ry au
 
        Potential amp.       -0.0215 Ry
        Total length         46.9696 bohr
 

     total cpu time spent up to now is      958.9 secs

     End of self-consistent calculation

          k = 0.0000 0.0000 0.0000 ( 25377 PWs)   bands (ev):

   -21.1797 -21.1650 -21.1650 -21.1549 -21.1436 -21.1436 -21.1369 -21.1195
   -21.1195 -21.1165 -21.1093 -21.1047 -21.1005 -21.1005 -21.1001 -21.0980
   -21.0980 -21.0836 -21.0836 -21.0820 -21.0807 -21.0807 -21.0779 -21.0779
   -21.0753 -21.0695 -21.0695 -21.0647 -21.0529 -21.0529 -21.0476 -21.0347
   -21.0347 -21.0190 -21.0190 -21.0092 -21.0092 -20.9856 -20.9816 -20.9816
   -20.9783 -20.9783 -20.9779 -20.9655 -20.9577 -20.9492 -20.9492 -20.9422
   -20.9422 -20.9384 -20.9384 -20.9365 -20.9285 -20.9268 -20.9268 -20.9191
   -20.9191 -20.9088 -20.9088 -20.9063 -14.1884  -9.8134  -8.5914  -6.9646
    -5.9747  -5.8111  -5.8111  -5.4802  -5.4802  -5.4054  -4.6986  -4.6369
    -4.6369  -4.3059  -3.0633  -3.0633  -2.7185  -2.3808  -2.3808  -2.3121
    -1.7875  -1.6646  -1.6646  -0.3319  -0.3319  -0.2068   0.6778   1.8824
     1.8824   1.9683   2.5267   2.5267   2.8928   3.1762   3.4605   3.5531
     3.5531

          k = 0.0000 0.0286 0.0000 ( 25365 PWs)   bands (ev):

   -21.1716 -21.1589 -21.1545 -21.1486 -21.1396 -21.1343 -21.1311 -21.1182
   -21.1135 -21.1128 -21.1053 -21.1019 -21.1003 -21.0971 -21.0947 -21.0928
   -21.0899 -21.0859 -21.0855 -21.0817 -21.0812 -21.0763 -21.0752 -21.0719
   -21.0711 -21.0678 -21.0625 -21.0620 -21.0539 -21.0534 -21.0466 -21.0358
   -21.0354 -21.0215 -21.0188 -21.0164 -21.0132 -20.9901 -20.9858 -20.9836
   -20.9822 -20.9805 -20.9786 -20.9727 -20.9643 -20.9557 -20.9530 -20.9497
   -20.9485 -20.9431 -20.9412 -20.9390 -20.9336 -20.9307 -20.9300 -20.9263
   -20.9232 -20.9153 -20.9147 -20.9072 -14.1865  -9.6889  -8.4767  -6.8983
    -6.7345  -6.1663  -6.1033  -5.8306  -5.4021  -5.3771  -4.6352  -4.5270
    -4.4250  -4.2062  -2.7840  -2.6519  -2.4544  -2.3389  -2.2749  -2.1329
    -1.4585  -1.3100  -0.8750  -0.5979  -0.2760   0.2894   0.9692   1.1085
     1.7367   1.8158   2.3659   2.6504   2.7628   2.9112   3.1903   3.2827
     3.5709

          k = 0.0000 0.0572 0.0000 ( 25367 PWs)   bands (ev):

   -21.1575 -21.1425 -21.1356 -21.1287 -21.1272 -21.1215 -21.1145 -21.1134
   -21.1080 -21.1004 -21.0978 -21.0968 -21.0930 -21.0902 -21.0880 -21.0852
   -21.0851 -21.0816 -21.0782 -21.0771 -21.0731 -21.0720 -21.0675 -21.0653
   -21.0640 -21.0594 -21.0572 -21.0543 -21.0505 -21.0458 -21.0417 -21.0381
   -21.0348 -21.0346 -21.0269 -21.0225 -21.0148 -21.0054 -20.9989 -20.9938
   -20.9931 -20.9884 -20.9847 -20.9777 -20.9755 -20.9736 -20.9712 -20.9692
   -20.9592 -20.9557 -20.9522 -20.9461 -20.9461 -20.9414 -20.9388 -20.9364
   -20.9335 -20.9229 -20.9216 -20.9074 -14.1826  -9.3152  -8.1334  -7.8316
    -6.8322  -6.5305  -6.4048  -6.3519  -5.5695  -5.5140  -5.1602  -4.3502
    -4.2940  -3.7748  -2.1585  -2.1475  -2.0215  -1.8338  -1.6308  -1.0619
    -0.8248  -0.7985  -0.3682  -0.1008   0.2423   0.5194   0.7578   1.0023
     1.1945   1.6460   1.8002   2.0137   2.0325   2.4313   2.7662   3.2647
     3.2767

          k = 0.0000-0.0858 0.0000 ( 25386 PWs)   bands (ev):

   -21.1481 -21.1401 -21.1274 -21.1200 -21.1165 -21.1124 -21.1081 -21.1047
   -21.1015 -21.0956 -21.0940 -21.0915 -21.0861 -21.0839 -21.0821 -21.0808
   -21.0776 -21.0749 -21.0748 -21.0729 -21.0697 -21.0696 -21.0654 -21.0644
   -21.0629 -21.0629 -21.0584 -21.0558 -21.0453 -21.0438 -21.0431 -21.0375
   -21.0367 -21.0326 -21.0250 -21.0160 -21.0133 -21.0071 -21.0046 -21.0026
   -21.0019 -20.9983 -20.9947 -20.9885 -20.9864 -20.9825 -20.9772 -20.9744
   -20.9730 -20.9646 -20.9631 -20.9584 -20.9497 -20.9467 -20.9429 -20.9385
   -20.9374 -20.9238 -20.9225 -20.9074 -14.1806  -8.7040  -8.6821  -7.6059
    -7.5206  -6.5492  -6.5136  -6.0812  -5.8890  -5.5827  -5.4909  -4.3130
    -4.2939  -3.4569  -2.2967  -1.5785  -1.3214  -1.2143  -1.1913  -1.0129
    -0.8508  -0.5895  -0.1115   0.0777   0.5359   0.6462   0.8798   1.0560
     1.2710   1.4869   1.6711   1.8088   2.1030   2.1536   2.1845   2.4965
     2.6150

          k = 0.0248-0.0143 0.0000 ( 25365 PWs)   bands (ev):

   -21.1716 -21.1589 -21.1545 -21.1486 -21.1396 -21.1343 -21.1311 -21.1182
   -21.1135 -21.1128 -21.1053 -21.1019 -21.1003 -21.0971 -21.0947 -21.0928
   -21.0899 -21.0859 -21.0855 -21.0817 -21.0812 -21.0763 -21.0751 -21.0719
   -21.0711 -21.0678 -21.0625 -21.0620 -21.0539 -21.0534 -21.0466 -21.0358
   -21.0354 -21.0215 -21.0188 -21.0164 -21.0132 -20.9901 -20.9858 -20.9836
   -20.9822 -20.9805 -20.9786 -20.9727 -20.9643 -20.9557 -20.9530 -20.9497
   -20.9485 -20.9431 -20.9412 -20.9390 -20.9336 -20.9307 -20.9300 -20.9263
   -20.9232 -20.9153 -20.9147 -20.9072 -14.1865  -9.6889  -8.4767  -6.8983
    -6.7345  -6.1663  -6.1033  -5.8306  -5.4021  -5.3771  -4.6352  -4.5270
    -4.4250  -4.2062  -2.7840  -2.6519  -2.4544  -2.3389  -2.2749  -2.1329
    -1.4585  -1.3100  -0.8750  -0.5979  -0.2760   0.2894   0.9692   1.1085
     1.7367   1.8158   2.3659   2.6504   2.7628   2.9112   3.1903   3.2827
     3.5708

          k = 0.0248 0.0143 0.0000 ( 25365 PWs)   bands (ev):

   -21.1716 -21.1589 -21.1545 -21.1486 -21.1396 -21.1343 -21.1311 -21.1182
   -21.1135 -21.1128 -21.1053 -21.1019 -21.1003 -21.0971 -21.0947 -21.0928
   -21.0899 -21.0859 -21.0855 -21.0817 -21.0812 -21.0763 -21.0752 -21.0719
   -21.0711 -21.0678 -21.0625 -21.0620 -21.0539 -21.0534 -21.0466 -21.0358
   -21.0354 -21.0215 -21.0188 -21.0164 -21.0132 -20.9901 -20.9858 -20.9836
   -20.9822 -20.9805 -20.9786 -20.9727 -20.9643 -20.9557 -20.9530 -20.9497
   -20.9485 -20.9431 -20.9412 -20.9390 -20.9336 -20.9307 -20.9300 -20.9263
   -20.9232 -20.9153 -20.9147 -20.9072 -14.1865  -9.6889  -8.4767  -6.8983
    -6.7345  -6.1663  -6.1033  -5.8306  -5.4021  -5.3771  -4.6352  -4.5270
    -4.4250  -4.2062  -2.7840  -2.6519  -2.4544  -2.3389  -2.2749  -2.1329
    -1.4585  -1.3100  -0.8750  -0.5979  -0.2760   0.2894   0.9692   1.1085
     1.7367   1.8158   2.3659   2.6504   2.7628   2.9112   3.1903   3.2827
     3.5708

          k = 0.0248 0.0429 0.0000 ( 25362 PWs)   bands (ev):

   -21.1579 -21.1493 -21.1388 -21.1347 -21.1333 -21.1228 -21.1174 -21.1150
   -21.1088 -21.1027 -21.1013 -21.0976 -21.0956 -21.0932 -21.0924 -21.0877
   -21.0861 -21.0833 -21.0799 -21.0792 -21.0731 -21.0723 -21.0700 -21.0686
   -21.0643 -21.0619 -21.0607 -21.0542 -21.0511 -21.0495 -21.0447 -21.0371
   -21.0337 -21.0327 -21.0247 -21.0197 -21.0158 -21.0012 -20.9947 -20.9919
   -20.9867 -20.9860 -20.9816 -20.9786 -20.9754 -20.9705 -20.9630 -20.9598
   -20.9569 -20.9528 -20.9458 -20.9445 -20.9419 -20.9408 -20.9370 -20.9323
   -20.9309 -20.9232 -20.9173 -20.9115 -14.1836  -9.4398  -8.2475  -7.2726
    -7.1947  -6.6553  -6.3065  -6.1093  -5.5089  -5.1383  -4.9130  -4.6722
    -4.3262  -3.9518  -2.5023  -2.0827  -2.0158  -1.9155  -1.7719  -1.5837
    -1.1755  -0.7879  -0.4592  -0.2810   0.2366   0.5554   0.7731   0.9092
     1.1736   1.5109   1.9348   2.4138   2.6182   2.8233   2.9226   3.1389
     3.2363

          k = 0.0248-0.1001 0.0000 ( 25368 PWs)   bands (ev):

   -21.1431 -21.1326 -21.1265 -21.1210 -21.1167 -21.1147 -21.1103 -21.1052
   -21.1024 -21.0974 -21.0954 -21.0914 -21.0892 -21.0876 -21.0859 -21.0838
   -21.0802 -21.0774 -21.0748 -21.0721 -21.0702 -21.0691 -21.0664 -21.0636
   -21.0613 -21.0597 -21.0542 -21.0507 -21.0499 -21.0451 -21.0411 -21.0366
   -21.0329 -21.0310 -21.0276 -21.0220 -21.0152 -21.0113 -21.0077 -21.0052
   -21.0006 -20.9953 -20.9895 -20.9867 -20.9816 -20.9802 -20.9772 -20.9742
   -20.9691 -20.9664 -20.9571 -20.9562 -20.9494 -20.9473 -20.9434 -20.9385
   -20.9366 -20.9265 -20.9230 -20.9134 -14.1806  -8.9417  -8.1991  -7.7929
    -7.4671  -7.1091  -6.4530  -6.1704  -5.5887  -5.3994  -4.9458  -4.7865
    -4.1297  -3.6242  -2.2836  -1.9417  -1.7496  -1.2752  -1.0016  -0.8358
    -0.6323  -0.3355  -0.1279   0.0441   0.1755   0.5520   0.8533   1.0513
     1.1401   1.5907   1.7707   2.1131   2.2932   2.4377   2.5627   2.7614
     2.8784

          k = 0.0248-0.0715 0.0000 ( 25368 PWs)   bands (ev):

   -21.1431 -21.1326 -21.1265 -21.1210 -21.1167 -21.1147 -21.1103 -21.1052
   -21.1024 -21.0974 -21.0954 -21.0914 -21.0892 -21.0876 -21.0859 -21.0838
   -21.0802 -21.0774 -21.0748 -21.0721 -21.0702 -21.0691 -21.0664 -21.0636
   -21.0613 -21.0597 -21.0542 -21.0507 -21.0499 -21.0451 -21.0411 -21.0366
   -21.0329 -21.0310 -21.0276 -21.0220 -21.0152 -21.0113 -21.0077 -21.0052
   -21.0006 -20.9953 -20.9895 -20.9867 -20.9816 -20.9802 -20.9772 -20.9742
   -20.9691 -20.9664 -20.9571 -20.9562 -20.9494 -20.9473 -20.9434 -20.9385
   -20.9366 -20.9265 -20.9230 -20.9134 -14.1806  -8.9417  -8.1991  -7.7929
    -7.4670  -7.1091  -6.4530  -6.1704  -5.5887  -5.3994  -4.9458  -4.7865
    -4.1297  -3.6242  -2.2836  -1.9417  -1.7496  -1.2752  -1.0016  -0.8357
    -0.6323  -0.3354  -0.1279   0.0441   0.1755   0.5520   0.8533   1.0513
     1.1401   1.5907   1.7707   2.1131   2.2932   2.4377   2.5627   2.7614
     2.8784

          k = 0.0248-0.0429 0.0000 ( 25362 PWs)   bands (ev):

   -21.1579 -21.1493 -21.1388 -21.1347 -21.1333 -21.1228 -21.1174 -21.1150
   -21.1088 -21.1027 -21.1013 -21.0976 -21.0956 -21.0932 -21.0924 -21.0877
   -21.0861 -21.0833 -21.0799 -21.0792 -21.0731 -21.0723 -21.0700 -21.0686
   -21.0643 -21.0619 -21.0607 -21.0542 -21.0511 -21.0495 -21.0447 -21.0371
   -21.0337 -21.0327 -21.0247 -21.0197 -21.0158 -21.0012 -20.9947 -20.9919
   -20.9867 -20.9860 -20.9816 -20.9786 -20.9754 -20.9705 -20.9630 -20.9598
   -20.9569 -20.9528 -20.9458 -20.9445 -20.9419 -20.9408 -20.9370 -20.9323
   -20.9309 -20.9232 -20.9173 -20.9115 -14.1836  -9.4398  -8.2475  -7.2726
    -7.1947  -6.6553  -6.3065  -6.1093  -5.5089  -5.1383  -4.9130  -4.6722
    -4.3262  -3.9518  -2.5023  -2.0827  -2.0158  -1.9155  -1.7719  -1.5837
    -1.1755  -0.7879  -0.4592  -0.2810   0.2366   0.5554   0.7731   0.9092
     1.1736   1.5109   1.9348   2.4138   2.6182   2.8233   2.9226   3.1389
     3.2363

          k = 0.0496-0.0286 0.0000 ( 25367 PWs)   bands (ev):

   -21.1575 -21.1425 -21.1356 -21.1287 -21.1272 -21.1215 -21.1145 -21.1134
   -21.1080 -21.1004 -21.0978 -21.0968 -21.0930 -21.0902 -21.0880 -21.0852
   -21.0851 -21.0816 -21.0782 -21.0771 -21.0731 -21.0720 -21.0675 -21.0653
   -21.0640 -21.0594 -21.0572 -21.0543 -21.0505 -21.0458 -21.0417 -21.0381
   -21.0348 -21.0346 -21.0269 -21.0225 -21.0148 -21.0054 -20.9989 -20.9938
   -20.9931 -20.9884 -20.9847 -20.9777 -20.9755 -20.9736 -20.9712 -20.9692
   -20.9592 -20.9557 -20.9522 -20.9461 -20.9461 -20.9414 -20.9388 -20.9364
   -20.9335 -20.9229 -20.9216 -20.9074 -14.1826  -9.3152  -8.1334  -7.8316
    -6.8322  -6.5305  -6.4048  -6.3519  -5.5695  -5.5140  -5.1602  -4.3502
    -4.2940  -3.7748  -2.1585  -2.1475  -2.0215  -1.8338  -1.6308  -1.0619
    -0.8248  -0.7986  -0.3682  -0.1008   0.2423   0.5194   0.7578   1.0023
     1.1945   1.6460   1.8002   2.0137   2.0325   2.4313   2.7662   3.2647
     3.2767

          k = 0.0496 0.0000 0.0000 ( 25362 PWs)   bands (ev):

   -21.1579 -21.1493 -21.1388 -21.1348 -21.1333 -21.1228 -21.1174 -21.1150
   -21.1088 -21.1027 -21.1013 -21.0976 -21.0956 -21.0932 -21.0924 -21.0877
   -21.0861 -21.0833 -21.0799 -21.0792 -21.0731 -21.0723 -21.0700 -21.0686
   -21.0643 -21.0619 -21.0607 -21.0542 -21.0511 -21.0495 -21.0447 -21.0371
   -21.0337 -21.0327 -21.0247 -21.0197 -21.0158 -21.0012 -20.9947 -20.9919
   -20.9867 -20.9860 -20.9816 -20.9786 -20.9754 -20.9705 -20.9630 -20.9598
   -20.9569 -20.9528 -20.9458 -20.9445 -20.9419 -20.9408 -20.9370 -20.9323
   -20.9309 -20.9232 -20.9173 -20.9115 -14.1836  -9.4398  -8.2475  -7.2726
    -7.1947  -6.6553  -6.3065  -6.1093  -5.5089  -5.1383  -4.9130  -4.6722
    -4.3262  -3.9518  -2.5023  -2.0827  -2.0158  -1.9155  -1.7719  -1.5837
    -1.1755  -0.7879  -0.4592  -0.2810   0.2366   0.5554   0.7731   0.9092
     1.1736   1.5109   1.9348   2.4138   2.6182   2.8233   2.9226   3.1389
     3.2363

          k = 0.0496 0.0286 0.0000 ( 25367 PWs)   bands (ev):

   -21.1575 -21.1425 -21.1356 -21.1287 -21.1272 -21.1215 -21.1145 -21.1134
   -21.1080 -21.1004 -21.0978 -21.0968 -21.0930 -21.0902 -21.0880 -21.0852
   -21.0851 -21.0816 -21.0782 -21.0771 -21.0731 -21.0720 -21.0675 -21.0653
   -21.0640 -21.0594 -21.0572 -21.0543 -21.0505 -21.0458 -21.0417 -21.0381
   -21.0348 -21.0346 -21.0269 -21.0225 -21.0148 -21.0055 -20.9989 -20.9938
   -20.9931 -20.9884 -20.9847 -20.9777 -20.9755 -20.9736 -20.9712 -20.9692
   -20.9592 -20.9557 -20.9522 -20.9461 -20.9461 -20.9414 -20.9388 -20.9364
   -20.9335 -20.9229 -20.9216 -20.9074 -14.1826  -9.3152  -8.1334  -7.8316
    -6.8322  -6.5305  -6.4048  -6.3519  -5.5695  -5.5140  -5.1602  -4.3502
    -4.2940  -3.7748  -2.1585  -2.1475  -2.0215  -1.8338  -1.6308  -1.0619
    -0.8248  -0.7986  -0.3682  -0.1008   0.2423   0.5194   0.7578   1.0023
     1.1945   1.6460   1.8002   2.0137   2.0325   2.4313   2.7662   3.2647
     3.2767

          k = 0.0496-0.1144 0.0000 ( 25368 PWs)   bands (ev):

   -21.1432 -21.1326 -21.1265 -21.1210 -21.1167 -21.1147 -21.1103 -21.1052
   -21.1024 -21.0974 -21.0954 -21.0914 -21.0892 -21.0876 -21.0859 -21.0838
   -21.0802 -21.0774 -21.0748 -21.0721 -21.0702 -21.0691 -21.0664 -21.0636
   -21.0613 -21.0597 -21.0542 -21.0507 -21.0499 -21.0451 -21.0411 -21.0366
   -21.0329 -21.0310 -21.0276 -21.0220 -21.0152 -21.0113 -21.0077 -21.0052
   -21.0006 -20.9953 -20.9895 -20.9867 -20.9816 -20.9802 -20.9772 -20.9742
   -20.9691 -20.9664 -20.9571 -20.9562 -20.9494 -20.9473 -20.9434 -20.9385
   -20.9366 -20.9265 -20.9230 -20.9134 -14.1806  -8.9417  -8.1991  -7.7929
    -7.4671  -7.1091  -6.4530  -6.1704  -5.5887  -5.3994  -4.9458  -4.7865
    -4.1297  -3.6242  -2.2836  -1.9417  -1.7496  -1.2752  -1.0016  -0.8358
    -0.6323  -0.3354  -0.1279   0.0441   0.1755   0.5520   0.8533   1.0513
     1.1401   1.5907   1.7707   2.1131   2.2932   2.4377   2.5627   2.7614
     2.8784

          k = 0.0496-0.0858 0.0000 ( 25314 PWs)   bands (ev):

   -21.1273 -21.1208 -21.1172 -21.1157 -21.1110 -21.1101 -21.1096 -21.1055
   -21.1038 -21.1011 -21.0979 -21.0928 -21.0910 -21.0894 -21.0867 -21.0819
   -21.0806 -21.0758 -21.0742 -21.0695 -21.0690 -21.0678 -21.0616 -21.0604
   -21.0599 -21.0584 -21.0489 -21.0483 -21.0443 -21.0408 -21.0403 -21.0314
   -21.0310 -21.0293 -21.0275 -21.0238 -21.0223 -21.0222 -21.0171 -21.0112
   -21.0037 -20.9975 -20.9921 -20.9848 -20.9846 -20.9813 -20.9793 -20.9781
   -20.9747 -20.9644 -20.9606 -20.9568 -20.9559 -20.9511 -20.9440 -20.9398
   -20.9389 -20.9293 -20.9237 -20.9219 -14.1797  -8.3361  -8.3322  -8.2968
    -7.3366  -7.1635  -7.1444  -5.8456  -5.5591  -5.5477  -4.6391  -4.6100
    -4.3142  -3.5782  -2.4233  -1.9435  -1.3353  -1.2802  -1.2772  -0.6366
    -0.5525  -0.5520   0.4238   0.4477   0.5564   0.8240   0.8651   1.1518
     1.4918   1.5424   1.7106   1.9662   2.0968   2.2846   2.5351   2.5782
     2.8934

          k = 0.0496-0.0572 0.0000 ( 25368 PWs)   bands (ev):

   -21.1432 -21.1326 -21.1265 -21.1210 -21.1167 -21.1147 -21.1103 -21.1052
   -21.1024 -21.0974 -21.0954 -21.0914 -21.0892 -21.0876 -21.0859 -21.0838
   -21.0802 -21.0774 -21.0748 -21.0721 -21.0702 -21.0691 -21.0664 -21.0636
   -21.0613 -21.0597 -21.0542 -21.0507 -21.0499 -21.0451 -21.0411 -21.0366
   -21.0329 -21.0310 -21.0276 -21.0220 -21.0152 -21.0113 -21.0077 -21.0052
   -21.0006 -20.9953 -20.9895 -20.9867 -20.9816 -20.9802 -20.9772 -20.9742
   -20.9691 -20.9664 -20.9571 -20.9562 -20.9494 -20.9473 -20.9434 -20.9385
   -20.9366 -20.9265 -20.9230 -20.9134 -14.1806  -8.9417  -8.1991  -7.7929
    -7.4671  -7.1091  -6.4530  -6.1704  -5.5887  -5.3994  -4.9458  -4.7865
    -4.1297  -3.6242  -2.2836  -1.9417  -1.7496  -1.2752  -1.0016  -0.8358
    -0.6323  -0.3354  -0.1279   0.0441   0.1755   0.5520   0.8533   1.0513
     1.1401   1.5906   1.7707   2.1131   2.2932   2.4377   2.5627   2.7614
     2.8784

          k =-0.0743 0.0429 0.0000 ( 25386 PWs)   bands (ev):

   -21.1481 -21.1401 -21.1274 -21.1200 -21.1165 -21.1124 -21.1081 -21.1047
   -21.1015 -21.0956 -21.0940 -21.0915 -21.0861 -21.0839 -21.0821 -21.0808
   -21.0776 -21.0749 -21.0748 -21.0729 -21.0697 -21.0696 -21.0654 -21.0644
   -21.0629 -21.0629 -21.0584 -21.0558 -21.0453 -21.0438 -21.0431 -21.0375
   -21.0367 -21.0326 -21.0250 -21.0160 -21.0133 -21.0071 -21.0046 -21.0026
   -21.0019 -20.9983 -20.9947 -20.9885 -20.9864 -20.9825 -20.9772 -20.9744
   -20.9730 -20.9646 -20.9631 -20.9584 -20.9497 -20.9467 -20.9429 -20.9385
   -20.9374 -20.9238 -20.9225 -20.9073 -14.1806  -8.7040  -8.6821  -7.6059
    -7.5206  -6.5492  -6.5136  -6.0812  -5.8890  -5.5827  -5.4909  -4.3130
    -4.2939  -3.4569  -2.2967  -1.5785  -1.3214  -1.2143  -1.1913  -1.0129
    -0.8508  -0.5895  -0.1116   0.0777   0.5359   0.6462   0.8798   1.0560
     1.2710   1.4869   1.6711   1.8088   2.1030   2.1536   2.1845   2.4965
     2.6150

          k =-0.0743 0.0715 0.0000 ( 25368 PWs)   bands (ev):

   -21.1432 -21.1326 -21.1265 -21.1210 -21.1167 -21.1147 -21.1103 -21.1052
   -21.1024 -21.0974 -21.0954 -21.0914 -21.0892 -21.0876 -21.0859 -21.0838
   -21.0802 -21.0774 -21.0748 -21.0721 -21.0702 -21.0691 -21.0664 -21.0636
   -21.0612 -21.0597 -21.0542 -21.0507 -21.0499 -21.0451 -21.0411 -21.0366
   -21.0329 -21.0310 -21.0276 -21.0220 -21.0152 -21.0113 -21.0077 -21.0052
   -21.0006 -20.9953 -20.9895 -20.9867 -20.9816 -20.9802 -20.9772 -20.9742
   -20.9691 -20.9664 -20.9571 -20.9562 -20.9494 -20.9473 -20.9434 -20.9385
   -20.9366 -20.9265 -20.9230 -20.9134 -14.1806  -8.9417  -8.1991  -7.7929
    -7.4670  -7.1091  -6.4530  -6.1704  -5.5887  -5.3994  -4.9458  -4.7865
    -4.1297  -3.6242  -2.2836  -1.9417  -1.7496  -1.2752  -1.0016  -0.8357
    -0.6323  -0.3354  -0.1279   0.0441   0.1755   0.5520   0.8533   1.0513
     1.1401   1.5906   1.7707   2.1131   2.2932   2.4377   2.5627   2.7614
     2.8784

          k =-0.0743 0.1001 0.0000 ( 25368 PWs)   bands (ev):

   -21.1432 -21.1326 -21.1265 -21.1210 -21.1167 -21.1147 -21.1103 -21.1052
   -21.1024 -21.0974 -21.0954 -21.0914 -21.0892 -21.0876 -21.0859 -21.0838
   -21.0802 -21.0774 -21.0748 -21.0721 -21.0702 -21.0691 -21.0664 -21.0636
   -21.0613 -21.0597 -21.0542 -21.0507 -21.0499 -21.0451 -21.0411 -21.0366
   -21.0329 -21.0310 -21.0276 -21.0220 -21.0152 -21.0113 -21.0077 -21.0052
   -21.0006 -20.9953 -20.9895 -20.9867 -20.9816 -20.9802 -20.9772 -20.9742
   -20.9691 -20.9664 -20.9571 -20.9562 -20.9494 -20.9473 -20.9434 -20.9385
   -20.9366 -20.9265 -20.9230 -20.9134 -14.1806  -8.9417  -8.1991  -7.7929
    -7.4670  -7.1091  -6.4530  -6.1704  -5.5887  -5.3994  -4.9458  -4.7865
    -4.1297  -3.6242  -2.2836  -1.9417  -1.7496  -1.2752  -1.0016  -0.8357
    -0.6323  -0.3354  -0.1279   0.0441   0.1755   0.5520   0.8533   1.0513
     1.1401   1.5907   1.7707   2.1131   2.2932   2.4377   2.5627   2.7614
     2.8784

          k =-0.0743-0.0429 0.0000 ( 25386 PWs)   bands (ev):

   -21.1481 -21.1401 -21.1274 -21.1200 -21.1165 -21.1124 -21.1081 -21.1047
   -21.1016 -21.0956 -21.0940 -21.0915 -21.0861 -21.0838 -21.0821 -21.0808
   -21.0776 -21.0749 -21.0748 -21.0729 -21.0697 -21.0696 -21.0654 -21.0644
   -21.0629 -21.0629 -21.0584 -21.0558 -21.0453 -21.0438 -21.0431 -21.0375
   -21.0367 -21.0326 -21.0250 -21.0160 -21.0133 -21.0071 -21.0046 -21.0026
   -21.0019 -20.9983 -20.9947 -20.9885 -20.9864 -20.9825 -20.9772 -20.9744
   -20.9730 -20.9646 -20.9630 -20.9584 -20.9497 -20.9467 -20.9429 -20.9385
   -20.9374 -20.9238 -20.9225 -20.9073 -14.1806  -8.7040  -8.6821  -7.6059
    -7.5206  -6.5492  -6.5136  -6.0812  -5.8890  -5.5827  -5.4909  -4.3130
    -4.2939  -3.4569  -2.2967  -1.5785  -1.3214  -1.2143  -1.1913  -1.0129
    -0.8508  -0.5895  -0.1116   0.0777   0.5359   0.6462   0.8798   1.0560
     1.2710   1.4869   1.6711   1.8088   2.1030   2.1536   2.1845   2.4965
     2.6150

     the Fermi energy is     0.9278 ev

!    total energy              =   -1949.78781038 Ry
     Harris-Foulkes estimate   =   -1949.78780632 Ry
     estimated scf accuracy    <       0.00000629 Ry

     The total energy is the sum of the following terms:

     one-electron contribution =  -10670.23636147 Ry
     hartree contribution      =    5401.47558966 Ry
     xc contribution           =    -540.20504625 Ry
     ewald contribution        =    3859.22240669 Ry
     electric field correction =       0.00002811 Ry
     smearing contrib. (-TS)   =      -0.04442712 Ry

     convergence has been achieved in   6 iterations
 
 BEEF-vdW xc energy contributions
           1 :   -474.524224607316     
           2 :    434.248567169658     
           3 :   -365.960263600133     
           4 :    288.666842284717     
           5 :   -220.373928130777     
           6 :    171.777078491555     
           7 :   -143.895275910671     
           8 :    130.135767716852     
           9 :   -121.251694794383     
          10 :    110.414251244071     
          11 :   -95.9132042044550     
          12 :    80.5364078308961     
          13 :   -68.5954574129927     
          14 :    62.6878818280301     
          15 :   -62.1027030499217     
          16 :    63.5309795831693     
          17 :   -63.3173286736886     
          18 :    59.6697478797568     
          19 :   -53.4784504726160     
          20 :    47.3976712698561     
          21 :   -43.9501031054208     
          22 :    43.9231213269641     
          23 :   -46.0208303981857     
          24 :    47.8569955754488     
          25 :   -47.5360104141128     
          26 :    44.7723784884811     
          27 :   -40.8948381082905     
          28 :    37.8411153980275     
          29 :   -36.8738775745987     
          30 :    37.8485521556744     
          31 :   -41.6751173779707     
          32 :   -30.3180326578380     

     Forces acting on atoms (Ry/au):


     negative rho (up, down):  7.178E-04 0.000E+00
     atom    1 type  1   force =     0.00003655    0.00002150    0.00189312
     atom    2 type  1   force =    -0.00003309    0.00001819    0.00188799
     atom    3 type  1   force =     0.00000135   -0.00003727    0.00188708
     atom    4 type  1   force =     0.00000141   -0.00000235   -0.00002276
     atom    5 type  1   force =    -0.00000456   -0.00213068   -0.01310138
     atom    6 type  1   force =    -0.00000034    0.00000136    0.00424812
     atom    7 type  1   force =     0.00184529    0.00106664   -0.01310379
     atom    8 type  1   force =    -0.00184594    0.00106201   -0.01309960
     atom    9 type  1   force =     0.00000382   -0.00000686   -0.00643580
     atom   10 type  1   force =    -0.00000623    0.01861385    0.02598908
     atom   11 type  1   force =     0.01612410   -0.00930054    0.02599414
     atom   12 type  1   force =    -0.01612136   -0.00930526    0.02600273
     atom   13 type  2   force =    -0.00000061   -0.00000064   -0.02173470
     atom   14 type  3   force =    -0.00000038    0.00000004   -0.02040424

     Total force =     0.063221     Total SCF correction =     0.003734


     entering subroutine stress ...


     negative rho (up, down):  7.178E-04 0.000E+00
          total   stress  (Ry/bohr**3)                   (kbar)     P=    0.18
   0.00001103   0.00000000  -0.00000000          1.62      0.00     -0.00
   0.00000000   0.00001103  -0.00000000          0.00      1.62     -0.00
  -0.00000000  -0.00000000  -0.00001831         -0.00     -0.00     -2.69


     number of scf cycles    =   2
     number of bfgs steps    =   1

     energy   old            =   -1949.7830640848 Ry
     energy   new            =   -1949.7878103813 Ry

     CASE: energy  _new < energy  _old


     WARNING: bfgs curvature condition failed, Theta= 0.918
     new trust radius        =       0.0517904010 bohr
     new conv_thr            =       0.0000001000 Ry


ATOMIC_POSITIONS (crystal)
Sn1      0.166666667   0.166666667   0.392271209    0   0   0
Sn1      0.666666667   0.166666667   0.392271209    0   0   0
Sn1      0.166666667   0.666666667   0.392271209    0   0   0
Sn1      0.666666667   0.666666667   0.392271209    0   0   0
Sn1      0.833333333   0.333333333   0.500000000    0   0   0
Sn1      0.333333333   0.333333333   0.500000000    0   0   0
Sn1      0.833333333   0.833333333   0.500000000    0   0   0
Sn1      0.333333333   0.833333333   0.500000000    0   0   0
Sn1      0.000001897  -0.000001878   0.607367537
Sn1      0.497676483   0.004644078   0.609172058
Sn1      0.004645608   0.497678678   0.609171905
Sn1      0.497676649   0.497678985   0.609172251
N1       0.333333328   0.333333447   0.660277135
H1       0.333333394   0.333333438   0.700963382



     Writing output data file calc.save
     Check: negative starting charge=   -0.001391
     NEW-OLD atomic charge density approx. for the potential
     Check: negative starting charge=   -0.001385

     negative rho (up, down):  7.630E-04 0.000E+00
 
     Adding external electric field

     Computed dipole along edir(3) : 
        Dipole                0.2381 Ry au,          0.6053 Debye
        Dipole field          0.0004 Ry au
 
        Potential amp.       -0.0417 Ry
        Total length         46.9696 bohr
 

     total cpu time spent up to now is     1052.9 secs

     per-process dynamical memory:   103.5 Mb

     Self-consistent Calculation

     iteration #  1     ecut=    36.75 Ry     beta=0.30
     Davidson diagonalization with overlap
     ethr =  1.00E-06,  avg # of iterations =  7.3

     negative rho (up, down):  7.355E-04 0.000E+00
 
     Adding external electric field

     Computed dipole along edir(3) : 
        Dipole               -0.7115 Ry au,         -1.8085 Debye
        Dipole field         -0.0013 Ry au
 
        Potential amp.        0.1246 Ry
        Total length         46.9696 bohr
 

     total cpu time spent up to now is     1101.7 secs

     total energy              =   -1949.76179407 Ry
     Harris-Foulkes estimate   =   -1949.79523465 Ry
     estimated scf accuracy    <       0.06857061 Ry

     iteration #  2     ecut=    36.75 Ry     beta=0.30
     Davidson diagonalization with overlap
     ethr =  3.94E-05,  avg # of iterations =  8.3

     negative rho (up, down):  7.088E-04 0.000E+00
 
     Adding external electric field

     Computed dipole along edir(3) : 
        Dipole                0.1514 Ry au,          0.3849 Debye
        Dipole field          0.0003 Ry au
 
        Potential amp.       -0.0265 Ry
        Total length         46.9696 bohr
 

[...]
    -1.1340  -0.6674  -0.4034  -0.2233   0.2004   0.5684   0.8026   1.0383
     1.1747   1.6879   1.9439   2.4208   2.6196   2.9581   3.0794   3.1639
     3.2178

          k = 0.0496-0.0286 0.0000 ( 25367 PWs)   bands (ev):

   -21.1336 -21.0821 -21.0613 -21.0579 -21.0543 -21.0412 -21.0333 -21.0324
   -21.0296 -21.0242 -21.0201 -21.0198 -21.0132 -21.0102 -21.0094 -21.0069
   -20.9981 -20.9980 -20.9971 -20.9924 -20.9906 -20.9875 -20.9867 -20.9836
   -20.9833 -20.9780 -20.9765 -20.9733 -20.9708 -20.9677 -20.9649 -20.9637
   -20.9573 -20.9542 -20.9509 -20.9420 -20.9373 -20.9324 -20.9158 -20.9146
   -20.9022 -20.9013 -20.8931 -20.8908 -20.8801 -20.8791 -20.8765 -20.8722
   -20.8720 -20.8694 -20.8659 -20.8640 -20.8613 -20.8594 -20.8550 -20.8539
   -20.8490 -20.8386 -20.8294 -20.8236 -14.8034  -9.0651  -8.0188  -7.5906
    -6.9446  -6.5304  -6.1546  -6.1520  -5.6020  -5.5988  -5.1149  -4.3510
    -4.2775  -3.8109  -2.3091  -2.0271  -1.8712  -1.7933  -1.6598  -0.8931
    -0.7328  -0.6072  -0.3324  -0.1138   0.2793   0.5807   0.8377   1.1321
     1.3766   1.6918   1.8142   1.9728   2.2056   2.3920   2.8855   3.2717
     3.3228

          k = 0.0496 0.0000 0.0000 ( 25362 PWs)   bands (ev):

   -21.1375 -21.0838 -21.0682 -21.0629 -21.0514 -21.0486 -21.0389 -21.0354
   -21.0327 -21.0251 -21.0231 -21.0172 -21.0142 -21.0119 -21.0091 -21.0070
   -21.0054 -20.9995 -20.9964 -20.9938 -20.9897 -20.9891 -20.9875 -20.9866
   -20.9812 -20.9798 -20.9776 -20.9750 -20.9714 -20.9683 -20.9671 -20.9627
   -20.9600 -20.9521 -20.9503 -20.9409 -20.9381 -20.9338 -20.9146 -20.9035
   -20.9022 -20.8966 -20.8925 -20.8820 -20.8777 -20.8759 -20.8737 -20.8697
   -20.8682 -20.8673 -20.8656 -20.8619 -20.8583 -20.8558 -20.8529 -20.8497
   -20.8481 -20.8363 -20.8292 -20.8253 -14.8042  -9.1892  -8.1169  -7.1481
    -6.9285  -6.7568  -6.3513  -6.0193  -5.3645  -5.1249  -4.9071  -4.7051
    -4.3032  -3.9516  -2.3418  -2.1965  -2.0095  -1.8611  -1.5869  -1.4564
    -1.1340  -0.6675  -0.4034  -0.2232   0.2004   0.5684   0.8026   1.0383
     1.1747   1.6879   1.9439   2.4208   2.6197   2.9581   3.0794   3.1639
     3.2178

          k = 0.0496 0.0286 0.0000 ( 25367 PWs)   bands (ev):

   -21.1336 -21.0821 -21.0613 -21.0579 -21.0543 -21.0412 -21.0333 -21.0324
   -21.0296 -21.0242 -21.0201 -21.0198 -21.0132 -21.0102 -21.0094 -21.0069
   -20.9981 -20.9980 -20.9971 -20.9924 -20.9906 -20.9875 -20.9867 -20.9836
   -20.9833 -20.9780 -20.9765 -20.9732 -20.9708 -20.9677 -20.9649 -20.9637
   -20.9573 -20.9542 -20.9509 -20.9420 -20.9373 -20.9324 -20.9158 -20.9146
   -20.9022 -20.9013 -20.8931 -20.8908 -20.8801 -20.8791 -20.8765 -20.8722
   -20.8720 -20.8694 -20.8659 -20.8640 -20.8613 -20.8594 -20.8550 -20.8539
   -20.8490 -20.8386 -20.8294 -20.8236 -14.8034  -9.0651  -8.0188  -7.5906
    -6.9446  -6.5304  -6.1545  -6.1520  -5.6019  -5.5988  -5.1149  -4.3510
    -4.2775  -3.8108  -2.3092  -2.0271  -1.8712  -1.7933  -1.6598  -0.8931
    -0.7328  -0.6072  -0.3324  -0.1138   0.2793   0.5807   0.8377   1.1321
     1.3766   1.6918   1.8142   1.9728   2.2056   2.3920   2.8855   3.2717
     3.3228

          k = 0.0496-0.1144 0.0000 ( 25368 PWs)   bands (ev):

   -21.1233 -21.0754 -21.0546 -21.0473 -21.0420 -21.0385 -21.0285 -21.0256
   -21.0241 -21.0187 -21.0162 -21.0132 -21.0114 -21.0092 -21.0044 -21.0020
   -21.0011 -20.9968 -20.9963 -20.9940 -20.9902 -20.9883 -20.9868 -20.9818
   -20.9789 -20.9775 -20.9734 -20.9726 -20.9695 -20.9655 -20.9616 -20.9566
   -20.9556 -20.9511 -20.9483 -20.9453 -20.9385 -20.9311 -20.9245 -20.9229
   -20.9163 -20.9039 -20.9030 -20.8976 -20.8931 -20.8842 -20.8810 -20.8789
   -20.8747 -20.8722 -20.8696 -20.8686 -20.8654 -20.8625 -20.8593 -20.8566
   -20.8534 -20.8424 -20.8329 -20.8271 -14.8018  -8.6953  -7.9559  -7.7293
    -7.2475  -7.0580  -6.4744  -6.1709  -5.6421  -5.2340  -5.0204  -4.7563
    -4.0362  -3.7170  -2.5465  -1.9026  -1.5955  -1.2821  -0.8804  -0.7480
    -0.4687  -0.3418   0.0039   0.1715   0.2684   0.6645   0.9097   1.0627
     1.2852   1.6268   1.9199   2.2199   2.4237   2.4790   2.6011   2.7391
     2.9825

          k = 0.0496-0.0858 0.0000 ( 25314 PWs)   bands (ev):

   -21.1165 -21.0681 -21.0489 -21.0476 -21.0388 -21.0338 -21.0250 -21.0217
   -21.0210 -21.0194 -21.0191 -21.0106 -21.0085 -21.0077 -21.0036 -21.0032
   -21.0008 -20.9971 -20.9965 -20.9898 -20.9880 -20.9838 -20.9832 -20.9810
   -20.9763 -20.9739 -20.9733 -20.9713 -20.9703 -20.9693 -20.9601 -20.9572
   -20.9555 -20.9508 -20.9465 -20.9441 -20.9376 -20.9360 -20.9325 -20.9241
   -20.9178 -20.9176 -20.9035 -20.8986 -20.8901 -20.8861 -20.8840 -20.8833
   -20.8784 -20.8733 -20.8693 -20.8679 -20.8664 -20.8658 -20.8624 -20.8604
   -20.8553 -20.8446 -20.8384 -20.8293 -14.8010  -8.1826  -8.0579  -7.9817
    -7.4566  -7.0369  -6.9871  -5.8563  -5.6686  -5.6417  -4.6248  -4.4083
    -4.2243  -3.6883  -2.7348  -1.8323  -1.2073  -1.1919  -0.9641  -0.6608
    -0.6350  -0.5802   0.3785   0.5260   0.6009   1.0242   1.0630   1.1791
     1.6600   1.6818   1.7226   2.1374   2.2367   2.2626   2.4673   2.9528
     3.1875

          k = 0.0496-0.0572 0.0000 ( 25368 PWs)   bands (ev):

   -21.1233 -21.0754 -21.0546 -21.0473 -21.0420 -21.0385 -21.0285 -21.0256
   -21.0241 -21.0187 -21.0162 -21.0132 -21.0114 -21.0092 -21.0044 -21.0020
   -21.0011 -20.9968 -20.9963 -20.9940 -20.9902 -20.9883 -20.9868 -20.9818
   -20.9789 -20.9775 -20.9734 -20.9726 -20.9695 -20.9655 -20.9616 -20.9566
   -20.9556 -20.9511 -20.9483 -20.9453 -20.9385 -20.9311 -20.9245 -20.9229
   -20.9163 -20.9039 -20.9030 -20.8976 -20.8931 -20.8842 -20.8810 -20.8789
   -20.8747 -20.8722 -20.8696 -20.8686 -20.8654 -20.8625 -20.8593 -20.8566
   -20.8534 -20.8424 -20.8329 -20.8271 -14.8018  -8.6953  -7.9559  -7.7293
    -7.2475  -7.0580  -6.4744  -6.1709  -5.6421  -5.2340  -5.0204  -4.7562
    -4.0362  -3.7171  -2.5464  -1.9026  -1.5955  -1.2821  -0.8804  -0.7480
    -0.4687  -0.3418   0.0039   0.1715   0.2684   0.6645   0.9096   1.0627
     1.2852   1.6268   1.9198   2.2200   2.4237   2.4791   2.6011   2.7391
     2.9825

          k =-0.0743 0.0429 0.0000 ( 25386 PWs)   bands (ev):

   -21.1249 -21.0774 -21.0523 -21.0493 -21.0425 -21.0361 -21.0302 -21.0226
   -21.0222 -21.0195 -21.0147 -21.0106 -21.0087 -21.0080 -21.0078 -21.0006
   -21.0000 -20.9986 -20.9969 -20.9962 -20.9938 -20.9892 -20.9841 -20.9823
   -20.9807 -20.9781 -20.9777 -20.9714 -20.9695 -20.9646 -20.9624 -20.9582
   -20.9516 -20.9512 -20.9433 -20.9398 -20.9319 -20.9314 -20.9247 -20.9198
   -20.9187 -20.9141 -20.9050 -20.8979 -20.8917 -20.8902 -20.8860 -20.8805
   -20.8763 -20.8719 -20.8711 -20.8668 -20.8630 -20.8612 -20.8601 -20.8582
   -20.8536 -20.8404 -20.8306 -20.8238 -14.8018  -8.5044  -8.3812  -7.6327
    -7.3692  -6.4547  -6.2575  -6.0854  -5.9833  -5.6642  -5.3600  -4.3421
    -4.2577  -3.5627  -2.5136  -1.7419  -1.2193  -1.0804  -1.0006  -0.9028
    -0.7390  -0.4780  -0.0096   0.2104   0.6199   0.7033   1.0370   1.3383
     1.4092   1.5524   1.6615   1.7484   2.1634   2.2412   2.3341   2.4509
     2.7867

          k =-0.0743 0.0715 0.0000 ( 25368 PWs)   bands (ev):

   -21.1233 -21.0754 -21.0546 -21.0473 -21.0420 -21.0385 -21.0285 -21.0256
   -21.0241 -21.0187 -21.0162 -21.0132 -21.0114 -21.0092 -21.0044 -21.0020
   -21.0011 -20.9968 -20.9963 -20.9940 -20.9902 -20.9883 -20.9868 -20.9818
   -20.9789 -20.9775 -20.9734 -20.9726 -20.9695 -20.9655 -20.9616 -20.9566
   -20.9556 -20.9511 -20.9483 -20.9453 -20.9385 -20.9311 -20.9245 -20.9229
   -20.9163 -20.9039 -20.9030 -20.8976 -20.8931 -20.8842 -20.8810 -20.8789
   -20.8747 -20.8722 -20.8696 -20.8686 -20.8654 -20.8625 -20.8593 -20.8566
   -20.8534 -20.8424 -20.8329 -20.8271 -14.8018  -8.6953  -7.9559  -7.7292
    -7.2476  -7.0580  -6.4744  -6.1709  -5.6422  -5.2339  -5.0204  -4.7562
    -4.0363  -3.7172  -2.5464  -1.9027  -1.5954  -1.2821  -0.8805  -0.7479
    -0.4687  -0.3418   0.0039   0.1715   0.2684   0.6645   0.9097   1.0627
     1.2852   1.6268   1.9199   2.2199   2.4237   2.4790   2.6011   2.7391
     2.9825

          k =-0.0743 0.1001 0.0000 ( 25368 PWs)   bands (ev):

   -21.1233 -21.0754 -21.0546 -21.0473 -21.0420 -21.0385 -21.0285 -21.0256
   -21.0241 -21.0187 -21.0162 -21.0132 -21.0114 -21.0092 -21.0044 -21.0020
   -21.0011 -20.9968 -20.9963 -20.9940 -20.9902 -20.9883 -20.9868 -20.9818
   -20.9789 -20.9775 -20.9734 -20.9726 -20.9695 -20.9655 -20.9616 -20.9566
   -20.9556 -20.9511 -20.9483 -20.9453 -20.9385 -20.9311 -20.9245 -20.9229
   -20.9163 -20.9039 -20.9030 -20.8976 -20.8931 -20.8842 -20.8810 -20.8789
   -20.8747 -20.8722 -20.8696 -20.8686 -20.8654 -20.8625 -20.8593 -20.8566
   -20.8534 -20.8424 -20.8329 -20.8271 -14.8018  -8.6953  -7.9559  -7.7292
    -7.2476  -7.0580  -6.4744  -6.1708  -5.6422  -5.2339  -5.0204  -4.7562
    -4.0363  -3.7171  -2.5465  -1.9027  -1.5954  -1.2821  -0.8804  -0.7480
    -0.4687  -0.3419   0.0039   0.1715   0.2684   0.6645   0.9096   1.0628
     1.2851   1.6268   1.9198   2.2200   2.4237   2.4791   2.6011   2.7391
     2.9825

          k =-0.0743-0.0429 0.0000 ( 25386 PWs)   bands (ev):

   -21.1249 -21.0774 -21.0523 -21.0493 -21.0426 -21.0362 -21.0302 -21.0226
   -21.0222 -21.0195 -21.0147 -21.0106 -21.0087 -21.0080 -21.0078 -21.0006
   -21.0000 -20.9986 -20.9969 -20.9962 -20.9938 -20.9892 -20.9841 -20.9823
   -20.9807 -20.9781 -20.9777 -20.9714 -20.9695 -20.9646 -20.9624 -20.9582
   -20.9516 -20.9512 -20.9433 -20.9398 -20.9319 -20.9314 -20.9247 -20.9198
   -20.9187 -20.9141 -20.9050 -20.8979 -20.8917 -20.8902 -20.8860 -20.8805
   -20.8763 -20.8719 -20.8711 -20.8668 -20.8630 -20.8612 -20.8601 -20.8582
   -20.8536 -20.8404 -20.8306 -20.8238 -14.8018  -8.5044  -8.3812  -7.6327
    -7.3692  -6.4547  -6.2575  -6.0854  -5.9833  -5.6641  -5.3601  -4.3421
    -4.2577  -3.5626  -2.5137  -1.7419  -1.2193  -1.0804  -1.0006  -0.9028
    -0.7390  -0.4780  -0.0096   0.2104   0.6199   0.7033   1.0370   1.3383
     1.4091   1.5524   1.6615   1.7484   2.1634   2.2412   2.3340   2.4509
     2.7867

     the Fermi energy is     1.0069 ev

!    total energy              =   -1949.80772940 Ry
     Harris-Foulkes estimate   =   -1949.80772979 Ry
     estimated scf accuracy    <       0.00000004 Ry

     The total energy is the sum of the following terms:

     one-electron contribution =  -10294.88301682 Ry
     hartree contribution      =    5214.13518575 Ry
     xc contribution           =    -540.14220790 Ry
     ewald contribution        =    3671.12542893 Ry
     electric field correction =       0.00007786 Ry
     smearing contrib. (-TS)   =      -0.04319721 Ry

     convergence has been achieved in   8 iterations
 
 BEEF-vdW xc energy contributions
           1 :   -474.454963786919     
           2 :    434.096467735864     
           3 :   -365.683649644563     
           4 :    288.292071317589     
           5 :   -219.987545858666     
           6 :    171.480896121280     
           7 :   -143.751302697652     
           8 :    130.135602489646     
           9 :   -121.327271142423     
          10 :    110.479902608304     
          11 :   -95.9120756119083     
          12 :    80.4652017663235     
          13 :   -68.4968145803529     
          14 :    62.6183412857600     
          15 :   -62.0969882659158     
          16 :    63.5845833870193     
          17 :   -63.3953781141644     
          18 :    59.7320041928161     
          19 :   -53.5033958565383     
          20 :    47.3920511455930     
          21 :   -43.9397651150617     
          22 :    43.9326304654912     
          23 :   -46.0563140453343     
          24 :    47.9027496278478     
          25 :   -47.5657266573907     
          26 :    44.7669199501080     
          27 :   -40.8550800091811     
          28 :    37.7885664980902     
          29 :   -36.8385022994346     
          30 :    37.8514755176051     
          31 :   -41.6657307130783     
          32 :   -30.2820250207065     

     Forces acting on atoms (Ry/au):


     negative rho (up, down):  7.068E-04 0.000E+00
     atom    1 type  1   force =     0.00046335    0.00026726    0.00105873
     atom    2 type  1   force =    -0.00046323    0.00026682    0.00105912
     atom    3 type  1   force =    -0.00000013   -0.00053437    0.00105878
     atom    4 type  1   force =    -0.00000011    0.00000033   -0.00043864
     atom    5 type  1   force =    -0.00000067    0.00519901   -0.00546677
     atom    6 type  1   force =     0.00000004    0.00000059    0.01076851
     atom    7 type  1   force =    -0.00450117   -0.00259934   -0.00546613
     atom    8 type  1   force =     0.00450123   -0.00259946   -0.00546548
     atom    9 type  1   force =     0.00000128   -0.00000264    0.00138485
     atom   10 type  1   force =    -0.00000076    0.00027069    0.00025502
     atom   11 type  1   force =     0.00024559   -0.00013933    0.00025827
     atom   12 type  1   force =    -0.00024212   -0.00013980    0.00025643
     atom   13 type  2   force =    -0.00000467    0.00001302    0.00057392
     atom   14 type  3   force =     0.00000138   -0.00000276    0.00016338

     Total force =     0.001644     Total SCF correction =     0.000869
     SCF correction compared to forces is large: reduce conv_thr to get better values


     entering subroutine stress ...


     negative rho (up, down):  7.068E-04 0.000E+00
          total   stress  (Ry/bohr**3)                   (kbar)     P=   -0.74
   0.00000131   0.00000000  -0.00000000          0.19      0.00     -0.00
   0.00000000   0.00000131   0.00000000          0.00      0.19      0.00
  -0.00000000   0.00000000  -0.00001771         -0.00      0.00     -2.61


     bfgs converged in  27 scf cycles and  26 bfgs steps
     (criteria: energy <  1.0E+00, force <  1.9E-03)

     End of BFGS Geometry Optimization

     Final energy   =   -1949.8077293975 Ry
Begin final coordinates

ATOMIC_POSITIONS (crystal)
Sn1      0.166666667   0.166666667   0.392271209    0   0   0
Sn1      0.666666667   0.166666667   0.392271209    0   0   0
Sn1      0.166666667   0.666666667   0.392271209    0   0   0
Sn1      0.666666667   0.666666667   0.392271209    0   0   0
Sn1      0.833333333   0.333333333   0.500000000    0   0   0
Sn1      0.333333333   0.333333333   0.500000000    0   0   0
Sn1      0.833333333   0.833333333   0.500000000    0   0   0
Sn1      0.333333333   0.833333333   0.500000000    0   0   0
Sn1     -0.000008933   0.000009732   0.604320073
Sn1      0.497474654   0.005087264   0.622422775
Sn1      0.005085823   0.497440557   0.622423131
Sn1      0.497441169   0.497481070   0.622424701
N1       0.333342883   0.333324562   0.669240006
H1       0.333334413   0.333330051   0.709454440
End final coordinates



     Writing output data file calc.save
 
     init_run     :     15.06s CPU     15.40s WALL (       1 calls)
     electrons    :   9746.03s CPU  10444.71s WALL (      27 calls)
     update_pot   :    130.47s CPU    136.69s WALL (      26 calls)
     forces       :    620.84s CPU    658.88s WALL (      27 calls)
     stress       :   1800.63s CPU   1906.50s WALL (      27 calls)

     Called by init_run:
     wfcinit      :      4.90s CPU      4.99s WALL (       1 calls)
     potinit      :      2.84s CPU      2.98s WALL (       1 calls)

     Called by electrons:
     c_bands      :   3709.21s CPU   3863.75s WALL (     233 calls)
     sum_band     :   1702.22s CPU   1826.23s WALL (     233 calls)
     v_of_rho     :    618.46s CPU    675.49s WALL (     259 calls)
     newd         :   1550.63s CPU   1598.92s WALL (     259 calls)
     mix_rho      :     19.85s CPU     20.49s WALL (     233 calls)
     vdW_energy   :    478.62s CPU    548.42s WALL (    1231 calls)
     vdW_ffts     :   1259.23s CPU   1370.26s WALL (    2516 calls)
     vdW_v        :    382.94s CPU    404.91s WALL (    1231 calls)

     Called by c_bands:
     init_us_2    :     21.19s CPU     21.30s WALL (    2605 calls)
     cegterg      :   3529.75s CPU   3653.96s WALL (    1165 calls)

     Called by *egterg:
     h_psi        :   2297.26s CPU   2380.54s WALL (    7047 calls)
     s_psi        :    205.01s CPU    205.35s WALL (    7047 calls)
     g_psi        :     14.11s CPU     14.11s WALL (    5877 calls)
     cdiaghg      :    315.21s CPU    317.61s WALL (    6907 calls)

     Called by h_psi:
     add_vuspsi   :    209.83s CPU    210.26s WALL (    7047 calls)

     General routines
     calbec       :    318.90s CPU    326.43s WALL (    8482 calls)
     fft          :   1823.42s CPU   2015.75s WALL (   73905 calls)
     ffts         :      1.43s CPU      1.55s WALL (     492 calls)
     fftw         :   1396.65s CPU   1492.61s WALL (  724873 calls)
     interpolate  :     13.00s CPU     13.75s WALL (     492 calls)
     davcio       :      0.00s CPU      0.05s WALL (       5 calls)
 
     Parallel routines
     fft_scatter  :   2016.31s CPU   2291.81s WALL (  799270 calls)
 
     PWSCF        :     3h27m CPU        3h42m WALL

 
   This run was terminated on:   8: 6:28  23Apr2018            

=------------------------------------------------------------------------------=
   JOB DONE.
=------------------------------------------------------------------------------=
Job  /afs/slac/g/suncat/bin/suncat-tsmpirun -x LD_LIBRARY_PATH -wdir /scratch/qe395102_pLyX1 pw.x -npool 4 -in pw.inp

TID   HOST_NAME   COMMAND_LINE            STATUS            TERMINATION_TIME
===== ========== ================  =======================  ===================
00000 suncat0150 pw.x -npool 4 -i  Done                     04/23/2018 08:06:28
00001 suncat0150 pw.x -npool 4 -i  Done                     04/23/2018 08:06:28
00002 suncat0150 pw.x -npool 4 -i  Done                     04/23/2018 08:06:28
00003 suncat0150 pw.x -npool 4 -i  Done                     04/23/2018 08:06:28
00004 suncat0150 pw.x -npool 4 -i  Done                     04/23/2018 08:06:28
00005 suncat0150 pw.x -npool 4 -i  Done                     04/23/2018 08:06:28
00006 suncat0150 pw.x -npool 4 -i  Done                     04/23/2018 08:06:28
00007 suncat0150 pw.x -npool 4 -i  Done                     04/23/2018 08:06:28
00008 suncat0145 pw.x -npool 4 -i  Done                     04/23/2018 08:06:28
00009 suncat0145 pw.x -npool 4 -i  Done                     04/23/2018 08:06:28
00010 suncat0145 pw.x -npool 4 -i  Done                     04/23/2018 08:06:28
00011 suncat0145 pw.x -npool 4 -i  Done                     04/23/2018 08:06:28
00012 suncat0145 pw.x -npool 4 -i  Done                     04/23/2018 08:06:28
00013 suncat0145 pw.x -npool 4 -i  Done                     04/23/2018 08:06:28
00014 suncat0145 pw.x -npool 4 -i  Done                     04/23/2018 08:06:28
00015 suncat0145 pw.x -npool 4 -i  Done                     04/23/2018 08:06:28
00016 suncat0138 pw.x -npool 4 -i  Done                     04/23/2018 08:06:28
00017 suncat0138 pw.x -npool 4 -i  Done                     04/23/2018 08:06:28
00018 suncat0138 pw.x -npool 4 -i  Done                     04/23/2018 08:06:28
00019 suncat0138 pw.x -npool 4 -i  Done                     04/23/2018 08:06:28
00020 suncat0138 pw.x -npool 4 -i  Done                     04/23/2018 08:06:28
00021 suncat0138 pw.x -npool 4 -i  Done                     04/23/2018 08:06:28
00022 suncat0138 pw.x -npool 4 -i  Done                     04/23/2018 08:06:28
00023 suncat0138 pw.x -npool 4 -i  Done                     04/23/2018 08:06:28
00024 suncat0273 pw.x -npool 4 -i  Done                     04/23/2018 08:06:28
00025 suncat0273 pw.x -npool 4 -i  Done                     04/23/2018 08:06:28
00026 suncat0273 pw.x -npool 4 -i  Done                     04/23/2018 08:06:28
00027 suncat0273 pw.x -npool 4 -i  Done                     04/23/2018 08:06:28
00028 suncat0273 pw.x -npool 4 -i  Done                     04/23/2018 08:06:28
00029 suncat0273 pw.x -npool 4 -i  Done                     04/23/2018 08:06:28
00030 suncat0273 pw.x -npool 4 -i  Done                     04/23/2018 08:06:28
00031 suncat0273 pw.x -npool 4 -i  Done                     04/23/2018 08:06:28
