  python dir          : /home/mamunm/src/espresso
  espresso dir        : /home/vossj/suncat/esdld/espresso-dynpy-beef/bin
  pseudo dir          : /home/mamunm/src/pseudo/gbrv1.5pbe
  ase-espresso py git : GITVERSION



     Program PWSCF v.5.1rc2 (svn rev. ) starts on 18Apr2018 at 20:18: 7 

     This program is part of the open-source Quantum ESPRESSO suite
     for quantum simulation of materials; please cite
         "P. Giannozzi et al., J. Phys.:Condens. Matter 21 395502 (2009);
          URL http://www.quantum-espresso.org", 
     in publications or presentations arising from this work. More details at
     http://www.quantum-espresso.org/quote

     Parallel version (MPI), running on    16 processors
     R & G space division:  proc/nbgrp/npool/nimage =      16
     Reading input from pw.inp
     Message from routine read_cards :
     DEPRECATED: no units specified in CELL_PARAMETERS card

     Current dimensions of program PWSCF are:
     Max number of different atomic species (ntypx) = 10
     Max number of k-points (npk) =  40000
     Max angular momentum in pseudopotentials (lmaxx) =  3
     Presently stress not available with electric field


     **************************************************************************
     Initializing libbeef V0.1.1 with the BEEF-vdW functional.
     Citation: Wellendorff et al., PRB 85, 235149 (2012).
     **************************************************************************


     IMPORTANT: XC functional enforced from input :
     Exchange-correlation      = BEEF-VDW ( 1  4 27 13 2)
     Any further DFT definition will be discarded
     Please, verify this is what you really want


     Subspace diagonalization in iterative solution of the eigenvalue problem:
     a serial algorithm will be used

 
     Parallelization info
     --------------------
     sticks:   dense  smooth     PW     G-vecs:    dense   smooth      PW
     Min         246      99     28                48320    12209    1858
     Max         247     100     29                48333    12244    1874
     Sum        3949    1585    451               773273   195593   29841
 


     bravais-lattice index     =            0
     lattice parameter (alat)  =       1.8897  a.u.
     unit-cell volume          =    6501.5726 (a.u.)^3
     number of atoms/cell      =           14
     number of atomic types    =            3
     number of electrons       =       162.00
     number of Kohn-Sham states=           91
     kinetic-energy cutoff     =      36.7493  Ry
     charge density cutoff     =     367.4932  Ry
     convergence threshold     =      1.0E-05
     mixing beta               =       0.3000
     number of iterations used =           10  plain     mixing
     Exchange-correlation      = BEEF-VDW ( 1  4 27 13 2)
     nstep                     =           50


     celldm(1)=   1.889726  celldm(2)=   0.000000  celldm(3)=   0.000000
     celldm(4)=   0.000000  celldm(5)=   0.000000  celldm(6)=   0.000000

     crystal axes: (cart. coord. in units of alat)
               a(1) = (   6.617606   0.000000   0.000000 )  
               a(2) = (   3.308803   5.731015   0.000000 )  
               a(3) = (   0.000000   0.000000  25.403253 )  

     reciprocal axes: (cart. coord. in units 2 pi/alat)
               b(1) = (  0.151112 -0.087245  0.000000 )  
               b(2) = (  0.000000  0.174489  0.000000 )  
               b(3) = (  0.000000  0.000000  0.039365 )  


     PseudoPot. # 1 for In read from file:
     /home/mamunm/src/pseudo/gbrv1.5pbe/In.UPF
     MD5 check sum: 90777abd96fbb83f2e67db2a40c566b9
     Pseudo is Ultrasoft + core correction, Zval = 13.0
     Generated by new atomic code, or converted to UPF format
     Using radial grid of  889 points,  6 beta functions with: 
                l(1) =   0
                l(2) =   0
                l(3) =   1
                l(4) =   1
                l(5) =   2
                l(6) =   2
     Q(r) pseudized with  6 coefficients,  rinner =    1.400   1.400   1.400
                                                       1.400   1.400

     PseudoPot. # 2 for N  read from file:
     /home/mamunm/src/pseudo/gbrv1.5pbe/N.UPF
     MD5 check sum: 95339753478d7afb44899504a8723017
     Pseudo is Ultrasoft + core correction, Zval =  5.0
     Generated by new atomic code, or converted to UPF format
     Using radial grid of  729 points,  4 beta functions with: 
                l(1) =   0
                l(2) =   0
                l(3) =   1
                l(4) =   1
     Q(r) pseudized with  8 coefficients,  rinner =    0.900   0.900   0.900


     PseudoPot. # 3 for H  read from file:
     /home/mamunm/src/pseudo/gbrv1.5pbe/H.UPF
     MD5 check sum: 761ae9a214b05c3daf00ab9f6b793d6f
     Pseudo is Ultrasoft, Zval =  1.0
     Generated by new atomic code, or converted to UPF format
     Using radial grid of  615 points,  2 beta functions with: 
                l(1) =   0
                l(2) =   0
     Q(r) pseudized with  8 coefficients,  rinner =    0.700

     vdW kernel table read from file vdW_kernel_table
     MD5 check sum: 095c7af220d748ca6e76c0b4c6cfb241

     atomic species   valence    mass     pseudopotential
        In1           13.00   114.81800     In( 1.00)
        N1             5.00    14.00700     N ( 1.00)
        H1             1.00     1.00800     H ( 1.00)

     No symmetry found



   Cartesian axes

     site n.     atom                  positions (alat units)
         1           In1 tau(   1) = (   1.6544016   0.9551692  10.0000000  )
         2           In1 tau(   2) = (   4.9632047   0.9551692  10.0000000  )
         3           In1 tau(   3) = (   3.3088031   3.8206768  10.0000000  )
         4           In1 tau(   4) = (   6.6176063   3.8206768  10.0000000  )
         5           In1 tau(   5) = (   6.6176063   1.9103384  12.7016265  )
         6           In1 tau(   6) = (   3.3088031   1.9103384  12.7016265  )
         7           In1 tau(   7) = (   8.2720078   4.7758460  12.7016265  )
         8           In1 tau(   8) = (   4.9632047   4.7758460  12.7016265  )
         9           In1 tau(   9) = (   0.0000000   0.0000000  15.4032529  )
        10           In1 tau(  10) = (   3.3088031   0.0000000  15.4032529  )
        11           In1 tau(  11) = (   1.6544016   2.8655076  15.4032529  )
        12           In1 tau(  12) = (   4.9632047   2.8655076  15.4032529  )
        13           N1  tau(  13) = (   1.6544016   0.9551692  16.7877529  )
        14           H1  tau(  14) = (   1.6544016   0.9551692  17.8377529  )

     number of k points=    20  Fermi-Dirac smearing, width (Ry)=  0.0110
                       cart. coord. in units 2pi/alat
        k(    1) = (   0.0000000   0.0000000   0.0000000), wk =   0.0555556
        k(    2) = (   0.0000000   0.0290815   0.0000000), wk =   0.1111111
        k(    3) = (   0.0000000   0.0581631   0.0000000), wk =   0.1111111
        k(    4) = (   0.0000000  -0.0872446   0.0000000), wk =   0.0555556
        k(    5) = (   0.0251853  -0.0145408   0.0000000), wk =   0.1111111
        k(    6) = (   0.0251853   0.0145408   0.0000000), wk =   0.1111111
        k(    7) = (   0.0251853   0.0436223   0.0000000), wk =   0.1111111
        k(    8) = (   0.0251853  -0.1017853   0.0000000), wk =   0.1111111
        k(    9) = (   0.0251853  -0.0727038   0.0000000), wk =   0.1111111
        k(   10) = (   0.0251853  -0.0436223   0.0000000), wk =   0.1111111
        k(   11) = (   0.0503707  -0.0290815   0.0000000), wk =   0.1111111
        k(   12) = (   0.0503707   0.0000000   0.0000000), wk =   0.1111111
        k(   13) = (   0.0503707   0.0290815   0.0000000), wk =   0.1111111
        k(   14) = (   0.0503707  -0.1163261   0.0000000), wk =   0.1111111
        k(   15) = (   0.0503707  -0.0872446   0.0000000), wk =   0.1111111
        k(   16) = (   0.0503707  -0.0581631   0.0000000), wk =   0.1111111
        k(   17) = (  -0.0755560   0.0436223   0.0000000), wk =   0.0555556
        k(   18) = (  -0.0755560   0.0727038   0.0000000), wk =   0.1111111
        k(   19) = (  -0.0755560   0.1017853   0.0000000), wk =   0.1111111
        k(   20) = (  -0.0755560  -0.0436223   0.0000000), wk =   0.0555556

     Dense  grid:   773273 G-vectors     FFT dimensions: (  80,  80, 300)

     Smooth grid:   195593 G-vectors     FFT dimensions: (  50,  50, 192)

     Largest allocated arrays     est. size (Mb)     dimensions
        Kohn-Sham Wavefunctions         2.22 Mb     (    1596,   91)
        NL pseudopotentials             5.50 Mb     (    1596,  226)
        Each V/rho on FFT grid          1.86 Mb     (  121600)
        Each G-vector array             0.37 Mb     (   48320)
        G-vector shells                 0.14 Mb     (   17801)
     Largest temporary arrays     est. size (Mb)     dimensions
        Auxiliary wavefunctions         8.86 Mb     (    1596,  364)
        Each subspace H/S matrix        2.02 Mb     (     364,  364)
        Each <psi_i|beta_j> matrix      0.31 Mb     (     226,   91)
        Arrays for rho mixing          18.55 Mb     (  121600,   10)

     Initial potential from superposition of free atoms
     Check: negative starting charge=   -0.000168

     starting charge  143.99998, renormalised to  162.00000

     negative rho (up, down):  1.892E-04 0.000E+00


     ************************************************************************
     *
     * You are using vdW-DF for exchange-correlation in this calculation.
     * Please cite the following three references that made this development
     * possible:
     *
     *   M. Dion, H. Rydberg, E. Schroder, D. C. Langreth, and
     *   B. I. Lundqvist, Phys. Rev. Lett. 92, 246401 (2004).
     *
     *   T. Thonhauser, V. R. Cooper, S. Li, A. Puzder, P. Hyldgaard, and
     *   D. C. Langreth, Phys. Rev. B 76, 125112 (2007).
     *
     *   G. Roman-Perez and J. M. Soler, Phys. Rev. Lett. 103, 096102 (2009).
     *
     *
     * If you are using vdW-DF2, please also cite:
     *
     *   K. Lee, E. D. Murray, L. Kong, B. I. Lundqvist, and
     *   D. C. Langreth, Phys. Rev. B 82, 081101(R) (2010).
     *
     *
     * If you are calculating the stress with vdW-DF, please also cite:
     *
     *   R. Sabatini, E. Kucukbenli, B. Kolb, T. Thonhauser, and
     *   S. de Gironcoli, J. Phys.: Condens. Matter 24, 424209 (2012).
     *
     ************************************************************************

     Carrying out vdW-DF run using the following parameters:

     Nqs =      20    Nr_points =    1024   r_max =   100.000
     q_mesh =
               0.00001000     0.04494208     0.09755937     0.15916263
               0.23128650     0.31572767     0.41458969     0.53033537
               0.66584808     0.82450364     1.01025438     1.22772762
               1.48234092     1.78043706     2.12944203     2.53805004
               3.01644009     3.57652955     4.23227104     5.00000000

     Gradients computed in reciprocal space

     ************************************************************************


 
     Adding external electric field

     Computed dipole along edir(3) : 
        Dipole               -6.0391 Ry au,        -15.3499 Debye
        Dipole field         -0.0117 Ry au
 
        Potential amp.        1.0927 Ry
        Total length         46.8051 bohr
 
     Starting wfc are  113 randomized atomic wfcs

     total cpu time spent up to now is        9.9 secs

     Self-consistent Calculation

     iteration #  1     ecut=    36.75 Ry     beta=0.30
     Davidson diagonalization with overlap
     ethr =  1.00E-02,  avg # of iterations =  8.1

     negative rho (up, down):  1.210E-05 0.000E+00
 
     Adding external electric field

     Computed dipole along edir(3) : 
        Dipole              128.9503 Ry au,        327.7590 Debye
        Dipole field          0.2492 Ry au
 
        Potential amp.      -23.3312 Ry
        Total length         46.8051 bohr
 

     total cpu time spent up to now is       43.7 secs

     total energy              =   -1161.96662091 Ry
     Harris-Foulkes estimate   =   -1630.14122813 Ry
     estimated scf accuracy    <     999.67042035 Ry

     iteration #  2     ecut=    36.75 Ry     beta=0.30
     Davidson diagonalization with overlap
     ethr =  1.00E-02,  avg # of iterations = 22.6
 
     Adding external electric field

     Computed dipole along edir(3) : 
        Dipole               31.1744 Ry au,         79.2373 Debye
        Dipole field          0.0603 Ry au
 
        Potential amp.       -5.6404 Ry
        Total length         46.8051 bohr
 

     total cpu time spent up to now is      152.9 secs

     total energy              =   -1398.29285454 Ry
     Harris-Foulkes estimate   =   -2800.50888342 Ry
     estimated scf accuracy    <   13969.01071187 Ry

     iteration #  3     ecut=    36.75 Ry     beta=0.30
     Davidson diagonalization with overlap
     ethr =  1.00E-02,  avg # of iterations = 13.0
 
     Adding external electric field

     Computed dipole along edir(3) : 
        Dipole               29.2225 Ry au,         74.2761 Debye
        Dipole field          0.0565 Ry au
 
        Potential amp.       -5.2873 Ry
        Total length         46.8051 bohr
 

     total cpu time spent up to now is      219.7 secs

     total energy              =   -1587.07016478 Ry
     Harris-Foulkes estimate   =   -1906.82572058 Ry
     estimated scf accuracy    <    2816.19090580 Ry

     iteration #  4     ecut=    36.75 Ry     beta=0.30
     Davidson diagonalization with overlap
     ethr =  1.00E-02,  avg # of iterations = 14.8
 
     Adding external electric field

     Computed dipole along edir(3) : 
        Dipole               21.5409 Ry au,         54.7514 Debye
        Dipole field          0.0416 Ry au
 
        Potential amp.       -3.8974 Ry
        Total length         46.8051 bohr
 

     total cpu time spent up to now is      275.6 secs

     total energy              =   -1651.42668663 Ry
     Harris-Foulkes estimate   =   -1666.34538458 Ry
     estimated scf accuracy    <      68.75474324 Ry

     iteration #  5     ecut=    36.75 Ry     beta=0.30
     Davidson diagonalization with overlap
     ethr =  1.00E-02,  avg # of iterations =  2.2
 
     Adding external electric field

     Computed dipole along edir(3) : 
        Dipole               15.5307 Ry au,         39.4750 Debye
        Dipole field          0.0300 Ry au
 
        Potential amp.       -2.8100 Ry
        Total length         46.8051 bohr
 

     total cpu time spent up to now is      293.4 secs

     total energy              =   -1642.01605256 Ry
     Harris-Foulkes estimate   =   -1653.27748473 Ry
     estimated scf accuracy    <      69.90265197 Ry

     iteration #  6     ecut=    36.75 Ry     beta=0.30
     Davidson diagonalization with overlap
     ethr =  1.00E-02,  avg # of iterations =  3.0
 
     Adding external electric field

     Computed dipole along edir(3) : 
        Dipole               11.8861 Ry au,         30.2113 Debye
        Dipole field          0.0230 Ry au
 
        Potential amp.       -2.1506 Ry
        Total length         46.8051 bohr
 

     total cpu time spent up to now is      311.7 secs

     total energy              =   -1641.29146561 Ry
     Harris-Foulkes estimate   =   -1643.90735276 Ry
     estimated scf accuracy    <      13.14469772 Ry

     iteration #  7     ecut=    36.75 Ry     beta=0.30
     Davidson diagonalization with overlap
     ethr =  8.11E-03,  avg # of iterations =  1.0
 
     Adding external electric field

     Computed dipole along edir(3) : 
        Dipole                9.8270 Ry au,         24.9777 Debye
        Dipole field          0.0190 Ry au
 
        Potential amp.       -1.7780 Ry
        Total length         46.8051 bohr
 

     total cpu time spent up to now is      328.1 secs

     total energy              =   -1640.56047976 Ry
     Harris-Foulkes estimate   =   -1641.64088138 Ry
     estimated scf accuracy    <       8.10882700 Ry

     iteration #  8     ecut=    36.75 Ry     beta=0.30
     Davidson diagonalization with overlap
     ethr =  5.01E-03,  avg # of iterations =  1.0

     negative rho (up, down):  1.912E-07 0.000E+00
 
     Adding external electric field

     Computed dipole along edir(3) : 
        Dipole                2.8124 Ry au,          7.1484 Debye
        Dipole field          0.0054 Ry au
 
        Potential amp.       -0.5088 Ry
        Total length         46.8051 bohr
 

     total cpu time spent up to now is      344.7 secs

     total energy              =   -1638.37675231 Ry
     Harris-Foulkes estimate   =   -1640.79480271 Ry
     estimated scf accuracy    <       6.76127786 Ry

     iteration #  9     ecut=    36.75 Ry     beta=0.30
     Davidson diagonalization with overlap
     ethr =  4.17E-03,  avg # of iterations =  3.0
 
     Adding external electric field

     Computed dipole along edir(3) : 
        Dipole                3.3659 Ry au,          8.5552 Debye
        Dipole field          0.0065 Ry au
 
        Potential amp.       -0.6090 Ry
        Total length         46.8051 bohr
 

     total cpu time spent up to now is      363.9 secs

     total energy              =   -1638.80900466 Ry
     Harris-Foulkes estimate   =   -1638.98636448 Ry
     estimated scf accuracy    <       1.06839462 Ry

     iteration # 10     ecut=    36.75 Ry     beta=0.30
     Davidson diagonalization with overlap
     ethr =  6.60E-04,  avg # of iterations =  3.0

     negative rho (up, down):  8.057E-02 0.000E+00
 
     Adding external electric field

     Computed dipole along edir(3) : 
        Dipole               -0.3808 Ry au,         -0.9679 Debye
        Dipole field         -0.0007 Ry au
 
        Potential amp.        0.0689 Ry
        Total length         46.8051 bohr
 

     total cpu time spent up to now is      382.3 secs

     total energy              =   -1638.71828758 Ry
     Harris-Foulkes estimate   =   -1638.95524496 Ry
     estimated scf accuracy    <       0.44673524 Ry

     iteration # 11     ecut=    36.75 Ry     beta=0.30
     Davidson diagonalization with overlap
     ethr =  2.76E-04,  avg # of iterations =  8.9

     negative rho (up, down):  3.016E-02 0.000E+00
 
     Adding external electric field

     Computed dipole along edir(3) : 
        Dipole                1.2463 Ry au,          3.1677 Debye
        Dipole field          0.0024 Ry au
 
        Potential amp.       -0.2255 Ry
        Total length         46.8051 bohr
 

     total cpu time spent up to now is      410.7 secs

     total energy              =   -1638.49936290 Ry
     Harris-Foulkes estimate   =   -1639.13758630 Ry
     estimated scf accuracy    <       9.23923937 Ry

     iteration # 12     ecut=    36.75 Ry     beta=0.30
     Davidson diagonalization with overlap
     ethr =  2.76E-04,  avg # of iterations =  7.8

     negative rho (up, down):  2.075E-02 0.000E+00
 
     Adding external electric field

     Computed dipole along edir(3) : 
        Dipole                0.9066 Ry au,          2.3044 Debye
        Dipole field          0.0018 Ry au
 
        Potential amp.       -0.1640 Ry
        Total length         46.8051 bohr
 

     total cpu time spent up to now is      434.5 secs

     total energy              =   -1638.77178625 Ry
     Harris-Foulkes estimate   =   -1638.86718046 Ry
     estimated scf accuracy    <       1.00531949 Ry

     iteration # 13     ecut=    36.75 Ry     beta=0.30
     Davidson diagonalization with overlap
     ethr =  2.76E-04,  avg # of iterations =  2.6

     negative rho (up, down):  7.437E-03 0.000E+00
 
     Adding external electric field

     Computed dipole along edir(3) : 
        Dipole                0.9539 Ry au,          2.4247 Debye
        Dipole field          0.0018 Ry au
 
        Potential amp.       -0.1726 Ry
        Total length         46.8051 bohr
 

     total cpu time spent up to now is      451.9 secs

     total energy              =   -1638.79164798 Ry
     Harris-Foulkes estimate   =   -1638.79863610 Ry
     estimated scf accuracy    <       0.07474318 Ry

     iteration # 14     ecut=    36.75 Ry     beta=0.30
     Davidson diagonalization with overlap
     ethr =  4.61E-05,  avg # of iterations =  5.7

     negative rho (up, down):  3.078E-03 0.000E+00
 
     Adding external electric field

     Computed dipole along edir(3) : 
        Dipole                0.6676 Ry au,          1.6969 Debye
        Dipole field          0.0013 Ry au
 
        Potential amp.       -0.1208 Ry
        Total length         46.8051 bohr
 

     total cpu time spent up to now is      473.3 secs

     total energy              =   -1638.79106809 Ry
     Harris-Foulkes estimate   =   -1638.79866817 Ry
     estimated scf accuracy    <       0.01808617 Ry

     iteration # 15     ecut=    36.75 Ry     beta=0.30
     Davidson diagonalization with overlap
     ethr =  1.12E-05,  avg # of iterations =  3.8

     negative rho (up, down):  2.726E-03 0.000E+00
 
     Adding external electric field

     Computed dipole along edir(3) : 
        Dipole                0.4502 Ry au,          1.1442 Debye
        Dipole field          0.0009 Ry au
 
        Potential amp.       -0.0814 Ry
        Total length         46.8051 bohr
 

     total cpu time spent up to now is      491.9 secs

     total energy              =   -1638.78750274 Ry
     Harris-Foulkes estimate   =   -1638.79284854 Ry
     estimated scf accuracy    <       0.03359791 Ry

     iteration # 16     ecut=    36.75 Ry     beta=0.30
     Davidson diagonalization with overlap
     ethr =  1.12E-05,  avg # of iterations =  2.7

     negative rho (up, down):  1.938E-03 0.000E+00
 
     Adding external electric field

     Computed dipole along edir(3) : 
        Dipole                0.3573 Ry au,          0.9083 Debye
        Dipole field          0.0007 Ry au
 
        Potential amp.       -0.0647 Ry
        Total length         46.8051 bohr
 

     total cpu time spent up to now is      509.7 secs

     total energy              =   -1638.78659717 Ry
     Harris-Foulkes estimate   =   -1638.78821839 Ry
     estimated scf accuracy    <       0.00879911 Ry

     iteration # 17     ecut=    36.75 Ry     beta=0.30
     Davidson diagonalization with overlap
     ethr =  5.43E-06,  avg # of iterations =  2.9

     negative rho (up, down):  1.105E-03 0.000E+00
 
     Adding external electric field

     Computed dipole along edir(3) : 
        Dipole                0.2007 Ry au,          0.5101 Debye
        Dipole field          0.0004 Ry au
 
        Potential amp.       -0.0363 Ry
        Total length         46.8051 bohr
 

     total cpu time spent up to now is      527.3 secs

     total energy              =   -1638.78478120 Ry
     Harris-Foulkes estimate   =   -1638.78680499 Ry
     estimated scf accuracy    <       0.00659869 Ry

     iteration # 18     ecut=    36.75 Ry     beta=0.30
     Davidson diagonalization with overlap
     ethr =  4.07E-06,  avg # of iterations =  4.5

     negative rho (up, down):  1.046E-03 0.000E+00
 
     Adding external electric field

     Computed dipole along edir(3) : 
        Dipole                0.0969 Ry au,          0.2462 Debye
        Dipole field          0.0002 Ry au
 
        Potential amp.       -0.0175 Ry
        Total length         46.8051 bohr
 

     total cpu time spent up to now is      547.0 secs

     total energy              =   -1638.78445474 Ry
     Harris-Foulkes estimate   =   -1638.78499569 Ry
     estimated scf accuracy    <       0.00228953 Ry

     iteration # 19     ecut=    36.75 Ry     beta=0.30
     Davidson diagonalization with overlap
     ethr =  1.41E-06,  avg # of iterations =  4.3

     negative rho (up, down):  1.320E-03 0.000E+00
 
     Adding external electric field

     Computed dipole along edir(3) : 
        Dipole                0.0225 Ry au,          0.0572 Debye
        Dipole field          0.0000 Ry au
 
        Potential amp.       -0.0041 Ry
        Total length         46.8051 bohr
 

     total cpu time spent up to now is      566.0 secs

     total energy              =   -1638.78449953 Ry
     Harris-Foulkes estimate   =   -1638.78454153 Ry
     estimated scf accuracy    <       0.00054785 Ry

     iteration # 20     ecut=    36.75 Ry     beta=0.30
     Davidson diagonalization with overlap
     ethr =  3.38E-07,  avg # of iterations =  2.9

     negative rho (up, down):  1.153E-03 0.000E+00
 
     Adding external electric field

     Computed dipole along edir(3) : 
        Dipole                0.0053 Ry au,          0.0135 Debye
        Dipole field          0.0000 Ry au
 
        Potential amp.       -0.0010 Ry
        Total length         46.8051 bohr
 

     total cpu time spent up to now is      584.3 secs

     total energy              =   -1638.78455216 Ry
     Harris-Foulkes estimate   =   -1638.78452704 Ry
     estimated scf accuracy    <       0.00006123 Ry

     iteration # 21     ecut=    36.75 Ry     beta=0.30
     Davidson diagonalization with overlap
     ethr =  3.78E-08,  avg # of iterations =  3.2

     negative rho (up, down):  1.244E-03 0.000E+00
 
     Adding external electric field

     Computed dipole along edir(3) : 
        Dipole               -0.0063 Ry au,         -0.0160 Debye
        Dipole field         -0.0000 Ry au
 
        Potential amp.        0.0011 Ry
        Total length         46.8051 bohr
 

     total cpu time spent up to now is      602.5 secs

     total energy              =   -1638.78455959 Ry
     Harris-Foulkes estimate   =   -1638.78455455 Ry
     estimated scf accuracy    <       0.00002197 Ry

     iteration # 22     ecut=    36.75 Ry     beta=0.30
     Davidson diagonalization with overlap
     ethr =  1.36E-08,  avg # of iterations =  2.5

     negative rho (up, down):  1.322E-03 0.000E+00

     negative rho (up, down):  1.322E-03 0.000E+00

     negative rho (up, down):  1.322E-03 0.000E+00

     negative rho (up, down):  1.322E-03 0.000E+00

     negative rho (up, down):  1.322E-03 0.000E+00

     negative rho (up, down):  1.322E-03 0.000E+00

     negative rho (up, down):  1.322E-03 0.000E+00

     negative rho (up, down):  1.322E-03 0.000E+00

     negative rho (up, down):  1.322E-03 0.000E+00

     negative rho (up, down):  1.322E-03 0.000E+00

     negative rho (up, down):  1.322E-03 0.000E+00

     negative rho (up, down):  1.322E-03 0.000E+00

     negative rho (up, down):  1.322E-03 0.000E+00

     negative rho (up, down):  1.322E-03 0.000E+00

     negative rho (up, down):  1.322E-03 0.000E+00

     negative rho (up, down):  1.322E-03 0.000E+00

     negative rho (up, down):  1.322E-03 0.000E+00

     negative rho (up, down):  1.322E-03 0.000E+00

     negative rho (up, down):  1.322E-03 0.000E+00

     negative rho (up, down):  1.322E-03 0.000E+00

     negative rho (up, down):  1.322E-03 0.000E+00

     negative rho (up, down):  1.322E-03 0.000E+00

     negative rho (up, down):  1.322E-03 0.000E+00

     negative rho (up, down):  1.322E-03 0.000E+00

     negative rho (up, down):  1.322E-03 0.000E+00

     negative rho (up, down):  1.322E-03 0.000E+00

     negative rho (up, down):  1.322E-03 0.000E+00

     negative rho (up, down):  1.322E-03 0.000E+00

     negative rho (up, down):  1.322E-03 0.000E+00

     negative rho (up, down):  1.322E-03 0.000E+00

     negative rho (up, down):  1.322E-03 0.000E+00

     negative rho (up, down):  1.322E-03 0.000E+00

     negative rho (up, down):  1.322E-03 0.000E+00

     negative rho (up, down):  1.322E-03 0.000E+00

     negative rho (up, down):  1.322E-03 0.000E+00
 
     Adding external electric field

     Computed dipole along edir(3) : 
        Dipole               -0.0333 Ry au,         -0.0847 Debye
        Dipole field         -0.0001 Ry au
 
        Potential amp.        0.0060 Ry
        Total length         46.8051 bohr
 

     total cpu time spent up to now is      644.8 secs

     End of self-consistent calculation

          k = 0.0000 0.0000 0.0000 ( 24345 PWs)   bands (ev):

   -14.8773 -14.5034 -14.5034 -14.4920 -14.4134 -14.4134 -14.4046 -14.3909
   -14.3909 -14.3873 -14.3860 -14.3597 -14.3597 -14.3403 -14.3272 -14.3228
   -14.3228 -14.3084 -14.3015 -14.3015 -14.2821 -14.2821 -14.2707 -14.2707
   -14.2674 -14.2606 -14.2580 -14.2580 -14.2262 -14.2262 -14.1485 -14.1485
   -14.1209 -14.1189 -14.1189 -14.1107 -14.0792 -14.0792 -14.0736 -14.0736
   -14.0696 -14.0319 -14.0319 -14.0287 -14.0287 -14.0249 -14.0097 -14.0097
   -14.0026 -14.0026 -14.0023 -13.9951 -13.9677 -13.9660 -13.9660 -13.9635
   -13.9635 -13.9147 -13.9147 -13.9132 -13.3281  -8.5180  -7.1925  -5.4971
    -4.3621  -3.8491  -3.8491  -3.6639  -3.4983  -3.4983  -3.2582  -2.5834
    -2.5834  -2.0066  -2.0066  -1.9965  -1.6517  -1.0826  -1.0480  -1.0480
    -0.1705  -0.1705  -0.1134   0.9992   0.9992   1.1338   1.8301   3.3395
     3.3824   3.3824   3.4673

          k = 0.0000 0.0291 0.0000 ( 24403 PWs)   bands (ev):

   -14.8663 -14.4916 -14.4814 -14.4723 -14.4047 -14.4044 -14.3944 -14.3795
   -14.3768 -14.3670 -14.3659 -14.3531 -14.3435 -14.3391 -14.3204 -14.3171
   -14.3056 -14.3046 -14.2952 -14.2942 -14.2864 -14.2767 -14.2738 -14.2664
   -14.2612 -14.2549 -14.2480 -14.2385 -14.2206 -14.2133 -14.1573 -14.1498
   -14.1387 -14.1259 -14.1187 -14.1092 -14.0907 -14.0872 -14.0860 -14.0798
   -14.0798 -14.0488 -14.0448 -14.0387 -14.0383 -14.0321 -14.0255 -14.0159
   -14.0139 -14.0100 -14.0065 -14.0040 -13.9867 -13.9838 -13.9830 -13.9746
   -13.9700 -13.9361 -13.9335 -13.9267 -13.3171  -8.3831  -7.0715  -5.5081
    -5.0270  -4.4735  -4.2857  -4.0558  -3.5878  -3.4037  -3.0584  -2.3512
    -2.3088  -1.9978  -1.8720  -1.5492  -1.2621  -1.0950  -0.7522  -0.5691
    -0.1054  -0.0504   0.3883   1.1588   1.3264   1.6769   2.2882   2.5049
     3.1190   3.3173   3.6003

          k = 0.0000 0.0582 0.0000 ( 24465 PWs)   bands (ev):

   -14.8428 -14.4652 -14.4283 -14.4189 -14.3908 -14.3794 -14.3772 -14.3681
   -14.3437 -14.3384 -14.3334 -14.3332 -14.3243 -14.3159 -14.3111 -14.3075
   -14.2899 -14.2867 -14.2809 -14.2681 -14.2643 -14.2594 -14.2527 -14.2478
   -14.2429 -14.2303 -14.2185 -14.2069 -14.2004 -14.1778 -14.1716 -14.1620
   -14.1450 -14.1405 -14.1397 -14.1290 -14.1281 -14.1228 -14.1120 -14.1016
   -14.0883 -14.0827 -14.0824 -14.0774 -14.0644 -14.0559 -14.0555 -14.0493
   -14.0474 -14.0430 -14.0368 -14.0294 -14.0215 -14.0078 -14.0007 -13.9959
   -13.9886 -13.9773 -13.9615 -13.9398 -13.2965  -7.9767  -6.7228  -6.3341
    -5.4632  -4.8389  -4.6741  -4.5993  -3.9289  -3.6310  -3.1868  -2.6748
    -2.1352  -1.7394  -1.1246  -1.1011  -0.6369  -0.4891  -0.1160   0.2744
     0.4796   0.8113   1.1228   1.8562   1.9356   2.0087   2.4006   2.4224
     2.5474   3.1866   3.2794

          k = 0.0000-0.0872 0.0000 ( 24448 PWs)   bands (ev):

   -14.8303 -14.4380 -14.4182 -14.3930 -14.3723 -14.3633 -14.3583 -14.3544
   -14.3500 -14.3347 -14.3287 -14.3224 -14.3150 -14.3017 -14.2965 -14.2906
   -14.2900 -14.2751 -14.2603 -14.2498 -14.2420 -14.2344 -14.2339 -14.2269
   -14.2162 -14.2060 -14.1915 -14.1886 -14.1876 -14.1861 -14.1732 -14.1655
   -14.1637 -14.1536 -14.1423 -14.1377 -14.1349 -14.1259 -14.1251 -14.1183
   -14.1131 -14.1071 -14.1050 -14.1011 -14.0960 -14.0925 -14.0826 -14.0770
   -14.0763 -14.0588 -14.0561 -14.0539 -14.0472 -14.0298 -14.0044 -13.9978
   -13.9964 -13.9872 -13.9658 -13.9420 -13.2868  -7.3197  -7.2740  -6.2503
    -5.9487  -5.0135  -4.8087  -4.5396  -4.0356  -3.7358  -3.6004  -2.5482
    -2.1880  -1.7535  -1.0834  -0.4487  -0.0049   0.2111   0.3129   0.3430
     0.6191   0.9267   1.6416   1.8646   1.9005   2.1659   2.6208   2.7477
     2.7868   2.9898   3.1882

          k = 0.0252-0.0145 0.0000 ( 24403 PWs)   bands (ev):

   -14.8663 -14.4916 -14.4814 -14.4723 -14.4047 -14.4044 -14.3944 -14.3795
   -14.3768 -14.3670 -14.3659 -14.3531 -14.3435 -14.3391 -14.3204 -14.3171
   -14.3056 -14.3046 -14.2952 -14.2942 -14.2864 -14.2767 -14.2738 -14.2664
   -14.2612 -14.2549 -14.2480 -14.2385 -14.2206 -14.2133 -14.1573 -14.1498
   -14.1387 -14.1259 -14.1187 -14.1092 -14.0907 -14.0872 -14.0860 -14.0798
   -14.0798 -14.0488 -14.0448 -14.0387 -14.0383 -14.0321 -14.0255 -14.0159
   -14.0139 -14.0100 -14.0065 -14.0040 -13.9867 -13.9838 -13.9830 -13.9746
   -13.9700 -13.9361 -13.9335 -13.9267 -13.3171  -8.3831  -7.0715  -5.5081
    -5.0270  -4.4735  -4.2857  -4.0558  -3.5878  -3.4037  -3.0584  -2.3512
    -2.3088  -1.9978  -1.8720  -1.5492  -1.2621  -1.0950  -0.7522  -0.5691
    -0.1054  -0.0504   0.3883   1.1588   1.3264   1.6769   2.2882   2.5049
     3.1190   3.3173   3.6003

          k = 0.0252 0.0145 0.0000 ( 24403 PWs)   bands (ev):

   -14.8663 -14.4916 -14.4814 -14.4723 -14.4047 -14.4044 -14.3944 -14.3795
   -14.3768 -14.3670 -14.3659 -14.3531 -14.3435 -14.3391 -14.3204 -14.3171
   -14.3056 -14.3046 -14.2952 -14.2942 -14.2864 -14.2767 -14.2738 -14.2664
   -14.2612 -14.2549 -14.2480 -14.2385 -14.2206 -14.2133 -14.1573 -14.1498
   -14.1387 -14.1259 -14.1187 -14.1092 -14.0907 -14.0872 -14.0860 -14.0798
   -14.0798 -14.0488 -14.0448 -14.0387 -14.0383 -14.0321 -14.0255 -14.0159
   -14.0139 -14.0100 -14.0065 -14.0040 -13.9867 -13.9838 -13.9830 -13.9746
   -13.9700 -13.9361 -13.9335 -13.9267 -13.3171  -8.3831  -7.0715  -5.5081
    -5.0270  -4.4735  -4.2857  -4.0558  -3.5878  -3.4037  -3.0584  -2.3512
    -2.3087  -1.9978  -1.8720  -1.5492  -1.2621  -1.0950  -0.7522  -0.5691
    -0.1054  -0.0504   0.3883   1.1588   1.3264   1.6769   2.2882   2.5049
     3.1190   3.3173   3.6003

          k = 0.0252 0.0436 0.0000 ( 24482 PWs)   bands (ev):

   -14.8488 -14.4632 -14.4583 -14.4306 -14.3867 -14.3841 -14.3764 -14.3680
   -14.3577 -14.3502 -14.3434 -14.3311 -14.3275 -14.3224 -14.3154 -14.3082
   -14.2990 -14.2929 -14.2880 -14.2759 -14.2732 -14.2671 -14.2596 -14.2534
   -14.2491 -14.2379 -14.2308 -14.2163 -14.2076 -14.1875 -14.1673 -14.1608
   -14.1465 -14.1354 -14.1263 -14.1255 -14.1179 -14.1103 -14.1048 -14.0975
   -14.0874 -14.0790 -14.0738 -14.0648 -14.0546 -14.0479 -14.0401 -14.0330
   -14.0308 -14.0284 -14.0241 -14.0155 -14.0125 -14.0102 -13.9990 -13.9962
   -13.9827 -13.9651 -13.9545 -13.9481 -13.3015  -8.1124  -6.8339  -5.8015
    -5.5902  -5.1928  -4.5718  -4.3376  -3.5125  -3.4198  -3.0661  -2.6539
    -2.4813  -1.9342  -1.4227  -0.8877  -0.7826  -0.6689  -0.2337  -0.2228
     0.4833   0.7246   0.8535   1.3928   1.8335   2.0508   2.0878   2.4832
     2.7826   3.2449   3.5382

          k = 0.0252-0.1018 0.0000 ( 24479 PWs)   bands (ev):

   -14.8302 -14.4317 -14.4049 -14.3938 -14.3859 -14.3585 -14.3566 -14.3526
   -14.3412 -14.3394 -14.3316 -14.3234 -14.3176 -14.3026 -14.2976 -14.2933
   -14.2818 -14.2731 -14.2636 -14.2540 -14.2456 -14.2384 -14.2344 -14.2290
   -14.2197 -14.2114 -14.2070 -14.2005 -14.1933 -14.1811 -14.1765 -14.1709
   -14.1611 -14.1522 -14.1493 -14.1440 -14.1427 -14.1327 -14.1236 -14.1144
   -14.1103 -14.1032 -14.0962 -14.0944 -14.0884 -14.0803 -14.0755 -14.0697
   -14.0616 -14.0583 -14.0486 -14.0409 -14.0357 -14.0169 -14.0112 -14.0064
   -14.0010 -13.9912 -13.9788 -13.9566 -13.2868  -7.5692  -6.7643  -6.3657
    -5.9314  -5.5951  -4.9117  -4.4403  -3.8326  -3.4670  -3.0842  -2.7424
    -2.1928  -1.6902  -1.2587  -0.9971  -0.2753  -0.1110   0.4961   0.6443
     0.8135   1.1071   1.4406   1.6844   1.8769   2.1426   2.3759   2.6535
     2.9554   3.2159   3.3497

          k = 0.0252-0.0727 0.0000 ( 24479 PWs)   bands (ev):

   -14.8302 -14.4317 -14.4049 -14.3938 -14.3859 -14.3585 -14.3566 -14.3526
   -14.3412 -14.3394 -14.3316 -14.3234 -14.3176 -14.3026 -14.2976 -14.2933
   -14.2818 -14.2731 -14.2636 -14.2540 -14.2456 -14.2384 -14.2344 -14.2290
   -14.2197 -14.2114 -14.2070 -14.2005 -14.1933 -14.1811 -14.1765 -14.1709
   -14.1611 -14.1522 -14.1493 -14.1440 -14.1427 -14.1327 -14.1236 -14.1144
   -14.1103 -14.1032 -14.0962 -14.0944 -14.0884 -14.0803 -14.0755 -14.0697
   -14.0616 -14.0583 -14.0486 -14.0409 -14.0357 -14.0169 -14.0112 -14.0064
   -14.0010 -13.9912 -13.9788 -13.9566 -13.2868  -7.5692  -6.7643  -6.3657
    -5.9314  -5.5951  -4.9117  -4.4403  -3.8326  -3.4670  -3.0842  -2.7424
    -2.1928  -1.6902  -1.2587  -0.9971  -0.2753  -0.1110   0.4961   0.6443
     0.8135   1.1071   1.4406   1.6844   1.8769   2.1426   2.3759   2.6535
     2.9554   3.2159   3.3497

          k = 0.0252-0.0436 0.0000 ( 24482 PWs)   bands (ev):

   -14.8488 -14.4632 -14.4583 -14.4306 -14.3867 -14.3841 -14.3764 -14.3680
   -14.3577 -14.3502 -14.3434 -14.3311 -14.3275 -14.3224 -14.3154 -14.3082
   -14.2990 -14.2929 -14.2880 -14.2759 -14.2732 -14.2671 -14.2596 -14.2534
   -14.2491 -14.2379 -14.2308 -14.2163 -14.2076 -14.1875 -14.1673 -14.1608
   -14.1465 -14.1354 -14.1263 -14.1255 -14.1179 -14.1103 -14.1048 -14.0975
   -14.0874 -14.0790 -14.0738 -14.0648 -14.0546 -14.0479 -14.0401 -14.0330
   -14.0308 -14.0284 -14.0241 -14.0155 -14.0125 -14.0102 -13.9990 -13.9962
   -13.9827 -13.9651 -13.9545 -13.9481 -13.3015  -8.1124  -6.8339  -5.8015
    -5.5902  -5.1928  -4.5718  -4.3376  -3.5125  -3.4198  -3.0661  -2.6539
    -2.4813  -1.9342  -1.4227  -0.8877  -0.7826  -0.6689  -0.2337  -0.2228
     0.4833   0.7246   0.8535   1.3928   1.8335   2.0508   2.0878   2.4832
     2.7826   3.2449   3.5382

          k = 0.0504-0.0291 0.0000 ( 24465 PWs)   bands (ev):

   -14.8428 -14.4652 -14.4283 -14.4189 -14.3908 -14.3794 -14.3772 -14.3681
   -14.3437 -14.3384 -14.3334 -14.3332 -14.3243 -14.3159 -14.3111 -14.3075
   -14.2899 -14.2867 -14.2809 -14.2681 -14.2643 -14.2594 -14.2527 -14.2478
   -14.2429 -14.2303 -14.2185 -14.2069 -14.2004 -14.1778 -14.1716 -14.1620
   -14.1450 -14.1405 -14.1397 -14.1290 -14.1281 -14.1228 -14.1120 -14.1016
   -14.0883 -14.0827 -14.0824 -14.0774 -14.0644 -14.0559 -14.0555 -14.0493
   -14.0474 -14.0430 -14.0368 -14.0294 -14.0215 -14.0078 -14.0007 -13.9959
   -13.9886 -13.9773 -13.9615 -13.9398 -13.2965  -7.9767  -6.7228  -6.3341
    -5.4632  -4.8389  -4.6741  -4.5993  -3.9289  -3.6310  -3.1868  -2.6748
    -2.1352  -1.7394  -1.1246  -1.1011  -0.6369  -0.4891  -0.1160   0.2744
     0.4796   0.8113   1.1228   1.8562   1.9356   2.0087   2.4006   2.4224
     2.5474   3.1866   3.2794

          k = 0.0504 0.0000 0.0000 ( 24482 PWs)   bands (ev):

   -14.8488 -14.4632 -14.4583 -14.4306 -14.3867 -14.3841 -14.3764 -14.3680
   -14.3577 -14.3502 -14.3434 -14.3311 -14.3275 -14.3224 -14.3154 -14.3082
   -14.2990 -14.2929 -14.2880 -14.2759 -14.2732 -14.2671 -14.2596 -14.2534
   -14.2491 -14.2379 -14.2308 -14.2163 -14.2076 -14.1875 -14.1673 -14.1608
   -14.1465 -14.1354 -14.1263 -14.1255 -14.1179 -14.1103 -14.1048 -14.0975
   -14.0874 -14.0790 -14.0738 -14.0648 -14.0546 -14.0479 -14.0401 -14.0330
   -14.0308 -14.0284 -14.0241 -14.0155 -14.0125 -14.0102 -13.9990 -13.9962
   -13.9827 -13.9651 -13.9545 -13.9481 -13.3015  -8.1124  -6.8339  -5.8015
    -5.5902  -5.1928  -4.5718  -4.3376  -3.5125  -3.4198  -3.0661  -2.6539
    -2.4813  -1.9342  -1.4227  -0.8877  -0.7826  -0.6689  -0.2337  -0.2228
     0.4833   0.7246   0.8535   1.3928   1.8335   2.0508   2.0878   2.4832
     2.7826   3.2449   3.5382

          k = 0.0504 0.0291 0.0000 ( 24465 PWs)   bands (ev):

   -14.8428 -14.4652 -14.4283 -14.4189 -14.3908 -14.3794 -14.3772 -14.3681
   -14.3437 -14.3384 -14.3334 -14.3332 -14.3243 -14.3159 -14.3111 -14.3075
   -14.2899 -14.2867 -14.2809 -14.2681 -14.2643 -14.2594 -14.2527 -14.2478
   -14.2429 -14.2303 -14.2185 -14.2069 -14.2004 -14.1778 -14.1716 -14.1620
   -14.1450 -14.1405 -14.1397 -14.1290 -14.1281 -14.1228 -14.1120 -14.1016
   -14.0883 -14.0827 -14.0824 -14.0774 -14.0644 -14.0559 -14.0555 -14.0493
   -14.0474 -14.0430 -14.0368 -14.0294 -14.0215 -14.0078 -14.0007 -13.9959
   -13.9886 -13.9773 -13.9615 -13.9398 -13.2965  -7.9767  -6.7228  -6.3341
    -5.4632  -4.8389  -4.6741  -4.5993  -3.9289  -3.6310  -3.1868  -2.6748
    -2.1352  -1.7394  -1.1246  -1.1011  -0.6369  -0.4891  -0.1160   0.2744
     0.4796   0.8113   1.1228   1.8562   1.9356   2.0087   2.4006   2.4224
     2.5474   3.1866   3.2794

          k = 0.0504-0.1163 0.0000 ( 24479 PWs)   bands (ev):

   -14.8302 -14.4317 -14.4049 -14.3938 -14.3859 -14.3585 -14.3566 -14.3526
   -14.3412 -14.3394 -14.3316 -14.3234 -14.3176 -14.3026 -14.2976 -14.2933
   -14.2818 -14.2731 -14.2636 -14.2540 -14.2456 -14.2384 -14.2344 -14.2290
   -14.2197 -14.2114 -14.2070 -14.2005 -14.1933 -14.1811 -14.1765 -14.1709
   -14.1611 -14.1522 -14.1493 -14.1440 -14.1427 -14.1327 -14.1236 -14.1144
   -14.1103 -14.1032 -14.0962 -14.0944 -14.0884 -14.0803 -14.0755 -14.0697
   -14.0616 -14.0583 -14.0486 -14.0409 -14.0357 -14.0169 -14.0112 -14.0064
   -14.0010 -13.9912 -13.9788 -13.9566 -13.2868  -7.5692  -6.7643  -6.3657
    -5.9314  -5.5951  -4.9117  -4.4403  -3.8326  -3.4670  -3.0842  -2.7424
    -2.1928  -1.6902  -1.2587  -0.9971  -0.2753  -0.1110   0.4961   0.6443
     0.8135   1.1071   1.4406   1.6844   1.8769   2.1426   2.3759   2.6535
     2.9554   3.2159   3.3497

          k = 0.0504-0.0872 0.0000 ( 24486 PWs)   bands (ev):

   -14.8237 -14.3898 -14.3823 -14.3821 -14.3708 -14.3687 -14.3613 -14.3558
   -14.3443 -14.3338 -14.3304 -14.3288 -14.3239 -14.2767 -14.2767 -14.2742
   -14.2594 -14.2552 -14.2534 -14.2417 -14.2370 -14.2320 -14.2302 -14.2285
   -14.2261 -14.2244 -14.2032 -14.2032 -14.1875 -14.1842 -14.1826 -14.1813
   -14.1711 -14.1602 -14.1560 -14.1532 -14.1460 -14.1455 -14.1445 -14.1299
   -14.1155 -14.1047 -14.0990 -14.0918 -14.0897 -14.0858 -14.0758 -14.0748
   -14.0668 -14.0577 -14.0526 -14.0478 -14.0410 -14.0241 -14.0176 -14.0082
   -14.0021 -13.9997 -13.9967 -13.9870 -13.2822  -6.9639  -6.8527  -6.8527
    -6.0052  -5.5408  -5.5382  -4.3846  -3.7025  -3.6418  -2.5033  -2.3622
    -2.2641  -1.9802  -1.4501  -0.9285  -0.0075   0.0273   0.0548   0.6335
     0.7206   0.8515   1.9838   2.1252   2.1685   2.7162   2.9191   2.9395
     3.1606   3.2700   3.3554

          k = 0.0504-0.0582 0.0000 ( 24479 PWs)   bands (ev):

   -14.8302 -14.4317 -14.4049 -14.3938 -14.3859 -14.3585 -14.3566 -14.3526
   -14.3412 -14.3394 -14.3316 -14.3234 -14.3176 -14.3026 -14.2976 -14.2933
   -14.2818 -14.2731 -14.2636 -14.2540 -14.2456 -14.2384 -14.2344 -14.2290
   -14.2197 -14.2114 -14.2070 -14.2005 -14.1933 -14.1811 -14.1765 -14.1709
   -14.1611 -14.1522 -14.1493 -14.1440 -14.1427 -14.1327 -14.1236 -14.1144
   -14.1103 -14.1032 -14.0962 -14.0944 -14.0884 -14.0803 -14.0755 -14.0697
   -14.0616 -14.0583 -14.0486 -14.0409 -14.0357 -14.0169 -14.0112 -14.0064
   -14.0010 -13.9912 -13.9788 -13.9566 -13.2868  -7.5692  -6.7643  -6.3657
    -5.9314  -5.5951  -4.9117  -4.4403  -3.8326  -3.4670  -3.0842  -2.7424
    -2.1928  -1.6902  -1.2587  -0.9971  -0.2753  -0.1110   0.4961   0.6443
     0.8135   1.1071   1.4406   1.6844   1.8769   2.1426   2.3759   2.6535
     2.9554   3.2159   3.3497

          k =-0.0756 0.0436 0.0000 ( 24448 PWs)   bands (ev):

   -14.8303 -14.4380 -14.4182 -14.3930 -14.3723 -14.3633 -14.3583 -14.3544
   -14.3500 -14.3347 -14.3287 -14.3224 -14.3150 -14.3017 -14.2965 -14.2906
   -14.2900 -14.2751 -14.2603 -14.2498 -14.2420 -14.2344 -14.2339 -14.2269
   -14.2162 -14.2060 -14.1915 -14.1886 -14.1876 -14.1861 -14.1732 -14.1655
   -14.1637 -14.1536 -14.1423 -14.1377 -14.1349 -14.1259 -14.1251 -14.1183
   -14.1131 -14.1071 -14.1050 -14.1011 -14.0960 -14.0925 -14.0826 -14.0770
   -14.0763 -14.0588 -14.0561 -14.0539 -14.0472 -14.0298 -14.0044 -13.9978
   -13.9964 -13.9872 -13.9658 -13.9420 -13.2868  -7.3197  -7.2740  -6.2503
    -5.9487  -5.0135  -4.8087  -4.5396  -4.0356  -3.7358  -3.6004  -2.5482
    -2.1880  -1.7535  -1.0834  -0.4487  -0.0049   0.2111   0.3129   0.3430
     0.6191   0.9267   1.6416   1.8646   1.9005   2.1659   2.6208   2.7477
     2.7868   2.9898   3.1882

          k =-0.0756 0.0727 0.0000 ( 24479 PWs)   bands (ev):

   -14.8302 -14.4317 -14.4049 -14.3938 -14.3859 -14.3585 -14.3566 -14.3526
   -14.3412 -14.3394 -14.3316 -14.3234 -14.3176 -14.3026 -14.2976 -14.2933
   -14.2818 -14.2731 -14.2636 -14.2540 -14.2456 -14.2384 -14.2344 -14.2290
   -14.2197 -14.2114 -14.2070 -14.2005 -14.1933 -14.1811 -14.1765 -14.1709
   -14.1611 -14.1522 -14.1493 -14.1440 -14.1427 -14.1327 -14.1236 -14.1144
   -14.1103 -14.1032 -14.0962 -14.0944 -14.0884 -14.0803 -14.0755 -14.0697
   -14.0616 -14.0583 -14.0486 -14.0409 -14.0357 -14.0170 -14.0112 -14.0064
   -14.0010 -13.9912 -13.9788 -13.9566 -13.2868  -7.5692  -6.7643  -6.3657
    -5.9314  -5.5951  -4.9117  -4.4403  -3.8326  -3.4670  -3.0842  -2.7424
    -2.1928  -1.6902  -1.2587  -0.9971  -0.2753  -0.1110   0.4961   0.6443
     0.8135   1.1071   1.4406   1.6844   1.8769   2.1426   2.3759   2.6535
     2.9554   3.2159   3.3497

          k =-0.0756 0.1018 0.0000 ( 24479 PWs)   bands (ev):

   -14.8302 -14.4317 -14.4049 -14.3938 -14.3859 -14.3585 -14.3566 -14.3526
   -14.3412 -14.3394 -14.3316 -14.3234 -14.3176 -14.3026 -14.2976 -14.2933
   -14.2818 -14.2731 -14.2636 -14.2540 -14.2456 -14.2384 -14.2344 -14.2290
   -14.2197 -14.2114 -14.2070 -14.2005 -14.1933 -14.1811 -14.1765 -14.1709
   -14.1611 -14.1522 -14.1493 -14.1440 -14.1427 -14.1327 -14.1236 -14.1144
   -14.1103 -14.1032 -14.0962 -14.0944 -14.0884 -14.0803 -14.0755 -14.0697
   -14.0616 -14.0583 -14.0486 -14.0409 -14.0357 -14.0169 -14.0112 -14.0064
   -14.0010 -13.9912 -13.9788 -13.9566 -13.2868  -7.5692  -6.7643  -6.3657
    -5.9314  -5.5951  -4.9117  -4.4403  -3.8326  -3.4670  -3.0842  -2.7424
    -2.1928  -1.6902  -1.2587  -0.9971  -0.2753  -0.1110   0.4961   0.6443
     0.8135   1.1071   1.4406   1.6844   1.8769   2.1426   2.3759   2.6535
     2.9554   3.2159   3.3497

          k =-0.0756-0.0436 0.0000 ( 24448 PWs)   bands (ev):

   -14.8303 -14.4380 -14.4182 -14.3930 -14.3723 -14.3633 -14.3583 -14.3544
   -14.3500 -14.3347 -14.3287 -14.3224 -14.3150 -14.3017 -14.2965 -14.2906
   -14.2900 -14.2751 -14.2603 -14.2498 -14.2420 -14.2344 -14.2339 -14.2269
   -14.2162 -14.2060 -14.1915 -14.1886 -14.1876 -14.1861 -14.1732 -14.1655
   -14.1637 -14.1536 -14.1423 -14.1377 -14.1349 -14.1259 -14.1251 -14.1183
   -14.1131 -14.1071 -14.1050 -14.1011 -14.0960 -14.0925 -14.0826 -14.0770
   -14.0763 -14.0588 -14.0561 -14.0539 -14.0472 -14.0298 -14.0044 -13.9978
   -13.9964 -13.9872 -13.9658 -13.9420 -13.2868  -7.3197  -7.2740  -6.2503
    -5.9487  -5.0135  -4.8087  -4.5397  -4.0356  -3.7358  -3.6004  -2.5482
    -2.1880  -1.7535  -1.0834  -0.4487  -0.0049   0.2111   0.3129   0.3430
     0.6191   0.9267   1.6416   1.8646   1.9005   2.1659   2.6208   2.7477
     2.7868   2.9898   3.1882

     the Fermi energy is     0.6949 ev

!    total energy              =   -1638.78455818 Ry
     Harris-Foulkes estimate   =   -1638.78455838 Ry
     estimated scf accuracy    <       0.00000376 Ry

     The total energy is the sum of the following terms:

     one-electron contribution =   -9501.73963806 Ry
     hartree contribution      =    4833.32140353 Ry
     xc contribution           =    -475.88002189 Ry
     ewald contribution        =    3505.55133277 Ry
     electric field correction =       0.00000215 Ry
     smearing contrib. (-TS)   =      -0.03763669 Ry

     convergence has been achieved in  22 iterations
 
 BEEF-vdW xc energy contributions
           1 :   -416.727163958147     
           2 :    380.763787875042     
           3 :   -320.065609150405     
           4 :    251.716798913297     
           5 :   -191.295497796930     
           6 :    147.242993880124     
           7 :   -119.288546644496     
           8 :    101.059634889698     
           9 :   -84.9630361841759     
          10 :    66.4893491988801     
          11 :   -45.8199449789399     
          12 :    26.4090338645829     
          13 :   -11.9728541874289     
          14 :    3.96632001714460     
          15 :  -0.950669158222979     
          16 :  -0.147270466728571     
          17 :    2.01355127456134     
          18 :   -5.54985409002433     
          19 :    9.83625968146066     
          20 :   -13.2051300446512     
          21 :    14.5300392094838     
          22 :   -13.8822187282735     
          23 :    12.2748258771931     
          24 :   -10.8609712256400     
          25 :    10.2263573436219     
          26 :   -10.2181304284069     
          27 :    10.2904576734271     
          28 :   -10.0012454984729     
          29 :    9.27759363713932     
          30 :   -8.33300163177734     
          31 :   -37.9824059822492     
          32 :   -27.5655772594068     

     Forces acting on atoms (Ry/au):


     negative rho (up, down):  1.322E-03 0.000E+00
     atom    1 type  1   force =     0.00000037   -0.00000052   -0.00896723
     atom    2 type  1   force =     0.00000045    0.00010485   -0.00981852
     atom    3 type  1   force =     0.00008942   -0.00005392   -0.00981883
     atom    4 type  1   force =    -0.00008962   -0.00005196   -0.00981808
     atom    5 type  1   force =    -0.00053974    0.00031349    0.00412087
     atom    6 type  1   force =     0.00053979    0.00031190    0.00412190
     atom    7 type  1   force =    -0.00000129   -0.00000050   -0.00527870
     atom    8 type  1   force =     0.00000163   -0.00062390    0.00412074
     atom    9 type  1   force =     0.00004153    0.00002390    0.02914628
     atom   10 type  1   force =    -0.00004192    0.00002446    0.02914465
     atom   11 type  1   force =     0.00000032   -0.00004803    0.02914611
     atom   12 type  1   force =    -0.00000160   -0.00000005    0.00495425
     atom   13 type  2   force =     0.00000032    0.00000006   -0.02801077
     atom   14 type  3   force =     0.00000035    0.00000021   -0.03304267

     Total force =     0.066704     Total SCF correction =     0.002981


     entering subroutine stress ...


     negative rho (up, down):  1.322E-03 0.000E+00
          total   stress  (Ry/bohr**3)                   (kbar)     P=    6.24
   0.00005491  -0.00000000   0.00000000          8.08     -0.00      0.00
  -0.00000000   0.00005491  -0.00000000         -0.00      8.08     -0.00
   0.00000000  -0.00000000   0.00001742          0.00     -0.00      2.56


     BFGS Geometry Optimization

     number of scf cycles    =   1
     number of bfgs steps    =   0

     energy   new            =   -1638.7845581835 Ry

     new trust radius        =       0.0330426660 bohr
     new conv_thr            =       0.0000099958 Ry


ATOMIC_POSITIONS (crystal)
In1      0.166666667   0.166666667   0.393650374    0   0   0
In1      0.666666667   0.166666667   0.393650374    0   0   0
In1      0.166666667   0.666666667   0.393650374    0   0   0
In1      0.666666667   0.666666667   0.393650374    0   0   0
In1      0.833333333   0.333333333   0.500000000    0   0   0
In1      0.333333333   0.333333333   0.500000000    0   0   0
In1      0.833333333   0.833333333   0.500000000    0   0   0
In1      0.333333333   0.833333333   0.500000000    0   0   0
In1      0.000002218   0.000002207   0.606956775
In1      0.499995518   0.000002259   0.606956741
In1      0.000002243   0.499995565   0.606956771
In1      0.499999874   0.499999995   0.606452829
N1       0.166666689   0.166666672   0.660267026
H1       0.166666685   0.166666686   0.701495495



     Writing output data file calc.save
     Check: negative starting charge=   -0.000168
     NEW-OLD atomic charge density approx. for the potential
     Check: negative starting charge=   -0.000171

     negative rho (up, down):  1.328E-03 0.000E+00
 
     Adding external electric field

     Computed dipole along edir(3) : 
        Dipole                0.1052 Ry au,          0.2675 Debye
        Dipole field          0.0002 Ry au
 
        Potential amp.       -0.0190 Ry
        Total length         46.8051 bohr
 

     total cpu time spent up to now is      674.1 secs

     Self-consistent Calculation

     iteration #  1     ecut=    36.75 Ry     beta=0.30
     Davidson diagonalization with overlap
     ethr =  1.00E-06,  avg # of iterations =  5.8

     negative rho (up, down):  1.322E-03 0.000E+00
 
     Adding external electric field

     Computed dipole along edir(3) : 
        Dipole               -0.6232 Ry au,         -1.5841 Debye
        Dipole field         -0.0012 Ry au
 
        Potential amp.        0.1128 Ry
        Total length         46.8051 bohr
 

     total cpu time spent up to now is      709.6 secs

     total energy              =   -1638.76859386 Ry
     Harris-Foulkes estimate   =   -1638.79027958 Ry
     estimated scf accuracy    <       0.04491030 Ry

     iteration #  2     ecut=    36.75 Ry     beta=0.30
     Davidson diagonalization with overlap
     ethr =  2.77E-05,  avg # of iterations =  5.6

     negative rho (up, down):  1.310E-03 0.000E+00
 
     Adding external electric field

     Computed dipole along edir(3) : 
        Dipole                0.0366 Ry au,          0.0931 Debye
        Dipole field          0.0001 Ry au
 
        Potential amp.       -0.0066 Ry
        Total length         46.8051 bohr
 

     total cpu time spent up to now is      731.5 secs

     total energy              =   -1638.70543871 Ry
     Harris-Foulkes estimate   =   -1638.86828197 Ry
     estimated scf accuracy    <       2.40725346 Ry

     iteration #  3     ecut=    36.75 Ry     beta=0.30
     Davidson diagonalization with overlap
     ethr =  2.77E-05,  avg # of iterations =  5.6

     negative rho (up, down):  1.318E-03 0.000E+00
 
     Adding external electric field

     Computed dipole along edir(3) : 
        Dipole                0.0078 Ry au,          0.0199 Debye
        Dipole field          0.0000 Ry au
 
        Potential amp.       -0.0014 Ry
        Total length         46.8051 bohr
 

     total cpu time spent up to now is      753.0 secs

     total energy              =   -1638.78789636 Ry
     Harris-Foulkes estimate   =   -1638.78969020 Ry
     estimated scf accuracy    <       0.01088204 Ry

     iteration #  4     ecut=    36.75 Ry     beta=0.30
     Davidson diagonalization with overlap
     ethr =  6.72E-06,  avg # of iterations =  2.7

     negative rho (up, down):  1.324E-03 0.000E+00
 
     Adding external electric field

     Computed dipole along edir(3) : 
        Dipole                0.0082 Ry au,          0.0207 Debye
        Dipole field          0.0000 Ry au
 
        Potential amp.       -0.0015 Ry
        Total length         46.8051 bohr
 

     total cpu time spent up to now is      771.4 secs

     total energy              =   -1638.78878718 Ry
     Harris-Foulkes estimate   =   -1638.78880830 Ry
     estimated scf accuracy    <       0.00011972 Ry

     iteration #  5     ecut=    36.75 Ry     beta=0.30
     Davidson diagonalization with overlap
     ethr =  7.39E-08,  avg # of iterations =  3.0

     negative rho (up, down):  1.327E-03 0.000E+00
 
     Adding external electric field

     Computed dipole along edir(3) : 
        Dipole                0.0069 Ry au,          0.0176 Debye
        Dipole field          0.0000 Ry au
 
        Potential amp.       -0.0013 Ry
        Total length         46.8051 bohr
 

     total cpu time spent up to now is      790.7 secs

     total energy              =   -1638.78880257 Ry
     Harris-Foulkes estimate   =   -1638.78880376 Ry
     estimated scf accuracy    <       0.00002954 Ry

     iteration #  6     ecut=    36.75 Ry     beta=0.30
     Davidson diagonalization with overlap
     ethr =  1.82E-08,  avg # of iterations =  2.0

     negative rho (up, down):  1.340E-03 0.000E+00

     negative rho (up, down):  1.340E-03 0.000E+00

     negative rho (up, down):  1.340E-03 0.000E+00

     negative rho (up, down):  1.340E-03 0.000E+00

     negative rho (up, down):  1.340E-03 0.000E+00

     negative rho (up, down):  1.340E-03 0.000E+00

     negative rho (up, down):  1.340E-03 0.000E+00

     negative rho (up, down):  1.340E-03 0.000E+00

     negative rho (up, down):  1.340E-03 0.000E+00

     negative rho (up, down):  1.340E-03 0.000E+00

     negative rho (up, down):  1.340E-03 0.000E+00

     negative rho (up, down):  1.340E-03 0.000E+00

     negative rho (up, down):  1.340E-03 0.000E+00

     negative rho (up, down):  1.340E-03 0.000E+00

     negative rho (up, down):  1.340E-03 0.000E+00

     negative rho (up, down):  1.340E-03 0.000E+00

     negative rho (up, down):  1.340E-03 0.000E+00

     negative rho (up, down):  1.340E-03 0.000E+00

     negative rho (up, down):  1.340E-03 0.000E+00

     negative rho (up, down):  1.340E-03 0.000E+00

     negative rho (up, down):  1.340E-03 0.000E+00

     negative rho (up, down):  1.340E-03 0.000E+00

     negative rho (up, down):  1.340E-03 0.000E+00

     negative rho (up, down):  1.340E-03 0.000E+00

     negative rho (up, down):  1.340E-03 0.000E+00

     negative rho (up, down):  1.340E-03 0.000E+00

     negative rho (up, down):  1.340E-03 0.000E+00

     negative rho (up, down):  1.340E-03 0.000E+00

     negative rho (up, down):  1.340E-03 0.000E+00

     negative rho (up, down):  1.340E-03 0.000E+00

     negative rho (up, down):  1.340E-03 0.000E+00

     negative rho (up, down):  1.340E-03 0.000E+00

     negative rho (up, down):  1.340E-03 0.000E+00

     negative rho (up, down):  1.340E-03 0.000E+00

     negative rho (up, down):  1.340E-03 0.000E+00
 
     Adding external electric field

     Computed dipole along edir(3) : 
        Dipole                0.0159 Ry au,          0.0404 Debye
        Dipole field          0.0000 Ry au
 
        Potential amp.       -0.0029 Ry
        Total length         46.8051 bohr
 

     total cpu time spent up to now is      832.4 secs

     End of self-consistent calculation

          k = 0.0000 0.0000 0.0000 ( 24345 PWs)   bands (ev):

   -14.9248 -14.4761 -14.4761 -14.4664 -14.3858 -14.3858 -14.3774 -14.3656
   -14.3656 -14.3620 -14.3594 -14.3329 -14.3329 -14.3154 -14.3023 -14.2963
   -14.2963 -14.2829 -14.2761 -14.2761 -14.2567 -14.2567 -14.2437 -14.2437
   -14.2417 -14.2331 -14.2322 -14.2322 -14.1998 -14.1998 -14.1231 -14.1231
   -14.0951 -14.0935 -14.0935 -14.0856 -14.0535 -14.0535 -14.0484 -14.0484
   -14.0441 -14.0069 -14.0069 -14.0038 -14.0038 -14.0009 -13.9850 -13.9850
   -13.9777 -13.9776 -13.9776 -13.9702 -13.9431 -13.9415 -13.9415 -13.9389
   -13.9389 -13.8887 -13.8887 -13.8854 -13.3217  -8.4812  -7.1708  -5.5058
    -4.3633  -3.8376  -3.8376  -3.6297  -3.4748  -3.4748  -3.2294  -2.5918
    -2.5918  -1.9749  -1.9749  -1.9710  -1.6159  -1.0600  -1.0313  -1.0313
    -0.1569  -0.1569  -0.0952   1.0221   1.0221   1.1805   1.8476   3.3522
     3.3994   3.3994   3.4728

          k = 0.0000 0.0291 0.0000 ( 24403 PWs)   bands (ev):

   -14.9144 -14.4646 -14.4540 -14.4463 -14.3772 -14.3772 -14.3676 -14.3529
   -14.3507 -14.3416 -14.3405 -14.3262 -14.3164 -14.3133 -14.2948 -14.2913
   -14.2792 -14.2791 -14.2697 -14.2690 -14.2608 -14.2499 -14.2476 -14.2405
   -14.2344 -14.2291 -14.2223 -14.2125 -14.1946 -14.1869 -14.1319 -14.1245
   -14.1135 -14.1002 -14.0931 -14.0838 -14.0653 -14.0617 -14.0607 -14.0543
   -14.0541 -14.0236 -14.0195 -14.0140 -14.0132 -14.0075 -14.0009 -13.9914
   -13.9890 -13.9855 -13.9819 -13.9796 -13.9621 -13.9593 -13.9586 -13.9498
   -13.9455 -13.9106 -13.9069 -13.8997 -13.3100  -8.3465  -7.0515  -5.5170
    -4.9984  -4.4621  -4.2604  -4.0316  -3.5779  -3.4104  -3.0405  -2.3500
    -2.2870  -1.9715  -1.8624  -1.5208  -1.2395  -1.0744  -0.7261  -0.5524
    -0.0915  -0.0256   0.4239   1.1890   1.3475   1.6858   2.3158   2.5235
     3.1384   3.3278   3.6195

          k = 0.0000 0.0582 0.0000 ( 24465 PWs)   bands (ev):

   -14.8925 -14.4382 -14.4006 -14.3924 -14.3642 -14.3532 -14.3499 -14.3413
   -14.3169 -14.3114 -14.3064 -14.3064 -14.2987 -14.2898 -14.2853 -14.2814
   -14.2642 -14.2601 -14.2552 -14.2426 -14.2376 -14.2341 -14.2258 -14.2223
   -14.2177 -14.2041 -14.1929 -14.1811 -14.1752 -14.1520 -14.1462 -14.1366
   -14.1196 -14.1148 -14.1143 -14.1029 -14.1027 -14.0971 -14.0866 -14.0763
   -14.0629 -14.0571 -14.0567 -14.0519 -14.0396 -14.0320 -14.0306 -14.0239
   -14.0228 -14.0191 -14.0119 -14.0046 -13.9965 -13.9826 -13.9766 -13.9713
   -13.9640 -13.9520 -13.9367 -13.9135 -13.2883  -7.9409  -6.7095  -6.3021
    -5.4678  -4.8212  -4.6454  -4.5696  -3.9158  -3.6368  -3.1698  -2.6666
    -2.1366  -1.7396  -1.0974  -1.0787  -0.6271  -0.4641  -0.1050   0.3053
     0.5102   0.8475   1.1438   1.8800   1.9615   2.0249   2.4263   2.4464
     2.5761   3.2068   3.2962

          k = 0.0000-0.0872 0.0000 ( 24448 PWs)   bands (ev):

   -14.8810 -14.4106 -14.3919 -14.3644 -14.3453 -14.3369 -14.3317 -14.3283
   -14.3242 -14.3075 -14.3011 -14.2964 -14.2874 -14.2752 -14.2690 -14.2649
   -14.2640 -14.2496 -14.2346 -14.2222 -14.2159 -14.2096 -14.2080 -14.2018
   -14.1906 -14.1814 -14.1664 -14.1631 -14.1626 -14.1596 -14.1469 -14.1392
   -14.1377 -14.1284 -14.1172 -14.1120 -14.1094 -14.1007 -14.0998 -14.0934
   -14.0884 -14.0822 -14.0800 -14.0757 -14.0703 -14.0666 -14.0572 -14.0518
   -14.0515 -14.0346 -14.0307 -14.0297 -14.0211 -14.0047 -13.9804 -13.9732
   -13.9730 -13.9627 -13.9411 -13.9159 -13.2781  -7.2877  -7.2383  -6.2525
    -5.9259  -4.9956  -4.7793  -4.5158  -4.0325  -3.7400  -3.5804  -2.5178
    -2.1911  -1.7798  -1.0646  -0.4391   0.0135   0.2238   0.3402   0.3737
     0.6519   0.9598   1.6715   1.8858   1.9289   2.2036   2.6325   2.7706
     2.8047   3.0236   3.2089

          k = 0.0252-0.0145 0.0000 ( 24403 PWs)   bands (ev):

   -14.9144 -14.4646 -14.4540 -14.4463 -14.3772 -14.3772 -14.3676 -14.3529
   -14.3507 -14.3416 -14.3405 -14.3262 -14.3164 -14.3133 -14.2948 -14.2913
   -14.2792 -14.2791 -14.2697 -14.2690 -14.2608 -14.2499 -14.2476 -14.2405
   -14.2344 -14.2291 -14.2223 -14.2125 -14.1946 -14.1869 -14.1319 -14.1245
   -14.1135 -14.1002 -14.0931 -14.0838 -14.0653 -14.0617 -14.0607 -14.0543
   -14.0541 -14.0236 -14.0195 -14.0140 -14.0132 -14.0075 -14.0009 -13.9914
   -13.9890 -13.9855 -13.9819 -13.9796 -13.9621 -13.9593 -13.9586 -13.9498
   -13.9455 -13.9106 -13.9069 -13.8997 -13.3100  -8.3465  -7.0515  -5.5170
    -4.9984  -4.4621  -4.2604  -4.0316  -3.5779  -3.4104  -3.0405  -2.3500
    -2.2870  -1.9715  -1.8624  -1.5208  -1.2395  -1.0744  -0.7261  -0.5524
    -0.0915  -0.0256   0.4239   1.1890   1.3475   1.6858   2.3158   2.5235
     3.1384   3.3278   3.6195

          k = 0.0252 0.0145 0.0000 ( 24403 PWs)   bands (ev):

   -14.9144 -14.4646 -14.4540 -14.4463 -14.3772 -14.3772 -14.3676 -14.3529
   -14.3507 -14.3416 -14.3405 -14.3262 -14.3164 -14.3133 -14.2948 -14.2913
   -14.2792 -14.2791 -14.2697 -14.2690 -14.2608 -14.2499 -14.2476 -14.2405
   -14.2344 -14.2291 -14.2223 -14.2125 -14.1946 -14.1869 -14.1319 -14.1245
   -14.1135 -14.1002 -14.0931 -14.0838 -14.0653 -14.0617 -14.0607 -14.0543
   -14.0541 -14.0236 -14.0195 -14.0140 -14.0132 -14.0075 -14.0009 -13.9914
   -13.9890 -13.9855 -13.9819 -13.9796 -13.9621 -13.9593 -13.9586 -13.9498
   -13.9455 -13.9106 -13.9069 -13.8997 -13.3100  -8.3465  -7.0515  -5.5170
    -4.9984  -4.4621  -4.2604  -4.0316  -3.5779  -3.4104  -3.0405  -2.3500
    -2.2870  -1.9715  -1.8624  -1.5208  -1.2395  -1.0744  -0.7261  -0.5524
    -0.0915  -0.0256   0.4239   1.1890   1.3475   1.6858   2.3158   2.5235
     3.1384   3.3278   3.6195

          k = 0.0252 0.0436 0.0000 ( 24482 PWs)   bands (ev):

   -14.8981 -14.4360 -14.4316 -14.4037 -14.3596 -14.3572 -14.3498 -14.3415
   -14.3306 -14.3241 -14.3175 -14.3046 -14.3006 -14.2956 -14.2896 -14.2826
   -14.2732 -14.2676 -14.2625 -14.2501 -14.2472 -14.2402 -14.2337 -14.2276
   -14.2231 -14.2120 -14.2052 -14.1906 -14.1820 -14.1615 -14.1420 -14.1354
   -14.1212 -14.1098 -14.1005 -14.1000 -14.0925 -14.0845 -14.0793 -14.0721
   -14.0617 -14.0537 -14.0483 -14.0397 -14.0297 -14.0231 -14.0156 -14.0086
   -14.0058 -14.0036 -13.9994 -13.9911 -13.9879 -13.9855 -13.9746 -13.9717
   -13.9585 -13.9402 -13.9275 -13.9223 -13.2936  -8.0763  -6.8178  -5.7877
    -5.5560  -5.1855  -4.5647  -4.3223  -3.4930  -3.4000  -3.0479  -2.6624
    -2.4795  -1.9257  -1.3896  -0.8829  -0.7634  -0.6522  -0.2059  -0.1894
     0.5034   0.7475   0.8776   1.4343   1.8549   2.0633   2.1052   2.5147
     2.7980   3.2704   3.5548

          k = 0.0252-0.1018 0.0000 ( 24479 PWs)   bands (ev):

   -14.8809 -14.4046 -14.3774 -14.3666 -14.3592 -14.3319 -14.3294 -14.3256
   -14.3145 -14.3127 -14.3045 -14.2971 -14.2909 -14.2766 -14.2710 -14.2669
   -14.2561 -14.2476 -14.2380 -14.2273 -14.2196 -14.2125 -14.2082 -14.2035
   -14.1947 -14.1860 -14.1815 -14.1747 -14.1680 -14.1555 -14.1508 -14.1450
   -14.1355 -14.1267 -14.1236 -14.1187 -14.1171 -14.1075 -14.0982 -14.0891
   -14.0847 -14.0778 -14.0712 -14.0691 -14.0631 -14.0549 -14.0502 -14.0446
   -14.0372 -14.0332 -14.0243 -14.0158 -14.0109 -13.9919 -13.9871 -13.9819
   -13.9766 -13.9663 -13.9543 -13.9307 -13.2782  -7.5345  -6.7354  -6.3557
    -5.9022  -5.5821  -4.8992  -4.4269  -3.8243  -3.4417  -3.0784  -2.7441
    -2.1819  -1.6781  -1.2582  -0.9828  -0.2541  -0.0901   0.5177   0.6727
     0.8374   1.1378   1.4586   1.7130   1.9093   2.1718   2.3983   2.6709
     2.9827   3.2389   3.3643

          k = 0.0252-0.0727 0.0000 ( 24479 PWs)   bands (ev):

   -14.8809 -14.4046 -14.3774 -14.3666 -14.3592 -14.3319 -14.3294 -14.3256
   -14.3145 -14.3127 -14.3045 -14.2971 -14.2909 -14.2766 -14.2710 -14.2669
   -14.2561 -14.2476 -14.2380 -14.2273 -14.2196 -14.2125 -14.2082 -14.2035
   -14.1947 -14.1860 -14.1815 -14.1747 -14.1680 -14.1555 -14.1508 -14.1450
   -14.1355 -14.1267 -14.1236 -14.1187 -14.1171 -14.1075 -14.0982 -14.0891
   -14.0847 -14.0778 -14.0712 -14.0691 -14.0631 -14.0549 -14.0502 -14.0446
   -14.0372 -14.0332 -14.0243 -14.0158 -14.0109 -13.9919 -13.9871 -13.9819
   -13.9766 -13.9663 -13.9543 -13.9307 -13.2782  -7.5345  -6.7354  -6.3557
    -5.9022  -5.5821  -4.8992  -4.4269  -3.8243  -3.4417  -3.0784  -2.7441
    -2.1819  -1.6781  -1.2582  -0.9828  -0.2541  -0.0901   0.5177   0.6727
     0.8374   1.1378   1.4586   1.7130   1.9093   2.1718   2.3983   2.6709
     2.9827   3.2389   3.3643

          k = 0.0252-0.0436 0.0000 ( 24482 PWs)   bands (ev):

   -14.8981 -14.4360 -14.4316 -14.4037 -14.3596 -14.3572 -14.3498 -14.3415
   -14.3306 -14.3241 -14.3175 -14.3046 -14.3006 -14.2956 -14.2896 -14.2826
   -14.2732 -14.2676 -14.2625 -14.2501 -14.2472 -14.2402 -14.2337 -14.2276
   -14.2231 -14.2120 -14.2052 -14.1906 -14.1820 -14.1615 -14.1420 -14.1354
   -14.1212 -14.1098 -14.1005 -14.1000 -14.0925 -14.0845 -14.0793 -14.0721
   -14.0617 -14.0537 -14.0483 -14.0397 -14.0297 -14.0231 -14.0156 -14.0086
   -14.0058 -14.0036 -13.9994 -13.9911 -13.9879 -13.9855 -13.9746 -13.9717
   -13.9585 -13.9402 -13.9275 -13.9223 -13.2936  -8.0763  -6.8178  -5.7877
    -5.5560  -5.1855  -4.5647  -4.3223  -3.4930  -3.4000  -3.0479  -2.6624
    -2.4795  -1.9257  -1.3896  -0.8829  -0.7634  -0.6522  -0.2059  -0.1894
     0.5034   0.7475   0.8776   1.4343   1.8549   2.0633   2.1052   2.5147
     2.7980   3.2704   3.5548

          k = 0.0504-0.0291 0.0000 ( 24465 PWs)   bands (ev):

   -14.8925 -14.4382 -14.4006 -14.3924 -14.3642 -14.3532 -14.3499 -14.3413
   -14.3169 -14.3114 -14.3064 -14.3064 -14.2987 -14.2898 -14.2853 -14.2814
   -14.2642 -14.2601 -14.2552 -14.2426 -14.2376 -14.2341 -14.2258 -14.2223
   -14.2177 -14.2041 -14.1929 -14.1811 -14.1752 -14.1520 -14.1462 -14.1366
   -14.1196 -14.1148 -14.1143 -14.1029 -14.1027 -14.0971 -14.0866 -14.0763
   -14.0629 -14.0571 -14.0567 -14.0519 -14.0396 -14.0320 -14.0306 -14.0239
   -14.0228 -14.0191 -14.0119 -14.0046 -13.9965 -13.9826 -13.9766 -13.9713
   -13.9640 -13.9520 -13.9367 -13.9135 -13.2883  -7.9409  -6.7095  -6.3021
    -5.4678  -4.8212  -4.6454  -4.5696  -3.9158  -3.6368  -3.1698  -2.6666
    -2.1366  -1.7396  -1.0974  -1.0787  -0.6271  -0.4641  -0.1050   0.3053
     0.5102   0.8475   1.1438   1.8800   1.9615   2.0249   2.4263   2.4464
     2.5761   3.2068   3.2962

          k = 0.0504 0.0000 0.0000 ( 24482 PWs)   bands (ev):

   -14.8981 -14.4360 -14.4316 -14.4037 -14.3596 -14.3572 -14.3498 -14.3415
   -14.3306 -14.3241 -14.3175 -14.3046 -14.3006 -14.2956 -14.2896 -14.2826
   -14.2732 -14.2676 -14.2625 -14.2501 -14.2472 -14.2402 -14.2337 -14.2276
   -14.2231 -14.2120 -14.2052 -14.1906 -14.1820 -14.1615 -14.1420 -14.1354
   -14.1212 -14.1098 -14.1005 -14.1000 -14.0925 -14.0845 -14.0793 -14.0721
   -14.0617 -14.0537 -14.0483 -14.0397 -14.0297 -14.0231 -14.0156 -14.0086
   -14.0058 -14.0036 -13.9994 -13.9911 -13.9879 -13.9855 -13.9746 -13.9717
   -13.9585 -13.9402 -13.9275 -13.9223 -13.2936  -8.0763  -6.8178  -5.7877
    -5.5560  -5.1855  -4.5647  -4.3223  -3.4930  -3.4000  -3.0479  -2.6624
    -2.4795  -1.9257  -1.3896  -0.8829  -0.7634  -0.6522  -0.2059  -0.1894
     0.5034   0.7475   0.8776   1.4343   1.8549   2.0633   2.1052   2.5147
     2.7980   3.2704   3.5548

          k = 0.0504 0.0291 0.0000 ( 24465 PWs)   bands (ev):

   -14.8925 -14.4382 -14.4006 -14.3924 -14.3642 -14.3532 -14.3499 -14.3413
   -14.3169 -14.3114 -14.3064 -14.3064 -14.2987 -14.2898 -14.2853 -14.2814
   -14.2642 -14.2601 -14.2552 -14.2426 -14.2376 -14.2341 -14.2258 -14.2223
   -14.2177 -14.2041 -14.1929 -14.1811 -14.1752 -14.1520 -14.1462 -14.1366
   -14.1196 -14.1148 -14.1143 -14.1029 -14.1027 -14.0971 -14.0866 -14.0763
   -14.0629 -14.0571 -14.0567 -14.0519 -14.0396 -14.0320 -14.0306 -14.0239
   -14.0228 -14.0191 -14.0119 -14.0046 -13.9965 -13.9826 -13.9766 -13.9713
   -13.9640 -13.9520 -13.9367 -13.9135 -13.2883  -7.9409  -6.7095  -6.3021
    -5.4678  -4.8212  -4.6454  -4.5696  -3.9158  -3.6368  -3.1698  -2.6666
    -2.1366  -1.7396  -1.0974  -1.0787  -0.6271  -0.4641  -0.1050   0.3053
     0.5102   0.8475   1.1438   1.8800   1.9615   2.0249   2.4263   2.4464
     2.5761   3.2068   3.2962

          k = 0.0504-0.1163 0.0000 ( 24479 PWs)   bands (ev):

   -14.8809 -14.4046 -14.3774 -14.3666 -14.3592 -14.3319 -14.3294 -14.3256
   -14.3145 -14.3127 -14.3045 -14.2971 -14.2909 -14.2766 -14.2710 -14.2669
   -14.2561 -14.2476 -14.2380 -14.2273 -14.2196 -14.2125 -14.2082 -14.2035
   -14.1947 -14.1860 -14.1815 -14.1747 -14.1680 -14.1555 -14.1508 -14.1450
   -14.1355 -14.1267 -14.1236 -14.1187 -14.1171 -14.1075 -14.0982 -14.0891
   -14.0847 -14.0778 -14.0712 -14.0691 -14.0631 -14.0549 -14.0502 -14.0446
   -14.0372 -14.0332 -14.0243 -14.0158 -14.0109 -13.9919 -13.9871 -13.9819
   -13.9766 -13.9663 -13.9543 -13.9307 -13.2782  -7.5345  -6.7354  -6.3557
    -5.9022  -5.5821  -4.8992  -4.4269  -3.8243  -3.4417  -3.0784  -2.7441
    -2.1819  -1.6781  -1.2582  -0.9828  -0.2541  -0.0901   0.5177   0.6727
     0.8374   1.1378   1.4586   1.7130   1.9093   2.1718   2.3983   2.6709
     2.9827   3.2389   3.3643

          k = 0.0504-0.0872 0.0000 ( 24486 PWs)   bands (ev):

   -14.8749 -14.3625 -14.3552 -14.3551 -14.3442 -14.3407 -14.3336 -14.3283
   -14.3181 -14.3069 -14.3038 -14.3024 -14.2976 -14.2503 -14.2502 -14.2480
   -14.2338 -14.2295 -14.2282 -14.2157 -14.2113 -14.2066 -14.2043 -14.2021
   -14.2009 -14.1985 -14.1778 -14.1769 -14.1613 -14.1586 -14.1573 -14.1559
   -14.1457 -14.1349 -14.1310 -14.1282 -14.1208 -14.1200 -14.1190 -14.1047
   -14.0893 -14.0788 -14.0739 -14.0661 -14.0645 -14.0604 -14.0512 -14.0496
   -14.0416 -14.0333 -14.0278 -14.0229 -14.0161 -14.0001 -13.9939 -13.9827
   -13.9757 -13.9746 -13.9729 -13.9627 -13.2733  -6.9379  -6.8212  -6.8138
    -6.0112  -5.5200  -5.5156  -4.3657  -3.7030  -3.6403  -2.5129  -2.3330
    -2.2401  -1.9543  -1.4790  -0.9087   0.0193   0.0654   0.0789   0.6509
     0.7364   0.8699   2.0057   2.1442   2.2015   2.7395   2.9402   2.9704
     3.1816   3.2883   3.3768

          k = 0.0504-0.0582 0.0000 ( 24479 PWs)   bands (ev):

   -14.8809 -14.4046 -14.3774 -14.3666 -14.3592 -14.3319 -14.3294 -14.3256
   -14.3145 -14.3127 -14.3045 -14.2971 -14.2909 -14.2766 -14.2710 -14.2669
   -14.2561 -14.2476 -14.2380 -14.2273 -14.2196 -14.2125 -14.2082 -14.2035
   -14.1947 -14.1860 -14.1815 -14.1747 -14.1680 -14.1555 -14.1508 -14.1450
   -14.1355 -14.1267 -14.1236 -14.1187 -14.1171 -14.1075 -14.0982 -14.0891
   -14.0847 -14.0778 -14.0712 -14.0691 -14.0631 -14.0549 -14.0502 -14.0446
   -14.0372 -14.0332 -14.0243 -14.0158 -14.0109 -13.9919 -13.9871 -13.9819
   -13.9766 -13.9663 -13.9543 -13.9307 -13.2782  -7.5345  -6.7354  -6.3557
    -5.9022  -5.5821  -4.8992  -4.4269  -3.8243  -3.4417  -3.0784  -2.7441
    -2.1819  -1.6781  -1.2582  -0.9828  -0.2541  -0.0901   0.5177   0.6727
     0.8374   1.1378   1.4586   1.7130   1.9093   2.1718   2.3983   2.6709
     2.9827   3.2389   3.3643

          k =-0.0756 0.0436 0.0000 ( 24448 PWs)   bands (ev):

   -14.8810 -14.4106 -14.3919 -14.3644 -14.3453 -14.3369 -14.3317 -14.3283
   -14.3242 -14.3075 -14.3011 -14.2964 -14.2874 -14.2752 -14.2690 -14.2649
   -14.2640 -14.2496 -14.2346 -14.2222 -14.2159 -14.2096 -14.2080 -14.2018
   -14.1906 -14.1814 -14.1664 -14.1631 -14.1626 -14.1596 -14.1469 -14.1392
   -14.1377 -14.1284 -14.1172 -14.1120 -14.1094 -14.1007 -14.0998 -14.0934
   -14.0884 -14.0822 -14.0800 -14.0757 -14.0703 -14.0666 -14.0572 -14.0518
   -14.0515 -14.0346 -14.0307 -14.0297 -14.0211 -14.0047 -13.9804 -13.9732
   -13.9730 -13.9627 -13.9411 -13.9159 -13.2781  -7.2877  -7.2383  -6.2525
    -5.9259  -4.9956  -4.7793  -4.5158  -4.0325  -3.7400  -3.5804  -2.5178
    -2.1911  -1.7798  -1.0646  -0.4391   0.0135   0.2238   0.3402   0.3737
     0.6519   0.9598   1.6715   1.8858   1.9289   2.2036   2.6325   2.7706
     2.8047   3.0236   3.2089

          k =-0.0756 0.0727 0.0000 ( 24479 PWs)   bands (ev):

   -14.8809 -14.4046 -14.3774 -14.3666 -14.3592 -14.3319 -14.3294 -14.3256
   -14.3145 -14.3127 -14.3045 -14.2971 -14.2909 -14.2766 -14.2710 -14.2669
   -14.2561 -14.2476 -14.2380 -14.2273 -14.2196 -14.2125 -14.2082 -14.2035
   -14.1947 -14.1860 -14.1815 -14.1747 -14.1680 -14.1555 -14.1508 -14.1450
   -14.1355 -14.1267 -14.1236 -14.1187 -14.1171 -14.1075 -14.0982 -14.0891
   -14.0847 -14.0778 -14.0712 -14.0691 -14.0631 -14.0549 -14.0502 -14.0446
   -14.0372 -14.0332 -14.0243 -14.0158 -14.0109 -13.9919 -13.9871 -13.9819
   -13.9766 -13.9663 -13.9543 -13.9307 -13.2782  -7.5345  -6.7354  -6.3557
    -5.9022  -5.5821  -4.8992  -4.4269  -3.8243  -3.4417  -3.0784  -2.7441
    -2.1819  -1.6781  -1.2582  -0.9828  -0.2541  -0.0901   0.5177   0.6727
     0.8374   1.1378   1.4586   1.7130   1.9093   2.1718   2.3983   2.6709
     2.9827   3.2389   3.3643

          k =-0.0756 0.1018 0.0000 ( 24479 PWs)   bands (ev):

   -14.8809 -14.4046 -14.3774 -14.3666 -14.3592 -14.3319 -14.3294 -14.3256
   -14.3145 -14.3127 -14.3045 -14.2971 -14.2909 -14.2766 -14.2710 -14.2669
   -14.2561 -14.2476 -14.2380 -14.2273 -14.2196 -14.2125 -14.2082 -14.2035
   -14.1947 -14.1860 -14.1815 -14.1747 -14.1680 -14.1555 -14.1508 -14.1450
   -14.1355 -14.1267 -14.1236 -14.1187 -14.1171 -14.1075 -14.0982 -14.0891
   -14.0847 -14.0778 -14.0712 -14.0691 -14.0631 -14.0549 -14.0502 -14.0446
   -14.0372 -14.0332 -14.0243 -14.0158 -14.0109 -13.9919 -13.9871 -13.9819
   -13.9766 -13.9663 -13.9543 -13.9307 -13.2782  -7.5345  -6.7354  -6.3557
    -5.9022  -5.5821  -4.8992  -4.4269  -3.8243  -3.4417  -3.0784  -2.7441
    -2.1819  -1.6781  -1.2582  -0.9828  -0.2541  -0.0901   0.5177   0.6727
     0.8374   1.1378   1.4586   1.7130   1.9093   2.1718   2.3983   2.6709
     2.9827   3.2389   3.3643

          k =-0.0756-0.0436 0.0000 ( 24448 PWs)   bands (ev):

   -14.8810 -14.4106 -14.3919 -14.3644 -14.3453 -14.3369 -14.3317 -14.3283
   -14.3242 -14.3075 -14.3011 -14.2964 -14.2874 -14.2752 -14.2690 -14.2649
   -14.2640 -14.2496 -14.2346 -14.2222 -14.2159 -14.2096 -14.2080 -14.2018
   -14.1906 -14.1814 -14.1664 -14.1631 -14.1626 -14.1596 -14.1469 -14.1392
   -14.1377 -14.1284 -14.1172 -14.1120 -14.1094 -14.1007 -14.0998 -14.0934
   -14.0884 -14.0822 -14.0800 -14.0757 -14.0703 -14.0666 -14.0572 -14.0518
   -14.0515 -14.0346 -14.0307 -14.0297 -14.0211 -14.0047 -13.9804 -13.9732
   -13.9730 -13.9627 -13.9411 -13.9159 -13.2781  -7.2877  -7.2383  -6.2525
    -5.9259  -4.9956  -4.7793  -4.5158  -4.0325  -3.7400  -3.5804  -2.5178
    -2.1911  -1.7798  -1.0646  -0.4391   0.0135   0.2238   0.3402   0.3737
     0.6519   0.9598   1.6715   1.8858   1.9289   2.2036   2.6325   2.7706
     2.8047   3.0236   3.2089

     the Fermi energy is     0.7210 ev

!    total energy              =   -1638.78880645 Ry
     Harris-Foulkes estimate   =   -1638.78880410 Ry
     estimated scf accuracy    <       0.00000774 Ry

     The total energy is the sum of the following terms:

     one-electron contribution =   -9490.47828739 Ry
     hartree contribution      =    4827.75349922 Ry
     xc contribution           =    -475.88661174 Ry
     ewald contribution        =    3499.86017594 Ry
     electric field correction =       0.00000049 Ry
     smearing contrib. (-TS)   =      -0.03758297 Ry

     convergence has been achieved in   6 iterations
 
 BEEF-vdW xc energy contributions
           1 :   -416.733581833411     
           2 :    380.769667359638     
           3 :   -320.069446728871     
           4 :    251.717483580586     
           5 :   -191.293537662344     
           6 :    147.239657741235     
           7 :   -119.284609955653     
           8 :    101.054977453364     
           9 :   -84.9572643983353     
          10 :    66.4826999916520     
          11 :   -45.8136640857332     
          12 :    26.4048767750255     
          13 :   -11.9721126617314     
          14 :    3.96905181778158     
          15 :  -0.955677950137783     
          16 :  -0.141744848994676     
          17 :    2.00892136138793     
          18 :   -5.54677044387711     
          19 :    9.83478790034803     
          20 :   -13.2051635127406     
          21 :    14.5314259107992     
          22 :   -13.8845077566783     
          23 :    12.2771081157827     
          24 :   -10.8620713001197     
          25 :    10.2254861550880     
          26 :   -10.2156186706592     
          27 :    10.2878107237277     
          28 :   -10.0003538546572     
          29 :    9.27946726034213     
          30 :   -8.33684002751164     
          31 :   -37.9826448885844     
          32 :   -27.5654509249468     

     Forces acting on atoms (Ry/au):


     negative rho (up, down):  1.340E-03 0.000E+00
     atom    1 type  1   force =    -0.00000000    0.00000004   -0.00948083
     atom    2 type  1   force =    -0.00000002    0.00002286   -0.01026985
     atom    3 type  1   force =     0.00001989   -0.00001136   -0.01026969
     atom    4 type  1   force =    -0.00001981   -0.00001149   -0.01026975
     atom    5 type  1   force =    -0.00047378    0.00027342    0.00543899
     atom    6 type  1   force =     0.00047371    0.00027349    0.00543891
     atom    7 type  1   force =     0.00000008    0.00000005   -0.00357761
     atom    8 type  1   force =    -0.00000012   -0.00054695    0.00543903
     atom    9 type  1   force =    -0.00182923   -0.00105603    0.02658642
     atom   10 type  1   force =     0.00182935   -0.00105623    0.02658611
     atom   11 type  1   force =    -0.00000011    0.00211229    0.02658620
     atom   12 type  1   force =     0.00000008   -0.00000004    0.00477341
     atom   13 type  2   force =    -0.00000003   -0.00000003   -0.02611342
     atom   14 type  3   force =    -0.00000001   -0.00000002   -0.03086790

     Total force =     0.061574     Total SCF correction =     0.002784


     entering subroutine stress ...


     negative rho (up, down):  1.340E-03 0.000E+00
          total   stress  (Ry/bohr**3)                   (kbar)     P=    5.75
   0.00005164  -0.00000000  -0.00000000          7.60     -0.00     -0.00
  -0.00000000   0.00005164  -0.00000000         -0.00      7.60     -0.00
  -0.00000000  -0.00000000   0.00001397         -0.00     -0.00      2.06


     number of scf cycles    =   2
     number of bfgs steps    =   1

     energy   old            =   -1638.7845581835 Ry
     energy   new            =   -1638.7888064470 Ry

     CASE: energy  _new < energy  _old


     WARNING: bfgs curvature condition failed, Theta= 0.868
     new trust radius        =       0.0363469326 bohr
     new conv_thr            =       0.0000001000 Ry


ATOMIC_POSITIONS (crystal)
In1      0.166666667   0.166666667   0.393650374    0   0   0
In1      0.666666667   0.166666667   0.393650374    0   0   0
In1      0.166666667   0.666666667   0.393650374    0   0   0
In1      0.666666667   0.666666667   0.393650374    0   0   0
[...]
   -14.1648 -14.1552 -14.1475 -14.1469 -14.1423 -14.1343 -14.1191 -14.1164
   -14.1122 -14.1099 -14.1033 -14.0985 -14.0904 -14.0827 -14.0811 -14.0679
   -14.0609 -14.0593 -14.0450 -14.0429 -14.0375 -14.0191 -13.9895 -13.9826
   -13.9722 -13.9673 -13.9522 -13.9413 -13.9401 -13.9293 -13.9275 -13.9186
   -13.9088 -13.8961 -13.8913 -13.8813 -13.8786 -13.8745 -13.8729 -13.8656
   -13.8591 -13.8496 -13.8449 -13.8420 -13.8378 -13.8338 -13.8289 -13.8152
   -13.8114 -13.8029 -13.8025 -13.7743 -13.2475  -7.8026  -6.6606  -5.6756
    -5.3547  -5.0385  -4.6618  -4.3491  -3.4735  -3.3579  -2.9023  -2.7791
    -2.4132  -1.9688  -1.1864  -0.8150  -0.6477  -0.4668   0.0188   0.0392
     0.5959   0.8363   1.0379   1.7764   1.9007   2.0791   2.2686   2.7174
     2.8525   3.4234   3.5681

          k = 0.0252-0.1018 0.0000 ( 24479 PWs)   bands (ev):

   -15.3895 -14.2253 -14.1968 -14.1883 -14.1806 -14.1684 -14.1523 -14.1487
   -14.1466 -14.1410 -14.1384 -14.1276 -14.1201 -14.1118 -14.1050 -14.1019
   -14.0953 -14.0933 -14.0857 -14.0775 -14.0670 -14.0584 -14.0531 -14.0451
   -14.0396 -14.0330 -14.0276 -14.0210 -14.0168 -14.0083 -14.0039 -13.9979
   -13.9902 -13.9818 -13.9714 -13.9641 -13.9571 -13.9515 -13.9467 -13.9413
   -13.9374 -13.9276 -13.9199 -13.9128 -13.9100 -13.9054 -13.8978 -13.8947
   -13.8904 -13.8801 -13.8721 -13.8698 -13.8547 -13.8520 -13.8431 -13.8400
   -13.8332 -13.8176 -13.8109 -13.7946 -13.2168  -7.2678  -6.4844  -6.2491
    -5.7609  -5.5124  -4.8583  -4.3966  -3.8280  -3.3531  -3.0479  -2.7805
    -2.3029  -1.5637  -1.2678  -0.7431  -0.2127   0.1226   0.5780   0.8865
     0.9784   1.3467   1.5147   1.9103   2.1256   2.3207   2.5388   2.7718
     3.0957   3.2688   3.5721

          k = 0.0252-0.0727 0.0000 ( 24479 PWs)   bands (ev):

   -15.3895 -14.2253 -14.1968 -14.1883 -14.1806 -14.1684 -14.1523 -14.1487
   -14.1466 -14.1410 -14.1384 -14.1276 -14.1201 -14.1117 -14.1050 -14.1019
   -14.0953 -14.0933 -14.0857 -14.0775 -14.0670 -14.0584 -14.0531 -14.0451
   -14.0396 -14.0330 -14.0276 -14.0210 -14.0168 -14.0083 -14.0039 -13.9979
   -13.9902 -13.9818 -13.9714 -13.9641 -13.9571 -13.9515 -13.9467 -13.9413
   -13.9374 -13.9276 -13.9199 -13.9128 -13.9100 -13.9054 -13.8978 -13.8947
   -13.8904 -13.8801 -13.8721 -13.8698 -13.8547 -13.8520 -13.8431 -13.8400
   -13.8332 -13.8176 -13.8109 -13.7946 -13.2168  -7.2678  -6.4844  -6.2491
    -5.7609  -5.5124  -4.8583  -4.3966  -3.8280  -3.3531  -3.0479  -2.7805
    -2.3029  -1.5637  -1.2678  -0.7431  -0.2127   0.1226   0.5780   0.8865
     0.9784   1.3467   1.5147   1.9103   2.1256   2.3207   2.5388   2.7718
     3.0957   3.2688   3.5721

          k = 0.0252-0.0436 0.0000 ( 24482 PWs)   bands (ev):

   -15.4076 -14.2554 -14.2522 -14.2235 -14.1882 -14.1834 -14.1724 -14.1707
   -14.1648 -14.1552 -14.1475 -14.1469 -14.1424 -14.1343 -14.1191 -14.1164
   -14.1122 -14.1099 -14.1033 -14.0985 -14.0904 -14.0827 -14.0811 -14.0679
   -14.0609 -14.0593 -14.0450 -14.0429 -14.0375 -14.0191 -13.9895 -13.9826
   -13.9722 -13.9673 -13.9522 -13.9413 -13.9401 -13.9293 -13.9275 -13.9186
   -13.9088 -13.8961 -13.8913 -13.8813 -13.8786 -13.8745 -13.8729 -13.8656
   -13.8591 -13.8496 -13.8449 -13.8420 -13.8378 -13.8338 -13.8289 -13.8152
   -13.8114 -13.8029 -13.8025 -13.7743 -13.2475  -7.8026  -6.6606  -5.6756
    -5.3547  -5.0385  -4.6618  -4.3491  -3.4735  -3.3579  -2.9023  -2.7791
    -2.4132  -1.9688  -1.1864  -0.8150  -0.6477  -0.4668   0.0188   0.0392
     0.5959   0.8363   1.0379   1.7764   1.9007   2.0791   2.2686   2.7174
     2.8525   3.4234   3.5681

          k = 0.0504-0.0291 0.0000 ( 24465 PWs)   bands (ev):

   -15.4017 -14.2586 -14.2167 -14.2156 -14.1918 -14.1854 -14.1679 -14.1662
   -14.1604 -14.1515 -14.1370 -14.1320 -14.1301 -14.1245 -14.1224 -14.1149
   -14.1094 -14.1055 -14.0990 -14.0923 -14.0787 -14.0747 -14.0652 -14.0595
   -14.0533 -14.0467 -14.0463 -14.0341 -14.0324 -14.0100 -13.9969 -13.9877
   -13.9749 -13.9675 -13.9557 -13.9540 -13.9451 -13.9396 -13.9390 -13.9195
   -13.9161 -13.9035 -13.8996 -13.8885 -13.8876 -13.8843 -13.8819 -13.8781
   -13.8697 -13.8673 -13.8622 -13.8589 -13.8491 -13.8432 -13.8327 -13.8220
   -13.8204 -13.8016 -13.7958 -13.7741 -13.2367  -7.6689  -6.5567  -6.0984
    -5.4389  -4.8073  -4.4998  -4.4067  -3.8494  -3.7919  -3.1657  -2.6675
    -2.0908  -1.7997  -0.9293  -0.8114  -0.6435  -0.2946  -0.0719   0.6136
     0.6760   1.0764   1.2850   1.9265   2.0538   2.1287   2.5761   2.6021
     2.8540   3.2900   3.3169

          k = 0.0504 0.0000 0.0000 ( 24482 PWs)   bands (ev):

   -15.4076 -14.2554 -14.2522 -14.2235 -14.1882 -14.1834 -14.1724 -14.1707
   -14.1648 -14.1552 -14.1475 -14.1469 -14.1424 -14.1343 -14.1191 -14.1164
   -14.1122 -14.1099 -14.1033 -14.0985 -14.0904 -14.0827 -14.0811 -14.0679
   -14.0609 -14.0593 -14.0450 -14.0429 -14.0375 -14.0191 -13.9895 -13.9826
   -13.9722 -13.9673 -13.9522 -13.9413 -13.9401 -13.9293 -13.9275 -13.9186
   -13.9088 -13.8961 -13.8913 -13.8813 -13.8786 -13.8745 -13.8729 -13.8656
   -13.8591 -13.8496 -13.8449 -13.8420 -13.8378 -13.8338 -13.8289 -13.8152
   -13.8114 -13.8029 -13.8025 -13.7743 -13.2475  -7.8026  -6.6606  -5.6756
    -5.3547  -5.0385  -4.6618  -4.3491  -3.4735  -3.3579  -2.9023  -2.7791
    -2.4132  -1.9688  -1.1864  -0.8150  -0.6477  -0.4668   0.0188   0.0392
     0.5959   0.8363   1.0379   1.7764   1.9007   2.0791   2.2686   2.7174
     2.8525   3.4234   3.5681

          k = 0.0504 0.0291 0.0000 ( 24465 PWs)   bands (ev):

   -15.4017 -14.2586 -14.2167 -14.2156 -14.1918 -14.1854 -14.1679 -14.1662
   -14.1604 -14.1515 -14.1370 -14.1320 -14.1301 -14.1245 -14.1224 -14.1149
   -14.1094 -14.1055 -14.0990 -14.0923 -14.0787 -14.0747 -14.0652 -14.0595
   -14.0533 -14.0467 -14.0463 -14.0341 -14.0324 -14.0100 -13.9969 -13.9877
   -13.9749 -13.9675 -13.9557 -13.9540 -13.9451 -13.9396 -13.9390 -13.9195
   -13.9161 -13.9035 -13.8996 -13.8885 -13.8876 -13.8843 -13.8819 -13.8781
   -13.8697 -13.8673 -13.8622 -13.8589 -13.8491 -13.8432 -13.8327 -13.8220
   -13.8204 -13.8016 -13.7958 -13.7741 -13.2367  -7.6689  -6.5567  -6.0984
    -5.4389  -4.8073  -4.4998  -4.4067  -3.8494  -3.7919  -3.1657  -2.6675
    -2.0908  -1.7997  -0.9293  -0.8114  -0.6435  -0.2946  -0.0719   0.6136
     0.6760   1.0764   1.2850   1.9265   2.0538   2.1287   2.5761   2.6021
     2.8540   3.2900   3.3169

          k = 0.0504-0.1163 0.0000 ( 24479 PWs)   bands (ev):

   -15.3895 -14.2253 -14.1968 -14.1883 -14.1806 -14.1684 -14.1523 -14.1487
   -14.1466 -14.1410 -14.1384 -14.1276 -14.1201 -14.1118 -14.1050 -14.1019
   -14.0953 -14.0933 -14.0857 -14.0775 -14.0670 -14.0584 -14.0531 -14.0451
   -14.0396 -14.0330 -14.0276 -14.0210 -14.0168 -14.0083 -14.0039 -13.9979
   -13.9902 -13.9818 -13.9714 -13.9641 -13.9571 -13.9515 -13.9467 -13.9413
   -13.9374 -13.9276 -13.9199 -13.9128 -13.9100 -13.9054 -13.8978 -13.8947
   -13.8904 -13.8801 -13.8721 -13.8698 -13.8547 -13.8520 -13.8431 -13.8400
   -13.8332 -13.8176 -13.8109 -13.7946 -13.2168  -7.2678  -6.4844  -6.2491
    -5.7609  -5.5124  -4.8583  -4.3966  -3.8280  -3.3531  -3.0479  -2.7805
    -2.3029  -1.5637  -1.2678  -0.7431  -0.2127   0.1226   0.5780   0.8865
     0.9784   1.3467   1.5147   1.9103   2.1256   2.3207   2.5388   2.7718
     3.0957   3.2688   3.5721

          k = 0.0504-0.0872 0.0000 ( 24486 PWs)   bands (ev):

   -15.3833 -14.1806 -14.1805 -14.1741 -14.1662 -14.1656 -14.1539 -14.1522
   -14.1475 -14.1413 -14.1321 -14.1314 -14.1217 -14.1068 -14.0948 -14.0806
   -14.0792 -14.0737 -14.0711 -14.0704 -14.0589 -14.0528 -14.0434 -14.0419
   -14.0375 -14.0318 -14.0248 -14.0230 -14.0213 -14.0190 -14.0096 -14.0049
   -13.9968 -13.9843 -13.9832 -13.9819 -13.9733 -13.9698 -13.9647 -13.9444
   -13.9371 -13.9366 -13.9214 -13.9180 -13.9126 -13.9044 -13.9016 -13.8919
   -13.8826 -13.8745 -13.8728 -13.8633 -13.8626 -13.8583 -13.8500 -13.8493
   -13.8482 -13.8440 -13.8268 -13.8201 -13.2075  -6.6186  -6.6072  -6.5987
    -5.9367  -5.5875  -5.4201  -4.1158  -3.7798  -3.7408  -2.6713  -2.2866
    -2.0925  -1.7668  -1.7364  -0.6220   0.1357   0.2576   0.3922   0.7489
     0.7733   0.9551   2.1205   2.2789   2.4610   2.7756   2.9406   3.1234
     3.3660   3.3941   3.4284

          k = 0.0504-0.0582 0.0000 ( 24479 PWs)   bands (ev):

   -15.3895 -14.2253 -14.1968 -14.1883 -14.1806 -14.1684 -14.1523 -14.1487
   -14.1466 -14.1410 -14.1384 -14.1276 -14.1201 -14.1117 -14.1050 -14.1019
   -14.0953 -14.0933 -14.0857 -14.0775 -14.0670 -14.0584 -14.0531 -14.0451
   -14.0396 -14.0330 -14.0276 -14.0210 -14.0168 -14.0083 -14.0039 -13.9979
   -13.9902 -13.9818 -13.9714 -13.9641 -13.9571 -13.9515 -13.9467 -13.9413
   -13.9374 -13.9276 -13.9199 -13.9128 -13.9100 -13.9054 -13.8978 -13.8947
   -13.8904 -13.8801 -13.8721 -13.8698 -13.8547 -13.8520 -13.8431 -13.8400
   -13.8332 -13.8176 -13.8109 -13.7946 -13.2168  -7.2678  -6.4844  -6.2491
    -5.7609  -5.5124  -4.8583  -4.3966  -3.8280  -3.3531  -3.0479  -2.7805
    -2.3029  -1.5637  -1.2678  -0.7431  -0.2127   0.1226   0.5780   0.8865
     0.9784   1.3467   1.5147   1.9103   2.1256   2.3207   2.5388   2.7718
     3.0957   3.2688   3.5721

          k =-0.0756 0.0436 0.0000 ( 24448 PWs)   bands (ev):

   -15.3896 -14.2303 -14.2164 -14.1813 -14.1746 -14.1657 -14.1628 -14.1553
   -14.1553 -14.1433 -14.1280 -14.1262 -14.1250 -14.1047 -14.0982 -14.0952
   -14.0944 -14.0908 -14.0790 -14.0773 -14.0661 -14.0549 -14.0422 -14.0402
   -14.0381 -14.0332 -14.0205 -14.0196 -14.0076 -14.0056 -13.9980 -13.9946
   -13.9935 -13.9765 -13.9693 -13.9577 -13.9545 -13.9515 -13.9441 -13.9397
   -13.9347 -13.9292 -13.9269 -13.9230 -13.9162 -13.9128 -13.9091 -13.9053
   -13.9032 -13.9024 -13.8964 -13.8744 -13.8659 -13.8502 -13.8459 -13.8310
   -13.8249 -13.8044 -13.7971 -13.7806 -13.2166  -7.0204  -6.9832  -6.1442
    -5.9073  -4.8843  -4.6208  -4.2958  -4.1035  -3.8900  -3.5561  -2.2374
    -2.1573  -2.1309  -0.8653  -0.4052   0.0085   0.2281   0.5386   0.6077
     0.9224   1.2074   1.8394   2.0398   2.1003   2.3422   2.6612   2.8471
     2.9923   3.2975   3.3424

          k =-0.0756 0.0727 0.0000 ( 24479 PWs)   bands (ev):

   -15.3895 -14.2253 -14.1968 -14.1883 -14.1806 -14.1684 -14.1523 -14.1487
   -14.1466 -14.1410 -14.1384 -14.1276 -14.1201 -14.1117 -14.1050 -14.1019
   -14.0953 -14.0933 -14.0857 -14.0775 -14.0670 -14.0584 -14.0531 -14.0451
   -14.0396 -14.0330 -14.0276 -14.0210 -14.0168 -14.0083 -14.0039 -13.9979
   -13.9902 -13.9818 -13.9714 -13.9641 -13.9571 -13.9515 -13.9467 -13.9413
   -13.9374 -13.9276 -13.9199 -13.9128 -13.9100 -13.9054 -13.8978 -13.8947
   -13.8904 -13.8801 -13.8721 -13.8698 -13.8547 -13.8520 -13.8431 -13.8400
   -13.8332 -13.8176 -13.8109 -13.7946 -13.2168  -7.2678  -6.4844  -6.2491
    -5.7609  -5.5124  -4.8583  -4.3966  -3.8280  -3.3531  -3.0479  -2.7805
    -2.3029  -1.5637  -1.2678  -0.7431  -0.2127   0.1226   0.5780   0.8865
     0.9784   1.3467   1.5147   1.9103   2.1256   2.3207   2.5388   2.7718
     3.0957   3.2688   3.5721

          k =-0.0756 0.1018 0.0000 ( 24479 PWs)   bands (ev):

   -15.3895 -14.2253 -14.1968 -14.1883 -14.1806 -14.1684 -14.1523 -14.1487
   -14.1466 -14.1410 -14.1384 -14.1276 -14.1201 -14.1118 -14.1050 -14.1019
   -14.0953 -14.0933 -14.0857 -14.0775 -14.0670 -14.0584 -14.0531 -14.0451
   -14.0396 -14.0330 -14.0276 -14.0210 -14.0168 -14.0083 -14.0039 -13.9979
   -13.9902 -13.9818 -13.9714 -13.9641 -13.9571 -13.9515 -13.9467 -13.9413
   -13.9374 -13.9276 -13.9199 -13.9128 -13.9100 -13.9054 -13.8978 -13.8947
   -13.8904 -13.8801 -13.8721 -13.8698 -13.8547 -13.8520 -13.8431 -13.8400
   -13.8332 -13.8176 -13.8109 -13.7946 -13.2168  -7.2678  -6.4844  -6.2491
    -5.7609  -5.5124  -4.8583  -4.3966  -3.8280  -3.3531  -3.0479  -2.7805
    -2.3029  -1.5637  -1.2678  -0.7431  -0.2127   0.1226   0.5780   0.8865
     0.9784   1.3467   1.5147   1.9103   2.1256   2.3207   2.5388   2.7718
     3.0957   3.2688   3.5721

          k =-0.0756-0.0436 0.0000 ( 24448 PWs)   bands (ev):

   -15.3896 -14.2303 -14.2164 -14.1813 -14.1746 -14.1657 -14.1628 -14.1553
   -14.1553 -14.1433 -14.1280 -14.1262 -14.1250 -14.1047 -14.0982 -14.0952
   -14.0944 -14.0908 -14.0790 -14.0773 -14.0661 -14.0549 -14.0422 -14.0402
   -14.0381 -14.0332 -14.0205 -14.0196 -14.0076 -14.0056 -13.9980 -13.9946
   -13.9935 -13.9765 -13.9693 -13.9577 -13.9545 -13.9515 -13.9441 -13.9397
   -13.9347 -13.9292 -13.9269 -13.9230 -13.9162 -13.9128 -13.9091 -13.9053
   -13.9032 -13.9024 -13.8964 -13.8744 -13.8659 -13.8502 -13.8459 -13.8310
   -13.8249 -13.8044 -13.7971 -13.7806 -13.2166  -7.0204  -6.9832  -6.1442
    -5.9073  -4.8843  -4.6208  -4.2958  -4.1035  -3.8900  -3.5561  -2.2374
    -2.1573  -2.1309  -0.8653  -0.4052   0.0085   0.2281   0.5386   0.6077
     0.9224   1.2074   1.8394   2.0398   2.1003   2.3422   2.6611   2.8471
     2.9923   3.2975   3.3424

     the Fermi energy is     0.8857 ev

!    total energy              =   -1638.81213839 Ry
     Harris-Foulkes estimate   =   -1638.81213846 Ry
     estimated scf accuracy    <       0.00000004 Ry

     The total energy is the sum of the following terms:

     one-electron contribution =   -9357.66186649 Ry
     hartree contribution      =    4762.04425026 Ry
     xc contribution           =    -475.92909699 Ry
     ewald contribution        =    3432.77111372 Ry
     electric field correction =       0.00004473 Ry
     smearing contrib. (-TS)   =      -0.03658361 Ry

     convergence has been achieved in   7 iterations
 
 BEEF-vdW xc energy contributions
           1 :   -416.773590202848     
           2 :    380.791185011397     
           3 :   -320.052134191563     
           4 :    251.657316804419     
           5 :   -191.211009312788     
           6 :    147.162997290306     
           7 :   -119.228108603059     
           8 :    101.011981852138     
           9 :   -84.9111499252853     
          10 :    66.4238913499159     
          11 :   -45.7478336705873     
          12 :    26.3477547265650     
          13 :   -11.9376102447172     
          14 :    3.96074875951388     
          15 :  -0.968286017829826     
          16 :  -0.114256749511298     
          17 :    1.96912123447493     
          18 :   -5.49796261004195     
          19 :    9.78761714529605     
          20 :   -13.1781872100010     
          21 :    14.5419194061083     
          22 :   -13.9345693520074     
          23 :    12.3461972336424     
          24 :   -10.9144557686186     
          25 :    10.2305357978613     
          26 :   -10.1677487714448     
          27 :    10.2111169934118     
          28 :   -9.93367180671930     
          29 :    9.25136465655623     
          30 :   -8.34761696387420     
          31 :   -37.9833011959875     
          32 :   -27.5583802690520     

     Forces acting on atoms (Ry/au):


     negative rho (up, down):  1.322E-03 0.000E+00
     atom    1 type  1   force =     0.00000001    0.00000000   -0.00882644
     atom    2 type  1   force =    -0.00000000   -0.00092730   -0.00966641
     atom    3 type  1   force =    -0.00080307    0.00046365   -0.00966640
     atom    4 type  1   force =     0.00080306    0.00046365   -0.00966641
     atom    5 type  1   force =     0.00210025   -0.00121258    0.01306959
     atom    6 type  1   force =    -0.00210028   -0.00121254    0.01306947
     atom    7 type  1   force =     0.00000006   -0.00000003    0.00440290
     atom    8 type  1   force =    -0.00000005    0.00242516    0.01306952
     atom    9 type  1   force =    -0.00018105   -0.00010442   -0.00109823
     atom   10 type  1   force =     0.00018099   -0.00010459   -0.00109812
     atom   11 type  1   force =    -0.00000017    0.00020903   -0.00109824
     atom   12 type  1   force =     0.00000026    0.00000000   -0.00172173
     atom   13 type  2   force =    -0.00000003    0.00000001    0.00010530
     atom   14 type  3   force =     0.00000003   -0.00000005   -0.00087482

     Total force =     0.002737     Total SCF correction =     0.000283
     SCF correction compared to forces is large: reduce conv_thr to get better values


     entering subroutine stress ...


     negative rho (up, down):  1.322E-03 0.000E+00
          total   stress  (Ry/bohr**3)                   (kbar)     P=    6.86
   0.00006135   0.00000000   0.00000000          9.02      0.00      0.00
   0.00000000   0.00006135  -0.00000000          0.00      9.02     -0.00
   0.00000000  -0.00000000   0.00001716          0.00     -0.00      2.53


     bfgs converged in  10 scf cycles and   9 bfgs steps
     (criteria: energy <  1.0E+00, force <  1.9E-03)

     End of BFGS Geometry Optimization

     Final energy   =   -1638.8121383859 Ry
Begin final coordinates

ATOMIC_POSITIONS (crystal)
In1      0.166666667   0.166666667   0.393650374    0   0   0
In1      0.666666667   0.166666667   0.393650374    0   0   0
In1      0.166666667   0.666666667   0.393650374    0   0   0
In1      0.666666667   0.666666667   0.393650374    0   0   0
In1      0.833333333   0.333333333   0.500000000    0   0   0
In1      0.333333333   0.333333333   0.500000000    0   0   0
In1      0.833333333   0.833333333   0.500000000    0   0   0
In1      0.333333333   0.833333333   0.500000000    0   0   0
In1     -0.008249619  -0.008249490   0.614063582
In1      0.516498933  -0.008249477   0.614063408
In1     -0.008249652   0.516499157   0.614063557
In1      0.499999549   0.499999992   0.607409970
N1       0.166666722   0.166666696   0.652977483
H1       0.166666846   0.166666735   0.693467648
End final coordinates



     Writing output data file calc.save
 
     init_run     :      7.11s CPU      9.47s WALL (       1 calls)
     electrons    :   1896.70s CPU   2520.30s WALL (      10 calls)
     update_pot   :     16.74s CPU     19.20s WALL (       9 calls)
     forces       :     57.55s CPU     61.61s WALL (      10 calls)
     stress       :    181.23s CPU    192.77s WALL (      10 calls)

     Called by init_run:
     wfcinit      :      4.31s CPU      6.13s WALL (       1 calls)
     potinit      :      0.93s CPU      1.14s WALL (       1 calls)

     Called by electrons:
     c_bands      :   1314.15s CPU   1757.33s WALL (     100 calls)
     sum_band     :    255.27s CPU    333.67s WALL (     100 calls)
     v_of_rho     :     63.97s CPU     85.82s WALL (     110 calls)
     newd         :     95.22s CPU    111.86s WALL (     110 calls)
     mix_rho      :      2.03s CPU      2.74s WALL (     100 calls)
     vdW_energy   :     52.43s CPU     68.26s WALL (     470 calls)
     vdW_ffts     :     80.65s CPU    114.31s WALL (     960 calls)
     vdW_v        :     33.67s CPU     40.65s WALL (     470 calls)

     Called by c_bands:
     init_us_2    :      8.95s CPU     10.40s WALL (    4420 calls)
     cegterg      :   1251.87s CPU   1692.35s WALL (    2020 calls)

     Called by *egterg:
     h_psi        :    795.07s CPU   1168.81s WALL (   10350 calls)
     s_psi        :     51.01s CPU     53.59s WALL (   10350 calls)
     g_psi        :      6.64s CPU      6.79s WALL (    8310 calls)
     cdiaghg      :    194.77s CPU    199.17s WALL (   10150 calls)

     Called by h_psi:
     add_vuspsi   :     50.30s CPU     52.83s WALL (   10350 calls)

     General routines
     calbec       :     77.98s CPU     79.71s WALL (   12750 calls)
     fft          :    128.60s CPU    178.34s WALL (   28299 calls)
     ffts         :      0.17s CPU      0.26s WALL (     210 calls)
     fftw         :    615.28s CPU   1050.02s WALL ( 1206480 calls)
     interpolate  :      1.12s CPU      1.99s WALL (     210 calls)
     davcio       :      0.01s CPU      0.45s WALL (      20 calls)
 
     Parallel routines
     fft_scatter  :    414.18s CPU    685.52s WALL ( 1234989 calls)
 
     PWSCF        : 36m10.01s CPU    47m 0.70s WALL

 
   This run was terminated on:  21: 5: 8  18Apr2018            

=------------------------------------------------------------------------------=
   JOB DONE.
=------------------------------------------------------------------------------=
