  python dir          : /nfs/slac/g/suncatfs/sw/espv20/lib/python2.7/site-packages/espresso
  espresso dir        : /nfs/slac/g/suncatfs/sw/espv18/espresso-dynpy-beef/bin
  pseudo dir          : /afs/slac.stanford.edu/u/if/mamunm/psp/gbrv1.5pbe
  ase-espresso py git : ffa2778-git



     Program PWSCF v.5.1rc2 (svn rev. 11289) starts on 20Jan2018 at  9:30:44 

     This program is part of the open-source Quantum ESPRESSO suite
     for quantum simulation of materials; please cite
         "P. Giannozzi et al., J. Phys.:Condens. Matter 21 395502 (2009);
          URL http://www.quantum-espresso.org", 
     in publications or presentations arising from this work. More details at
     http://www.quantum-espresso.org/quote

     Parallel version (MPI), running on    32 processors
     R & G space division:  proc/nbgrp/npool/nimage =      32
     Reading input from pw.inp
     Message from routine read_cards :
     DEPRECATED: no units specified in CELL_PARAMETERS card

     Current dimensions of program PWSCF are:
     Max number of different atomic species (ntypx) = 10
     Max number of k-points (npk) =  40000
     Max angular momentum in pseudopotentials (lmaxx) =  3
     Presently stress not available with electric field


     **************************************************************************
     Initializing libbeef V0.1.1 with the BEEF-vdW functional.
     Citation: Wellendorff et al., PRB 85, 235149 (2012).
     **************************************************************************


     IMPORTANT: XC functional enforced from input :
     Exchange-correlation      = BEEF-VDW ( 1  4 27 13 2)
     Any further DFT definition will be discarded
     Please, verify this is what you really want


     Subspace diagonalization in iterative solution of the eigenvalue problem:
     a serial algorithm will be used

 
     Parallelization info
     --------------------
     sticks:   dense  smooth     PW     G-vecs:    dense   smooth      PW
     Min         123      49     14                24159     6095     922
     Max         124      50     15                24174     6130     942
     Sum        3949    1585    451               773273   195593   29841
 


     bravais-lattice index     =            0
     lattice parameter (alat)  =       1.8897  a.u.
     unit-cell volume          =    6501.5726 (a.u.)^3
     number of atoms/cell      =           13
     number of atomic types    =            2
     number of electrons       =       162.00
     number of Kohn-Sham states=           91
     kinetic-energy cutoff     =      36.7493  Ry
     charge density cutoff     =     367.4932  Ry
     convergence threshold     =      1.0E-05
     mixing beta               =       0.3000
     number of iterations used =           10  plain     mixing
     Exchange-correlation      = BEEF-VDW ( 1  4 27 13 2)
     nstep                     =           50


     celldm(1)=   1.889726  celldm(2)=   0.000000  celldm(3)=   0.000000
     celldm(4)=   0.000000  celldm(5)=   0.000000  celldm(6)=   0.000000

     crystal axes: (cart. coord. in units of alat)
               a(1) = (   6.617606   0.000000   0.000000 )  
               a(2) = (   3.308803   5.731015   0.000000 )  
               a(3) = (   0.000000   0.000000  25.403253 )  

     reciprocal axes: (cart. coord. in units 2 pi/alat)
               b(1) = (  0.151112 -0.087245  0.000000 )  
               b(2) = (  0.000000  0.174489  0.000000 )  
               b(3) = (  0.000000  0.000000  0.039365 )  


     PseudoPot. # 1 for In read from file:
     /afs/slac.stanford.edu/u/if/mamunm/psp/gbrv1.5pbe/In.UPF
     MD5 check sum: 90777abd96fbb83f2e67db2a40c566b9
     Pseudo is Ultrasoft + core correction, Zval = 13.0
     Generated by new atomic code, or converted to UPF format
     Using radial grid of  889 points,  6 beta functions with: 
                l(1) =   0
                l(2) =   0
                l(3) =   1
                l(4) =   1
                l(5) =   2
                l(6) =   2
     Q(r) pseudized with  6 coefficients,  rinner =    1.400   1.400   1.400
                                                       1.400   1.400

     PseudoPot. # 2 for S  read from file:
     /afs/slac.stanford.edu/u/if/mamunm/psp/gbrv1.5pbe/S.UPF
     MD5 check sum: 88d86576ff6df21479756cfb9bdac1df
     Pseudo is Ultrasoft + core correction, Zval =  6.0
     Generated by new atomic code, or converted to UPF format
     Using radial grid of  907 points,  6 beta functions with: 
                l(1) =   0
                l(2) =   0
                l(3) =   1
                l(4) =   1
                l(5) =   2
                l(6) =   2
     Q(r) pseudized with  8 coefficients,  rinner =    1.300   1.300   1.300
                                                       1.300   1.300

     vdW kernel table read from file vdW_kernel_table
     MD5 check sum: 095c7af220d748ca6e76c0b4c6cfb241

     atomic species   valence    mass     pseudopotential
        In1           13.00   114.81800     In( 1.00)
        S1             6.00    32.06000     S ( 1.00)

     No symmetry found



   Cartesian axes

     site n.     atom                  positions (alat units)
         1           In1 tau(   1) = (   1.6544016   0.9551692  10.0000000  )
         2           In1 tau(   2) = (   4.9632047   0.9551692  10.0000000  )
         3           In1 tau(   3) = (   3.3088031   3.8206768  10.0000000  )
         4           In1 tau(   4) = (   6.6176063   3.8206768  10.0000000  )
         5           In1 tau(   5) = (   6.6176063   1.9103384  12.7016265  )
         6           In1 tau(   6) = (   3.3088031   1.9103384  12.7016265  )
         7           In1 tau(   7) = (   8.2720078   4.7758460  12.7016265  )
         8           In1 tau(   8) = (   4.9632047   4.7758460  12.7016265  )
         9           In1 tau(   9) = (   0.0000000   0.0000000  15.4032529  )
        10           In1 tau(  10) = (   3.3088031   0.0000000  15.4032529  )
        11           In1 tau(  11) = (   1.6544016   2.8655076  15.4032529  )
        12           In1 tau(  12) = (   4.9632047   2.8655076  15.4032529  )
        13           S1  tau(  13) = (   3.3088031   1.9103384  17.8732529  )

     number of k points=    20  Fermi-Dirac smearing, width (Ry)=  0.0110
                       cart. coord. in units 2pi/alat
        k(    1) = (   0.0000000   0.0000000   0.0000000), wk =   0.0555556
        k(    2) = (   0.0000000   0.0290815   0.0000000), wk =   0.1111111
        k(    3) = (   0.0000000   0.0581631   0.0000000), wk =   0.1111111
        k(    4) = (   0.0000000  -0.0872446   0.0000000), wk =   0.0555556
        k(    5) = (   0.0251853  -0.0145408   0.0000000), wk =   0.1111111
        k(    6) = (   0.0251853   0.0145408   0.0000000), wk =   0.1111111
        k(    7) = (   0.0251853   0.0436223   0.0000000), wk =   0.1111111
        k(    8) = (   0.0251853  -0.1017853   0.0000000), wk =   0.1111111
        k(    9) = (   0.0251853  -0.0727038   0.0000000), wk =   0.1111111
        k(   10) = (   0.0251853  -0.0436223   0.0000000), wk =   0.1111111
        k(   11) = (   0.0503707  -0.0290815   0.0000000), wk =   0.1111111
        k(   12) = (   0.0503707   0.0000000   0.0000000), wk =   0.1111111
        k(   13) = (   0.0503707   0.0290815   0.0000000), wk =   0.1111111
        k(   14) = (   0.0503707  -0.1163261   0.0000000), wk =   0.1111111
        k(   15) = (   0.0503707  -0.0872446   0.0000000), wk =   0.1111111
        k(   16) = (   0.0503707  -0.0581631   0.0000000), wk =   0.1111111
        k(   17) = (  -0.0755560   0.0436223   0.0000000), wk =   0.0555556
        k(   18) = (  -0.0755560   0.0727038   0.0000000), wk =   0.1111111
        k(   19) = (  -0.0755560   0.1017853   0.0000000), wk =   0.1111111
        k(   20) = (  -0.0755560  -0.0436223   0.0000000), wk =   0.0555556

     Dense  grid:   773273 G-vectors     FFT dimensions: (  80,  80, 300)

     Smooth grid:   195593 G-vectors     FFT dimensions: (  50,  50, 192)

     Largest allocated arrays     est. size (Mb)     dimensions
        Kohn-Sham Wavefunctions         1.13 Mb     (     813,   91)
        NL pseudopotentials             2.90 Mb     (     813,  234)
        Each V/rho on FFT grid          0.98 Mb     (   64000)
        Each G-vector array             0.18 Mb     (   24161)
        G-vector shells                 0.08 Mb     (   10769)
     Largest temporary arrays     est. size (Mb)     dimensions
        Auxiliary wavefunctions         4.52 Mb     (     813,  364)
        Each subspace H/S matrix        2.02 Mb     (     364,  364)
        Each <psi_i|beta_j> matrix      0.32 Mb     (     234,   91)
        Arrays for rho mixing           9.77 Mb     (   64000,   10)

     Initial potential from superposition of free atoms
     Check: negative starting charge=   -0.000151

     starting charge  143.99996, renormalised to  162.00000

     negative rho (up, down):  1.700E-04 0.000E+00


     ************************************************************************
     *
     * You are using vdW-DF for exchange-correlation in this calculation.
     * Please cite the following three references that made this development
     * possible:
     *
     *   M. Dion, H. Rydberg, E. Schroder, D. C. Langreth, and
     *   B. I. Lundqvist, Phys. Rev. Lett. 92, 246401 (2004).
     *
     *   T. Thonhauser, V. R. Cooper, S. Li, A. Puzder, P. Hyldgaard, and
     *   D. C. Langreth, Phys. Rev. B 76, 125112 (2007).
     *
     *   G. Roman-Perez and J. M. Soler, Phys. Rev. Lett. 103, 096102 (2009).
     *
     *
     * If you are using vdW-DF2, please also cite:
     *
     *   K. Lee, E. D. Murray, L. Kong, B. I. Lundqvist, and
     *   D. C. Langreth, Phys. Rev. B 82, 081101(R) (2010).
     *
     *
     * If you are calculating the stress with vdW-DF, please also cite:
     *
     *   R. Sabatini, E. Kucukbenli, B. Kolb, T. Thonhauser, and
     *   S. de Gironcoli, J. Phys.: Condens. Matter 24, 424209 (2012).
     *
     ************************************************************************

     Carrying out vdW-DF run using the following parameters:

     Nqs =      20    Nr_points =    1024   r_max =   100.000
     q_mesh =
               0.00001000     0.04494208     0.09755937     0.15916263
               0.23128650     0.31572767     0.41458969     0.53033537
               0.66584808     0.82450364     1.01025438     1.22772762
               1.48234092     1.78043706     2.12944203     2.53805004
               3.01644009     3.57652955     4.23227104     5.00000000

     Gradients computed in reciprocal space

     ************************************************************************


 
     Adding external electric field

     Computed dipole along edir(3) : 
        Dipole               -7.3293 Ry au,        -18.6293 Debye
        Dipole field         -0.0142 Ry au
 
        Potential amp.        1.3261 Ry
        Total length         46.8051 bohr
 
     Starting wfc are  112 randomized atomic wfcs

     total cpu time spent up to now is       20.7 secs

     per-process dynamical memory:    57.9 Mb

     Self-consistent Calculation

     iteration #  1     ecut=    36.75 Ry     beta=0.30
     Davidson diagonalization with overlap
     ethr =  1.00E-02,  avg # of iterations =  8.1

     negative rho (up, down):  3.907E-06 0.000E+00
 
     Adding external electric field

     Computed dipole along edir(3) : 
        Dipole              133.7326 Ry au,        339.9143 Debye
        Dipole field          0.2585 Ry au
 
        Potential amp.      -24.1964 Ry
        Total length         46.8051 bohr
 

     total cpu time spent up to now is       99.4 secs

     total energy              =   -1144.71008410 Ry
     Harris-Foulkes estimate   =   -1631.99121880 Ry
     estimated scf accuracy    <    1042.06772920 Ry

     iteration #  2     ecut=    36.75 Ry     beta=0.30
     Davidson diagonalization with overlap
     ethr =  1.00E-02,  avg # of iterations = 22.3
 
     Adding external electric field

     Computed dipole along edir(3) : 
        Dipole               33.1648 Ry au,         84.2964 Debye
        Dipole field          0.0641 Ry au
 
        Potential amp.       -6.0006 Ry
        Total length         46.8051 bohr
 

     total cpu time spent up to now is      373.6 secs

     total energy              =   -1369.57116370 Ry
     Harris-Foulkes estimate   =   -2890.18114483 Ry
     estimated scf accuracy    <   15813.57280920 Ry

     iteration #  3     ecut=    36.75 Ry     beta=0.30
     Davidson diagonalization with overlap
     ethr =  1.00E-02,  avg # of iterations = 13.8
 
     Adding external electric field

     Computed dipole along edir(3) : 
        Dipole               29.7213 Ry au,         75.5439 Debye
        Dipole field          0.0574 Ry au
 
        Potential amp.       -5.3775 Ry
        Total length         46.8051 bohr
 

     total cpu time spent up to now is      539.4 secs

     total energy              =   -1597.07595509 Ry
     Harris-Foulkes estimate   =   -1953.51410359 Ry
     estimated scf accuracy    <    2977.45476299 Ry

     iteration #  4     ecut=    36.75 Ry     beta=0.30
     Davidson diagonalization with overlap
     c_bands:  1 eigenvalues not converged
     ethr =  1.00E-02,  avg # of iterations = 17.9
 
     Adding external electric field

     Computed dipole along edir(3) : 
        Dipole               21.8087 Ry au,         55.4321 Debye
        Dipole field          0.0422 Ry au
 
        Potential amp.       -3.9459 Ry
        Total length         46.8051 bohr
 

     total cpu time spent up to now is      678.9 secs

     total energy              =   -1652.73195289 Ry
     Harris-Foulkes estimate   =   -1671.61058161 Ry
     estimated scf accuracy    <     114.36796471 Ry

     iteration #  5     ecut=    36.75 Ry     beta=0.30
     Davidson diagonalization with overlap
     ethr =  1.00E-02,  avg # of iterations =  3.1
 
     Adding external electric field

     Computed dipole along edir(3) : 
        Dipole               15.4128 Ry au,         39.1754 Debye
        Dipole field          0.0298 Ry au
 
        Potential amp.       -2.7887 Ry
        Total length         46.8051 bohr
 

     total cpu time spent up to now is      723.4 secs

     total energy              =   -1645.97595071 Ry
     Harris-Foulkes estimate   =   -1655.82042184 Ry
     estimated scf accuracy    <      58.67017737 Ry

     iteration #  6     ecut=    36.75 Ry     beta=0.30
     Davidson diagonalization with overlap
     ethr =  1.00E-02,  avg # of iterations =  2.0
 
     Adding external electric field

     Computed dipole along edir(3) : 
        Dipole               10.7108 Ry au,         27.2242 Debye
        Dipole field          0.0207 Ry au
 
        Potential amp.       -1.9379 Ry
        Total length         46.8051 bohr
 

     total cpu time spent up to now is      763.2 secs

     total energy              =   -1643.74427026 Ry
     Harris-Foulkes estimate   =   -1647.14574588 Ry
     estimated scf accuracy    <      19.75275932 Ry

     iteration #  7     ecut=    36.75 Ry     beta=0.30
     Davidson diagonalization with overlap
     ethr =  1.00E-02,  avg # of iterations =  1.2
 
     Adding external electric field

     Computed dipole along edir(3) : 
        Dipole                8.8312 Ry au,         22.4467 Debye
        Dipole field          0.0171 Ry au
 
        Potential amp.       -1.5978 Ry
        Total length         46.8051 bohr
 

     total cpu time spent up to now is      800.8 secs

     total energy              =   -1642.97002454 Ry
     Harris-Foulkes estimate   =   -1644.19039097 Ry
     estimated scf accuracy    <      11.26409802 Ry

     iteration #  8     ecut=    36.75 Ry     beta=0.30
     Davidson diagonalization with overlap
     ethr =  6.95E-03,  avg # of iterations =  1.8
 
     Adding external electric field

     Computed dipole along edir(3) : 
        Dipole                6.3655 Ry au,         16.1795 Debye
        Dipole field          0.0123 Ry au
 
        Potential amp.       -1.1517 Ry
        Total length         46.8051 bohr
 

     total cpu time spent up to now is      839.4 secs

     total energy              =   -1642.50574219 Ry
     Harris-Foulkes estimate   =   -1643.26106808 Ry
     estimated scf accuracy    <       3.67118094 Ry

     iteration #  9     ecut=    36.75 Ry     beta=0.30
     Davidson diagonalization with overlap
     ethr =  2.27E-03,  avg # of iterations =  2.1

     negative rho (up, down):  9.550E-02 0.000E+00
 
     Adding external electric field

     Computed dipole along edir(3) : 
        Dipole               -1.2892 Ry au,         -3.2769 Debye
        Dipole field         -0.0025 Ry au
 
        Potential amp.        0.2333 Ry
        Total length         46.8051 bohr
 

     total cpu time spent up to now is      878.6 secs

     total energy              =   -1640.76603958 Ry
     Harris-Foulkes estimate   =   -1642.81621996 Ry
     estimated scf accuracy    <       8.42913552 Ry

     iteration # 10     ecut=    36.75 Ry     beta=0.30
     Davidson diagonalization with overlap
     ethr =  2.27E-03,  avg # of iterations =  7.1

     negative rho (up, down):  7.668E-02 0.000E+00
 
     Adding external electric field

     Computed dipole along edir(3) : 
        Dipole               -0.7608 Ry au,         -1.9337 Debye
        Dipole field         -0.0015 Ry au
 
        Potential amp.        0.1377 Ry
        Total length         46.8051 bohr
 

     total cpu time spent up to now is      936.1 secs

     total energy              =   -1642.13314593 Ry
     Harris-Foulkes estimate   =   -1642.57761604 Ry
     estimated scf accuracy    <      30.23597610 Ry

     iteration # 11     ecut=    36.75 Ry     beta=0.30
     Davidson diagonalization with overlap
     ethr =  2.27E-03,  avg # of iterations =  1.9

     negative rho (up, down):  1.642E-02 0.000E+00
 
     Adding external electric field

     Computed dipole along edir(3) : 
        Dipole                1.5043 Ry au,          3.8235 Debye
        Dipole field          0.0029 Ry au
 
        Potential amp.       -0.2722 Ry
        Total length         46.8051 bohr
 

     total cpu time spent up to now is      974.6 secs

     total energy              =   -1641.70937719 Ry
     Harris-Foulkes estimate   =   -1642.23114289 Ry
     estimated scf accuracy    <      13.33704455 Ry

     iteration # 12     ecut=    36.75 Ry     beta=0.30
     Davidson diagonalization with overlap
     ethr =  2.27E-03,  avg # of iterations =  5.0

     negative rho (up, down):  7.488E-03 0.000E+00
 
     Adding external electric field

     Computed dipole along edir(3) : 
        Dipole                1.8754 Ry au,          4.7667 Debye
        Dipole field          0.0036 Ry au
 
        Potential amp.       -0.3393 Ry
        Total length         46.8051 bohr
 

     total cpu time spent up to now is     1018.4 secs

     total energy              =   -1641.92039628 Ry
     Harris-Foulkes estimate   =   -1641.96870064 Ry
     estimated scf accuracy    <       3.24817262 Ry

     iteration # 13     ecut=    36.75 Ry     beta=0.30
     Davidson diagonalization with overlap
     ethr =  2.01E-03,  avg # of iterations =  1.0

     negative rho (up, down):  3.731E-03 0.000E+00
 
     Adding external electric field

     Computed dipole along edir(3) : 
        Dipole                5.5649 Ry au,         14.1445 Debye
        Dipole field          0.0108 Ry au
 
        Potential amp.       -1.0069 Ry
        Total length         46.8051 bohr
 

     total cpu time spent up to now is     1056.3 secs

     total energy              =   -1641.89662092 Ry
     Harris-Foulkes estimate   =   -1641.87493328 Ry
     estimated scf accuracy    <       2.17966776 Ry

     iteration # 14     ecut=    36.75 Ry     beta=0.30
     Davidson diagonalization with overlap
     ethr =  1.35E-03,  avg # of iterations =  4.1

     negative rho (up, down):  2.505E-02 0.000E+00
 
     Adding external electric field

     Computed dipole along edir(3) : 
        Dipole                6.3768 Ry au,         16.2082 Debye
        Dipole field          0.0123 Ry au
 
        Potential amp.       -1.1538 Ry
        Total length         46.8051 bohr
 

     total cpu time spent up to now is     1099.9 secs

     total energy              =   -1642.26546665 Ry
     Harris-Foulkes estimate   =   -1642.12705015 Ry
     estimated scf accuracy    <       0.71595409 Ry

     iteration # 15     ecut=    36.75 Ry     beta=0.30
     Davidson diagonalization with overlap
     ethr =  4.42E-04,  avg # of iterations =  1.4

     negative rho (up, down):  8.859E-02 0.000E+00
 
     Adding external electric field

     Computed dipole along edir(3) : 
        Dipole                8.9077 Ry au,         22.6412 Debye
        Dipole field          0.0172 Ry au
 
        Potential amp.       -1.6117 Ry
        Total length         46.8051 bohr
 

     total cpu time spent up to now is     1137.8 secs

     total energy              =   -1642.74639810 Ry
     Harris-Foulkes estimate   =   -1642.19771902 Ry
     estimated scf accuracy    <       0.84665838 Ry

     iteration # 16     ecut=    36.75 Ry     beta=0.30
     Davidson diagonalization with overlap
     ethr =  4.42E-04,  avg # of iterations =  2.8

     negative rho (up, down):  2.433E-02 0.000E+00
 
     Adding external electric field

     Computed dipole along edir(3) : 
        Dipole                5.8078 Ry au,         14.7620 Debye
        Dipole field          0.0112 Ry au
 
        Potential amp.       -1.0508 Ry
        Total length         46.8051 bohr
 

     total cpu time spent up to now is     1177.4 secs

     total energy              =   -1642.16825083 Ry
     Harris-Foulkes estimate   =   -1642.85483271 Ry
     estimated scf accuracy    <       2.07788660 Ry

     iteration # 17     ecut=    36.75 Ry     beta=0.30
     Davidson diagonalization with overlap
     ethr =  4.42E-04,  avg # of iterations =  2.0

     negative rho (up, down):  1.420E-03 0.000E+00
 
     Adding external electric field

     Computed dipole along edir(3) : 
        Dipole                1.9732 Ry au,          5.0153 Debye
        Dipole field          0.0038 Ry au
 
        Potential amp.       -0.3570 Ry
        Total length         46.8051 bohr
 

     total cpu time spent up to now is     1216.2 secs

     total energy              =   -1641.75340083 Ry
     Harris-Foulkes estimate   =   -1642.24263165 Ry
     estimated scf accuracy    <       0.83745085 Ry

     iteration # 18     ecut=    36.75 Ry     beta=0.30
     Davidson diagonalization with overlap
     ethr =  4.42E-04,  avg # of iterations =  2.6

     negative rho (up, down):  1.099E-02 0.000E+00
 
     Adding external electric field

     Computed dipole along edir(3) : 
        Dipole               -0.5918 Ry au,         -1.5042 Debye
        Dipole field         -0.0011 Ry au
 
        Potential amp.        0.1071 Ry
        Total length         46.8051 bohr
 

     total cpu time spent up to now is     1256.9 secs

     total energy              =   -1641.68859411 Ry
     Harris-Foulkes estimate   =   -1641.78775948 Ry
     estimated scf accuracy    <       0.16509555 Ry

     iteration # 19     ecut=    36.75 Ry     beta=0.30
     Davidson diagonalization with overlap
     ethr =  1.02E-04,  avg # of iterations =  4.6

     negative rho (up, down):  4.643E-01 0.000E+00
 
     Adding external electric field

     Computed dipole along edir(3) : 
        Dipole               -4.6894 Ry au,        -11.9194 Debye
        Dipole field         -0.0091 Ry au
 
        Potential amp.        0.8485 Ry
        Total length         46.8051 bohr
 

     total cpu time spent up to now is     1304.0 secs

     total energy              =   -1641.91665150 Ry
     Harris-Foulkes estimate   =   -1641.66769679 Ry
     estimated scf accuracy    <       0.48580784 Ry

     iteration # 20     ecut=    36.75 Ry     beta=0.30
     Davidson diagonalization with overlap
     ethr =  1.02E-04,  avg # of iterations =  8.0

     negative rho (up, down):  9.994E-01 0.000E+00
 
     Adding external electric field

     Computed dipole along edir(3) : 
        Dipole               -8.0224 Ry au,        -20.3909 Debye
        Dipole field         -0.0155 Ry au
 
        Potential amp.        1.4515 Ry
        Total length         46.8051 bohr
 

     total cpu time spent up to now is     1374.0 secs

     total energy              =   -1650.87165582 Ry
     Harris-Foulkes estimate   =   -1644.05368775 Ry
     estimated scf accuracy    <     173.03129610 Ry

     iteration # 21     ecut=    36.75 Ry     beta=0.30
     Davidson diagonalization with overlap
     ethr =  1.02E-04,  avg # of iterations = 10.2

     negative rho (up, down):  1.182E-01 0.000E+00
 
     Adding external electric field

     Computed dipole along edir(3) : 
        Dipole               -2.4227 Ry au,         -6.1578 Debye
        Dipole field         -0.0047 Ry au
 
        Potential amp.        0.4383 Ry
        Total length         46.8051 bohr
 

     total cpu time spent up to now is     1444.8 secs

     total energy              =   -1627.21072505 Ry
     Harris-Foulkes estimate   =   -1655.84216379 Ry
     estimated scf accuracy    <     935.25854895 Ry

     iteration # 22     ecut=    36.75 Ry     beta=0.30
     Davidson diagonalization with overlap
     ethr =  1.02E-04,  avg # of iterations = 10.2

     negative rho (up, down):  2.654E-01 0.000E+00
 
     Adding external electric field

     Computed dipole along edir(3) : 
        Dipole               -3.5302 Ry au,         -8.9728 Debye
        Dipole field         -0.0068 Ry au
 
        Potential amp.        0.6387 Ry
        Total length         46.8051 bohr
 

     total cpu time spent up to now is     1524.5 secs

     total energy              =   -1641.99228270 Ry
     Harris-Foulkes estimate   =   -1641.76030900 Ry
     estimated scf accuracy    <       2.24934955 Ry

     iteration # 23     ecut=    36.75 Ry     beta=0.30
     Davidson diagonalization with overlap
     ethr =  1.02E-04,  avg # of iterations =  5.5
 
     Adding external electric field

     Computed dipole along edir(3) : 
        Dipole                3.6864 Ry au,          9.3699 Debye
        Dipole field          0.0071 Ry au
 
        Potential amp.       -0.6670 Ry
        Total length         46.8051 bohr
 

     total cpu time spent up to now is     1576.1 secs

     total energy              =   -1636.79273243 Ry
     Harris-Foulkes estimate   =   -1642.42363054 Ry
     estimated scf accuracy    <      44.74590378 Ry

     iteration # 24     ecut=    36.75 Ry     beta=0.30
     Davidson diagonalization with overlap
     ethr =  1.02E-04,  avg # of iterations = 10.0
 
     Adding external electric field

     Computed dipole along edir(3) : 
        Dipole                1.3637 Ry au,          3.4661 Debye
        Dipole field          0.0026 Ry au
 
        Potential amp.       -0.2467 Ry
        Total length         46.8051 bohr
 

     total cpu time spent up to now is     1640.6 secs

     total energy              =   -1641.73514260 Ry
     Harris-Foulkes estimate   =   -1641.92735774 Ry
     estimated scf accuracy    <       0.39362027 Ry

     iteration # 25     ecut=    36.75 Ry     beta=0.30
     Davidson diagonalization with overlap
     ethr =  1.02E-04,  avg # of iterations =  2.0

     negative rho (up, down):  2.821E-02 0.000E+00
 
     Adding external electric field

     Computed dipole along edir(3) : 
        Dipole               -0.7839 Ry au,         -1.9924 Debye
        Dipole field         -0.0015 Ry au
 
        Potential amp.        0.1418 Ry
        Total length         46.8051 bohr
 

     total cpu time spent up to now is     1680.4 secs

     total energy              =   -1641.65902510 Ry
     Harris-Foulkes estimate   =   -1641.74240381 Ry
     estimated scf accuracy    <       0.17179192 Ry

     iteration # 26     ecut=    36.75 Ry     beta=0.30
     Davidson diagonalization with overlap
     ethr =  1.02E-04,  avg # of iterations =  4.7

     negative rho (up, down):  1.949E-01 0.000E+00
 
     Adding external electric field

     Computed dipole along edir(3) : 
        Dipole               -1.6001 Ry au,         -4.0671 Debye
        Dipole field         -0.0031 Ry au
 
        Potential amp.        0.2895 Ry
        Total length         46.8051 bohr
 

     total cpu time spent up to now is     1727.7 secs

     total energy              =   -1641.70230730 Ry
     Harris-Foulkes estimate   =   -1641.68519084 Ry
     estimated scf accuracy    <       0.15077047 Ry

     iteration # 27     ecut=    36.75 Ry     beta=0.30
     Davidson diagonalization with overlap
     ethr =  9.31E-05,  avg # of iterations =  6.3

     negative rho (up, down):  1.090E-01 0.000E+00
 
     Adding external electric field

     Computed dipole along edir(3) : 
        Dipole               -0.6676 Ry au,         -1.6969 Debye
        Dipole field         -0.0013 Ry au
 
        Potential amp.        0.1208 Ry
        Total length         46.8051 bohr
 

     total cpu time spent up to now is     1775.9 secs

     total energy              =   -1641.67237497 Ry
     Harris-Foulkes estimate   =   -1641.71141140 Ry
     estimated scf accuracy    <       0.36065943 Ry

     iteration # 28     ecut=    36.75 Ry     beta=0.30
     Davidson diagonalization with overlap
     ethr =  9.31E-05,  avg # of iterations =  8.8

     negative rho (up, down):  9.242E-02 0.000E+00
 
     Adding external electric field

     Computed dipole along edir(3) : 
        Dipole               -0.6034 Ry au,         -1.5336 Debye
        Dipole field         -0.0012 Ry au
 
        Potential amp.        0.1092 Ry
        Total length         46.8051 bohr
 

     total cpu time spent up to now is     1825.6 secs

     total energy              =   -1641.68495154 Ry
     Harris-Foulkes estimate   =   -1641.68573106 Ry
     estimated scf accuracy    <       0.10216100 Ry

     iteration # 29     ecut=    36.75 Ry     beta=0.30
     Davidson diagonalization with overlap
     ethr =  6.31E-05,  avg # of iterations =  3.6

     negative rho (up, down):  9.443E-02 0.000E+00
 
     Adding external electric field

     Computed dipole along edir(3) : 
        Dipole               -0.6849 Ry au,         -1.7407 Debye
        Dipole field         -0.0013 Ry au
 
        Potential amp.        0.1239 Ry
        Total length         46.8051 bohr
 

     total cpu time spent up to now is     1866.2 secs

     total energy              =   -1641.68526177 Ry
     Harris-Foulkes estimate   =   -1641.68480171 Ry
     estimated scf accuracy    <       0.09269142 Ry

     iteration # 30     ecut=    36.75 Ry     beta=0.30
     Davidson diagonalization with overlap
     ethr =  5.72E-05,  avg # of iterations =  1.0

     negative rho (up, down):  9.236E-02 0.000E+00
 
     Adding external electric field

     Computed dipole along edir(3) : 
        Dipole               -0.7072 Ry au,         -1.7975 Debye
        Dipole field         -0.0014 Ry au
 
        Potential amp.        0.1280 Ry
        Total length         46.8051 bohr
 

     total cpu time spent up to now is     1904.2 secs

     total energy              =   -1641.68529646 Ry
     Harris-Foulkes estimate   =   -1641.68526870 Ry
     estimated scf accuracy    <       0.10082222 Ry

     iteration # 31     ecut=    36.75 Ry     beta=0.30
     Davidson diagonalization with overlap
     ethr =  5.72E-05,  avg # of iterations =  1.0

     negative rho (up, down):  9.197E-03 0.000E+00
 
     Adding external electric field

     Computed dipole along edir(3) : 
        Dipole               -0.0908 Ry au,         -0.2307 Debye
        Dipole field         -0.0002 Ry au
 
        Potential amp.        0.0164 Ry
        Total length         46.8051 bohr
 

     total cpu time spent up to now is     1942.5 secs

     total energy              =   -1641.68215156 Ry
     Harris-Foulkes estimate   =   -1641.68626149 Ry
     estimated scf accuracy    <       0.09773134 Ry

     iteration # 32     ecut=    36.75 Ry     beta=0.30
     Davidson diagonalization with overlap
     ethr =  5.72E-05,  avg # of iterations =  5.5

     negative rho (up, down):  3.358E-06 0.000E+00
 
     Adding external electric field

     Computed dipole along edir(3) : 
        Dipole                0.4940 Ry au,          1.2557 Debye
        Dipole field          0.0010 Ry au
 
        Potential amp.       -0.0894 Ry
        Total length         46.8051 bohr
 

     total cpu time spent up to now is     1985.9 secs

     total energy              =   -1641.69766406 Ry
     Harris-Foulkes estimate   =   -1641.68472291 Ry
     estimated scf accuracy    <       0.01398633 Ry

     iteration # 33     ecut=    36.75 Ry     beta=0.30
     Davidson diagonalization with overlap
     ethr =  8.63E-06,  avg # of iterations =  6.5

     negative rho (up, down):  1.445E-04 0.000E+00
 
     Adding external electric field

     Computed dipole along edir(3) : 
        Dipole                0.1587 Ry au,          0.4034 Debye
        Dipole field          0.0003 Ry au
 
        Potential amp.       -0.0287 Ry
        Total length         46.8051 bohr
 

     total cpu time spent up to now is     2035.0 secs

     total energy              =   -1641.69107752 Ry
     Harris-Foulkes estimate   =   -1641.70000472 Ry
     estimated scf accuracy    <       0.03815626 Ry

     iteration # 34     ecut=    36.75 Ry     beta=0.30
     Davidson diagonalization with overlap
     ethr =  8.63E-06,  avg # of iterations =  3.5

     negative rho (up, down):  1.858E-01 0.000E+00
 
     Adding external electric field

     Computed dipole along edir(3) : 
        Dipole               -2.2319 Ry au,         -5.6730 Debye
        Dipole field         -0.0043 Ry au
 
        Potential amp.        0.4038 Ry
        Total length         46.8051 bohr
 

     total cpu time spent up to now is     2078.1 secs

     total energy              =   -1641.70290811 Ry
     Harris-Foulkes estimate   =   -1641.68220561 Ry
     estimated scf accuracy    <       0.01874528 Ry

     iteration # 35     ecut=    36.75 Ry     beta=0.30
     Davidson diagonalization with overlap
     ethr =  8.63E-06,  avg # of iterations =  7.8

     negative rho (up, down):  3.330E-04 0.000E+00
 
     Adding external electric field

     Computed dipole along edir(3) : 
        Dipole                0.6126 Ry au,          1.5570 Debye
        Dipole field          0.0012 Ry au
 
        Potential amp.       -0.1108 Ry
        Total length         46.8051 bohr
 

     total cpu time spent up to now is     2141.3 secs

     total energy              =   -1641.31549821 Ry
     Harris-Foulkes estimate   =   -1641.77159447 Ry
     estimated scf accuracy    <       1.88280016 Ry

     iteration # 36     ecut=    36.75 Ry     beta=0.30
     Davidson diagonalization with overlap
     ethr =  8.63E-06,  avg # of iterations = 11.4

     negative rho (up, down):  4.587E-04 0.000E+00
 
     Adding external electric field

     Computed dipole along edir(3) : 
        Dipole                1.1372 Ry au,          2.8905 Debye
        Dipole field          0.0022 Ry au
 
        Potential amp.       -0.2058 Ry
        Total length         46.8051 bohr
 

     total cpu time spent up to now is     2208.0 secs

     total energy              =   -1641.71676388 Ry
     Harris-Foulkes estimate   =   -1641.70172341 Ry
     estimated scf accuracy    <       0.04531626 Ry

     iteration # 37     ecut=    36.75 Ry     beta=0.30
     Davidson diagonalization with overlap
     ethr =  8.63E-06,  avg # of iterations =  3.5

     negative rho (up, down):  5.776E-04 0.000E+00
 
     Adding external electric field

     Computed dipole along edir(3) : 
        Dipole                1.0046 Ry au,          2.5534 Debye
        Dipole field          0.0019 Ry au
 
        Potential amp.       -0.1818 Ry
        Total length         46.8051 bohr
 

     total cpu time spent up to now is     2252.5 secs

     total energy              =   -1641.71376642 Ry
     Harris-Foulkes estimate   =   -1641.71889968 Ry
     estimated scf accuracy    <       0.10987021 Ry

     iteration # 38     ecut=    36.75 Ry     beta=0.30
     Davidson diagonalization with overlap
     ethr =  8.63E-06,  avg # of iterations =  1.0

     negative rho (up, down):  3.464E-04 0.000E+00
 
     Adding external electric field

     Computed dipole along edir(3) : 
        Dipole                0.6772 Ry au,          1.7213 Debye
        Dipole field          0.0013 Ry au
 
        Potential amp.       -0.1225 Ry
        Total length         46.8051 bohr
 

     total cpu time spent up to now is     2290.2 secs

     total energy              =   -1641.70487834 Ry
     Harris-Foulkes estimate   =   -1641.71487502 Ry
     estimated scf accuracy    <       0.09632178 Ry

     iteration # 39     ecut=    36.75 Ry     beta=0.30
     Davidson diagonalization with overlap
     ethr =  8.63E-06,  avg # of iterations =  2.0

     negative rho (up, down):  3.408E-04 0.000E+00
 
     Adding external electric field

     Computed dipole along edir(3) : 
        Dipole                0.7343 Ry au,          1.8663 Debye
        Dipole field          0.0014 Ry au
 
        Potential amp.       -0.1329 Ry
        Total length         46.8051 bohr
 

     total cpu time spent up to now is     2330.0 secs

     total energy              =   -1641.70651603 Ry
     Harris-Foulkes estimate   =   -1641.70506363 Ry
     estimated scf accuracy    <       0.06173977 Ry

     iteration # 40     ecut=    36.75 Ry     beta=0.30
     Davidson diagonalization with overlap
     ethr =  8.63E-06,  avg # of iterations =  1.0

     negative rho (up, down):  2.148E-03 0.000E+00
 
     Adding external electric field

     Computed dipole along edir(3) : 
        Dipole                1.0181 Ry au,          2.5876 Debye
        Dipole field          0.0020 Ry au
 
        Potential amp.       -0.1842 Ry
        Total length         46.8051 bohr
 

     total cpu time spent up to now is     2367.9 secs

     total energy              =   -1641.71357755 Ry
     Harris-Foulkes estimate   =   -1641.70556752 Ry
     estimated scf accuracy    <       0.06701436 Ry

     iteration # 41     ecut=    36.75 Ry     beta=0.30
     Davidson diagonalization with overlap
     ethr =  8.63E-06,  avg # of iterations =  2.0

     negative rho (up, down):  5.852E-04 0.000E+00
 
     Adding external electric field

     Computed dipole along edir(3) : 
        Dipole                1.1610 Ry au,          2.9509 Debye
        Dipole field          0.0022 Ry au
 
        Potential amp.       -0.2101 Ry
        Total length         46.8051 bohr
 

     total cpu time spent up to now is     2407.0 secs

     total energy              =   -1641.71936229 Ry
     Harris-Foulkes estimate   =   -1641.71337848 Ry
     estimated scf accuracy    <       0.11303555 Ry

     iteration # 42     ecut=    36.75 Ry     beta=0.30
     Davidson diagonalization with overlap
     ethr =  8.63E-06,  avg # of iterations =  1.0

     negative rho (up, down):  9.446E-04 0.000E+00
 
     Adding external electric field

     Computed dipole along edir(3) : 
        Dipole                0.3375 Ry au,          0.8578 Debye
        Dipole field          0.0007 Ry au
 
        Potential amp.       -0.0611 Ry
        Total length         46.8051 bohr
 

     total cpu time spent up to now is     2444.3 secs

     total energy              =   -1641.69658337 Ry
     Harris-Foulkes estimate   =   -1641.72180527 Ry
     estimated scf accuracy    <       0.12385845 Ry

     iteration # 43     ecut=    36.75 Ry     beta=0.30
     Davidson diagonalization with overlap
     ethr =  8.63E-06,  avg # of iterations =  3.0

     negative rho (up, down):  1.029E-03 0.000E+00
 
     Adding external electric field

     Computed dipole along edir(3) : 
        Dipole               -0.3774 Ry au,         -0.9593 Debye
        Dipole field         -0.0007 Ry au
 
        Potential amp.        0.0683 Ry
        Total length         46.8051 bohr
 

     total cpu time spent up to now is     2488.5 secs

     total energy              =   -1641.68329186 Ry
     Harris-Foulkes estimate   =   -1641.69817601 Ry
     estimated scf accuracy    <       0.04096131 Ry

     iteration # 44     ecut=    36.75 Ry     beta=0.30
     Davidson diagonalization with overlap
     ethr =  8.63E-06,  avg # of iterations =  4.0

     negative rho (up, down):  2.490E-03 0.000E+00
 
     Adding external electric field

     Computed dipole along edir(3) : 
        Dipole               -0.8210 Ry au,         -2.0868 Debye
        Dipole field         -0.0016 Ry au
 
        Potential amp.        0.1485 Ry
        Total length         46.8051 bohr
 

     total cpu time spent up to now is     2534.0 secs

     total energy              =   -1641.68223749 Ry
     Harris-Foulkes estimate   =   -1641.68346326 Ry
     estimated scf accuracy    <       0.00599842 Ry

     iteration # 45     ecut=    36.75 Ry     beta=0.30
     Davidson diagonalization with overlap
     ethr =  3.70E-06,  avg # of iterations =  6.2

     negative rho (up, down):  2.830E-03 0.000E+00
 
     Adding external electric field

     Computed dipole along edir(3) : 
        Dipole               -0.8476 Ry au,         -2.1543 Debye
        Dipole field         -0.0016 Ry au
 
        Potential amp.        0.1534 Ry
        Total length         46.8051 bohr
 

     total cpu time spent up to now is     2581.8 secs

     total energy              =   -1641.68267056 Ry
     Harris-Foulkes estimate   =   -1641.68255710 Ry
     estimated scf accuracy    <       0.00002371 Ry

     iteration # 46     ecut=    36.75 Ry     beta=0.30
     Davidson diagonalization with overlap
     ethr =  1.46E-08,  avg # of iterations =  4.1

     negative rho (up, down):  1.021E-03 0.000E+00

     negative rho (up, down):  1.021E-03 0.000E+00

     negative rho (up, down):  1.021E-03 0.000E+00

     negative rho (up, down):  1.021E-03 0.000E+00

     negative rho (up, down):  1.021E-03 0.000E+00

     negative rho (up, down):  1.021E-03 0.000E+00

     negative rho (up, down):  1.021E-03 0.000E+00

     negative rho (up, down):  1.021E-03 0.000E+00

     negative rho (up, down):  1.021E-03 0.000E+00

     negative rho (up, down):  1.021E-03 0.000E+00

     negative rho (up, down):  1.021E-03 0.000E+00

     negative rho (up, down):  1.021E-03 0.000E+00

     negative rho (up, down):  1.021E-03 0.000E+00

     negative rho (up, down):  1.021E-03 0.000E+00

     negative rho (up, down):  1.021E-03 0.000E+00

     negative rho (up, down):  1.021E-03 0.000E+00

     negative rho (up, down):  1.021E-03 0.000E+00

     negative rho (up, down):  1.021E-03 0.000E+00

     negative rho (up, down):  1.021E-03 0.000E+00

     negative rho (up, down):  1.021E-03 0.000E+00

     negative rho (up, down):  1.021E-03 0.000E+00

     negative rho (up, down):  1.021E-03 0.000E+00

     negative rho (up, down):  1.021E-03 0.000E+00

     negative rho (up, down):  1.021E-03 0.000E+00

     negative rho (up, down):  1.021E-03 0.000E+00

     negative rho (up, down):  1.021E-03 0.000E+00

     negative rho (up, down):  1.021E-03 0.000E+00

     negative rho (up, down):  1.021E-03 0.000E+00

     negative rho (up, down):  1.021E-03 0.000E+00

     negative rho (up, down):  1.021E-03 0.000E+00

     negative rho (up, down):  1.021E-03 0.000E+00

     negative rho (up, down):  1.021E-03 0.000E+00

     negative rho (up, down):  1.021E-03 0.000E+00

     negative rho (up, down):  1.021E-03 0.000E+00

     negative rho (up, down):  1.021E-03 0.000E+00
 
     Adding external electric field

     Computed dipole along edir(3) : 
        Dipole               -0.8396 Ry au,         -2.1341 Debye
        Dipole field         -0.0016 Ry au
 
        Potential amp.        0.1519 Ry
        Total length         46.8051 bohr
 

     total cpu time spent up to now is     2705.4 secs

     End of self-consistent calculation

          k = 0.0000 0.0000 0.0000 ( 24345 PWs)   bands (ev):

   -15.1714 -15.1714 -15.1703 -15.0809 -15.0809 -15.0751 -15.0619 -15.0619
   -15.0605 -15.0563 -15.0214 -15.0185 -15.0185 -15.0109 -14.9913 -14.9913
   -14.9780 -14.9780 -14.9751 -14.9505 -14.9505 -14.9404 -14.9404 -14.9395
   -14.9334 -14.9185 -14.9185 -14.9082 -14.9028 -14.9028 -14.8210 -14.8210
   -14.7911 -14.7911 -14.7803 -14.7565 -14.7480 -14.7480 -14.7359 -14.7359
   -14.7117 -14.7084 -14.7084 -14.6980 -14.6980 -14.6914 -14.6738 -14.6738
   -14.6694 -14.6694 -14.6678 -14.6549 -14.6393 -14.6393 -14.6331 -14.6331
   -14.6269 -14.5955 -14.5926 -14.5926 -10.8525  -9.1699  -7.7419  -5.6264
    -4.3637  -4.3434  -4.3434  -4.0669  -4.0669  -4.0585  -2.8782  -2.8782
    -2.7803  -2.6866  -2.5382  -2.5382  -2.1773  -1.3349  -1.3349  -1.1858
    -0.8728  -0.6599  -0.6599  -0.1118  -0.1118   0.1989   1.3333   2.7192
     2.7193   2.7878   2.9661

          k = 0.0000 0.0291 0.0000 ( 24403 PWs)   bands (ev):

   -15.1612 -15.1493 -15.1486 -15.0731 -15.0720 -15.0669 -15.0511 -15.0451
   -15.0385 -15.0362 -15.0135 -15.0117 -15.0039 -15.0034 -14.9873 -14.9740
   -14.9715 -14.9698 -14.9674 -14.9558 -14.9508 -14.9458 -14.9355 -14.9327
   -14.9264 -14.9099 -14.9047 -14.8997 -14.8956 -14.8871 -14.8299 -14.8215
   -14.7972 -14.7923 -14.7831 -14.7686 -14.7571 -14.7503 -14.7494 -14.7485
   -14.7218 -14.7190 -14.7187 -14.7076 -14.7071 -14.7005 -14.6880 -14.6809
   -14.6791 -14.6788 -14.6723 -14.6678 -14.6564 -14.6542 -14.6477 -14.6466
   -14.6376 -14.6132 -14.6091 -14.6087 -10.8485  -9.0337  -7.6087  -5.6853
    -5.5059  -4.8702  -4.8671  -4.3779  -3.7369  -3.7365  -2.9470  -2.9266
    -2.6987  -2.1877  -1.9484  -1.9371  -1.9009  -1.4576  -1.4180  -1.0938
    -0.5397  -0.5363  -0.3383   0.3197   0.3926   0.9468   1.5014   1.8447
     2.4045   2.4915   3.1635

          k = 0.0000 0.0582 0.0000 ( 24465 PWs)   bands (ev):

   -15.1342 -15.0957 -15.0946 -15.0610 -15.0510 -15.0431 -15.0389 -15.0106
   -15.0055 -15.0049 -14.9998 -14.9939 -14.9875 -14.9820 -14.9806 -14.9577
   -14.9539 -14.9488 -14.9487 -14.9291 -14.9287 -14.9247 -14.9194 -14.9188
   -14.8990 -14.8873 -14.8854 -14.8778 -14.8693 -14.8452 -14.8379 -14.8131
   -14.8085 -14.8078 -14.8035 -14.7962 -14.7928 -14.7899 -14.7773 -14.7588
   -14.7550 -14.7516 -14.7433 -14.7429 -14.7277 -14.7238 -14.7198 -14.7135
   -14.7084 -14.7073 -14.7070 -14.6965 -14.6949 -14.6835 -14.6681 -14.6666
   -14.6612 -14.6554 -14.6258 -14.6185 -10.8405  -8.6213  -7.2071  -6.9431
    -5.5771  -5.2752  -5.2746  -5.1404  -3.9930  -3.9833  -3.6476  -2.4355
    -2.3651  -1.8287  -1.5009  -1.4943  -1.0092  -0.8428  -0.6332  -0.2389
    -0.1992  -0.0117   0.5212   1.1142   1.1447   1.3514   1.5649   1.7124
     1.9325   2.4832   2.5626

          k = 0.0000-0.0872 0.0000 ( 24448 PWs)   bands (ev):

   -15.1004 -15.0931 -15.0552 -15.0517 -15.0350 -15.0340 -15.0268 -15.0176
   -14.9979 -14.9920 -14.9860 -14.9831 -14.9762 -14.9728 -14.9676 -14.9612
   -14.9411 -14.9357 -14.9148 -14.9135 -14.9094 -14.9015 -14.8965 -14.8949
   -14.8713 -14.8610 -14.8597 -14.8538 -14.8496 -14.8474 -14.8429 -14.8372
   -14.8287 -14.8194 -14.8086 -14.8022 -14.8019 -14.7923 -14.7882 -14.7772
   -14.7746 -14.7712 -14.7674 -14.7639 -14.7526 -14.7524 -14.7457 -14.7449
   -14.7414 -14.7411 -14.7353 -14.7253 -14.7111 -14.7052 -14.6739 -14.6685
   -14.6681 -14.6590 -14.6284 -14.6195 -10.8366  -7.9324  -7.9190  -6.5504
    -6.5088  -5.4132  -5.4128  -4.5411  -4.5027  -4.1142  -4.1002  -2.4253
    -2.3628  -1.3884  -1.2678  -0.7459  -0.5127  -0.4155  -0.3550  -0.0756
    -0.0685   0.2465   0.9951   1.0674   1.1542   1.2351   2.0191   2.1135
     2.1436   2.3137   2.4985

          k = 0.0252-0.0145 0.0000 ( 24403 PWs)   bands (ev):

   -15.1612 -15.1493 -15.1486 -15.0731 -15.0720 -15.0669 -15.0511 -15.0451
   -15.0385 -15.0362 -15.0135 -15.0117 -15.0039 -15.0034 -14.9873 -14.9740
   -14.9715 -14.9698 -14.9674 -14.9558 -14.9508 -14.9458 -14.9355 -14.9327
   -14.9264 -14.9099 -14.9047 -14.8997 -14.8956 -14.8872 -14.8299 -14.8215
   -14.7972 -14.7923 -14.7831 -14.7686 -14.7571 -14.7503 -14.7494 -14.7485
   -14.7218 -14.7190 -14.7187 -14.7076 -14.7071 -14.7005 -14.6880 -14.6809
   -14.6790 -14.6788 -14.6723 -14.6678 -14.6564 -14.6541 -14.6477 -14.6466
   -14.6376 -14.6132 -14.6091 -14.6088 -10.8485  -9.0337  -7.6087  -5.6853
    -5.5059  -4.8702  -4.8671  -4.3779  -3.7369  -3.7365  -2.9470  -2.9266
    -2.6987  -2.1877  -1.9484  -1.9371  -1.9009  -1.4576  -1.4180  -1.0938
    -0.5397  -0.5363  -0.3383   0.3196   0.3926   0.9468   1.5014   1.8447
     2.4045   2.4916   3.1635

          k = 0.0252 0.0145 0.0000 ( 24403 PWs)   bands (ev):

   -15.1612 -15.1493 -15.1486 -15.0731 -15.0720 -15.0669 -15.0511 -15.0451
   -15.0385 -15.0362 -15.0135 -15.0117 -15.0039 -15.0034 -14.9873 -14.9740
   -14.9715 -14.9698 -14.9674 -14.9558 -14.9508 -14.9458 -14.9355 -14.9327
   -14.9264 -14.9099 -14.9047 -14.8997 -14.8956 -14.8872 -14.8299 -14.8215
   -14.7972 -14.7923 -14.7831 -14.7686 -14.7571 -14.7503 -14.7494 -14.7485
   -14.7218 -14.7190 -14.7187 -14.7076 -14.7071 -14.7005 -14.6880 -14.6808
   -14.6790 -14.6788 -14.6723 -14.6678 -14.6564 -14.6541 -14.6477 -14.6466
   -14.6376 -14.6132 -14.6091 -14.6088 -10.8485  -9.0337  -7.6087  -5.6853
    -5.5059  -4.8702  -4.8671  -4.3779  -3.7369  -3.7365  -2.9470  -2.9266
    -2.6987  -2.1877  -1.9484  -1.9371  -1.9009  -1.4576  -1.4180  -1.0938
    -0.5397  -0.5363  -0.3383   0.3196   0.3926   0.9468   1.5014   1.8447
     2.4045   2.4916   3.1635

          k = 0.0252 0.0436 0.0000 ( 24482 PWs)   bands (ev):

   -15.1308 -15.1306 -15.1037 -15.0548 -15.0533 -15.0471 -15.0404 -15.0237
   -15.0158 -15.0136 -14.9996 -14.9972 -14.9943 -14.9885 -14.9778 -14.9652
   -14.9595 -14.9587 -14.9574 -14.9382 -14.9344 -14.9342 -14.9272 -14.9162
   -14.9084 -14.9028 -14.8897 -14.8845 -14.8774 -14.8588 -14.8400 -14.8144
   -14.8079 -14.7996 -14.7945 -14.7886 -14.7821 -14.7766 -14.7687 -14.7553
   -14.7520 -14.7502 -14.7315 -14.7285 -14.7178 -14.7155 -14.7079 -14.7018
   -14.6983 -14.6946 -14.6897 -14.6859 -14.6840 -14.6745 -14.6694 -14.6652
   -14.6483 -14.6403 -14.6298 -14.6291 -10.8425  -8.7593  -7.3412  -6.2429
    -6.2427  -5.2641  -4.9032  -4.8981  -3.9813  -3.6696  -3.0774  -3.0230
    -2.5417  -2.1628  -1.8297  -1.1029  -1.0614  -1.0101  -0.8802  -0.6314
    -0.1689  -0.0026   0.2485   0.3381   1.0608   1.2288   1.6220   1.8059
     2.2028   2.2859   2.7208

          k = 0.0252-0.1018 0.0000 ( 24479 PWs)   bands (ev):

   -15.0990 -15.0727 -15.0621 -15.0609 -15.0276 -15.0258 -15.0230 -15.0121
   -15.0095 -15.0003 -14.9947 -14.9909 -14.9734 -14.9662 -14.9634 -14.9492
   -14.9432 -14.9358 -14.9251 -14.9157 -14.9073 -14.9051 -14.8964 -14.8934
   -14.8850 -14.8760 -14.8672 -14.8647 -14.8528 -14.8480 -14.8402 -14.8335
   -14.8319 -14.8165 -14.8147 -14.8111 -14.8073 -14.7941 -14.7843 -14.7805
   -14.7737 -14.7685 -14.7597 -14.7579 -14.7536 -14.7511 -14.7375 -14.7335
   -14.7293 -14.7248 -14.7185 -14.7096 -14.7054 -14.6898 -14.6836 -14.6741
   -14.6714 -14.6664 -14.6469 -14.6330 -10.8366  -8.2048  -7.3651  -6.8015
    -6.5233  -5.9846  -5.1697  -4.7709  -4.0821  -4.0214  -3.2829  -3.0183
    -2.3331  -1.5695  -1.2241  -1.1269  -0.9181  -0.4373  -0.2061  -0.0566
     0.2381   0.3643   0.7259   0.9221   1.1632   1.4266   1.5269   2.1186
     2.2708   2.4782   2.6484

          k = 0.0252-0.0727 0.0000 ( 24479 PWs)   bands (ev):

   -15.0990 -15.0727 -15.0621 -15.0609 -15.0276 -15.0258 -15.0230 -15.0121
   -15.0095 -15.0003 -14.9947 -14.9909 -14.9734 -14.9662 -14.9634 -14.9492
   -14.9432 -14.9358 -14.9251 -14.9157 -14.9073 -14.9051 -14.8964 -14.8934
   -14.8850 -14.8760 -14.8672 -14.8647 -14.8528 -14.8480 -14.8402 -14.8335
   -14.8319 -14.8165 -14.8147 -14.8111 -14.8073 -14.7941 -14.7843 -14.7805
   -14.7737 -14.7685 -14.7597 -14.7579 -14.7536 -14.7511 -14.7375 -14.7335
   -14.7293 -14.7248 -14.7185 -14.7096 -14.7054 -14.6898 -14.6836 -14.6741
   -14.6714 -14.6664 -14.6469 -14.6330 -10.8366  -8.2048  -7.3651  -6.8015
    -6.5233  -5.9846  -5.1697  -4.7709  -4.0821  -4.0214  -3.2829  -3.0183
    -2.3331  -1.5695  -1.2241  -1.1269  -0.9181  -0.4373  -0.2061  -0.0566
     0.2381   0.3643   0.7259   0.9221   1.1632   1.4266   1.5269   2.1186
     2.2708   2.4782   2.6484

          k = 0.0252-0.0436 0.0000 ( 24482 PWs)   bands (ev):

   -15.1308 -15.1306 -15.1037 -15.0548 -15.0533 -15.0471 -15.0404 -15.0237
   -15.0158 -15.0136 -14.9996 -14.9972 -14.9943 -14.9885 -14.9778 -14.9652
   -14.9595 -14.9587 -14.9574 -14.9382 -14.9344 -14.9342 -14.9272 -14.9162
   -14.9084 -14.9028 -14.8897 -14.8845 -14.8774 -14.8588 -14.8400 -14.8144
   -14.8079 -14.7996 -14.7945 -14.7886 -14.7821 -14.7766 -14.7687 -14.7553
   -14.7520 -14.7502 -14.7315 -14.7285 -14.7178 -14.7155 -14.7079 -14.7018
   -14.6983 -14.6946 -14.6897 -14.6859 -14.6840 -14.6745 -14.6694 -14.6652
   -14.6483 -14.6403 -14.6298 -14.6291 -10.8425  -8.7593  -7.3412  -6.2429
    -6.2427  -5.2641  -4.9032  -4.8981  -3.9813  -3.6696  -3.0774  -3.0230
    -2.5417  -2.1628  -1.8297  -1.1029  -1.0614  -1.0101  -0.8802  -0.6314
    -0.1689  -0.0026   0.2485   0.3381   1.0608   1.2288   1.6220   1.8059
     2.2028   2.2859   2.7208

          k = 0.0504-0.0291 0.0000 ( 24465 PWs)   bands (ev):

   -15.1342 -15.0957 -15.0946 -15.0610 -15.0510 -15.0431 -15.0389 -15.0106
   -15.0055 -15.0049 -14.9998 -14.9939 -14.9875 -14.9820 -14.9806 -14.9577
   -14.9539 -14.9488 -14.9487 -14.9291 -14.9287 -14.9247 -14.9194 -14.9188
   -14.8990 -14.8873 -14.8854 -14.8778 -14.8693 -14.8452 -14.8379 -14.8131
   -14.8085 -14.8078 -14.8035 -14.7962 -14.7928 -14.7899 -14.7773 -14.7588
   -14.7550 -14.7516 -14.7433 -14.7429 -14.7277 -14.7238 -14.7198 -14.7135
   -14.7084 -14.7073 -14.7070 -14.6965 -14.6949 -14.6835 -14.6681 -14.6666
   -14.6612 -14.6554 -14.6258 -14.6185 -10.8405  -8.6213  -7.2071  -6.9431
    -5.5771  -5.2752  -5.2746  -5.1404  -3.9930  -3.9833  -3.6476  -2.4355
    -2.3651  -1.8287  -1.5009  -1.4943  -1.0092  -0.8428  -0.6332  -0.2389
    -0.1992  -0.0117   0.5212   1.1142   1.1447   1.3514   1.5649   1.7124
     1.9325   2.4832   2.5626

          k = 0.0504 0.0000 0.0000 ( 24482 PWs)   bands (ev):

   -15.1308 -15.1306 -15.1037 -15.0548 -15.0533 -15.0471 -15.0404 -15.0237
   -15.0158 -15.0136 -14.9996 -14.9972 -14.9943 -14.9885 -14.9778 -14.9652
   -14.9595 -14.9587 -14.9574 -14.9382 -14.9344 -14.9342 -14.9272 -14.9162
   -14.9084 -14.9028 -14.8897 -14.8845 -14.8774 -14.8588 -14.8400 -14.8144
   -14.8079 -14.7996 -14.7945 -14.7886 -14.7821 -14.7766 -14.7687 -14.7553
   -14.7520 -14.7502 -14.7315 -14.7285 -14.7178 -14.7155 -14.7079 -14.7018
   -14.6983 -14.6946 -14.6897 -14.6859 -14.6840 -14.6745 -14.6694 -14.6652
   -14.6483 -14.6403 -14.6298 -14.6291 -10.8425  -8.7593  -7.3412  -6.2429
    -6.2427  -5.2641  -4.9032  -4.8981  -3.9813  -3.6696  -3.0774  -3.0230
    -2.5417  -2.1628  -1.8297  -1.1029  -1.0614  -1.0101  -0.8802  -0.6314
    -0.1689  -0.0026   0.2485   0.3381   1.0608   1.2288   1.6220   1.8059
     2.2028   2.2859   2.7208

          k = 0.0504 0.0291 0.0000 ( 24465 PWs)   bands (ev):

   -15.1342 -15.0957 -15.0946 -15.0610 -15.0510 -15.0431 -15.0389 -15.0106
   -15.0055 -15.0049 -14.9998 -14.9939 -14.9875 -14.9820 -14.9806 -14.9577
   -14.9539 -14.9488 -14.9487 -14.9291 -14.9287 -14.9247 -14.9194 -14.9188
   -14.8990 -14.8873 -14.8854 -14.8778 -14.8693 -14.8452 -14.8379 -14.8131
   -14.8085 -14.8078 -14.8035 -14.7962 -14.7928 -14.7899 -14.7773 -14.7588
   -14.7549 -14.7516 -14.7433 -14.7429 -14.7277 -14.7238 -14.7198 -14.7135
   -14.7084 -14.7073 -14.7070 -14.6965 -14.6949 -14.6835 -14.6681 -14.6666
   -14.6612 -14.6554 -14.6258 -14.6185 -10.8405  -8.6213  -7.2071  -6.9431
    -5.5771  -5.2752  -5.2746  -5.1404  -3.9930  -3.9833  -3.6476  -2.4355
    -2.3651  -1.8287  -1.5009  -1.4943  -1.0092  -0.8428  -0.6332  -0.2389
    -0.1992  -0.0117   0.5212   1.1142   1.1447   1.3514   1.5649   1.7124
     1.9326   2.4832   2.5626

          k = 0.0504-0.1163 0.0000 ( 24479 PWs)   bands (ev):

   -15.0990 -15.0727 -15.0621 -15.0609 -15.0276 -15.0258 -15.0230 -15.0121
   -15.0095 -15.0003 -14.9947 -14.9909 -14.9734 -14.9662 -14.9634 -14.9492
   -14.9432 -14.9358 -14.9251 -14.9157 -14.9073 -14.9051 -14.8964 -14.8934
   -14.8850 -14.8760 -14.8672 -14.8647 -14.8528 -14.8480 -14.8402 -14.8335
   -14.8319 -14.8165 -14.8147 -14.8111 -14.8073 -14.7941 -14.7843 -14.7805
   -14.7737 -14.7685 -14.7597 -14.7579 -14.7536 -14.7511 -14.7375 -14.7335
   -14.7293 -14.7248 -14.7185 -14.7096 -14.7054 -14.6898 -14.6836 -14.6741
   -14.6714 -14.6664 -14.6469 -14.6330 -10.8366  -8.2048  -7.3651  -6.8015
    -6.5233  -5.9846  -5.1697  -4.7709  -4.0821  -4.0214  -3.2829  -3.0183
    -2.3331  -1.5695  -1.2241  -1.1269  -0.9181  -0.4373  -0.2061  -0.0566
     0.2381   0.3643   0.7259   0.9221   1.1632   1.4266   1.5269   2.1186
     2.2708   2.4782   2.6484

          k = 0.0504-0.0872 0.0000 ( 24486 PWs)   bands (ev):

   -15.0519 -15.0516 -15.0453 -15.0432 -15.0332 -15.0331 -15.0273 -15.0265
   -15.0038 -15.0037 -15.0023 -14.9980 -14.9485 -14.9445 -14.9435 -14.9300
   -14.9258 -14.9208 -14.9085 -14.9052 -14.8977 -14.8971 -14.8967 -14.8928
   -14.8912 -14.8854 -14.8722 -14.8656 -14.8490 -14.8474 -14.8403 -14.8383
   -14.8343 -14.8240 -14.8238 -14.8212 -14.8195 -14.8191 -14.7981 -14.7891
   -14.7851 -14.7673 -14.7628 -14.7577 -14.7543 -14.7497 -14.7428 -14.7428
   -14.7292 -14.7278 -14.7277 -14.7157 -14.6958 -14.6931 -14.6866 -14.6865
   -14.6806 -14.6695 -14.6679 -14.6644 -10.8347  -7.5101  -7.5096  -7.4962
    -6.1366  -6.1336  -6.0928  -4.1632  -4.1449  -4.1342  -2.9873  -2.6809
    -2.6763  -1.2963  -1.2495  -1.1749  -0.6773  -0.6640  -0.6285  -0.0237
     0.0506   0.3699   1.1007   1.1420   1.3812   2.1525   2.1530   2.3212
     2.7160   2.7243   2.7335

          k = 0.0504-0.0582 0.0000 ( 24479 PWs)   bands (ev):

   -15.0990 -15.0727 -15.0621 -15.0609 -15.0276 -15.0258 -15.0230 -15.0121
   -15.0095 -15.0003 -14.9947 -14.9909 -14.9734 -14.9662 -14.9634 -14.9492
   -14.9432 -14.9358 -14.9251 -14.9157 -14.9073 -14.9051 -14.8964 -14.8934
   -14.8850 -14.8760 -14.8672 -14.8647 -14.8528 -14.8480 -14.8402 -14.8335
   -14.8319 -14.8165 -14.8147 -14.8111 -14.8073 -14.7941 -14.7843 -14.7805
   -14.7737 -14.7685 -14.7597 -14.7579 -14.7536 -14.7511 -14.7375 -14.7335
   -14.7293 -14.7248 -14.7185 -14.7096 -14.7054 -14.6898 -14.6836 -14.6741
   -14.6714 -14.6664 -14.6469 -14.6330 -10.8366  -8.2048  -7.3651  -6.8015
    -6.5233  -5.9846  -5.1697  -4.7709  -4.0821  -4.0214  -3.2829  -3.0183
    -2.3331  -1.5695  -1.2241  -1.1269  -0.9181  -0.4373  -0.2061  -0.0566
     0.2381   0.3643   0.7259   0.9221   1.1632   1.4266   1.5269   2.1186
     2.2708   2.4781   2.6484

          k =-0.0756 0.0436 0.0000 ( 24448 PWs)   bands (ev):

   -15.1004 -15.0931 -15.0552 -15.0517 -15.0350 -15.0340 -15.0268 -15.0176
   -14.9979 -14.9920 -14.9860 -14.9831 -14.9762 -14.9728 -14.9676 -14.9612
   -14.9411 -14.9357 -14.9148 -14.9135 -14.9094 -14.9015 -14.8965 -14.8949
   -14.8713 -14.8610 -14.8597 -14.8537 -14.8496 -14.8474 -14.8429 -14.8372
   -14.8287 -14.8194 -14.8086 -14.8022 -14.8019 -14.7923 -14.7882 -14.7772
   -14.7746 -14.7712 -14.7674 -14.7639 -14.7526 -14.7524 -14.7457 -14.7449
   -14.7414 -14.7411 -14.7353 -14.7253 -14.7111 -14.7052 -14.6739 -14.6685
   -14.6681 -14.6590 -14.6284 -14.6195 -10.8366  -7.9323  -7.9190  -6.5504
    -6.5088  -5.4132  -5.4128  -4.5411  -4.5027  -4.1142  -4.1001  -2.4253
    -2.3628  -1.3884  -1.2678  -0.7459  -0.5127  -0.4155  -0.3550  -0.0756
    -0.0685   0.2465   0.9951   1.0674   1.1542   1.2351   2.0191   2.1135
     2.1436   2.3137   2.4985

          k =-0.0756 0.0727 0.0000 ( 24479 PWs)   bands (ev):

   -15.0990 -15.0727 -15.0621 -15.0609 -15.0276 -15.0258 -15.0230 -15.0121
   -15.0095 -15.0003 -14.9947 -14.9909 -14.9734 -14.9662 -14.9634 -14.9492
   -14.9432 -14.9358 -14.9251 -14.9157 -14.9073 -14.9051 -14.8964 -14.8934
   -14.8850 -14.8760 -14.8672 -14.8647 -14.8528 -14.8480 -14.8402 -14.8335
   -14.8319 -14.8165 -14.8147 -14.8111 -14.8073 -14.7941 -14.7843 -14.7805
   -14.7737 -14.7685 -14.7597 -14.7579 -14.7536 -14.7511 -14.7375 -14.7335
   -14.7293 -14.7248 -14.7185 -14.7096 -14.7054 -14.6898 -14.6836 -14.6741
   -14.6714 -14.6664 -14.6469 -14.6330 -10.8366  -8.2048  -7.3651  -6.8015
    -6.5233  -5.9846  -5.1697  -4.7709  -4.0821  -4.0214  -3.2829  -3.0183
    -2.3331  -1.5695  -1.2241  -1.1269  -0.9181  -0.4373  -0.2061  -0.0566
     0.2381   0.3643   0.7259   0.9221   1.1632   1.4266   1.5269   2.1186
     2.2708   2.4781   2.6484

          k =-0.0756 0.1018 0.0000 ( 24479 PWs)   bands (ev):

   -15.0990 -15.0727 -15.0621 -15.0609 -15.0276 -15.0258 -15.0230 -15.0121
   -15.0095 -15.0003 -14.9947 -14.9909 -14.9734 -14.9662 -14.9634 -14.9492
   -14.9432 -14.9358 -14.9251 -14.9157 -14.9073 -14.9051 -14.8964 -14.8934
   -14.8850 -14.8760 -14.8672 -14.8647 -14.8528 -14.8480 -14.8402 -14.8335
   -14.8319 -14.8165 -14.8147 -14.8111 -14.8073 -14.7941 -14.7843 -14.7805
   -14.7737 -14.7685 -14.7597 -14.7579 -14.7536 -14.7511 -14.7375 -14.7335
   -14.7293 -14.7248 -14.7185 -14.7096 -14.7054 -14.6898 -14.6836 -14.6741
   -14.6714 -14.6664 -14.6469 -14.6330 -10.8366  -8.2048  -7.3651  -6.8015
    -6.5233  -5.9846  -5.1697  -4.7709  -4.0821  -4.0214  -3.2829  -3.0183
    -2.3331  -1.5695  -1.2241  -1.1269  -0.9181  -0.4373  -0.2061  -0.0566
     0.2381   0.3643   0.7259   0.9221   1.1632   1.4266   1.5269   2.1186
     2.2708   2.4782   2.6484

          k =-0.0756-0.0436 0.0000 ( 24448 PWs)   bands (ev):

   -15.1004 -15.0931 -15.0552 -15.0517 -15.0350 -15.0340 -15.0268 -15.0176
   -14.9979 -14.9920 -14.9860 -14.9832 -14.9762 -14.9728 -14.9676 -14.9612
   -14.9411 -14.9357 -14.9148 -14.9135 -14.9094 -14.9015 -14.8965 -14.8949
   -14.8713 -14.8610 -14.8597 -14.8538 -14.8496 -14.8474 -14.8429 -14.8372
   -14.8287 -14.8194 -14.8086 -14.8022 -14.8019 -14.7923 -14.7882 -14.7772
   -14.7746 -14.7712 -14.7674 -14.7639 -14.7526 -14.7524 -14.7457 -14.7449
   -14.7414 -14.7411 -14.7353 -14.7253 -14.7111 -14.7052 -14.6739 -14.6685
   -14.6681 -14.6590 -14.6284 -14.6195 -10.8366  -7.9323  -7.9190  -6.5504
    -6.5088  -5.4132  -5.4128  -4.5411  -4.5027  -4.1142  -4.1001  -2.4253
    -2.3628  -1.3884  -1.2678  -0.7459  -0.5127  -0.4155  -0.3549  -0.0756
    -0.0685   0.2464   0.9951   1.0674   1.1542   1.2351   2.0191   2.1135
     2.1436   2.3137   2.4985

     the Fermi energy is     0.0110 ev

!    total energy              =   -1641.68264499 Ry
     Harris-Foulkes estimate   =   -1641.68270247 Ry
     estimated scf accuracy    <       0.00000347 Ry

     The total energy is the sum of the following terms:

     one-electron contribution =   -9300.89017491 Ry
     hartree contribution      =    4729.31831224 Ry
     xc contribution           =    -478.16623753 Ry
     ewald contribution        =    3408.09737385 Ry
     electric field correction =       0.00136262 Ry
     smearing contrib. (-TS)   =      -0.04328126 Ry

     convergence has been achieved in  46 iterations
 
 BEEF-vdW xc energy contributions
           1 :   -418.629905042730     
           2 :    382.283583026835     
           3 :   -320.970073981913     
           4 :    251.969913304201     
           5 :   -191.023288493167     
           6 :    146.667645390157     
           7 :   -118.645550653957     
           8 :    100.524492293404     
           9 :   -84.6104054193304     
          10 :    66.2969066991758     
          11 :   -45.7095942031082     
          12 :    26.3005259676128     
          13 :   -11.8225210406870     
          14 :    3.77833655532265     
          15 :  -0.768341909577543     
          16 :  -0.258591826524423     
          17 :    1.99220159326001     
          18 :   -5.36682919392626     
          19 :    9.51271484248502     
          20 :   -12.8088419996812     
          21 :    14.1512145275676     
          22 :   -13.5974002830196     
          23 :    12.1151985811845     
          24 :   -10.8013280069856     
          25 :    10.2033490029738     
          26 :   -10.1701155516607     
          27 :    10.1963574794131     
          28 :   -9.89492822293994     
          29 :    9.22876898707284     
          30 :   -8.40374861868929     
          31 :   -38.2071174672891     
          32 :   -27.6852394663422     

     Forces acting on atoms (Ry/au):


     negative rho (up, down):  1.021E-03 0.000E+00
     atom    1 type  1   force =    -0.00061245   -0.00035078   -0.01066488
     atom    2 type  1   force =     0.00061116   -0.00034447   -0.01066294
     atom    3 type  1   force =     0.00000362    0.00070164   -0.01066648
     atom    4 type  1   force =    -0.00000251   -0.00000725   -0.00960935
     atom    5 type  1   force =     0.00000116   -0.00257280   -0.00233695
     atom    6 type  1   force =     0.00000051    0.00000028    0.00365331
     atom    7 type  1   force =     0.00223021    0.00128626   -0.00233685
     atom    8 type  1   force =    -0.00222966    0.00128721   -0.00233603
     atom    9 type  1   force =    -0.00000212   -0.00000006    0.01209090
     atom   10 type  1   force =     0.00000212    0.00686075    0.03836561
     atom   11 type  1   force =     0.00593945   -0.00342952    0.03836203
     atom   12 type  1   force =    -0.00594095   -0.00343180    0.03836387
     atom   13 type  2   force =    -0.00000053    0.00000053   -0.08222223

     Total force =     0.109306     Total SCF correction =     0.003616


     entering subroutine stress ...


     negative rho (up, down):  1.021E-03 0.000E+00
          total   stress  (Ry/bohr**3)                   (kbar)     P=    3.48
   0.00003638  -0.00000000   0.00000000          5.35     -0.00      0.00
  -0.00000000   0.00003639  -0.00000000         -0.00      5.35     -0.00
   0.00000000  -0.00000000  -0.00000171          0.00     -0.00     -0.25

 !ASE

     Writing output data file calc.save
 
     init_run     :     13.85s CPU     20.32s WALL (       1 calls)
     electrons    :   1863.63s CPU   2684.92s WALL (       1 calls)
     forces       :      5.91s CPU      6.90s WALL (       1 calls)
     stress       :     16.09s CPU     18.01s WALL (       1 calls)

     Called by init_run:
     wfcinit      :     10.30s CPU     15.80s WALL (       1 calls)
     potinit      :      1.87s CPU      2.69s WALL (       1 calls)

     Called by electrons:
     c_bands      :   1492.34s CPU   2143.97s WALL (      46 calls)
     sum_band     :    212.09s CPU    318.17s WALL (      46 calls)
     v_of_rho     :     74.33s CPU    109.73s WALL (      47 calls)
     newd         :     30.58s CPU     31.63s WALL (      47 calls)
     mix_rho      :      3.24s CPU      4.77s WALL (      46 calls)
     vdW_energy   :      5.58s CPU      6.17s WALL (      83 calls)
     vdW_ffts     :     79.00s CPU    121.90s WALL (     168 calls)
     vdW_v        :     15.03s CPU     21.47s WALL (      83 calls)

     Called by c_bands:
     init_us_2    :      3.11s CPU      3.19s WALL (    1900 calls)
     cegterg      :   1467.42s CPU   2117.22s WALL (     940 calls)

     Called by *egterg:
     h_psi        :   1017.90s CPU   1634.55s WALL (    5737 calls)
     s_psi        :     40.83s CPU     40.99s WALL (    5737 calls)
     g_psi        :      2.65s CPU      2.69s WALL (    4777 calls)
     cdiaghg      :    225.31s CPU    231.85s WALL (    5717 calls)

     Called by h_psi:
     add_vuspsi   :     42.28s CPU     42.41s WALL (    5737 calls)

     General routines
     calbec       :     74.39s CPU     86.05s WALL (    6697 calls)
     fft          :    123.97s CPU    191.22s WALL (    5205 calls)
     ffts         :      0.53s CPU      0.84s WALL (      93 calls)
     fftw         :   1012.02s CPU   1711.19s WALL (  589510 calls)
     interpolate  :      2.76s CPU      4.29s WALL (      93 calls)
     davcio       :      0.00s CPU      0.04s WALL (      20 calls)
 
     Parallel routines
     fft_scatter  :   1013.67s CPU   1767.33s WALL (  594808 calls)
 
     PWSCF        : 31m40.33s CPU    45m31.55s WALL

 
   This run was terminated on:  10:16:16  20Jan2018            

=------------------------------------------------------------------------------=
   JOB DONE.
=------------------------------------------------------------------------------=
Job  /afs/slac/g/suncat/bin/suncat-tsmpirun -x LD_LIBRARY_PATH -wdir /scratch/qe505014_9lLMc pw.x -in pw.inp

TID   HOST_NAME   COMMAND_LINE            STATUS            TERMINATION_TIME
===== ========== ================  =======================  ===================
00000 suncat0110 pw.x -in pw.inp   Done                     01/20/2018 10:16:16
00001 suncat0110 pw.x -in pw.inp   Done                     01/20/2018 10:16:16
00002 suncat0110 pw.x -in pw.inp   Done                     01/20/2018 10:16:16
00003 suncat0110 pw.x -in pw.inp   Done                     01/20/2018 10:16:16
00004 suncat0110 pw.x -in pw.inp   Done                     01/20/2018 10:16:16
00005 suncat0110 pw.x -in pw.inp   Done                     01/20/2018 10:16:16
00006 suncat0110 pw.x -in pw.inp   Done                     01/20/2018 10:16:16
00007 suncat0110 pw.x -in pw.inp   Done                     01/20/2018 10:16:16
00008 suncat0109 pw.x -in pw.inp   Done                     01/20/2018 10:16:16
00009 suncat0109 pw.x -in pw.inp   Done                     01/20/2018 10:16:16
00010 suncat0109 pw.x -in pw.inp   Done                     01/20/2018 10:16:16
00011 suncat0109 pw.x -in pw.inp   Done                     01/20/2018 10:16:16
00012 suncat0109 pw.x -in pw.inp   Done                     01/20/2018 10:16:16
00013 suncat0109 pw.x -in pw.inp   Done                     01/20/2018 10:16:16
00014 suncat0109 pw.x -in pw.inp   Done                     01/20/2018 10:16:16
00015 suncat0109 pw.x -in pw.inp   Done                     01/20/2018 10:16:16
00016 suncat0238 pw.x -in pw.inp   Done                     01/20/2018 10:16:16
00017 suncat0238 pw.x -in pw.inp   Done                     01/20/2018 10:16:16
00018 suncat0238 pw.x -in pw.inp   Done                     01/20/2018 10:16:16
00019 suncat0238 pw.x -in pw.inp   Done                     01/20/2018 10:16:16
00020 suncat0238 pw.x -in pw.inp   Done                     01/20/2018 10:16:16
00021 suncat0238 pw.x -in pw.inp   Done                     01/20/2018 10:16:16
00022 suncat0238 pw.x -in pw.inp   Done                     01/20/2018 10:16:16
00023 suncat0238 pw.x -in pw.inp   Done                     01/20/2018 10:16:16
00024 suncat0212 pw.x -in pw.inp   Done                     01/20/2018 10:16:16
00025 suncat0212 pw.x -in pw.inp   Done                     01/20/2018 10:16:16
00026 suncat0212 pw.x -in pw.inp   Done                     01/20/2018 10:16:16
00027 suncat0212 pw.x -in pw.inp   Done                     01/20/2018 10:16:16
00028 suncat0212 pw.x -in pw.inp   Done                     01/20/2018 10:16:16
00029 suncat0212 pw.x -in pw.inp   Done                     01/20/2018 10:16:16
00030 suncat0212 pw.x -in pw.inp   Done                     01/20/2018 10:16:16
00031 suncat0212 pw.x -in pw.inp   Done                     01/20/2018 10:16:16

     Program PWSCF v.5.1rc2 (svn rev. 11289) starts on 20Jan2018 at 10:16:22 

     This program is part of the open-source Quantum ESPRESSO suite
     for quantum simulation of materials; please cite
         "P. Giannozzi et al., J. Phys.:Condens. Matter 21 395502 (2009);
          URL http://www.quantum-espresso.org", 
     in publications or presentations arising from this work. More details at
     http://www.quantum-espresso.org/quote

     Parallel version (MPI), running on    32 processors
     R & G space division:  proc/nbgrp/npool/nimage =      32
     Reading input from pw.inp
     Message from routine read_cards :
     DEPRECATED: no units specified in CELL_PARAMETERS card

     Current dimensions of program PWSCF are:
     Max number of different atomic species (ntypx) = 10
     Max number of k-points (npk) =  40000
     Max angular momentum in pseudopotentials (lmaxx) =  3
     Presently stress not available with electric field


     **************************************************************************
     Initializing libbeef V0.1.1 with the BEEF-vdW functional.
     Citation: Wellendorff et al., PRB 85, 235149 (2012).
     **************************************************************************


     IMPORTANT: XC functional enforced from input :
     Exchange-correlation      = BEEF-VDW ( 1  4 27 13 2)
     Any further DFT definition will be discarded
     Please, verify this is what you really want


     Subspace diagonalization in iterative solution of the eigenvalue problem:
     a serial algorithm will be used

 
     Parallelization info
     --------------------
     sticks:   dense  smooth     PW     G-vecs:    dense   smooth      PW
     Min         123      49     14                24159     6095     922
     Max         124      50     15                24174     6130     942
     Sum        3949    1585    451               773273   195593   29841
 


     bravais-lattice index     =            0
     lattice parameter (alat)  =       1.8897  a.u.
     unit-cell volume          =    6501.5726 (a.u.)^3
     number of atoms/cell      =           13
     number of atomic types    =            2
     number of electrons       =       162.00
     number of Kohn-Sham states=           91
     kinetic-energy cutoff     =      36.7493  Ry
     charge density cutoff     =     367.4932  Ry
     convergence threshold     =      1.0E-05
     mixing beta               =       0.3000
     number of iterations used =           10  plain     mixing
     Exchange-correlation      = BEEF-VDW ( 1  4 27 13 2)
     nstep                     =           50


     celldm(1)=   1.889726  celldm(2)=   0.000000  celldm(3)=   0.000000
     celldm(4)=   0.000000  celldm(5)=   0.000000  celldm(6)=   0.000000

     crystal axes: (cart. coord. in units of alat)
               a(1) = (   6.617606   0.000000   0.000000 )  
               a(2) = (   3.308803   5.731015   0.000000 )  
               a(3) = (   0.000000   0.000000  25.403253 )  

     reciprocal axes: (cart. coord. in units 2 pi/alat)
               b(1) = (  0.151112 -0.087245  0.000000 )  
               b(2) = (  0.000000  0.174489  0.000000 )  
               b(3) = (  0.000000  0.000000  0.039365 )  


     PseudoPot. # 1 for In read from file:
     /afs/slac.stanford.edu/u/if/mamunm/psp/gbrv1.5pbe/In.UPF
     MD5 check sum: 90777abd96fbb83f2e67db2a40c566b9
     Pseudo is Ultrasoft + core correction, Zval = 13.0
     Generated by new atomic code, or converted to UPF format
     Using radial grid of  889 points,  6 beta functions with: 
                l(1) =   0
                l(2) =   0
                l(3) =   1
                l(4) =   1
                l(5) =   2
                l(6) =   2
     Q(r) pseudized with  6 coefficients,  rinner =    1.400   1.400   1.400
                                                       1.400   1.400

     PseudoPot. # 2 for S  read from file:
     /afs/slac.stanford.edu/u/if/mamunm/psp/gbrv1.5pbe/S.UPF
     MD5 check sum: 88d86576ff6df21479756cfb9bdac1df
     Pseudo is Ultrasoft + core correction, Zval =  6.0
     Generated by new atomic code, or converted to UPF format
     Using radial grid of  907 points,  6 beta functions with: 
                l(1) =   0
                l(2) =   0
                l(3) =   1
                l(4) =   1
                l(5) =   2
                l(6) =   2
     Q(r) pseudized with  8 coefficients,  rinner =    1.300   1.300   1.300
                                                       1.300   1.300

     vdW kernel table read from file vdW_kernel_table
     MD5 check sum: 095c7af220d748ca6e76c0b4c6cfb241

     atomic species   valence    mass     pseudopotential
        In1           13.00   114.81800     In( 1.00)
        S1             6.00    32.06000     S ( 1.00)

     No symmetry found



   Cartesian axes

     site n.     atom                  positions (alat units)
         1           In1 tau(   1) = (   1.6544016   0.9551692  10.0000000  )
         2           In1 tau(   2) = (   4.9632047   0.9551692  10.0000000  )
         3           In1 tau(   3) = (   3.3088031   3.8206768  10.0000000  )
         4           In1 tau(   4) = (   6.6176063   3.8206768  10.0000000  )
         5           In1 tau(   5) = (   6.6176063   1.9103384  12.7016265  )
         6           In1 tau(   6) = (   3.3088031   1.9103384  12.7016265  )
         7           In1 tau(   7) = (   8.2720078   4.7758460  12.7016265  )
         8           In1 tau(   8) = (   4.9632047   4.7758460  12.7016265  )
         9           In1 tau(   9) = (   9.9264040   5.7310150  15.4343399  )
        10           In1 tau(  10) = (   3.3088086   0.0176397  15.5018948  )
        11           In1 tau(  11) = (   1.6696725   2.8566899  15.5018856  )
        12           In1 tau(  12) = (   4.9479299   2.8566841  15.5018904  )
        13           S1  tau(  13) = (   3.3088018   1.9103397  17.6618511  )

     number of k points=    20  Fermi-Dirac smearing, width (Ry)=  0.0110
                       cart. coord. in units 2pi/alat
        k(    1) = (   0.0000000   0.0000000   0.0000000), wk =   0.0555556
        k(    2) = (   0.0000000   0.0290815   0.0000000), wk =   0.1111111
        k(    3) = (   0.0000000   0.0581631   0.0000000), wk =   0.1111111
        k(    4) = (   0.0000000  -0.0872446   0.0000000), wk =   0.0555556
        k(    5) = (   0.0251853  -0.0145408   0.0000000), wk =   0.1111111
        k(    6) = (   0.0251853   0.0145408   0.0000000), wk =   0.1111111
        k(    7) = (   0.0251853   0.0436223   0.0000000), wk =   0.1111111
        k(    8) = (   0.0251853  -0.1017853   0.0000000), wk =   0.1111111
        k(    9) = (   0.0251853  -0.0727038   0.0000000), wk =   0.1111111
        k(   10) = (   0.0251853  -0.0436223   0.0000000), wk =   0.1111111
        k(   11) = (   0.0503707  -0.0290815   0.0000000), wk =   0.1111111
        k(   12) = (   0.0503707   0.0000000   0.0000000), wk =   0.1111111
        k(   13) = (   0.0503707   0.0290815   0.0000000), wk =   0.1111111
        k(   14) = (   0.0503707  -0.1163261   0.0000000), wk =   0.1111111
        k(   15) = (   0.0503707  -0.0872446   0.0000000), wk =   0.1111111
        k(   16) = (   0.0503707  -0.0581631   0.0000000), wk =   0.1111111
        k(   17) = (  -0.0755560   0.0436223   0.0000000), wk =   0.0555556
        k(   18) = (  -0.0755560   0.0727038   0.0000000), wk =   0.1111111
        k(   19) = (  -0.0755560   0.1017853   0.0000000), wk =   0.1111111
        k(   20) = (  -0.0755560  -0.0436223   0.0000000), wk =   0.0555556

     Dense  grid:   773273 G-vectors     FFT dimensions: (  80,  80, 300)

     Smooth grid:   195593 G-vectors     FFT dimensions: (  50,  50, 192)

     Largest allocated arrays     est. size (Mb)     dimensions
        Kohn-Sham Wavefunctions         1.13 Mb     (     813,   91)
        NL pseudopotentials             2.90 Mb     (     813,  234)
        Each V/rho on FFT grid          0.98 Mb     (   64000)
        Each G-vector array             0.18 Mb     (   24161)
        G-vector shells                 0.08 Mb     (   10769)
     Largest temporary arrays     est. size (Mb)     dimensions
        Auxiliary wavefunctions         4.52 Mb     (     813,  364)
        Each subspace H/S matrix        2.02 Mb     (     364,  364)
        Each <psi_i|beta_j> matrix      0.32 Mb     (     234,   91)
        Arrays for rho mixing           9.77 Mb     (   64000,   10)

     Initial potential from superposition of free atoms
     Check: negative starting charge=   -0.000158

     starting charge  143.99996, renormalised to  162.00000

     negative rho (up, down):  1.777E-04 0.000E+00


[...]
    -2.1974  -1.9927  -1.2308  -1.0901  -0.6750  -0.2136   0.1368   0.4616
     0.7365   0.8448   1.1749   1.3858   1.6892   1.8633   2.0718   2.4113
     2.7068   2.8357   3.1435

          k = 0.0252-0.0727 0.0000 ( 24479 PWs)   bands (ev):

   -14.6537 -14.6437 -14.6252 -14.6163 -14.6079 -14.5963 -14.5825 -14.5784
   -14.5741 -14.5681 -14.5626 -14.5567 -14.5514 -14.5416 -14.5343 -14.5288
   -14.5243 -14.5194 -14.5111 -14.5015 -14.4977 -14.4903 -14.4816 -14.4758
   -14.4651 -14.4606 -14.4574 -14.4528 -14.4435 -14.4374 -14.4339 -14.4229
   -14.4192 -14.4105 -14.4015 -14.3905 -14.3858 -14.3817 -14.3784 -14.3696
   -14.3645 -14.3572 -14.3545 -14.3466 -14.3413 -14.3348 -14.3269 -14.3249
   -14.3196 -14.3150 -14.3047 -14.3000 -14.2914 -14.2824 -14.2801 -14.2745
   -14.2683 -14.2574 -14.2463 -14.2387 -11.7142  -7.6227  -6.8018  -6.3423
    -5.9590  -5.5385  -4.8440  -4.5383  -3.8993  -3.6086  -3.2959  -2.8579
    -2.1974  -1.9927  -1.2308  -1.0901  -0.6750  -0.2136   0.1367   0.4616
     0.7365   0.8448   1.1749   1.3858   1.6892   1.8633   2.0718   2.4113
     2.7068   2.8357   3.1435

          k = 0.0252-0.0436 0.0000 ( 24482 PWs)   bands (ev):

   -14.6951 -14.6814 -14.6781 -14.6523 -14.6199 -14.6125 -14.6003 -14.5990
   -14.5969 -14.5865 -14.5788 -14.5722 -14.5674 -14.5630 -14.5469 -14.5443
   -14.5368 -14.5363 -14.5313 -14.5300 -14.5160 -14.5117 -14.5087 -14.5010
   -14.4863 -14.4831 -14.4802 -14.4719 -14.4661 -14.4513 -14.4151 -14.4066
   -14.4026 -14.3880 -14.3841 -14.3738 -14.3653 -14.3632 -14.3527 -14.3490
   -14.3394 -14.3266 -14.3170 -14.3143 -14.3123 -14.3098 -14.3048 -14.2928
   -14.2881 -14.2801 -14.2769 -14.2723 -14.2678 -14.2646 -14.2591 -14.2536
   -14.2451 -14.2380 -14.2361 -14.2326 -11.7273  -8.1664  -6.8083  -5.7176
    -5.6483  -5.0566  -4.6246  -4.5036  -3.5302  -3.4072  -3.1085  -2.9041
    -2.4543  -2.3173  -1.5302  -1.1208  -1.1085  -0.7672  -0.4583  -0.3019
     0.1812   0.4029   0.7714   1.0183   1.3612   1.5369   2.1167   2.2280
     2.5584   2.8425   3.1585

          k = 0.0504-0.0291 0.0000 ( 24465 PWs)   bands (ev):

   -14.6899 -14.6747 -14.6462 -14.6430 -14.6204 -14.6147 -14.5952 -14.5940
   -14.5900 -14.5788 -14.5703 -14.5682 -14.5543 -14.5506 -14.5483 -14.5423
   -14.5360 -14.5286 -14.5268 -14.5233 -14.5057 -14.5042 -14.4982 -14.4893
   -14.4837 -14.4768 -14.4690 -14.4671 -14.4582 -14.4398 -14.4257 -14.4101
   -14.3976 -14.3931 -14.3869 -14.3840 -14.3749 -14.3735 -14.3670 -14.3471
   -14.3425 -14.3398 -14.3299 -14.3237 -14.3195 -14.3159 -14.3144 -14.3071
   -14.2989 -14.2967 -14.2891 -14.2849 -14.2817 -14.2758 -14.2715 -14.2603
   -14.2512 -14.2446 -14.2286 -14.2218 -11.7230  -8.0309  -6.7078  -6.3526
    -5.2363  -4.8701  -4.7608  -4.6955  -3.9678  -3.7133  -3.4674  -2.5314
    -2.2937  -2.0786  -1.1637  -1.0881  -1.0263  -0.8669  -0.4594   0.3047
     0.3366   0.5890   0.9687   1.4391   1.4886   1.6964   1.9602   2.2819
     2.4646   2.9081   3.0065

          k = 0.0504 0.0000 0.0000 ( 24482 PWs)   bands (ev):

   -14.6951 -14.6814 -14.6781 -14.6523 -14.6199 -14.6125 -14.6003 -14.5990
   -14.5969 -14.5865 -14.5788 -14.5722 -14.5674 -14.5630 -14.5469 -14.5443
   -14.5368 -14.5363 -14.5313 -14.5300 -14.5160 -14.5117 -14.5087 -14.5010
   -14.4863 -14.4831 -14.4802 -14.4719 -14.4661 -14.4513 -14.4151 -14.4066
   -14.4026 -14.3880 -14.3841 -14.3738 -14.3653 -14.3632 -14.3527 -14.3490
   -14.3394 -14.3266 -14.3170 -14.3143 -14.3123 -14.3098 -14.3048 -14.2928
   -14.2881 -14.2801 -14.2769 -14.2723 -14.2678 -14.2646 -14.2591 -14.2536
   -14.2451 -14.2380 -14.2361 -14.2326 -11.7273  -8.1664  -6.8082  -5.7177
    -5.6483  -5.0565  -4.6247  -4.5035  -3.5302  -3.4072  -3.1085  -2.9041
    -2.4543  -2.3173  -1.5301  -1.1207  -1.1086  -0.7672  -0.4583  -0.3019
     0.1812   0.4030   0.7713   1.0183   1.3611   1.5370   2.1167   2.2280
     2.5584   2.8425   3.1585

          k = 0.0504 0.0291 0.0000 ( 24465 PWs)   bands (ev):

   -14.6899 -14.6747 -14.6462 -14.6430 -14.6204 -14.6147 -14.5952 -14.5940
   -14.5900 -14.5788 -14.5703 -14.5682 -14.5543 -14.5506 -14.5483 -14.5423
   -14.5360 -14.5286 -14.5268 -14.5233 -14.5058 -14.5042 -14.4982 -14.4893
   -14.4837 -14.4768 -14.4690 -14.4671 -14.4582 -14.4398 -14.4257 -14.4101
   -14.3976 -14.3931 -14.3869 -14.3840 -14.3749 -14.3735 -14.3670 -14.3471
   -14.3425 -14.3398 -14.3299 -14.3237 -14.3195 -14.3159 -14.3144 -14.3071
   -14.2989 -14.2967 -14.2891 -14.2849 -14.2818 -14.2758 -14.2715 -14.2603
   -14.2512 -14.2446 -14.2286 -14.2218 -11.7230  -8.0309  -6.7078  -6.3527
    -5.2363  -4.8701  -4.7608  -4.6954  -3.9678  -3.7133  -3.4674  -2.5314
    -2.2937  -2.0785  -1.1637  -1.0882  -1.0263  -0.8669  -0.4594   0.3047
     0.3366   0.5890   0.9687   1.4391   1.4886   1.6964   1.9602   2.2819
     2.4646   2.9080   3.0065

          k = 0.0504-0.1163 0.0000 ( 24479 PWs)   bands (ev):

   -14.6537 -14.6437 -14.6252 -14.6163 -14.6079 -14.5963 -14.5825 -14.5784
   -14.5741 -14.5681 -14.5626 -14.5567 -14.5514 -14.5416 -14.5343 -14.5288
   -14.5243 -14.5194 -14.5111 -14.5015 -14.4977 -14.4903 -14.4816 -14.4758
   -14.4651 -14.4606 -14.4574 -14.4529 -14.4435 -14.4374 -14.4338 -14.4229
   -14.4192 -14.4105 -14.4015 -14.3905 -14.3858 -14.3817 -14.3784 -14.3696
   -14.3645 -14.3572 -14.3545 -14.3466 -14.3413 -14.3348 -14.3269 -14.3249
   -14.3196 -14.3150 -14.3047 -14.3000 -14.2914 -14.2824 -14.2801 -14.2745
   -14.2683 -14.2574 -14.2463 -14.2387 -11.7143  -7.6227  -6.8018  -6.3423
    -5.9590  -5.5386  -4.8440  -4.5382  -3.8993  -3.6087  -3.2959  -2.8579
    -2.1973  -1.9927  -1.2307  -1.0901  -0.6750  -0.2136   0.1367   0.4616
     0.7365   0.8448   1.1749   1.3859   1.6892   1.8633   2.0717   2.4113
     2.7068   2.8357   3.1435

          k = 0.0504-0.0872 0.0000 ( 24486 PWs)   bands (ev):

   -14.6226 -14.6090 -14.6084 -14.6000 -14.5919 -14.5876 -14.5803 -14.5790
   -14.5734 -14.5722 -14.5668 -14.5593 -14.5470 -14.5418 -14.5310 -14.5091
   -14.5045 -14.5030 -14.4962 -14.4941 -14.4871 -14.4856 -14.4757 -14.4754
   -14.4625 -14.4617 -14.4520 -14.4515 -14.4447 -14.4420 -14.4411 -14.4334
   -14.4299 -14.4171 -14.4103 -14.4085 -14.3943 -14.3915 -14.3882 -14.3880
   -14.3777 -14.3653 -14.3626 -14.3474 -14.3404 -14.3324 -14.3309 -14.3157
   -14.3145 -14.3135 -14.3054 -14.2963 -14.2957 -14.2903 -14.2880 -14.2877
   -14.2794 -14.2747 -14.2692 -14.2665 -11.7099  -6.9805  -6.9688  -6.8513
    -5.8990  -5.7546  -5.3855  -4.1469  -4.0399  -3.8527  -2.7987  -2.4611
    -2.2579  -2.0544  -1.3331  -1.1709  -0.2371  -0.2356  -0.0802   0.3239
     0.4194   0.6897   1.5123   1.6004   1.9022   2.5578   2.5687   2.9163
     3.0607   3.1387   3.1464

          k = 0.0504-0.0582 0.0000 ( 24479 PWs)   bands (ev):

   -14.6537 -14.6437 -14.6252 -14.6163 -14.6079 -14.5963 -14.5825 -14.5784
   -14.5741 -14.5681 -14.5626 -14.5567 -14.5514 -14.5416 -14.5343 -14.5288
   -14.5243 -14.5194 -14.5111 -14.5015 -14.4977 -14.4903 -14.4816 -14.4758
   -14.4651 -14.4606 -14.4574 -14.4528 -14.4435 -14.4374 -14.4338 -14.4229
   -14.4192 -14.4105 -14.4015 -14.3905 -14.3858 -14.3817 -14.3784 -14.3696
   -14.3645 -14.3572 -14.3545 -14.3466 -14.3413 -14.3348 -14.3269 -14.3249
   -14.3196 -14.3150 -14.3047 -14.3000 -14.2914 -14.2824 -14.2801 -14.2745
   -14.2683 -14.2574 -14.2463 -14.2387 -11.7143  -7.6227  -6.8018  -6.3423
    -5.9590  -5.5386  -4.8440  -4.5382  -3.8993  -3.6087  -3.2959  -2.8579
    -2.1973  -1.9927  -1.2307  -1.0901  -0.6750  -0.2136   0.1367   0.4616
     0.7365   0.8448   1.1749   1.3858   1.6892   1.8633   2.0718   2.4113
     2.7068   2.8357   3.1435

          k =-0.0756 0.0436 0.0000 ( 24448 PWs)   bands (ev):

   -14.6546 -14.6515 -14.6413 -14.6087 -14.6029 -14.5976 -14.5913 -14.5837
   -14.5818 -14.5714 -14.5587 -14.5514 -14.5491 -14.5354 -14.5277 -14.5230
   -14.5180 -14.5166 -14.5120 -14.5023 -14.4962 -14.4849 -14.4773 -14.4691
   -14.4622 -14.4614 -14.4560 -14.4428 -14.4400 -14.4330 -14.4267 -14.4222
   -14.4110 -14.3991 -14.3979 -14.3946 -14.3890 -14.3803 -14.3753 -14.3727
   -14.3634 -14.3585 -14.3553 -14.3510 -14.3468 -14.3430 -14.3411 -14.3377
   -14.3360 -14.3294 -14.3271 -14.3209 -14.2955 -14.2819 -14.2769 -14.2703
   -14.2551 -14.2493 -14.2296 -14.2232 -11.7143  -7.3946  -7.2994  -6.2388
    -5.8809  -4.8952  -4.8552  -4.4749  -4.2028  -4.0699  -3.7095  -2.5633
    -2.2670  -2.0625  -1.0080  -0.8699  -0.2004  -0.1178   0.1029   0.3241
     0.4911   0.8701   1.4120   1.4657   1.6973   1.9027   2.2646   2.4403
     2.4979   2.8704   2.9343

          k =-0.0756 0.0727 0.0000 ( 24479 PWs)   bands (ev):

   -14.6537 -14.6437 -14.6252 -14.6163 -14.6079 -14.5963 -14.5825 -14.5784
   -14.5741 -14.5681 -14.5626 -14.5567 -14.5514 -14.5416 -14.5343 -14.5288
   -14.5243 -14.5194 -14.5111 -14.5015 -14.4977 -14.4903 -14.4816 -14.4758
   -14.4651 -14.4606 -14.4574 -14.4528 -14.4435 -14.4374 -14.4338 -14.4229
   -14.4192 -14.4105 -14.4015 -14.3905 -14.3858 -14.3817 -14.3784 -14.3696
   -14.3645 -14.3572 -14.3545 -14.3466 -14.3413 -14.3348 -14.3269 -14.3249
   -14.3196 -14.3150 -14.3047 -14.3000 -14.2914 -14.2824 -14.2801 -14.2745
   -14.2683 -14.2574 -14.2463 -14.2387 -11.7143  -7.6227  -6.8018  -6.3423
    -5.9591  -5.5386  -4.8439  -4.5383  -3.8993  -3.6087  -3.2959  -2.8579
    -2.1973  -1.9926  -1.2308  -1.0900  -0.6750  -0.2136   0.1368   0.4616
     0.7365   0.8448   1.1749   1.3858   1.6892   1.8633   2.0717   2.4113
     2.7068   2.8357   3.1434

          k =-0.0756 0.1018 0.0000 ( 24479 PWs)   bands (ev):

   -14.6537 -14.6437 -14.6252 -14.6163 -14.6079 -14.5963 -14.5825 -14.5784
   -14.5741 -14.5681 -14.5626 -14.5567 -14.5514 -14.5416 -14.5343 -14.5288
   -14.5243 -14.5194 -14.5111 -14.5015 -14.4977 -14.4903 -14.4816 -14.4758
   -14.4651 -14.4606 -14.4574 -14.4529 -14.4435 -14.4374 -14.4338 -14.4229
   -14.4192 -14.4105 -14.4015 -14.3905 -14.3858 -14.3817 -14.3784 -14.3696
   -14.3645 -14.3572 -14.3544 -14.3466 -14.3413 -14.3348 -14.3269 -14.3249
   -14.3196 -14.3150 -14.3047 -14.3000 -14.2914 -14.2824 -14.2801 -14.2745
   -14.2683 -14.2574 -14.2463 -14.2387 -11.7143  -7.6227  -6.8018  -6.3423
    -5.9591  -5.5386  -4.8439  -4.5383  -3.8993  -3.6087  -3.2959  -2.8579
    -2.1973  -1.9926  -1.2308  -1.0900  -0.6750  -0.2136   0.1368   0.4616
     0.7365   0.8448   1.1749   1.3859   1.6892   1.8633   2.0717   2.4113
     2.7068   2.8357   3.1434

          k =-0.0756-0.0436 0.0000 ( 24448 PWs)   bands (ev):

   -14.6546 -14.6515 -14.6413 -14.6087 -14.6029 -14.5976 -14.5913 -14.5837
   -14.5818 -14.5714 -14.5587 -14.5514 -14.5491 -14.5354 -14.5277 -14.5230
   -14.5180 -14.5166 -14.5120 -14.5023 -14.4962 -14.4849 -14.4773 -14.4691
   -14.4622 -14.4614 -14.4560 -14.4428 -14.4400 -14.4330 -14.4267 -14.4222
   -14.4110 -14.3991 -14.3979 -14.3946 -14.3890 -14.3803 -14.3753 -14.3727
   -14.3634 -14.3585 -14.3553 -14.3510 -14.3468 -14.3430 -14.3411 -14.3377
   -14.3360 -14.3294 -14.3271 -14.3209 -14.2955 -14.2819 -14.2769 -14.2703
   -14.2551 -14.2493 -14.2296 -14.2232 -11.7143  -7.3945  -7.2994  -6.2387
    -5.8810  -4.8952  -4.8552  -4.4749  -4.2028  -4.0699  -3.7095  -2.5633
    -2.2670  -2.0625  -1.0080  -0.8699  -0.2004  -0.1178   0.1029   0.3241
     0.4911   0.8701   1.4120   1.4657   1.6974   1.9027   2.2646   2.4403
     2.4979   2.8704   2.9343

     the Fermi energy is     0.4804 ev

!    total energy              =   -1641.75963307 Ry
     Harris-Foulkes estimate   =   -1641.75962375 Ry
     estimated scf accuracy    <       0.00000024 Ry

     The total energy is the sum of the following terms:

     one-electron contribution =   -9165.25578726 Ry
     hartree contribution      =    4663.41098996 Ry
     xc contribution           =    -478.29281447 Ry
     ewald contribution        =    3338.41573912 Ry
     electric field correction =       0.00037003 Ry
     smearing contrib. (-TS)   =      -0.03813046 Ry

     convergence has been achieved in  23 iterations
 
 BEEF-vdW xc energy contributions
           1 :   -418.757895609247     
           2 :    382.438319800556     
           3 :   -321.134474711516     
           4 :    252.101188886073     
           5 :   -191.090765640385     
           6 :    146.665105376715     
           7 :   -118.582612574628     
           8 :    100.413354957278     
           9 :   -84.4604534105179     
          10 :    66.1177696633499     
          11 :   -45.5160167958563     
          12 :    26.1148370922026     
          13 :   -11.6725529519188     
          14 :    3.68955144727983     
          15 :  -0.752910652606658     
          16 :  -0.209515579689196     
          17 :    1.90795742669218     
          18 :   -5.28847732656232     
          19 :    9.47829959063449     
          20 :   -12.8373572076143     
          21 :    14.2332471921648     
          22 :   -13.6983821662952     
          23 :    12.1902852372016     
          24 :   -10.8151553876983     
          25 :    10.1454773473721     
          26 :   -10.0580318384294     
          27 :    10.0642551982095     
          28 :   -9.77494577016125     
          29 :    9.13547027718641     
          30 :   -8.33118416919615     
          31 :   -38.2163447270001     
          32 :   -27.6985879196454     

     Forces acting on atoms (Ry/au):


     negative rho (up, down):  1.091E-03 0.000E+00
     atom    1 type  1   force =     0.00026466    0.00015097   -0.01129022
     atom    2 type  1   force =    -0.00026390    0.00015416   -0.01129375
     atom    3 type  1   force =     0.00000121   -0.00030434   -0.01128909
     atom    4 type  1   force =    -0.00000015   -0.00000015   -0.00990664
     atom    5 type  1   force =    -0.00000108   -0.00167195    0.00878398
     atom    6 type  1   force =     0.00000141   -0.00000360    0.01724576
     atom    7 type  1   force =     0.00144347    0.00083900    0.00878013
     atom    8 type  1   force =    -0.00144456    0.00083726    0.00878116
     atom    9 type  1   force =     0.00000457    0.00001062   -0.00059425
     atom   10 type  1   force =    -0.00000413    0.00046736    0.00039272
     atom   11 type  1   force =     0.00039616   -0.00024266    0.00039866
     atom   12 type  1   force =    -0.00039704   -0.00023656    0.00039637
     atom   13 type  2   force =    -0.00000062   -0.00000010   -0.00040482

     Total force =     0.031932     Total SCF correction =     0.001330


     entering subroutine stress ...


     negative rho (up, down):  1.091E-03 0.000E+00
          total   stress  (Ry/bohr**3)                   (kbar)     P=    6.89
   0.00005501  -0.00000000  -0.00000000          8.09     -0.00     -0.00
  -0.00000000   0.00005501  -0.00000000         -0.00      8.09     -0.00
  -0.00000000  -0.00000000   0.00003053         -0.00     -0.00      4.49

 !ASE

     Writing output data file calc.save
 
     init_run     :     13.93s CPU     20.40s WALL (       1 calls)
     electrons    :   1102.03s CPU   1592.49s WALL (       1 calls)
     forces       :      6.17s CPU      7.12s WALL (       1 calls)
     stress       :     16.35s CPU     18.17s WALL (       1 calls)

     Called by init_run:
     wfcinit      :     10.36s CPU     15.75s WALL (       1 calls)
     potinit      :      1.81s CPU      2.71s WALL (       1 calls)

     Called by electrons:
     c_bands      :    890.49s CPU   1283.89s WALL (      23 calls)
     sum_band     :    106.26s CPU    158.89s WALL (      23 calls)
     v_of_rho     :     37.24s CPU     56.33s WALL (      24 calls)
     newd         :     15.61s CPU     15.99s WALL (      24 calls)
     mix_rho      :      1.46s CPU      2.27s WALL (      23 calls)
     vdW_energy   :      4.04s CPU      4.49s WALL (      60 calls)
     vdW_ffts     :     56.36s CPU     87.94s WALL (     122 calls)
     vdW_v        :     10.88s CPU     15.57s WALL (      60 calls)

     Called by c_bands:
     init_us_2    :      1.74s CPU      1.80s WALL (     980 calls)
     cegterg      :    878.07s CPU   1270.63s WALL (     482 calls)

     Called by *egterg:
     h_psi        :    620.23s CPU    995.47s WALL (    3179 calls)
     s_psi        :     25.18s CPU     25.26s WALL (    3179 calls)
     g_psi        :      1.75s CPU      1.75s WALL (    2677 calls)
     cdiaghg      :    119.99s CPU    123.57s WALL (    3159 calls)

     Called by h_psi:
     add_vuspsi   :     26.22s CPU     26.28s WALL (    3179 calls)

     General routines
     calbec       :     43.13s CPU     49.37s WALL (    3679 calls)
     fft          :     86.93s CPU    134.89s WALL (    3687 calls)
     ffts         :      0.26s CPU      0.43s WALL (      47 calls)
     fftw         :    597.19s CPU   1011.08s WALL (  349310 calls)
     interpolate  :      1.42s CPU      2.19s WALL (      47 calls)
     davcio       :      0.00s CPU      0.03s WALL (      20 calls)
 
     Parallel routines
     fft_scatter  :    609.70s CPU   1062.90s WALL (  353044 calls)
 
     PWSCF        : 18m59.33s CPU    27m19.71s WALL

 
   This run was terminated on:  13:30:21  20Jan2018            

=------------------------------------------------------------------------------=
   JOB DONE.
=------------------------------------------------------------------------------=
Job  /afs/slac/g/suncat/bin/suncat-tsmpirun -x LD_LIBRARY_PATH -wdir /scratch/qe505014_9lLMc pw.x -in pw.inp

TID   HOST_NAME   COMMAND_LINE            STATUS            TERMINATION_TIME
===== ========== ================  =======================  ===================
00000 suncat0110 pw.x -in pw.inp   Done                     01/20/2018 13:30:21
00001 suncat0110 pw.x -in pw.inp   Done                     01/20/2018 13:30:21
00002 suncat0110 pw.x -in pw.inp   Done                     01/20/2018 13:30:21
00003 suncat0110 pw.x -in pw.inp   Done                     01/20/2018 13:30:21
00004 suncat0110 pw.x -in pw.inp   Done                     01/20/2018 13:30:21
00005 suncat0110 pw.x -in pw.inp   Done                     01/20/2018 13:30:21
00006 suncat0110 pw.x -in pw.inp   Done                     01/20/2018 13:30:21
00007 suncat0110 pw.x -in pw.inp   Done                     01/20/2018 13:30:21
00008 suncat0109 pw.x -in pw.inp   Done                     01/20/2018 13:30:21
00009 suncat0109 pw.x -in pw.inp   Done                     01/20/2018 13:30:21
00010 suncat0109 pw.x -in pw.inp   Done                     01/20/2018 13:30:21
00011 suncat0109 pw.x -in pw.inp   Done                     01/20/2018 13:30:21
00012 suncat0109 pw.x -in pw.inp   Done                     01/20/2018 13:30:21
00013 suncat0109 pw.x -in pw.inp   Done                     01/20/2018 13:30:21
00014 suncat0109 pw.x -in pw.inp   Done                     01/20/2018 13:30:21
00015 suncat0109 pw.x -in pw.inp   Done                     01/20/2018 13:30:21
00016 suncat0238 pw.x -in pw.inp   Done                     01/20/2018 13:30:21
00017 suncat0238 pw.x -in pw.inp   Done                     01/20/2018 13:30:21
00018 suncat0238 pw.x -in pw.inp   Done                     01/20/2018 13:30:21
00019 suncat0238 pw.x -in pw.inp   Done                     01/20/2018 13:30:21
00020 suncat0238 pw.x -in pw.inp   Done                     01/20/2018 13:30:21
00021 suncat0238 pw.x -in pw.inp   Done                     01/20/2018 13:30:21
00022 suncat0238 pw.x -in pw.inp   Done                     01/20/2018 13:30:21
00023 suncat0238 pw.x -in pw.inp   Done                     01/20/2018 13:30:21
00024 suncat0212 pw.x -in pw.inp   Done                     01/20/2018 13:30:21
00025 suncat0212 pw.x -in pw.inp   Done                     01/20/2018 13:30:21
00026 suncat0212 pw.x -in pw.inp   Done                     01/20/2018 13:30:21
00027 suncat0212 pw.x -in pw.inp   Done                     01/20/2018 13:30:21
00028 suncat0212 pw.x -in pw.inp   Done                     01/20/2018 13:30:21
00029 suncat0212 pw.x -in pw.inp   Done                     01/20/2018 13:30:21
00030 suncat0212 pw.x -in pw.inp   Done                     01/20/2018 13:30:21
00031 suncat0212 pw.x -in pw.inp   Done                     01/20/2018 13:30:21
