  python dir          : /home/mamunm/src/espresso
  espresso dir        : /home/vossj/suncat/esdld/espresso-dynpy-beef/bin
  pseudo dir          : /home/mamunm/src/pseudo/gbrv1.5pbe
  ase-espresso py git : GITVERSION



     Program PWSCF v.5.1rc2 (svn rev. ) starts on 18Apr2018 at 23: 9:50 

     This program is part of the open-source Quantum ESPRESSO suite
     for quantum simulation of materials; please cite
         "P. Giannozzi et al., J. Phys.:Condens. Matter 21 395502 (2009);
          URL http://www.quantum-espresso.org", 
     in publications or presentations arising from this work. More details at
     http://www.quantum-espresso.org/quote

     Parallel version (MPI), running on    16 processors
     R & G space division:  proc/nbgrp/npool/nimage =      16
     Reading input from pw.inp
     Message from routine read_cards :
     DEPRECATED: no units specified in CELL_PARAMETERS card

     Current dimensions of program PWSCF are:
     Max number of different atomic species (ntypx) = 10
     Max number of k-points (npk) =  40000
     Max angular momentum in pseudopotentials (lmaxx) =  3
     Presently stress not available with electric field


     **************************************************************************
     Initializing libbeef V0.1.1 with the BEEF-vdW functional.
     Citation: Wellendorff et al., PRB 85, 235149 (2012).
     **************************************************************************


     IMPORTANT: XC functional enforced from input :
     Exchange-correlation      = BEEF-VDW ( 1  4 27 13 2)
     Any further DFT definition will be discarded
     Please, verify this is what you really want


     Subspace diagonalization in iterative solution of the eigenvalue problem:
     a serial algorithm will be used

 
     Parallelization info
     --------------------
     sticks:   dense  smooth     PW     G-vecs:    dense   smooth      PW
     Min         315     126     35                63229    15971    2391
     Max         316     127     37                63240    16003    2398
     Sum        5041    2029    571              1011733   255863   38327
 


     bravais-lattice index     =            0
     lattice parameter (alat)  =       1.8897  a.u.
     unit-cell volume          =    8507.0471 (a.u.)^3
     number of atoms/cell      =           16
     number of atomic types    =            3
     number of electrons       =       139.00
     number of Kohn-Sham states=           79
     kinetic-energy cutoff     =      36.7493  Ry
     charge density cutoff     =     367.4932  Ry
     convergence threshold     =      1.0E-05
     mixing beta               =       0.3000
     number of iterations used =           10  plain     mixing
     Exchange-correlation      = BEEF-VDW ( 1  4 27 13 2)
     nstep                     =           50


     celldm(1)=   1.889726  celldm(2)=   0.000000  celldm(3)=   0.000000
     celldm(4)=   0.000000  celldm(5)=   0.000000  celldm(6)=   0.000000

     crystal axes: (cart. coord. in units of alat)
               a(1) = (   7.468327   0.000000   0.000000 )  
               a(2) = (   3.734164   6.467761   0.000000 )  
               a(3) = (   0.000000   0.000000  26.097863 )  

     reciprocal axes: (cart. coord. in units 2 pi/alat)
               b(1) = (  0.133899 -0.077307  0.000000 )  
               b(2) = (  0.000000  0.154613  0.000000 )  
               b(3) = (  0.000000  0.000000  0.038317 )  


     PseudoPot. # 1 for La read from file:
     /home/mamunm/src/pseudo/gbrv1.5pbe/La.UPF
     MD5 check sum: 5937b0c7494ba0601a847275249473aa
     Pseudo is Ultrasoft + core correction, Zval = 11.0
     Generated by new atomic code, or converted to UPF format
     Using radial grid of  995 points,  8 beta functions with: 
                l(1) =   0
                l(2) =   0
                l(3) =   1
                l(4) =   1
                l(5) =   2
                l(6) =   2
                l(7) =   3
                l(8) =   3
     Q(r) pseudized with  8 coefficients,  rinner =    1.700   1.700   1.700
                                                       1.700   1.700   1.700
                                                       1.700

     PseudoPot. # 2 for C  read from file:
     /home/mamunm/src/pseudo/gbrv1.5pbe/C.UPF
     MD5 check sum: d1aef80898a10debaa0f26306b886e00
     Pseudo is Ultrasoft + core correction, Zval =  4.0
     Generated by new atomic code, or converted to UPF format
     Using radial grid of  721 points,  4 beta functions with: 
                l(1) =   0
                l(2) =   0
                l(3) =   1
                l(4) =   1
     Q(r) pseudized with  8 coefficients,  rinner =    1.100   1.100   1.100


     PseudoPot. # 3 for H  read from file:
     /home/mamunm/src/pseudo/gbrv1.5pbe/H.UPF
     MD5 check sum: 761ae9a214b05c3daf00ab9f6b793d6f
     Pseudo is Ultrasoft, Zval =  1.0
     Generated by new atomic code, or converted to UPF format
     Using radial grid of  615 points,  2 beta functions with: 
                l(1) =   0
                l(2) =   0
     Q(r) pseudized with  8 coefficients,  rinner =    0.700

     vdW kernel table read from file vdW_kernel_table
     MD5 check sum: 095c7af220d748ca6e76c0b4c6cfb241

     atomic species   valence    mass     pseudopotential
        La1           11.00   138.90547     La( 1.00)
        C1             4.00    12.01100     C ( 1.00)
        H1             1.00     1.00800     H ( 1.00)

     No symmetry found



   Cartesian axes

     site n.     atom                  positions (alat units)
         1           La1 tau(   1) = (   1.8670818   1.0779602  10.0000000  )
         2           La1 tau(   2) = (   5.6012453   1.0779602  10.0000000  )
         3           La1 tau(   3) = (   3.7341635   4.3118406  10.0000000  )
         4           La1 tau(   4) = (   7.4683270   4.3118406  10.0000000  )
         5           La1 tau(   5) = (   7.4683270   2.1559203  13.0489317  )
         6           La1 tau(   6) = (   3.7341635   2.1559203  13.0489317  )
         7           La1 tau(   7) = (   9.3354088   5.3898008  13.0489317  )
         8           La1 tau(   8) = (   5.6012453   5.3898008  13.0489317  )
         9           La1 tau(   9) = (   0.0000000   0.0000000  16.0978635  )
        10           La1 tau(  10) = (   3.7341635   0.0000000  16.0978635  )
        11           La1 tau(  11) = (   1.8670818   3.2338805  16.0978635  )
        12           La1 tau(  12) = (   5.6012453   3.2338805  16.0978635  )
        13           C1  tau(  13) = (   1.8670818   1.0779602  17.9373635  )
        14           H1  tau(  14) = (   2.9570818   1.0779602  18.5673635  )
        15           H1  tau(  15) = (   1.4170818   1.9674602  18.5673635  )
        16           H1  tau(  16) = (   1.4170818   0.1884602  18.5673635  )

     number of k points=    20  Fermi-Dirac smearing, width (Ry)=  0.0110
                       cart. coord. in units 2pi/alat
        k(    1) = (   0.0000000   0.0000000   0.0000000), wk =   0.0555556
        k(    2) = (   0.0000000   0.0257688   0.0000000), wk =   0.1111111
        k(    3) = (   0.0000000   0.0515377   0.0000000), wk =   0.1111111
        k(    4) = (   0.0000000  -0.0773065   0.0000000), wk =   0.0555556
        k(    5) = (   0.0223165  -0.0128844   0.0000000), wk =   0.1111111
        k(    6) = (   0.0223165   0.0128844   0.0000000), wk =   0.1111111
        k(    7) = (   0.0223165   0.0386533   0.0000000), wk =   0.1111111
        k(    8) = (   0.0223165  -0.0901909   0.0000000), wk =   0.1111111
        k(    9) = (   0.0223165  -0.0644221   0.0000000), wk =   0.1111111
        k(   10) = (   0.0223165  -0.0386533   0.0000000), wk =   0.1111111
        k(   11) = (   0.0446329  -0.0257688   0.0000000), wk =   0.1111111
        k(   12) = (   0.0446329   0.0000000   0.0000000), wk =   0.1111111
        k(   13) = (   0.0446329   0.0257688   0.0000000), wk =   0.1111111
        k(   14) = (   0.0446329  -0.1030753   0.0000000), wk =   0.1111111
        k(   15) = (   0.0446329  -0.0773065   0.0000000), wk =   0.1111111
        k(   16) = (   0.0446329  -0.0515377   0.0000000), wk =   0.1111111
        k(   17) = (  -0.0669494   0.0386533   0.0000000), wk =   0.0555556
        k(   18) = (  -0.0669494   0.0644221   0.0000000), wk =   0.1111111
        k(   19) = (  -0.0669494   0.0901909   0.0000000), wk =   0.1111111
        k(   20) = (  -0.0669494  -0.0386533   0.0000000), wk =   0.0555556

     Dense  grid:  1011733 G-vectors     FFT dimensions: (  90,  90, 320)

     Smooth grid:   255863 G-vectors     FFT dimensions: (  60,  60, 192)

     Largest allocated arrays     est. size (Mb)     dimensions
        Kohn-Sham Wavefunctions         2.49 Mb     (    2068,   79)
        NL pseudopotentials            12.56 Mb     (    2068,  398)
        Each V/rho on FFT grid          2.47 Mb     (  162000)
        Each G-vector array             0.48 Mb     (   63235)
        G-vector shells                 0.18 Mb     (   23142)
     Largest temporary arrays     est. size (Mb)     dimensions
        Auxiliary wavefunctions         9.97 Mb     (    2068,  316)
        Each subspace H/S matrix        1.52 Mb     (     316,  316)
        Each <psi_i|beta_j> matrix      0.48 Mb     (     398,   79)
        Arrays for rho mixing          24.72 Mb     (  162000,   10)

     Initial potential from superposition of free atoms
     Check: negative starting charge=   -0.830898

     starting charge  138.61511, renormalised to  139.00000

     negative rho (up, down):  8.332E-01 0.000E+00


     ************************************************************************
     *
     * You are using vdW-DF for exchange-correlation in this calculation.
     * Please cite the following three references that made this development
     * possible:
     *
     *   M. Dion, H. Rydberg, E. Schroder, D. C. Langreth, and
     *   B. I. Lundqvist, Phys. Rev. Lett. 92, 246401 (2004).
     *
     *   T. Thonhauser, V. R. Cooper, S. Li, A. Puzder, P. Hyldgaard, and
     *   D. C. Langreth, Phys. Rev. B 76, 125112 (2007).
     *
     *   G. Roman-Perez and J. M. Soler, Phys. Rev. Lett. 103, 096102 (2009).
     *
     *
     * If you are using vdW-DF2, please also cite:
     *
     *   K. Lee, E. D. Murray, L. Kong, B. I. Lundqvist, and
     *   D. C. Langreth, Phys. Rev. B 82, 081101(R) (2010).
     *
     *
     * If you are calculating the stress with vdW-DF, please also cite:
     *
     *   R. Sabatini, E. Kucukbenli, B. Kolb, T. Thonhauser, and
     *   S. de Gironcoli, J. Phys.: Condens. Matter 24, 424209 (2012).
     *
     ************************************************************************

     Carrying out vdW-DF run using the following parameters:

     Nqs =      20    Nr_points =    1024   r_max =   100.000
     q_mesh =
               0.00001000     0.04494208     0.09755937     0.15916263
               0.23128650     0.31572767     0.41458969     0.53033537
               0.66584808     0.82450364     1.01025438     1.22772762
               1.48234092     1.78043706     2.12944203     2.53805004
               3.01644009     3.57652955     4.23227104     5.00000000

     Gradients computed in reciprocal space

     ************************************************************************


 
     Adding external electric field

     Computed dipole along edir(3) : 
        Dipole               -0.1888 Ry au,         -0.4799 Debye
        Dipole field         -0.0003 Ry au
 
        Potential amp.        0.0268 Ry
        Total length         48.0849 bohr
 
     Starting wfc are  247 randomized atomic wfcs

     total cpu time spent up to now is       29.9 secs

     Self-consistent Calculation

     iteration #  1     ecut=    36.75 Ry     beta=0.30
     Davidson diagonalization with overlap
     ethr =  1.00E-02,  avg # of iterations =  2.0

     negative rho (up, down):  7.108E-01 0.000E+00
 
     Adding external electric field

     Computed dipole along edir(3) : 
        Dipole                0.0886 Ry au,          0.2253 Debye
        Dipole field          0.0001 Ry au
 
        Potential amp.       -0.0126 Ry
        Total length         48.0849 bohr
 

     total cpu time spent up to now is       60.6 secs

     total energy              =   -1260.45761673 Ry
     Harris-Foulkes estimate   =   -1264.40181610 Ry
     estimated scf accuracy    <       8.30548266 Ry

     iteration #  2     ecut=    36.75 Ry     beta=0.30
     Davidson diagonalization with overlap
     ethr =  5.98E-03,  avg # of iterations =  7.8

     negative rho (up, down):  6.518E-01 0.000E+00
 
     Adding external electric field

     Computed dipole along edir(3) : 
        Dipole               -1.4612 Ry au,         -3.7140 Debye
        Dipole field         -0.0022 Ry au
 
        Potential amp.        0.2076 Ry
        Total length         48.0849 bohr
 

     total cpu time spent up to now is      108.5 secs

     total energy              =   -1260.42509870 Ry
     Harris-Foulkes estimate   =   -1268.77526107 Ry
     estimated scf accuracy    <      56.07248795 Ry

     iteration #  3     ecut=    36.75 Ry     beta=0.30
     Davidson diagonalization with overlap
     ethr =  5.98E-03,  avg # of iterations =  7.3

     negative rho (up, down):  6.464E-01 0.000E+00
 
     Adding external electric field

     Computed dipole along edir(3) : 
        Dipole               -0.0927 Ry au,         -0.2356 Debye
        Dipole field         -0.0001 Ry au
 
        Potential amp.        0.0132 Ry
        Total length         48.0849 bohr
 

     total cpu time spent up to now is      151.5 secs

     total energy              =   -1262.67417268 Ry
     Harris-Foulkes estimate   =   -1264.18332652 Ry
     estimated scf accuracy    <      60.61905806 Ry

     iteration #  4     ecut=    36.75 Ry     beta=0.30
     Davidson diagonalization with overlap
     ethr =  5.98E-03,  avg # of iterations =  3.4

     negative rho (up, down):  6.348E-01 0.000E+00
 
     Adding external electric field

     Computed dipole along edir(3) : 
        Dipole               -0.0376 Ry au,         -0.0955 Debye
        Dipole field         -0.0001 Ry au
 
        Potential amp.        0.0053 Ry
        Total length         48.0849 bohr
 

     total cpu time spent up to now is      182.8 secs

     total energy              =   -1263.27855378 Ry
     Harris-Foulkes estimate   =   -1263.42034354 Ry
     estimated scf accuracy    <       2.63926017 Ry

     iteration #  5     ecut=    36.75 Ry     beta=0.30
     Davidson diagonalization with overlap
     ethr =  1.90E-03,  avg # of iterations =  7.0

     negative rho (up, down):  6.067E-01 0.000E+00
 
     Adding external electric field

     Computed dipole along edir(3) : 
        Dipole               -0.1514 Ry au,         -0.3847 Debye
        Dipole field         -0.0002 Ry au
 
        Potential amp.        0.0215 Ry
        Total length         48.0849 bohr
 

     total cpu time spent up to now is      219.7 secs

     total energy              =   -1263.35057447 Ry
     Harris-Foulkes estimate   =   -1263.45205137 Ry
     estimated scf accuracy    <       0.35751482 Ry

     iteration #  6     ecut=    36.75 Ry     beta=0.30
     Davidson diagonalization with overlap
     ethr =  2.57E-04,  avg # of iterations =  8.4

     negative rho (up, down):  6.129E-01 0.000E+00
 
     Adding external electric field

     Computed dipole along edir(3) : 
        Dipole                0.0473 Ry au,          0.1201 Debye
        Dipole field          0.0001 Ry au
 
        Potential amp.       -0.0067 Ry
        Total length         48.0849 bohr
 

     total cpu time spent up to now is      262.6 secs

     total energy              =   -1263.40906409 Ry
     Harris-Foulkes estimate   =   -1263.46627955 Ry
     estimated scf accuracy    <       2.68539218 Ry

     iteration #  7     ecut=    36.75 Ry     beta=0.30
     Davidson diagonalization with overlap
     ethr =  2.57E-04,  avg # of iterations =  5.2

     negative rho (up, down):  6.129E-01 0.000E+00
 
     Adding external electric field

     Computed dipole along edir(3) : 
        Dipole               -0.0002 Ry au,         -0.0006 Debye
        Dipole field         -0.0000 Ry au
 
        Potential amp.        0.0000 Ry
        Total length         48.0849 bohr
 

     total cpu time spent up to now is      295.4 secs

     total energy              =   -1263.41445024 Ry
     Harris-Foulkes estimate   =   -1263.43086300 Ry
     estimated scf accuracy    <       0.32328805 Ry

     iteration #  8     ecut=    36.75 Ry     beta=0.30
     Davidson diagonalization with overlap
     ethr =  2.33E-04,  avg # of iterations =  7.9

     negative rho (up, down):  6.067E-01 0.000E+00
 
     Adding external electric field

     Computed dipole along edir(3) : 
        Dipole                0.0608 Ry au,          0.1545 Debye
        Dipole field          0.0001 Ry au
 
        Potential amp.       -0.0086 Ry
        Total length         48.0849 bohr
 

     total cpu time spent up to now is      330.3 secs

     total energy              =   -1263.42428669 Ry
     Harris-Foulkes estimate   =   -1263.42571056 Ry
     estimated scf accuracy    <       0.01095888 Ry

     iteration #  9     ecut=    36.75 Ry     beta=0.30
     Davidson diagonalization with overlap
     c_bands:  1 eigenvalues not converged
     c_bands:  1 eigenvalues not converged
     c_bands:  1 eigenvalues not converged
     c_bands:  1 eigenvalues not converged
     c_bands:  1 eigenvalues not converged
     ethr =  7.88E-06,  avg # of iterations = 14.8

     negative rho (up, down):  5.985E-01 0.000E+00
 
     Adding external electric field

     Computed dipole along edir(3) : 
        Dipole                0.0789 Ry au,          0.2005 Debye
        Dipole field          0.0001 Ry au
 
        Potential amp.       -0.0112 Ry
        Total length         48.0849 bohr
 

     total cpu time spent up to now is      385.3 secs

     total energy              =   -1263.43063071 Ry
     Harris-Foulkes estimate   =   -1263.43386747 Ry
     estimated scf accuracy    <       0.18572444 Ry

     iteration # 10     ecut=    36.75 Ry     beta=0.30
     Davidson diagonalization with overlap
     ethr =  7.88E-06,  avg # of iterations =  8.4

     negative rho (up, down):  5.922E-01 0.000E+00
 
     Adding external electric field

     Computed dipole along edir(3) : 
        Dipole                0.0389 Ry au,          0.0990 Debye
        Dipole field          0.0001 Ry au
 
        Potential amp.       -0.0055 Ry
        Total length         48.0849 bohr
 

     total cpu time spent up to now is      423.8 secs

     total energy              =   -1263.42901203 Ry
     Harris-Foulkes estimate   =   -1263.43184540 Ry
     estimated scf accuracy    <       0.10930607 Ry

     iteration # 11     ecut=    36.75 Ry     beta=0.30
     Davidson diagonalization with overlap
     c_bands:  1 eigenvalues not converged
     ethr =  7.88E-06,  avg # of iterations =  9.9

     negative rho (up, down):  5.832E-01 0.000E+00
 
     Adding external electric field

     Computed dipole along edir(3) : 
        Dipole                0.0506 Ry au,          0.1287 Debye
        Dipole field          0.0001 Ry au
 
        Potential amp.       -0.0072 Ry
        Total length         48.0849 bohr
 

     total cpu time spent up to now is      463.2 secs

     total energy              =   -1263.43024681 Ry
     Harris-Foulkes estimate   =   -1263.43042623 Ry
     estimated scf accuracy    <       0.00142987 Ry

     iteration # 12     ecut=    36.75 Ry     beta=0.30
     Davidson diagonalization with overlap
     c_bands:  1 eigenvalues not converged
     c_bands:  1 eigenvalues not converged
     c_bands:  1 eigenvalues not converged
     ethr =  1.03E-06,  avg # of iterations = 10.4

     negative rho (up, down):  5.839E-01 0.000E+00
 
     Adding external electric field

     Computed dipole along edir(3) : 
        Dipole                0.0268 Ry au,          0.0681 Debye
        Dipole field          0.0000 Ry au
 
        Potential amp.       -0.0038 Ry
        Total length         48.0849 bohr
 

     total cpu time spent up to now is      509.4 secs

     total energy              =   -1263.43046157 Ry
     Harris-Foulkes estimate   =   -1263.43078243 Ry
     estimated scf accuracy    <       0.00478216 Ry

     iteration # 13     ecut=    36.75 Ry     beta=0.30
     Davidson diagonalization with overlap
     ethr =  1.03E-06,  avg # of iterations =  7.8

     negative rho (up, down):  5.841E-01 0.000E+00
 
     Adding external electric field

     Computed dipole along edir(3) : 
        Dipole                0.0360 Ry au,          0.0916 Debye
        Dipole field          0.0001 Ry au
 
        Potential amp.       -0.0051 Ry
        Total length         48.0849 bohr
 

     total cpu time spent up to now is      548.1 secs

     total energy              =   -1263.43066430 Ry
     Harris-Foulkes estimate   =   -1263.43069344 Ry
     estimated scf accuracy    <       0.00076988 Ry

     iteration # 14     ecut=    36.75 Ry     beta=0.30
     Davidson diagonalization with overlap
     ethr =  5.54E-07,  avg # of iterations =  2.5

     negative rho (up, down):  5.854E-01 0.000E+00
 
     Adding external electric field

     Computed dipole along edir(3) : 
        Dipole                0.0464 Ry au,          0.1181 Debye
        Dipole field          0.0001 Ry au
 
        Potential amp.       -0.0066 Ry
        Total length         48.0849 bohr
 

     total cpu time spent up to now is      578.6 secs

     total energy              =   -1263.43064738 Ry
     Harris-Foulkes estimate   =   -1263.43067984 Ry
     estimated scf accuracy    <       0.00034934 Ry

     iteration # 15     ecut=    36.75 Ry     beta=0.30
     Davidson diagonalization with overlap
     ethr =  2.51E-07,  avg # of iterations =  6.4

     negative rho (up, down):  5.852E-01 0.000E+00
 
     Adding external electric field

     Computed dipole along edir(3) : 
        Dipole                0.0424 Ry au,          0.1079 Debye
        Dipole field          0.0001 Ry au
 
        Potential amp.       -0.0060 Ry
        Total length         48.0849 bohr
 

     total cpu time spent up to now is      615.7 secs

     total energy              =   -1263.43068149 Ry
     Harris-Foulkes estimate   =   -1263.43069007 Ry
     estimated scf accuracy    <       0.00014149 Ry

     iteration # 16     ecut=    36.75 Ry     beta=0.30
     Davidson diagonalization with overlap
     c_bands:  1 eigenvalues not converged
     ethr =  1.02E-07,  avg # of iterations =  5.0

     negative rho (up, down):  5.854E-01 0.000E+00
 
     Adding external electric field

     Computed dipole along edir(3) : 
        Dipole                0.0395 Ry au,          0.1004 Debye
        Dipole field          0.0001 Ry au
 
        Potential amp.       -0.0056 Ry
        Total length         48.0849 bohr
 

     total cpu time spent up to now is      648.1 secs

     total energy              =   -1263.43069799 Ry
     Harris-Foulkes estimate   =   -1263.43069912 Ry
     estimated scf accuracy    <       0.00002370 Ry

     iteration # 17     ecut=    36.75 Ry     beta=0.30
     Davidson diagonalization with overlap
     c_bands:  1 eigenvalues not converged
     c_bands:  1 eigenvalues not converged
     c_bands:  1 eigenvalues not converged
     c_bands:  1 eigenvalues not converged
     ethr =  1.71E-08,  avg # of iterations = 10.9

     negative rho (up, down):  5.853E-01 0.000E+00
 
     Adding external electric field

     Computed dipole along edir(3) : 
        Dipole                0.0399 Ry au,          0.1014 Debye
        Dipole field          0.0001 Ry au
 
        Potential amp.       -0.0057 Ry
        Total length         48.0849 bohr
 

     total cpu time spent up to now is      693.2 secs

     total energy              =   -1263.43070511 Ry
     Harris-Foulkes estimate   =   -1263.43070563 Ry
     estimated scf accuracy    <       0.00002907 Ry

     iteration # 18     ecut=    36.75 Ry     beta=0.30
     Davidson diagonalization with overlap
     ethr =  1.71E-08,  avg # of iterations =  5.0

     negative rho (up, down):  5.856E-01 0.000E+00

     negative rho (up, down):  5.856E-01 0.000E+00

     negative rho (up, down):  5.856E-01 0.000E+00

     negative rho (up, down):  5.856E-01 0.000E+00

     negative rho (up, down):  5.856E-01 0.000E+00

     negative rho (up, down):  5.856E-01 0.000E+00

     negative rho (up, down):  5.856E-01 0.000E+00

     negative rho (up, down):  5.856E-01 0.000E+00

     negative rho (up, down):  5.856E-01 0.000E+00

     negative rho (up, down):  5.856E-01 0.000E+00

     negative rho (up, down):  5.856E-01 0.000E+00

     negative rho (up, down):  5.856E-01 0.000E+00

     negative rho (up, down):  5.856E-01 0.000E+00

     negative rho (up, down):  5.856E-01 0.000E+00

     negative rho (up, down):  5.856E-01 0.000E+00

     negative rho (up, down):  5.856E-01 0.000E+00

     negative rho (up, down):  5.856E-01 0.000E+00

     negative rho (up, down):  5.856E-01 0.000E+00

     negative rho (up, down):  5.856E-01 0.000E+00

     negative rho (up, down):  5.856E-01 0.000E+00

     negative rho (up, down):  5.856E-01 0.000E+00

     negative rho (up, down):  5.856E-01 0.000E+00

     negative rho (up, down):  5.856E-01 0.000E+00

     negative rho (up, down):  5.856E-01 0.000E+00

     negative rho (up, down):  5.856E-01 0.000E+00

     negative rho (up, down):  5.856E-01 0.000E+00

     negative rho (up, down):  5.856E-01 0.000E+00

     negative rho (up, down):  5.856E-01 0.000E+00

     negative rho (up, down):  5.856E-01 0.000E+00

     negative rho (up, down):  5.856E-01 0.000E+00

     negative rho (up, down):  5.856E-01 0.000E+00

     negative rho (up, down):  5.856E-01 0.000E+00

     negative rho (up, down):  5.856E-01 0.000E+00

     negative rho (up, down):  5.856E-01 0.000E+00

     negative rho (up, down):  5.856E-01 0.000E+00
 
     Adding external electric field

     Computed dipole along edir(3) : 
        Dipole                0.0142 Ry au,          0.0362 Debye
        Dipole field          0.0000 Ry au
 
        Potential amp.       -0.0020 Ry
        Total length         48.0849 bohr
 

     total cpu time spent up to now is      760.2 secs

     End of self-consistent calculation

          k = 0.0000 0.0000 0.0000 ( 31997 PWs)   bands (ev):

   -31.3261 -31.3154 -31.1976 -31.1927 -31.1924 -31.1889 -31.1785 -31.1729
   -30.8593 -30.7377 -30.7374 -30.7371 -15.4726 -15.4285 -15.4278 -15.3854
   -15.3594 -15.3586 -15.2861 -15.1801 -15.1752 -15.1741 -15.0126 -14.8385
   -14.8291 -14.8251 -14.6490 -14.6480 -14.6460 -14.5928 -14.5915 -14.5863
   -14.5671 -14.5656 -14.5576 -14.3298 -14.3297 -14.3194 -14.3191 -14.2536
   -14.2421 -14.2417 -14.2228 -14.1384 -14.1383 -14.1381 -13.9099 -13.9099
   -11.1700  -4.3225  -3.8917  -1.8588  -0.7048   0.0000   0.3496   0.3856
     0.4053   0.4093   0.6622   0.6629   0.7675   0.8785   0.8813   0.9604
     1.0198   1.0226   1.2651   1.7440   1.7547   2.1927   2.2863   2.4446
     2.5462   2.5608   2.6559   2.9033   3.1336   3.2204   3.2341

          k = 0.0000 0.0258 0.0000 ( 32061 PWs)   bands (ev):

   -31.3172 -31.3070 -31.2012 -31.2001 -31.1925 -31.1900 -31.1841 -31.1733
   -30.8513 -30.7457 -30.7375 -30.7373 -15.4289 -15.3923 -15.3733 -15.3438
   -15.3239 -15.3015 -15.2628 -15.1520 -15.1470 -15.1388 -15.0056 -14.8685
   -14.8476 -14.8373 -14.6440 -14.6338 -14.6318 -14.6280 -14.6256 -14.6163
   -14.6102 -14.5730 -14.5477 -14.4206 -14.4046 -14.3479 -14.3364 -14.2424
   -14.2341 -14.2328 -14.2016 -14.1785 -14.1781 -14.1234 -13.9830 -13.9256
   -11.1663  -4.3256  -3.8901  -1.8065  -0.5303   0.1756   0.4854   0.5309
     0.5455   0.5609   0.7151   0.8093   0.8860   0.9895   1.0616   1.0846
     1.1272   1.1499   1.3335   1.7723   1.8081   2.1649   2.2341   2.4505
     2.5568   2.5895   2.6504   2.7775   2.8343   2.9819   3.0091

          k = 0.0000 0.0515 0.0000 ( 32002 PWs)   bands (ev):

   -31.2930 -31.2844 -31.2254 -31.2180 -31.1926 -31.1908 -31.1897 -31.1735
   -30.8293 -30.7683 -30.7375 -30.7373 -15.3296 -15.3022 -15.2599 -15.2364
   -15.2127 -15.2003 -15.1298 -15.0882 -15.0843 -15.0651 -14.9911 -14.9359
   -14.8851 -14.8724 -14.7387 -14.7306 -14.7302 -14.7186 -14.6383 -14.6079
   -14.5897 -14.5896 -14.5568 -14.5270 -14.5045 -14.3968 -14.3823 -14.2818
   -14.2792 -14.2215 -14.2171 -14.2126 -14.1902 -14.1708 -14.0824 -13.9683
   -11.1590  -4.3314  -3.8868  -1.7036  -0.0684   0.5999   0.6983   0.7548
     0.9080   0.9108   0.9828   1.1517   1.1738   1.2860   1.3437   1.4751
     1.5009   1.5850   1.5964   1.8195   1.9597   2.0136   2.1208   2.2773
     2.3510   2.4222   2.5654   2.6012   2.6219   2.6993   2.7653

          k = 0.0000-0.0773 0.0000 ( 31970 PWs)   bands (ev):

   -31.2638 -31.2588 -31.2568 -31.2410 -31.1926 -31.1915 -31.1901 -31.1736
   -30.7991 -30.7988 -30.7375 -30.7373 -15.2615 -15.2388 -15.1976 -15.1788
   -15.1362 -15.1353 -15.0485 -15.0413 -15.0085 -14.9843 -14.9351 -14.9111
   -14.8957 -14.8769 -14.8718 -14.8629 -14.7977 -14.7945 -14.7933 -14.7774
   -14.5545 -14.5542 -14.4647 -14.4615 -14.4463 -14.4407 -14.3963 -14.3925
   -14.3467 -14.3434 -14.2165 -14.2128 -14.1972 -14.1936 -14.0260 -14.0255
   -11.1554  -4.3342  -3.8852  -1.6527   0.4407   0.4810   0.8718   0.9374
     1.1908   1.2024   1.2534   1.2551   1.2812   1.4239   1.6443   1.7002
     1.8269   1.8414   1.8646   1.8928   2.1060   2.1448   2.2068   2.2248
     2.2272   2.2507   2.2783   2.4492   2.5442   2.5564   2.5681

          k = 0.0223-0.0129 0.0000 ( 32061 PWs)   bands (ev):

   -31.3172 -31.3070 -31.2023 -31.2004 -31.1927 -31.1898 -31.1789 -31.1770
   -30.8513 -30.7457 -30.7377 -30.7371 -15.4293 -15.3916 -15.3737 -15.3441
   -15.3231 -15.3019 -15.2628 -15.1512 -15.1481 -15.1385 -15.0056 -14.8687
   -14.8439 -14.8406 -14.6419 -14.6351 -14.6316 -14.6297 -14.6248 -14.6150
   -14.6122 -14.5728 -14.5475 -14.4208 -14.4046 -14.3478 -14.3363 -14.2422
   -14.2344 -14.2327 -14.2016 -14.1784 -14.1782 -14.1234 -13.9830 -13.9256
   -11.1663  -4.3222  -3.8940  -1.8068  -0.5302   0.1759   0.4863   0.5310
     0.5450   0.5605   0.7155   0.8088   0.8863   0.9897   1.0616   1.0851
     1.1286   1.1479   1.3333   1.7725   1.8080   2.1657   2.2345   2.4509
     2.5615   2.5882   2.6494   2.7779   2.8339   2.9822   3.0069

          k = 0.0223 0.0129 0.0000 ( 32061 PWs)   bands (ev):

   -31.3172 -31.3070 -31.2018 -31.2004 -31.1926 -31.1899 -31.1820 -31.1746
   -30.8513 -30.7457 -30.7374 -30.7373 -15.4291 -15.3918 -15.3737 -15.3439
   -15.3233 -15.3019 -15.2629 -15.1514 -15.1477 -15.1387 -15.0056 -14.8687
   -14.8457 -14.8388 -14.6427 -14.6347 -14.6318 -14.6289 -14.6252 -14.6160
   -14.6111 -14.5728 -14.5475 -14.4208 -14.4047 -14.3478 -14.3362 -14.2423
   -14.2341 -14.2329 -14.2016 -14.1785 -14.1782 -14.1234 -13.9830 -13.9256
   -11.1663  -4.3223  -3.8942  -1.8062  -0.5301   0.1759   0.4864   0.5310
     0.5475   0.5578   0.7151   0.8094   0.8861   0.9913   1.0602   1.0851
     1.1289   1.1476   1.3334   1.7670   1.8142   2.1637   2.2335   2.4518
     2.5700   2.5790   2.6511   2.7777   2.8351   2.9829   3.0061

          k = 0.0223 0.0387 0.0000 ( 32007 PWs)   bands (ev):

   -31.3006 -31.2915 -31.2100 -31.2076 -31.2071 -31.1954 -31.1835 -31.1710
   -30.8363 -30.7532 -30.7526 -30.7302 -15.3626 -15.3099 -15.2835 -15.2814
   -15.2355 -15.2116 -15.2089 -15.1080 -15.0920 -15.0894 -14.9948 -14.9102
   -14.8970 -14.8483 -14.7600 -14.7568 -14.6152 -14.6130 -14.6069 -14.5895
   -14.5851 -14.5719 -14.5671 -14.5632 -14.5387 -14.3838 -14.3769 -14.2962
   -14.2337 -14.2225 -14.2203 -14.1903 -14.1452 -14.1449 -14.1073 -13.9600
   -11.1608  -4.3268  -3.8917  -1.7283  -0.2073   0.4913   0.7155   0.7335
     0.8130   0.8435   0.8507   0.9413   1.1767   1.1821   1.2791   1.3046
     1.3600   1.4562   1.5199   1.8204   1.8953   2.0785   2.1401   2.3613
     2.4179   2.4761   2.5616   2.6191   2.6763   2.7198   2.8740

          k = 0.0223-0.0902 0.0000 ( 31991 PWs)   bands (ev):

   -31.2720 -31.2656 -31.2376 -31.2280 -31.2129 -31.2051 -31.1791 -31.1678
   -30.8101 -30.7796 -30.7570 -30.7260 -15.2606 -15.2100 -15.1939 -15.1593
   -15.1321 -15.1224 -15.0527 -15.0444 -15.0293 -15.0057 -14.9828 -14.9566
   -14.9382 -14.9316 -14.8908 -14.8553 -14.7903 -14.7613 -14.6632 -14.6524
   -14.5668 -14.5445 -14.5255 -14.5201 -14.4669 -14.4559 -14.4454 -14.4162
   -14.2964 -14.2351 -14.2297 -14.2018 -14.1894 -14.1835 -14.0885 -14.0210
   -11.1554  -4.3311  -3.8891  -1.6516   0.3226   0.7602   0.9405   1.0023
     1.1043   1.1402   1.1938   1.3236   1.4094   1.4902   1.5408   1.6239
     1.7002   1.7387   1.8853   1.9366   1.9774   2.0220   2.0795   2.1434
     2.1998   2.2484   2.3581   2.4462   2.4745   2.5180   2.6213

          k = 0.0223-0.0644 0.0000 ( 31991 PWs)   bands (ev):

   -31.2720 -31.2655 -31.2376 -31.2286 -31.2129 -31.2044 -31.1791 -31.1680
   -30.8101 -30.7796 -30.7570 -30.7260 -15.2607 -15.2100 -15.1940 -15.1593
   -15.1321 -15.1223 -15.0525 -15.0438 -15.0299 -15.0057 -14.9827 -14.9565
   -14.9385 -14.9315 -14.8908 -14.8552 -14.7904 -14.7613 -14.6632 -14.6524
   -14.5668 -14.5445 -14.5255 -14.5202 -14.4668 -14.4560 -14.4454 -14.4163
   -14.2964 -14.2350 -14.2297 -14.2018 -14.1895 -14.1834 -14.0885 -14.0210
   -11.1554  -4.3310  -3.8889  -1.6522   0.3225   0.7593   0.9406   1.0020
     1.1045   1.1400   1.1965   1.3231   1.4100   1.4871   1.5406   1.6221
     1.7018   1.7411   1.8850   1.9380   1.9878   2.0250   2.0828   2.1379
     2.1864   2.2425   2.3549   2.4409   2.4754   2.5251   2.6361

          k = 0.0223-0.0387 0.0000 ( 32007 PWs)   bands (ev):

   -31.3006 -31.2914 -31.2106 -31.2086 -31.2072 -31.1931 -31.1835 -31.1718
   -30.8363 -30.7529 -30.7528 -30.7302 -15.3629 -15.3099 -15.2835 -15.2813
   -15.2356 -15.2114 -15.2089 -15.1080 -15.0922 -15.0892 -14.9949 -14.9096
   -14.8973 -14.8485 -14.7599 -14.7566 -14.6148 -14.6130 -14.6076 -14.5897
   -14.5851 -14.5720 -14.5668 -14.5632 -14.5387 -14.3838 -14.3770 -14.2963
   -14.2336 -14.2228 -14.2201 -14.1903 -14.1452 -14.1449 -14.1073 -13.9600
   -11.1608  -4.3266  -3.8913  -1.7296  -0.2075   0.4913   0.7164   0.7317
     0.8139   0.8437   0.8518   0.9394   1.1770   1.1816   1.2796   1.3036
     1.3609   1.4562   1.5209   1.8226   1.8907   2.0836   2.1419   2.3608
     2.4177   2.4659   2.5601   2.6223   2.6765   2.7196   2.8777

          k = 0.0446-0.0258 0.0000 ( 32002 PWs)   bands (ev):

   -31.2929 -31.2841 -31.2255 -31.2204 -31.1928 -31.1901 -31.1831 -31.1783
   -30.8293 -30.7683 -30.7377 -30.7371 -15.3311 -15.3011 -15.2603 -15.2352
   -15.2133 -15.2001 -15.1297 -15.0869 -15.0858 -15.0646 -14.9914 -14.9354
   -14.8824 -14.8751 -14.7358 -14.7313 -14.7299 -14.7214 -14.6386 -14.6079
   -14.5914 -14.5883 -14.5567 -14.5268 -14.5043 -14.3968 -14.3823 -14.2817
   -14.2793 -14.2211 -14.2174 -14.2126 -14.1902 -14.1708 -14.0824 -13.9682
   -11.1590  -4.3216  -3.8981  -1.7046  -0.0677   0.6015   0.6987   0.7552
     0.9065   0.9117   0.9830   1.1526   1.1733   1.2866   1.3444   1.4743
     1.5006   1.5856   1.5953   1.8192   1.9603   2.0144   2.1224   2.2791
     2.3531   2.4305   2.5636   2.5994   2.6187   2.6990   2.7663

          k = 0.0446 0.0000 0.0000 ( 32007 PWs)   bands (ev):

   -31.3006 -31.2914 -31.2116 -31.2089 -31.2073 -31.1908 -31.1835 -31.1728
   -30.8363 -30.7530 -30.7528 -30.7302 -15.3631 -15.3098 -15.2832 -15.2814
   -15.2354 -15.2113 -15.2092 -15.1076 -15.0931 -15.0886 -14.9949 -14.9092
   -14.8973 -14.8488 -14.7600 -14.7567 -14.6142 -14.6126 -14.6082 -14.5901
   -14.5850 -14.5722 -14.5666 -14.5635 -14.5390 -14.3838 -14.3767 -14.2963
   -14.2334 -14.2228 -14.2201 -14.1903 -14.1451 -14.1449 -14.1073 -13.9599
   -11.1608  -4.3202  -3.8994  -1.7290  -0.2068   0.4921   0.7158   0.7336
     0.8129   0.8438   0.8514   0.9402   1.1765   1.1826   1.2787   1.3057
     1.3610   1.4555   1.5193   1.8217   1.8935   2.0810   2.1412   2.3631
     2.4183   2.4769   2.5594   2.6224   2.6782   2.7135   2.8751

          k = 0.0446 0.0258 0.0000 ( 32002 PWs)   bands (ev):

   -31.2929 -31.2843 -31.2254 -31.2193 -31.1927 -31.1902 -31.1871 -31.1753
   -30.8293 -30.7683 -30.7374 -30.7374 -15.3304 -15.3014 -15.2601 -15.2355
   -15.2131 -15.2003 -15.1299 -15.0874 -15.0852 -15.0647 -14.9912 -14.9358
   -14.8836 -14.8737 -14.7376 -14.7308 -14.7304 -14.7199 -14.6386 -14.6080
   -14.5908 -14.5890 -14.5567 -14.5268 -14.5043 -14.3967 -14.3822 -14.2819
   -14.2792 -14.2213 -14.2170 -14.2128 -14.1902 -14.1708 -14.0824 -13.9682
   -11.1590  -4.3219  -3.8987  -1.7027  -0.0677   0.6007   0.6987   0.7557
     0.9064   0.9118   0.9834   1.1526   1.1740   1.2879   1.3436   1.4746
     1.5019   1.5853   1.5938   1.8189   1.9613   2.0121   2.1215   2.2796
     2.3522   2.4302   2.5633   2.6028   2.6264   2.6889   2.7668

          k = 0.0446-0.1031 0.0000 ( 31991 PWs)   bands (ev):

   -31.2720 -31.2654 -31.2377 -31.2293 -31.2129 -31.2036 -31.1791 -31.1682
   -30.8101 -30.7796 -30.7570 -30.7260 -15.2609 -15.2104 -15.1932 -15.1593
   -15.1323 -15.1220 -15.0509 -15.0456 -15.0294 -15.0056 -14.9831 -14.9564
   -14.9378 -14.9320 -14.8908 -14.8557 -14.7905 -14.7614 -14.6632 -14.6528
   -14.5670 -14.5445 -14.5257 -14.5200 -14.4665 -14.4560 -14.4453 -14.4163
   -14.2964 -14.2351 -14.2297 -14.2020 -14.1893 -14.1834 -14.0884 -14.0210
   -11.1554  -4.3248  -3.8969  -1.6510   0.3233   0.7594   0.9415   1.0025
     1.1038   1.1412   1.1960   1.3246   1.4112   1.4867   1.5413   1.6222
     1.7015   1.7391   1.8820   1.9396   1.9863   2.0245   2.0818   2.1410
     2.1933   2.2433   2.3553   2.4423   2.4739   2.5277   2.6377

          k = 0.0446-0.0773 0.0000 ( 31986 PWs)   bands (ev):

   -31.2513 -31.2431 -31.2423 -31.2397 -31.2293 -31.2239 -31.1746 -31.1644
   -30.7840 -30.7837 -30.7833 -30.7219 -15.1507 -15.1400 -15.1172 -15.1124
   -15.1016 -15.0919 -15.0634 -15.0297 -14.9927 -14.9851 -14.9606 -14.9458
   -14.9426 -14.9391 -14.9321 -14.9292 -14.9271 -14.9158 -14.5736 -14.5651
   -14.5639 -14.5492 -14.5479 -14.5459 -14.5151 -14.5116 -14.4198 -14.4192
   -14.4171 -14.2352 -14.2003 -14.1981 -14.1977 -14.1111 -14.1092 -14.1089
   -11.1536  -4.3261  -3.8957  -1.6256   0.8297   0.8403   0.8469   1.2690
     1.2919   1.3151   1.3825   1.4088   1.6458   1.7281   1.7346   1.7350
     1.7647   1.7750   1.7768   1.8064   1.8482   1.9647   1.9665   1.9700
     2.1285   2.3088   2.3110   2.3385   2.3786   2.3901   2.4035

          k = 0.0446-0.0515 0.0000 ( 31991 PWs)   bands (ev):

   -31.2719 -31.2650 -31.2378 -31.2310 -31.2129 -31.2018 -31.1791 -31.1688
   -30.8101 -30.7796 -30.7570 -30.7260 -15.2615 -15.2108 -15.1928 -15.1596
   -15.1321 -15.1219 -15.0499 -15.0456 -15.0299 -15.0054 -14.9833 -14.9558
   -14.9385 -14.9319 -14.8907 -14.8556 -14.7905 -14.7614 -14.6632 -14.6529
   -14.5670 -14.5445 -14.5257 -14.5199 -14.4665 -14.4560 -14.4455 -14.4163
   -14.2964 -14.2349 -14.2298 -14.2020 -14.1892 -14.1835 -14.0884 -14.0210
   -11.1554  -4.3246  -3.8963  -1.6529   0.3228   0.7614   0.9418   1.0022
     1.1036   1.1402   1.1931   1.3240   1.4095   1.4928   1.5404   1.6227
     1.6995   1.7402   1.8866   1.9372   1.9768   2.0235   2.0816   2.1437
     2.1964   2.2475   2.3580   2.4444   2.4775   2.5144   2.6231

          k =-0.0669 0.0387 0.0000 ( 31970 PWs)   bands (ev):

   -31.2619 -31.2586 -31.2561 -31.2456 -31.1928 -31.1902 -31.1844 -31.1784
   -30.7992 -30.7986 -30.7377 -30.7371 -15.2639 -15.2372 -15.1987 -15.1772
   -15.1378 -15.1339 -15.0461 -15.0433 -15.0066 -14.9847 -14.9325 -14.9131
   -14.8963 -14.8760 -14.8711 -14.8648 -14.7970 -14.7949 -14.7919 -14.7801
   -14.5562 -14.5530 -14.4639 -14.4616 -14.4444 -14.4430 -14.3961 -14.3926
   -14.3465 -14.3436 -14.2160 -14.2132 -14.1976 -14.1932 -14.0258 -14.0257
   -11.1555  -4.3214  -3.9001  -1.6541   0.4421   0.4817   0.8742   0.9367
     1.1893   1.2024   1.2534   1.2575   1.2811   1.4248   1.6448   1.7001
     1.8269   1.8401   1.8652   1.8922   2.1068   2.1460   2.2113   2.2253
     2.2295   2.2494   2.2828   2.4495   2.5444   2.5581   2.5669

          k =-0.0669 0.0644 0.0000 ( 31991 PWs)   bands (ev):

   -31.2718 -31.2648 -31.2378 -31.2316 -31.2129 -31.2011 -31.1791 -31.1690
   -30.8101 -30.7796 -30.7570 -30.7260 -15.2616 -15.2108 -15.1929 -15.1595
   -15.1322 -15.1219 -15.0496 -15.0448 -15.0305 -15.0053 -14.9832 -14.9556
   -14.9390 -14.9319 -14.8908 -14.8555 -14.7907 -14.7616 -14.6631 -14.6528
   -14.5671 -14.5442 -14.5258 -14.5201 -14.4669 -14.4561 -14.4452 -14.4163
   -14.2963 -14.2349 -14.2298 -14.2019 -14.1894 -14.1834 -14.0884 -14.0210
   -11.1554  -4.3214  -3.9003  -1.6527   0.3238   0.7597   0.9428   1.0014
     1.1037   1.1404   1.1961   1.3250   1.4107   1.4862   1.5410   1.6219
     1.7025   1.7402   1.8836   1.9381   1.9849   2.0246   2.0835   2.1405
     2.1936   2.2458   2.3558   2.4438   2.4734   2.5261   2.6326

          k =-0.0669 0.0902 0.0000 ( 31991 PWs)   bands (ev):

   -31.2719 -31.2651 -31.2377 -31.2306 -31.2129 -31.2023 -31.1791 -31.1686
   -30.8101 -30.7796 -30.7570 -30.7260 -15.2612 -15.2105 -15.1931 -15.1595
   -15.1322 -15.1219 -15.0510 -15.0441 -15.0303 -15.0054 -14.9830 -14.9559
   -14.9392 -14.9315 -14.8908 -14.8556 -14.7908 -14.7616 -14.6630 -14.6528
   -14.5670 -14.5442 -14.5258 -14.5200 -14.4669 -14.4560 -14.4452 -14.4163
   -14.2963 -14.2351 -14.2297 -14.2019 -14.1894 -14.1834 -14.0884 -14.0210
   -11.1554  -4.3216  -3.9007  -1.6514   0.3234   0.7605   0.9419   1.0032
     1.1041   1.1409   1.1932   1.3242   1.4093   1.4927   1.5394   1.6241
     1.7007   1.7390   1.8864   1.9387   1.9775   2.0234   2.0796   2.1433
     2.1988   2.2479   2.3568   2.4458   2.4751   2.5205   2.6208

          k =-0.0669-0.0387 0.0000 ( 31970 PWs)   bands (ev):

   -31.2628 -31.2587 -31.2565 -31.2433 -31.1927 -31.1904 -31.1882 -31.1755
   -30.7990 -30.7989 -30.7374 -30.7374 -15.2627 -15.2377 -15.1982 -15.1778
   -15.1369 -15.1348 -15.0471 -15.0425 -15.0073 -14.9845 -14.9336 -14.9119
   -14.8961 -14.8767 -14.8717 -14.8640 -14.7967 -14.7958 -14.7928 -14.7786
   -14.5556 -14.5536 -14.4640 -14.4616 -14.4451 -14.4420 -14.3962 -14.3925
   -14.3467 -14.3434 -14.2163 -14.2128 -14.1976 -14.1933 -14.0261 -14.0254
   -11.1554  -4.3217  -3.9009  -1.6515   0.4412   0.4819   0.8732   0.9385
     1.1904   1.2026   1.2533   1.2566   1.2806   1.4270   1.6438   1.7004
     1.8306   1.8417   1.8641   1.8914   2.1046   2.1446   2.2102   2.2244
     2.2302   2.2484   2.2816   2.4499   2.5479   2.5543   2.5666

     the Fermi energy is     2.0350 ev

!    total energy              =   -1263.43070327 Ry
     Harris-Foulkes estimate   =   -1263.43070814 Ry
     estimated scf accuracy    <       0.00000379 Ry

     The total energy is the sum of the following terms:

     one-electron contribution =   -4797.57654349 Ry
     hartree contribution      =    2412.96936150 Ry
     xc contribution           =    -614.44401209 Ry
     ewald contribution        =    1735.74303427 Ry
     electric field correction =       0.00000030 Ry
     smearing contrib. (-TS)   =      -0.12254375 Ry

     convergence has been achieved in  18 iterations
 
 BEEF-vdW xc energy contributions
           1 :   -544.194940363314     
           2 :    500.472620298294     
           3 :   -423.201604634883     
           4 :    328.906321419392     
           5 :   -235.087795877037     
           6 :    155.579855854845     
           7 :   -97.9447659631101     
           8 :    63.1730148354734     
           9 :   -47.1902341176306     
          10 :    43.2573440929865     
          11 :   -44.3530320388609     
          12 :    44.8845485819627     
          13 :   -41.4945718338550     
          14 :    33.1091911633471     
          15 :   -20.5532348247514     
          16 :    5.98257291032314     
          17 :    7.77769595143536     
          18 :   -17.9906352789397     
          19 :    22.7910562083191     
          20 :   -21.7922776249159     
          21 :    16.2579937877348     
          22 :   -8.70365585174454     
          23 :    2.01946773172949     
          24 :    1.56320062926295     
          25 :   -1.24070120479723     
          26 :   -2.19043504883166     
          27 :    6.82342573567075     
          28 :   -10.5518617530386     
          29 :    11.9670713214662     
          30 :   -10.8467299714202     
          31 :   -46.4635567934480     
          32 :   -33.3425539847412     

     Forces acting on atoms (Ry/au):


     negative rho (up, down):  5.856E-01 0.000E+00
     atom    1 type  1   force =     0.00001322   -0.00000995    0.00280943
     atom    2 type  1   force =    -0.00005266   -0.00200365    0.00455305
     atom    3 type  1   force =    -0.00169144    0.00105436    0.00456024
     atom    4 type  1   force =     0.00178206    0.00095506    0.00453968
     atom    5 type  1   force =    -0.00222555    0.00128622   -0.00070670
     atom    6 type  1   force =     0.00217014    0.00140697   -0.00083334
     atom    7 type  1   force =    -0.00003448   -0.00007138   -0.00494504
     atom    8 type  1   force =    -0.00012739   -0.00265353   -0.00077703
     atom    9 type  1   force =     0.00717434    0.00400542   -0.00105636
     atom   10 type  1   force =    -0.00749865    0.00476452   -0.00000193
     atom   11 type  1   force =    -0.00005706   -0.00901129   -0.00083918
     atom   12 type  1   force =     0.00024008   -0.00015153   -0.00769952
     atom   13 type  2   force =     0.04764922    0.00048989    0.15153908
     atom   14 type  3   force =    -0.07629705   -0.00019194   -0.06442644
     atom   15 type  3   force =     0.01493531   -0.04183947   -0.04293613
     atom   16 type  3   force =     0.01401989    0.04197029   -0.04377981

     Total force =     0.207816     Total SCF correction =     0.003362


     entering subroutine stress ...


     negative rho (up, down):  5.856E-01 0.000E+00
          total   stress  (Ry/bohr**3)                   (kbar)     P=   -4.05
  -0.00002504   0.00000033  -0.00000640         -3.68      0.05     -0.94
   0.00000033  -0.00002037   0.00000018          0.05     -3.00      0.03
  -0.00000640   0.00000018  -0.00003719         -0.94      0.03     -5.47


     BFGS Geometry Optimization

     number of scf cycles    =   1
     number of bfgs steps    =   0

     energy   new            =   -1263.4307032672 Ry

     new trust radius        =       0.1588545919 bohr
     new conv_thr            =       0.0000099958 Ry


ATOMIC_POSITIONS (crystal)
La1      0.166666667   0.166666667   0.383173129    0   0   0
La1      0.666666667   0.166666667   0.383173129    0   0   0
La1      0.166666667   0.666666667   0.383173129    0   0   0
La1      0.666666667   0.666666667   0.383173129    0   0   0
La1      0.833333333   0.333333333   0.500000000    0   0   0
La1      0.333333333   0.333333333   0.500000000    0   0   0
La1      0.833333333   0.833333333   0.500000000    0   0   0
La1      0.333333333   0.833333333   0.500000000    0   0   0
La1      0.000344489   0.000327715   0.616805452
La1      0.499273763   0.000389822   0.616826832
La1      0.000364599   0.499262717   0.616809855
La1      0.500023210   0.499987603   0.616670751
C1       0.170022868   0.166706748   0.690384273
H1       0.307218089   0.166650962   0.710145123
H1       0.040417934   0.300771733   0.710580874
H1       0.174452786   0.032572303   0.710563767



     Writing output data file calc.save
     Check: negative starting charge=   -0.830898
     NEW-OLD atomic charge density approx. for the potential
     Check: negative starting charge=   -0.830817

     negative rho (up, down):  5.857E-01 0.000E+00
 
     Adding external electric field

     Computed dipole along edir(3) : 
        Dipole                0.0139 Ry au,          0.0354 Debye
        Dipole field          0.0000 Ry au
 
        Potential amp.       -0.0020 Ry
        Total length         48.0849 bohr
 

     total cpu time spent up to now is      850.0 secs

     Self-consistent Calculation

     iteration #  1     ecut=    36.75 Ry     beta=0.30
     Davidson diagonalization with overlap
     ethr =  1.00E-06,  avg # of iterations = 13.8

     negative rho (up, down):  5.862E-01 0.000E+00
 
     Adding external electric field

     Computed dipole along edir(3) : 
        Dipole                0.6285 Ry au,          1.5975 Debye
        Dipole field          0.0009 Ry au
 
        Potential amp.       -0.0893 Ry
        Total length         48.0849 bohr
 

     total cpu time spent up to now is      908.2 secs

     total energy              =   -1263.44723918 Ry
     Harris-Foulkes estimate   =   -1263.46535119 Ry
     estimated scf accuracy    <       0.04174511 Ry

     iteration #  2     ecut=    36.75 Ry     beta=0.30
     Davidson diagonalization with overlap
     ethr =  3.00E-05,  avg # of iterations = 15.6

     negative rho (up, down):  5.857E-01 0.000E+00
 
     Adding external electric field

     Computed dipole along edir(3) : 
        Dipole               -0.0081 Ry au,         -0.0207 Debye
        Dipole field         -0.0000 Ry au
 
        Potential amp.        0.0012 Ry
        Total length         48.0849 bohr
 

     total cpu time spent up to now is      964.5 secs

     total energy              =   -1263.28493627 Ry
     Harris-Foulkes estimate   =   -1263.63114649 Ry
     estimated scf accuracy    <      16.04968619 Ry

     iteration #  3     ecut=    36.75 Ry     beta=0.30
     Davidson diagonalization with overlap
     ethr =  3.00E-05,  avg # of iterations = 12.9

     negative rho (up, down):  5.852E-01 0.000E+00
 
     Adding external electric field

     Computed dipole along edir(3) : 
        Dipole                0.0174 Ry au,          0.0443 Debye
        Dipole field          0.0000 Ry au
 
        Potential amp.       -0.0025 Ry
        Total length         48.0849 bohr
 

     total cpu time spent up to now is     1018.1 secs

     total energy              =   -1263.45877739 Ry
     Harris-Foulkes estimate   =   -1263.46067779 Ry
     estimated scf accuracy    <       0.01252521 Ry

     iteration #  4     ecut=    36.75 Ry     beta=0.30
     Davidson diagonalization with overlap
     ethr =  9.01E-06,  avg # of iterations =  8.2

     negative rho (up, down):  5.852E-01 0.000E+00
 
     Adding external electric field

     Computed dipole along edir(3) : 
        Dipole                0.0341 Ry au,          0.0866 Debye
        Dipole field          0.0001 Ry au
 
        Potential amp.       -0.0048 Ry
        Total length         48.0849 bohr
 

     total cpu time spent up to now is     1059.8 secs

     total energy              =   -1263.45737735 Ry
     Harris-Foulkes estimate   =   -1263.46268950 Ry
     estimated scf accuracy    <       0.06107577 Ry

     iteration #  5     ecut=    36.75 Ry     beta=0.30
     Davidson diagonalization with overlap
     ethr =  9.01E-06,  avg # of iterations =  6.0

     negative rho (up, down):  5.854E-01 0.000E+00
 
     Adding external electric field

     Computed dipole along edir(3) : 
        Dipole                0.0139 Ry au,          0.0354 Debye
        Dipole field          0.0000 Ry au
 
        Potential amp.       -0.0020 Ry
        Total length         48.0849 bohr
 

     total cpu time spent up to now is     1097.9 secs

     total energy              =   -1263.45995803 Ry
     Harris-Foulkes estimate   =   -1263.46012870 Ry
     estimated scf accuracy    <       0.00078031 Ry

     iteration #  6     ecut=    36.75 Ry     beta=0.30
     Davidson diagonalization with overlap
     ethr =  5.61E-07,  avg # of iterations =  9.3

     negative rho (up, down):  5.856E-01 0.000E+00
 
     Adding external electric field

     Computed dipole along edir(3) : 
        Dipole                0.0252 Ry au,          0.0641 Debye
        Dipole field          0.0000 Ry au
 
        Potential amp.       -0.0036 Ry
        Total length         48.0849 bohr
 

     total cpu time spent up to now is     1142.8 secs

     total energy              =   -1263.46011485 Ry
     Harris-Foulkes estimate   =   -1263.46017326 Ry
     estimated scf accuracy    <       0.00038096 Ry

     iteration #  7     ecut=    36.75 Ry     beta=0.30
     Davidson diagonalization with overlap
     ethr =  2.74E-07,  avg # of iterations =  5.8

     negative rho (up, down):  5.858E-01 0.000E+00
 
     Adding external electric field

     Computed dipole along edir(3) : 
        Dipole                0.0277 Ry au,          0.0705 Debye
        Dipole field          0.0000 Ry au
 
        Potential amp.       -0.0039 Ry
        Total length         48.0849 bohr
 

     total cpu time spent up to now is     1179.1 secs

     total energy              =   -1263.46015210 Ry
     Harris-Foulkes estimate   =   -1263.46015360 Ry
     estimated scf accuracy    <       0.00009343 Ry

     iteration #  8     ecut=    36.75 Ry     beta=0.30
     Davidson diagonalization with overlap
     c_bands:  1 eigenvalues not converged
     ethr =  6.72E-08,  avg # of iterations =  6.0

     negative rho (up, down):  5.858E-01 0.000E+00
 
     Adding external electric field

     Computed dipole along edir(3) : 
        Dipole                0.0253 Ry au,          0.0642 Debye
        Dipole field          0.0000 Ry au
 
        Potential amp.       -0.0036 Ry
        Total length         48.0849 bohr
 

     total cpu time spent up to now is     1216.0 secs

     total energy              =   -1263.46016287 Ry
     Harris-Foulkes estimate   =   -1263.46016272 Ry
     estimated scf accuracy    <       0.00002237 Ry

     iteration #  9     ecut=    36.75 Ry     beta=0.30
     Davidson diagonalization with overlap
     ethr =  1.61E-08,  avg # of iterations =  8.9

     negative rho (up, down):  5.859E-01 0.000E+00

     negative rho (up, down):  5.859E-01 0.000E+00

     negative rho (up, down):  5.859E-01 0.000E+00

     negative rho (up, down):  5.859E-01 0.000E+00

     negative rho (up, down):  5.859E-01 0.000E+00

     negative rho (up, down):  5.859E-01 0.000E+00

     negative rho (up, down):  5.859E-01 0.000E+00

     negative rho (up, down):  5.859E-01 0.000E+00

     negative rho (up, down):  5.859E-01 0.000E+00

     negative rho (up, down):  5.859E-01 0.000E+00

     negative rho (up, down):  5.859E-01 0.000E+00

     negative rho (up, down):  5.859E-01 0.000E+00

     negative rho (up, down):  5.859E-01 0.000E+00

     negative rho (up, down):  5.859E-01 0.000E+00

     negative rho (up, down):  5.859E-01 0.000E+00

     negative rho (up, down):  5.859E-01 0.000E+00

     negative rho (up, down):  5.859E-01 0.000E+00

     negative rho (up, down):  5.859E-01 0.000E+00

     negative rho (up, down):  5.859E-01 0.000E+00

     negative rho (up, down):  5.859E-01 0.000E+00

     negative rho (up, down):  5.859E-01 0.000E+00

     negative rho (up, down):  5.859E-01 0.000E+00

     negative rho (up, down):  5.859E-01 0.000E+00

     negative rho (up, down):  5.859E-01 0.000E+00

     negative rho (up, down):  5.859E-01 0.000E+00

     negative rho (up, down):  5.859E-01 0.000E+00

     negative rho (up, down):  5.859E-01 0.000E+00

     negative rho (up, down):  5.859E-01 0.000E+00

     negative rho (up, down):  5.859E-01 0.000E+00

     negative rho (up, down):  5.859E-01 0.000E+00

     negative rho (up, down):  5.859E-01 0.000E+00

     negative rho (up, down):  5.859E-01 0.000E+00

     negative rho (up, down):  5.859E-01 0.000E+00

     negative rho (up, down):  5.859E-01 0.000E+00

     negative rho (up, down):  5.859E-01 0.000E+00
 
     Adding external electric field

     Computed dipole along edir(3) : 
        Dipole                0.0216 Ry au,          0.0549 Debye
        Dipole field          0.0000 Ry au
 
        Potential amp.       -0.0031 Ry
        Total length         48.0849 bohr
 

     total cpu time spent up to now is     1289.7 secs

     End of self-consistent calculation

          k = 0.0000 0.0000 0.0000 ( 31997 PWs)   bands (ev):

   -31.3361 -31.3262 -31.2061 -31.2026 -31.2024 -31.1975 -31.1935 -31.1867
   -30.8674 -30.7459 -30.7454 -30.7450 -15.4718 -15.4385 -15.4378 -15.3927
   -15.3691 -15.3684 -15.2976 -15.1888 -15.1848 -15.1840 -15.0234 -14.8462
   -14.8405 -14.8378 -14.6577 -14.6566 -14.6561 -14.6018 -14.6002 -14.5973
   -14.5760 -14.5742 -14.5703 -14.3395 -14.3394 -14.3299 -14.3294 -14.2632
   -14.2504 -14.2499 -14.2309 -14.1465 -14.1463 -14.1461 -13.9179 -13.9179
   -11.5217  -4.5968  -4.3786  -1.5119  -0.6963  -0.0031   0.3400   0.3753
     0.3933   0.3963   0.6527   0.6531   0.7604   0.8678   0.8704   0.9514
     1.0076   1.0088   1.2508   1.7326   1.7406   2.1760   2.2718   2.4463
     2.5444   2.5523   2.6536   2.8874   3.1214   3.2107   3.2220

          k = 0.0000 0.0258 0.0000 ( 32061 PWs)   bands (ev):

   -31.3272 -31.3178 -31.2110 -31.2097 -31.2025 -31.1988 -31.1967 -31.1883
   -30.8594 -30.7538 -30.7457 -30.7451 -15.4292 -15.4020 -15.3826 -15.3519
   -15.3333 -15.3112 -15.2744 -15.1607 -15.1572 -15.1485 -15.0165 -14.8784
   -14.8559 -14.8502 -14.6512 -14.6445 -14.6396 -14.6385 -14.6352 -14.6250
   -14.6217 -14.5829 -14.5577 -14.4304 -14.4146 -14.3576 -14.3467 -14.2517
   -14.2424 -14.2411 -14.2102 -14.1865 -14.1861 -14.1314 -13.9910 -13.9336
   -11.5185  -4.5993  -4.3775  -1.4489  -0.5272   0.1705   0.4746   0.5214
     0.5349   0.5478   0.7059   0.7995   0.8773   0.9800   1.0515   1.0755
     1.1156   1.1356   1.3190   1.7599   1.7977   2.1486   2.2274   2.4500
     2.5546   2.5784   2.6474   2.7684   2.8168   2.9739   2.9951

          k = 0.0000 0.0515 0.0000 ( 32002 PWs)   bands (ev):

   -31.3028 -31.2949 -31.2351 -31.2303 -31.2026 -31.2002 -31.1989 -31.1892
   -30.8374 -30.7764 -30.7458 -30.7452 -15.3327 -15.3118 -15.2668 -15.2455
   -15.2232 -15.2115 -15.1386 -15.0973 -15.0948 -15.0750 -15.0021 -14.9453
   -14.8929 -14.8850 -14.7449 -14.7404 -14.7396 -14.7315 -14.6475 -14.6171
   -14.6000 -14.5976 -14.5657 -14.5368 -14.5144 -14.4065 -14.3925 -14.2900
   -14.2871 -14.2306 -14.2255 -14.2212 -14.1988 -14.1788 -14.0904 -13.9762
   -11.5121  -4.6041  -4.3753  -1.3274  -0.0738   0.5909   0.6893   0.7448
     0.8969   0.9012   0.9731   1.1406   1.1637   1.2744   1.3353   1.4658
     1.4913   1.5745   1.5825   1.8102   1.9486   2.0071   2.1147   2.2678
     2.3428   2.4183   2.5508   2.5900   2.6147   2.6859   2.7577

          k = 0.0000-0.0773 0.0000 ( 31970 PWs)   bands (ev):

   -31.2721 -31.2685 -31.2656 -31.2569 -31.2026 -31.2007 -31.1990 -31.1893
   -30.8073 -30.8067 -30.7458 -30.7452 -15.2662 -15.2482 -15.2054 -15.1876
   -15.1487 -15.1455 -15.0567 -15.0520 -15.0162 -14.9953 -14.9418 -14.9234
   -14.9064 -14.8857 -14.8809 -14.8730 -14.8056 -14.8030 -14.8023 -14.7903
   -14.5647 -14.5619 -14.4739 -14.4719 -14.4551 -14.4519 -14.4046 -14.4005
   -14.3548 -14.3512 -14.2254 -14.2213 -14.2065 -14.2015 -14.0343 -14.0332
   -11.5090  -4.6064  -4.3742  -1.2684   0.4308   0.4726   0.8604   0.9284
     1.1820   1.1930   1.2442   1.2460   1.2707   1.4106   1.6380   1.6901
     1.8203   1.8310   1.8558   1.8798   2.1005   2.1334   2.2022   2.2165
     2.2177   2.2406   2.2654   2.4441   2.5376   2.5445   2.5545

          k = 0.0223-0.0129 0.0000 ( 32061 PWs)   bands (ev):

   -31.3272 -31.3178 -31.2116 -31.2100 -31.2027 -31.1987 -31.1936 -31.1906
   -30.8594 -30.7538 -30.7454 -30.7454 -15.4293 -15.4015 -15.3830 -15.3520
   -15.3328 -15.3116 -15.2744 -15.1603 -15.1578 -15.1483 -15.0165 -14.8781
   -14.8543 -14.8521 -14.6502 -14.6450 -14.6398 -14.6392 -14.6347 -14.6239
   -14.6229 -14.5829 -14.5578 -14.4304 -14.4145 -14.3576 -14.3468 -14.2515
   -14.2427 -14.2409 -14.2102 -14.1864 -14.1863 -14.1314 -13.9910 -13.9336
   -11.5184  -4.5967  -4.3803  -1.4485  -0.5272   0.1706   0.4746   0.5213
     0.5342   0.5485   0.7060   0.7992   0.8776   0.9790   1.0522   1.0758
     1.1160   1.1349   1.3190   1.7617   1.7957   2.1485   2.2270   2.4504
     2.5545   2.5796   2.6468   2.7683   2.8167   2.9739   2.9940

          k = 0.0223 0.0129 0.0000 ( 32061 PWs)   bands (ev):

   -31.3272 -31.3178 -31.2107 -31.2092 -31.2025 -31.1991 -31.1982 -31.1874
   -30.8594 -30.7538 -30.7458 -30.7451 -15.4292 -15.4022 -15.3824 -15.3519
   -15.3335 -15.3109 -15.2745 -15.1606 -15.1572 -15.1487 -15.0165 -14.8786
   -14.8557 -14.8501 -14.6510 -14.6445 -14.6399 -14.6383 -14.6354 -14.6256
   -14.6213 -14.5828 -14.5576 -14.4305 -14.4147 -14.3575 -14.3464 -14.2518
   -14.2424 -14.2412 -14.2103 -14.1866 -14.1861 -14.1314 -13.9910 -13.9336
   -11.5185  -4.5967  -4.3803  -1.4494  -0.5271   0.1706   0.4753   0.5214
     0.5360   0.5461   0.7062   0.7994   0.8772   0.9817   1.0506   1.0758
     1.1162   1.1346   1.3187   1.7568   1.8016   2.1486   2.2276   2.4505
     2.5605   2.5732   2.6476   2.7685   2.8170   2.9742   2.9935

          k = 0.0223 0.0387 0.0000 ( 32007 PWs)   bands (ev):

   -31.3106 -31.3022 -31.2198 -31.2168 -31.2163 -31.2103 -31.1929 -31.1847
   -30.8444 -30.7610 -30.7609 -30.7382 -15.3671 -15.3147 -15.2938 -15.2914
   -15.2451 -15.2218 -15.2187 -15.1173 -15.1024 -15.0991 -15.0057 -14.9195
   -14.9072 -14.8589 -14.7692 -14.7664 -14.6243 -14.6208 -14.6174 -14.5988
   -14.5947 -14.5812 -14.5764 -14.5735 -14.5487 -14.3933 -14.3872 -14.3042
   -14.2426 -14.2313 -14.2286 -14.1991 -14.1533 -14.1528 -14.1153 -13.9680
   -11.5138  -4.6003  -4.3786  -1.3580  -0.2108   0.4834   0.7052   0.7225
     0.8027   0.8340   0.8408   0.9327   1.1661   1.1712   1.2690   1.2909
     1.3529   1.4456   1.5071   1.8109   1.8851   2.0716   2.1351   2.3532
     2.4080   2.4652   2.5519   2.6143   2.6669   2.7018   2.8697

          k = 0.0223-0.0902 0.0000 ( 31991 PWs)   bands (ev):

   -31.2818 -31.2754 -31.2474 -31.2411 -31.2224 -31.2167 -31.1885 -31.1815
   -30.8182 -30.7876 -30.7651 -30.7341 -15.2668 -15.2163 -15.2037 -15.1704
   -15.1421 -15.1314 -15.0606 -15.0546 -15.0389 -15.0151 -14.9941 -14.9647
   -14.9478 -14.9424 -14.9003 -14.8657 -14.7995 -14.7708 -14.6727 -14.6623
   -14.5757 -14.5538 -14.5341 -14.5302 -14.4758 -14.4656 -14.4554 -14.4244
   -14.3046 -14.2436 -14.2381 -14.2107 -14.1981 -14.1917 -14.0964 -14.0290
   -11.5091  -4.6039  -4.3769  -1.2678   0.3139   0.7509   0.9298   0.9922
     1.0950   1.1313   1.1838   1.3136   1.3986   1.4774   1.5318   1.6135
     1.6909   1.7310   1.8769   1.9303   1.9673   2.0131   2.0724   2.1342
     2.1892   2.2353   2.3500   2.4344   2.4630   2.5114   2.6125

          k = 0.0223-0.0644 0.0000 ( 31991 PWs)   bands (ev):

   -31.2817 -31.2752 -31.2475 -31.2421 -31.2224 -31.2156 -31.1885 -31.1818
   -30.8182 -30.7876 -30.7651 -30.7341 -15.2666 -15.2163 -15.2037 -15.1704
   -15.1422 -15.1314 -15.0600 -15.0541 -15.0399 -15.0150 -14.9941 -14.9648
   -14.9479 -14.9426 -14.9003 -14.8654 -14.7999 -14.7709 -14.6727 -14.6622
   -14.5757 -14.5541 -14.5341 -14.5302 -14.4756 -14.4655 -14.4555 -14.4245
   -14.3047 -14.2435 -14.2380 -14.2108 -14.1981 -14.1916 -14.0965 -14.0290
   -11.5089  -4.6039  -4.3769  -1.2668   0.3137   0.7502   0.9297   0.9919
     1.0952   1.1307   1.1852   1.3131   1.3994   1.4750   1.5316   1.6126
     1.6918   1.7310   1.8763   1.9305   1.9761   2.0144   2.0748   2.1316
     2.1787   2.2305   2.3480   2.4303   2.4642   2.5166   2.6238

          k = 0.0223-0.0387 0.0000 ( 32007 PWs)   bands (ev):

   -31.3106 -31.3021 -31.2214 -31.2188 -31.2165 -31.2052 -31.1929 -31.1861
   -30.8444 -30.7613 -30.7606 -30.7382 -15.3668 -15.3147 -15.2936 -15.2914
   -15.2454 -15.2214 -15.2190 -15.1174 -15.1024 -15.0990 -15.0058 -14.9187
   -14.9078 -14.8595 -14.7692 -14.7660 -14.6238 -14.6214 -14.6181 -14.5987
   -14.5948 -14.5817 -14.5756 -14.5736 -14.5486 -14.3933 -14.3875 -14.3043
   -14.2424 -14.2315 -14.2284 -14.1989 -14.1532 -14.1529 -14.1153 -13.9680
   -11.5135  -4.6004  -4.3785  -1.3561  -0.2111   0.4833   0.7057   0.7210
     0.8034   0.8340   0.8412   0.9303   1.1666   1.1707   1.2695   1.2899
     1.3518   1.4447   1.5090   1.8120   1.8824   2.0717   2.1353   2.3544
     2.4076   2.4574   2.5512   2.6165   2.6650   2.7037   2.8699

          k = 0.0446-0.0258 0.0000 ( 32002 PWs)   bands (ev):

   -31.3028 -31.2948 -31.2353 -31.2313 -31.2027 -31.1991 -31.1946 -31.1935
   -30.8374 -30.7764 -30.7455 -30.7454 -15.3332 -15.3110 -15.2670 -15.2447
   -15.2238 -15.2113 -15.1387 -15.0967 -15.0956 -15.0748 -15.0022 -14.9449
   -14.8918 -14.8866 -14.7431 -14.7411 -14.7389 -14.7335 -14.6477 -14.6172
   -14.6007 -14.5969 -14.5657 -14.5368 -14.5145 -14.4066 -14.3926 -14.2897
   -14.2873 -14.2303 -14.2259 -14.2210 -14.1987 -14.1788 -14.0904 -13.9762
   -11.5119  -4.5965  -4.3835  -1.3261  -0.0737   0.5917   0.6894   0.7445
     0.8967   0.9012   0.9726   1.1405   1.1633   1.2734   1.3356   1.4655
     1.4911   1.5750   1.5827   1.8105   1.9475   2.0066   2.1144   2.2684
     2.3435   2.4198   2.5502   2.5887   2.6117   2.6880   2.7574

          k = 0.0446 0.0000 0.0000 ( 32007 PWs)   bands (ev):

   -31.3106 -31.3021 -31.2205 -31.2185 -31.2164 -31.2071 -31.1929 -31.1855
   -30.8444 -30.7612 -30.7606 -30.7382 -15.3670 -15.3147 -15.2936 -15.2914
   -15.2452 -15.2216 -15.2189 -15.1173 -15.1025 -15.0990 -15.0058 -14.9188
   -14.9077 -14.8593 -14.7692 -14.7662 -14.6236 -14.6212 -14.6180 -14.5990
   -14.5947 -14.5816 -14.5760 -14.5736 -14.5487 -14.3933 -14.3872 -14.3043
   -14.2424 -14.2316 -14.2284 -14.1990 -14.1532 -14.1528 -14.1153 -13.9680
   -11.5137  -4.5951  -4.3842  -1.3571  -0.2107   0.4836   0.7054   0.7221
     0.8029   0.8341   0.8412   0.9315   1.1662   1.1711   1.2689   1.2908
     1.3530   1.4449   1.5079   1.8114   1.8842   2.0717   2.1351   2.3547
     2.4079   2.4629   2.5516   2.6155   2.6672   2.6989   2.8696

          k = 0.0446 0.0258 0.0000 ( 32002 PWs)   bands (ev):

   -31.3029 -31.2949 -31.2350 -31.2294 -31.2025 -31.2022 -31.1991 -31.1878
   -30.8374 -30.7764 -30.7458 -30.7451 -15.3328 -15.3121 -15.2669 -15.2457
   -15.2228 -15.2117 -15.1385 -15.0973 -15.0948 -15.0751 -15.0021 -14.9455
   -14.8926 -14.8848 -14.7457 -14.7403 -14.7399 -14.7309 -14.6476 -14.6171
   -14.6000 -14.5979 -14.5657 -14.5366 -14.5143 -14.4064 -14.3922 -14.2901
   -14.2871 -14.2305 -14.2254 -14.2213 -14.1988 -14.1788 -14.0904 -13.9762
   -11.5123  -4.5964  -4.3836  -1.3290  -0.0734   0.5911   0.6894   0.7461
     0.8958   0.9024   0.9734   1.1415   1.1638   1.2764   1.3352   1.4661
     1.4920   1.5751   1.5804   1.8095   1.9510   2.0075   2.1151   2.2685
     2.3437   2.4215   2.5496   2.5907   2.6182   2.6807   2.7574

          k = 0.0446-0.1031 0.0000 ( 31991 PWs)   bands (ev):

   -31.2818 -31.2755 -31.2473 -31.2403 -31.2225 -31.2176 -31.1885 -31.1813
   -30.8182 -30.7876 -30.7651 -30.7341 -15.2669 -15.2165 -15.2040 -15.1702
   -15.1425 -15.1314 -15.0595 -15.0548 -15.0390 -15.0151 -14.9941 -14.9648
   -14.9473 -14.9428 -14.9002 -14.8658 -14.7997 -14.7708 -14.6725 -14.6624
   -14.5758 -14.5539 -14.5343 -14.5301 -14.4756 -14.4655 -14.4552 -14.4244
   -14.3046 -14.2437 -14.2380 -14.2109 -14.1982 -14.1916 -14.0965 -14.0290
   -11.5092  -4.5988  -4.3823  -1.2689   0.3143   0.7503   0.9303   0.9926
     1.0950   1.1320   1.1856   1.3141   1.4003   1.4751   1.5323   1.6129
     1.6919   1.7306   1.8756   1.9310   1.9755   2.0145   2.0749   2.1329
     2.1835   2.2310   2.3482   2.4321   2.4628   2.5193   2.6240

          k = 0.0446-0.0773 0.0000 ( 31986 PWs)   bands (ev):

   -31.2586 -31.2531 -31.2520 -31.2488 -31.2438 -31.2374 -31.1840 -31.1775
   -30.7922 -30.7917 -30.7913 -30.7299 -15.1597 -15.1435 -15.1259 -15.1226
   -15.1128 -15.1013 -15.0731 -15.0376 -15.0016 -14.9960 -14.9705 -14.9535
   -14.9526 -14.9492 -14.9444 -14.9389 -14.9370 -14.9248 -14.5832 -14.5748
   -14.5727 -14.5596 -14.5563 -14.5559 -14.5245 -14.5201 -14.4285 -14.4276
   -14.4259 -14.2438 -14.2100 -14.2062 -14.2060 -14.1192 -14.1170 -14.1169
   -11.5075  -4.6000  -4.3817  -1.2368   0.8201   0.8321   0.8341   1.2575
     1.2786   1.3058   1.3730   1.4018   1.6390   1.7198   1.7244   1.7252
     1.7505   1.7608   1.7656   1.8032   1.8339   1.9546   1.9574   1.9616
     2.1206   2.3014   2.3026   2.3241   2.3761   2.3834   2.3944

          k = 0.0446-0.0515 0.0000 ( 31991 PWs)   bands (ev):

   -31.2816 -31.2749 -31.2477 -31.2431 -31.2224 -31.2145 -31.1885 -31.1822
   -30.8182 -30.7876 -30.7651 -30.7341 -15.2667 -15.2165 -15.2029 -15.1707
   -15.1420 -15.1311 -15.0595 -15.0551 -15.0397 -15.0149 -14.9943 -14.9644
   -14.9482 -14.9426 -14.9004 -14.8656 -14.7998 -14.7709 -14.6729 -14.6623
   -14.5758 -14.5540 -14.5340 -14.5302 -14.4756 -14.4656 -14.4556 -14.4245
   -14.3047 -14.2433 -14.2382 -14.2107 -14.1980 -14.1918 -14.0964 -14.0290
   -11.5088  -4.5989  -4.3823  -1.2660   0.3137   0.7514   0.9304   0.9917
     1.0949   1.1304   1.1829   1.3128   1.3982   1.4781   1.5313   1.6132
     1.6902   1.7312   1.8774   1.9303   1.9671   2.0135   2.0728   2.1344
     2.1851   2.2343   2.3498   2.4328   2.4651   2.5092   2.6140

          k =-0.0669 0.0387 0.0000 ( 31970 PWs)   bands (ev):

   -31.2709 -31.2682 -31.2649 -31.2599 -31.2028 -31.1992 -31.1954 -31.1936
   -30.8071 -30.8070 -30.7455 -30.7455 -15.2670 -15.2471 -15.2057 -15.1865
   -15.1498 -15.1446 -15.0557 -15.0530 -15.0158 -14.9954 -14.9410 -14.9247
   -14.9068 -14.8852 -14.8804 -14.8739 -14.8069 -14.8021 -14.8004 -14.7924
   -14.5654 -14.5613 -14.4737 -14.4718 -14.4539 -14.4538 -14.4045 -14.4007
   -14.3545 -14.3515 -14.2251 -14.2217 -14.2063 -14.2015 -14.0340 -14.0335
   -11.5088  -4.5964  -4.3850  -1.2667   0.4317   0.4723   0.8617   0.9272
     1.1813   1.1929   1.2445   1.2461   1.2709   1.4078   1.6376   1.6902
     1.8199   1.8296   1.8560   1.8802   2.1000   2.1341   2.2026   2.2168
     2.2182   2.2390   2.2661   2.4443   2.5366   2.5454   2.5553

          k =-0.0669 0.0644 0.0000 ( 31991 PWs)   bands (ev):

   -31.2816 -31.2750 -31.2476 -31.2427 -31.2224 -31.2149 -31.1885 -31.1821
   -30.8182 -30.7876 -30.7651 -30.7341 -15.2669 -15.2165 -15.2030 -15.1705
   -15.1421 -15.1311 -15.0594 -15.0549 -15.0397 -15.0150 -14.9942 -14.9644
   -14.9481 -14.9429 -14.9004 -14.8656 -14.7998 -14.7709 -14.6728 -14.6623
   -14.5758 -14.5538 -14.5342 -14.5301 -14.4757 -14.4657 -14.4554 -14.4245
   -14.3046 -14.2434 -14.2382 -14.2107 -14.1981 -14.1917 -14.0964 -14.0290
   -11.5089  -4.5963  -4.3851  -1.2665   0.3143   0.7504   0.9309   0.9911
     1.0947   1.1307   1.1857   1.3137   1.3993   1.4731   1.5321   1.6123
     1.6924   1.7311   1.8755   1.9304   1.9747   2.0140   2.0747   2.1326
     2.1819   2.2320   2.3485   2.4318   2.4627   2.5168   2.6215

          k =-0.0669 0.0902 0.0000 ( 31991 PWs)   bands (ev):

   -31.2818 -31.2754 -31.2474 -31.2409 -31.2224 -31.2170 -31.1885 -31.1814
   -30.8182 -30.7876 -30.7651 -30.7341 -15.2668 -15.2166 -15.2039 -15.1703
   -15.1424 -15.1313 -15.0596 -15.0541 -15.0395 -15.0149 -14.9942 -14.9645
   -14.9482 -14.9423 -14.9003 -14.8657 -14.7999 -14.7709 -14.6725 -14.6624
   -14.5758 -14.5539 -14.5342 -14.5302 -14.4757 -14.4653 -14.4552 -14.4244
   -14.3046 -14.2437 -14.2380 -14.2109 -14.1980 -14.1916 -14.0965 -14.0290
   -11.5092  -4.5962  -4.3851  -1.2685   0.3142   0.7511   0.9302   0.9933
     1.0952   1.1318   1.1833   1.3134   1.3988   1.4798   1.5311   1.6137
     1.6907   1.7314   1.8778   1.9314   1.9678   2.0139   2.0727   2.1343
     2.1871   2.2348   2.3494   2.4335   2.4638   2.5127   2.6133

          k =-0.0669-0.0387 0.0000 ( 31970 PWs)   bands (ev):

   -31.2729 -31.2686 -31.2659 -31.2551 -31.2027 -31.2026 -31.1992 -31.1879
   -30.8074 -30.8067 -30.7458 -30.7451 -15.2663 -15.2486 -15.2056 -15.1880
   -15.1487 -15.1455 -15.0564 -15.0519 -15.0157 -14.9953 -14.9412 -14.9232
   -14.9064 -14.8862 -14.8812 -14.8730 -14.8053 -14.8044 -14.8023 -14.7896
   -14.5647 -14.5621 -14.4742 -14.4716 -14.4555 -14.4508 -14.4046 -14.4005
   -14.3548 -14.3512 -14.2254 -14.2212 -14.2068 -14.2016 -14.0344 -14.0331
   -11.5093  -4.5963  -4.3851  -1.2706   0.4307   0.4737   0.8609   0.9299
     1.1822   1.1932   1.2445   1.2466   1.2701   1.4147   1.6385   1.6904
     1.8225   1.8318   1.8560   1.8787   2.1015   2.1331   2.2034   2.2163
     2.2201   2.2395   2.2669   2.4443   2.5399   2.5456   2.5522

     the Fermi energy is     2.0257 ev

!    total energy              =   -1263.46016251 Ry
     Harris-Foulkes estimate   =   -1263.46016539 Ry
     estimated scf accuracy    <       0.00000830 Ry

     The total energy is the sum of the following terms:

     one-electron contribution =   -4794.42718869 Ry
     hartree contribution      =    2411.33075828 Ry
     xc contribution           =    -614.56639468 Ry
     ewald contribution        =    1734.32509883 Ry
     electric field correction =       0.00000069 Ry
     smearing contrib. (-TS)   =      -0.12243693 Ry

     convergence has been achieved in   9 iterations
 
 BEEF-vdW xc energy contributions
           1 :   -544.300965425880     
           2 :    500.557468769628     
           3 :   -423.264235215798     
           4 :    328.961828045975     
           5 :   -235.149031320668     
           6 :    155.648175651471     
           7 :   -98.0143545088554     
           8 :    63.2378777896162     
           9 :   -47.2472931660487     
          10 :    43.3061901771268     
          11 :   -44.3947186423293     
          12 :    44.9209082344737     
          13 :   -41.5281716271064     
          14 :    33.1426986682404     
          15 :   -20.5874406505541     
          16 :    6.01545387345675     
          17 :    7.74885108760623     
          18 :   -17.9668145838494     
          19 :    22.7715136220197     
          20 :   -21.7755366414840     
          21 :    16.2424347236645     
          22 :   -8.68798471232481     
          23 :    2.00330093820060     
          24 :    1.57903095202209     
          25 :   -1.25469753908601     
          26 :   -2.17927987722169     
          27 :    6.81503019688137     
          28 :   -10.5454950941611     
          29 :    11.9620890723677     
          30 :   -10.8428846539907     
          31 :   -46.4700203855861     
          32 :   -33.3452665558851     

     Forces acting on atoms (Ry/au):


     negative rho (up, down):  5.859E-01 0.000E+00
     atom    1 type  1   force =     0.00000744   -0.00000315    0.00270207
     atom    2 type  1   force =    -0.00003919   -0.00193535    0.00431127
     atom    3 type  1   force =    -0.00161797    0.00100764    0.00430847
     atom    4 type  1   force =     0.00172625    0.00092744    0.00433359
     atom    5 type  1   force =    -0.00218592    0.00125565   -0.00144477
     atom    6 type  1   force =     0.00215197    0.00130288   -0.00153887
     atom    7 type  1   force =    -0.00005990   -0.00003697   -0.00483365
     atom    8 type  1   force =    -0.00007859   -0.00254075   -0.00151109
     atom    9 type  1   force =     0.00963879    0.00555470    0.00140295
     atom   10 type  1   force =    -0.00892525    0.00520100    0.00092321
     atom   11 type  1   force =     0.00014658   -0.01081761    0.00085132
     atom   12 type  1   force =     0.00011487   -0.00008158   -0.00758975
     atom   13 type  2   force =     0.02878936   -0.00008239    0.04478190
     atom   14 type  3   force =    -0.02767440    0.00020120   -0.02483519
     atom   15 type  3   force =    -0.00091677   -0.00661730   -0.01051282
     atom   16 type  3   force =    -0.00107727    0.00666458   -0.01134865

     Total force =     0.070393     Total SCF correction =     0.006129


     entering subroutine stress ...


     negative rho (up, down):  5.859E-01 0.000E+00
          total   stress  (Ry/bohr**3)                   (kbar)     P=   -1.97
  -0.00001072   0.00000001  -0.00000366         -1.58      0.00     -0.54
   0.00000001  -0.00000713   0.00000012          0.00     -1.05      0.02
  -0.00000366   0.00000012  -0.00002227         -0.54      0.02     -3.28


     number of scf cycles    =   2
     number of bfgs steps    =   1

     energy   old            =   -1263.4307032672 Ry
     energy   new            =   -1263.4601625068 Ry

     CASE: energy  _new < energy  _old

     new trust radius        =       0.0826519503 bohr
     new conv_thr            =       0.0000001000 Ry


ATOMIC_POSITIONS (crystal)
La1      0.166666667   0.166666667   0.383173129    0   0   0
La1      0.666666667   0.166666667   0.383173129    0   0   0
La1      0.166666667   0.666666667   0.383173129    0   0   0
La1      0.666666667   0.666666667   0.383173129    0   0   0
La1      0.833333333   0.333333333   0.500000000    0   0   0
La1      0.333333333   0.333333333   0.500000000    0   0   0
La1      0.833333333   0.833333333   0.500000000    0   0   0
La1      0.333333333   0.833333333   0.500000000    0   0   0
La1      0.001022159   0.001003024   0.616846431
La1      0.498014304   0.001024685   0.616854231
La1      0.001038775   0.497944522   0.616834598
La1      0.500040724   0.499977451   0.616440686
C1       0.173116963   0.166698116   0.691807951
H1       0.304169664   0.166674574   0.709367820
H1       0.040804346   0.299873890   0.710242063
H1       0.173919717   0.033476138   0.710199623



     Writing output data file calc.save
     Check: negative starting charge=   -0.830817
     NEW-OLD atomic charge density approx. for the potential
     Check: negative starting charge=   -0.831290

     negative rho (up, down):  5.859E-01 0.000E+00
 
     Adding external electric field

     Computed dipole along edir(3) : 
        Dipole                0.0214 Ry au,          0.0543 Debye
        Dipole field          0.0000 Ry au
 
        Potential amp.       -0.0030 Ry
        Total length         48.0849 bohr
 

     total cpu time spent up to now is     1379.6 secs

     Self-consistent Calculation

     iteration #  1     ecut=    36.75 Ry     beta=0.30
     Davidson diagonalization with overlap
     ethr =  1.00E-06,  avg # of iterations =  9.1

     negative rho (up, down):  5.860E-01 0.000E+00
 
     Adding external electric field

     Computed dipole along edir(3) : 
        Dipole                0.0908 Ry au,          0.2308 Debye
        Dipole field          0.0001 Ry au
 
        Potential amp.       -0.0129 Ry
        Total length         48.0849 bohr
 

     total cpu time spent up to now is     1431.1 secs

     total energy              =   -1263.46169099 Ry
     Harris-Foulkes estimate   =   -1263.46417736 Ry
     estimated scf accuracy    <       0.00621973 Ry

     iteration #  2     ecut=    36.75 Ry     beta=0.30
     Davidson diagonalization with overlap
     ethr =  4.47E-06,  avg # of iterations = 10.0

     negative rho (up, down):  5.860E-01 0.000E+00
 
     Adding external electric field

     Computed dipole along edir(3) : 
        Dipole               -0.0497 Ry au,         -0.1262 Debye
        Dipole field         -0.0001 Ry au
 
        Potential amp.        0.0071 Ry
        Total length         48.0849 bohr
 

     total cpu time spent up to now is     1477.7 secs

     total energy              =   -1263.45619053 Ry
     Harris-Foulkes estimate   =   -1263.46693097 Ry
     estimated scf accuracy    <       0.29916906 Ry

     iteration #  3     ecut=    36.75 Ry     beta=0.30
     Davidson diagonalization with overlap
     ethr =  4.47E-06,  avg # of iterations = 11.2

     negative rho (up, down):  5.860E-01 0.000E+00
 
     Adding external electric field

     Computed dipole along edir(3) : 
        Dipole                0.0163 Ry au,          0.0413 Debye
        Dipole field          0.0000 Ry au
 
        Potential amp.       -0.0023 Ry
        Total length         48.0849 bohr
 

     total cpu time spent up to now is     1525.3 secs

     total energy              =   -1263.45970800 Ry
     Harris-Foulkes estimate   =   -1263.46500229 Ry
     estimated scf accuracy    <       0.16797505 Ry

     iteration #  4     ecut=    36.75 Ry     beta=0.30
     Davidson diagonalization with overlap
     ethr =  4.47E-06,  avg # of iterations = 10.1

     negative rho (up, down):  5.858E-01 0.000E+00
 
     Adding external electric field

     Computed dipole along edir(3) : 
[...]
   -14.6002 -14.5887 -14.5606 -14.4352 -14.4165 -14.3641 -14.3474 -14.2829
   -14.2237 -14.2228 -14.1859 -14.1794 -14.1758 -14.1248 -13.9843 -13.9274
   -11.6254  -4.7680  -4.7488  -1.3454  -0.5280   0.1667   0.4494   0.5036
     0.5217   0.5227   0.7018   0.7948   0.8687   0.9639   1.0411   1.0769
     1.1028   1.1289   1.2738   1.7734   1.8120   2.1364   2.2360   2.4401
     2.5470   2.5758   2.6692   2.7582   2.7938   2.9670   2.9801

          k = 0.0223 0.0129 0.0000 ( 32061 PWs)   bands (ev):

   -31.3366 -31.3278 -31.2258 -31.2184 -31.2119 -31.2103 -31.2073 -31.1487
   -30.8601 -30.7643 -30.7318 -30.7280 -15.4651 -15.4114 -15.3939 -15.3646
   -15.3353 -15.3149 -15.2961 -15.1789 -15.1669 -15.1582 -15.0308 -14.8910
   -14.8675 -14.8501 -14.6613 -14.6571 -14.6500 -14.6446 -14.6289 -14.6203
   -14.6011 -14.5887 -14.5603 -14.4345 -14.4153 -14.3644 -14.3491 -14.2833
   -14.2235 -14.2226 -14.1857 -14.1795 -14.1760 -14.1248 -13.9842 -13.9274
   -11.6255  -4.7682  -4.7485  -1.3462  -0.5279   0.1667   0.4501   0.5029
     0.5213   0.5241   0.7021   0.7951   0.8673   0.9666   1.0413   1.0754
     1.1042   1.1278   1.2728   1.7717   1.8150   2.1368   2.2358   2.4417
     2.5506   2.5695   2.6694   2.7589   2.7948   2.9692   2.9787

          k = 0.0223 0.0387 0.0000 ( 32007 PWs)   bands (ev):

   -31.3206 -31.3130 -31.2356 -31.2274 -31.2244 -31.2144 -31.2011 -31.1515
   -30.8469 -30.7700 -30.7423 -30.7255 -15.3977 -15.3372 -15.3038 -15.2982
   -15.2614 -15.2384 -15.2230 -15.1323 -15.1180 -15.1098 -15.0202 -14.9319
   -14.9113 -14.8665 -14.7753 -14.7674 -14.6381 -14.6269 -14.6181 -14.6009
   -14.5983 -14.5802 -14.5733 -14.5686 -14.5333 -14.4007 -14.3881 -14.2979
   -14.2697 -14.2167 -14.2088 -14.1712 -14.1504 -14.1455 -14.1041 -13.9615
   -11.6216  -4.7716  -4.7469  -1.2541  -0.2143   0.4782   0.6795   0.7031
     0.7923   0.8175   0.8351   0.9239   1.1455   1.1559   1.2598   1.2760
     1.3396   1.4300   1.4919   1.8241   1.9034   2.0645   2.1494   2.3244
     2.3926   2.4532   2.5473   2.6145   2.6578   2.6801   2.8735

          k = 0.0223-0.0902 0.0000 ( 31991 PWs)   bands (ev):

   -31.2967 -31.2872 -31.2553 -31.2499 -31.2304 -31.2202 -31.1967 -31.1530
   -30.8277 -30.7808 -30.7539 -30.7228 -15.3007 -15.2416 -15.2119 -15.1941
   -15.1620 -15.1417 -15.0836 -15.0685 -15.0552 -15.0298 -15.0055 -14.9729
   -14.9517 -14.9453 -14.8999 -14.8673 -14.7988 -14.7690 -14.6758 -14.6588
   -14.5777 -14.5587 -14.5361 -14.5184 -14.4744 -14.4686 -14.4541 -14.4137
   -14.2977 -14.2621 -14.2242 -14.2042 -14.1818 -14.1628 -14.0915 -14.0209
   -11.6177  -4.7744  -4.7459  -1.1650   0.3091   0.7468   0.9206   0.9678
     1.0854   1.1246   1.1652   1.2972   1.3816   1.4562   1.5123   1.6003
     1.6704   1.7317   1.8613   1.9215   1.9727   2.0008   2.0637   2.1188
     2.1857   2.2321   2.3454   2.4115   2.4529   2.5236   2.5921

          k = 0.0223-0.0644 0.0000 ( 31991 PWs)   bands (ev):

   -31.2973 -31.2873 -31.2552 -31.2474 -31.2305 -31.2225 -31.1967 -31.1526
   -30.8277 -30.7805 -30.7543 -30.7226 -15.3004 -15.2416 -15.2123 -15.1940
   -15.1613 -15.1422 -15.0828 -15.0683 -15.0551 -15.0297 -15.0057 -14.9730
   -14.9525 -14.9458 -14.8997 -14.8674 -14.7991 -14.7688 -14.6757 -14.6593
   -14.5791 -14.5586 -14.5362 -14.5187 -14.4742 -14.4684 -14.4532 -14.4123
   -14.2981 -14.2621 -14.2242 -14.2039 -14.1827 -14.1622 -14.0915 -14.0209
   -11.6176  -4.7743  -4.7461  -1.1642   0.3090   0.7463   0.9207   0.9670
     1.0862   1.1212   1.1661   1.2983   1.3812   1.4535   1.5170   1.5993
     1.6734   1.7287   1.8591   1.9216   1.9790   2.0011   2.0652   2.1187
     2.1792   2.2295   2.3397   2.4054   2.4573   2.5312   2.5989

          k = 0.0223-0.0387 0.0000 ( 32007 PWs)   bands (ev):

   -31.3209 -31.3132 -31.2290 -31.2274 -31.2244 -31.2214 -31.2011 -31.1507
   -30.8469 -30.7694 -30.7433 -30.7250 -15.3976 -15.3366 -15.3048 -15.2975
   -15.2617 -15.2371 -15.2237 -15.1319 -15.1178 -15.1096 -15.0203 -14.9310
   -14.9130 -14.8671 -14.7752 -14.7680 -14.6364 -14.6289 -14.6193 -14.6006
   -14.5982 -14.5811 -14.5734 -14.5679 -14.5334 -14.4005 -14.3863 -14.2975
   -14.2692 -14.2170 -14.2093 -14.1711 -14.1502 -14.1461 -14.1038 -13.9614
   -11.6214  -4.7712  -4.7474  -1.2525  -0.2145   0.4782   0.6784   0.7024
     0.7909   0.8173   0.8370   0.9213   1.1438   1.1569   1.2612   1.2757
     1.3395   1.4295   1.4929   1.8251   1.9010   2.0637   2.1506   2.3245
     2.3914   2.4515   2.5485   2.6158   2.6556   2.6798   2.8699

          k = 0.0446-0.0258 0.0000 ( 32002 PWs)   bands (ev):

   -31.3140 -31.3064 -31.2430 -31.2366 -31.2187 -31.2106 -31.2075 -31.1517
   -30.8412 -30.7750 -30.7415 -30.7271 -15.3698 -15.3200 -15.2851 -15.2444
   -15.2435 -15.2290 -15.1522 -15.1139 -15.1053 -15.0883 -15.0169 -14.9542
   -14.9012 -14.8921 -14.7533 -14.7470 -14.7456 -14.7335 -14.6458 -14.6155
   -14.6135 -14.5825 -14.5440 -14.5433 -14.5193 -14.4121 -14.3914 -14.2958
   -14.2712 -14.2567 -14.2097 -14.2039 -14.1742 -14.1611 -14.0855 -13.9691
   -11.6201  -4.7682  -4.7509  -1.2232  -0.0778   0.5863   0.6740   0.7279
     0.8757   0.8915   0.9583   1.1216   1.1538   1.2509   1.3262   1.4563
     1.4667   1.5636   1.5712   1.8211   1.9555   2.0194   2.1184   2.2402
     2.3270   2.4150   2.5448   2.5745   2.6045   2.6788   2.7501

          k = 0.0446 0.0000 0.0000 ( 32007 PWs)   bands (ev):

   -31.3207 -31.3130 -31.2336 -31.2274 -31.2245 -31.2165 -31.2011 -31.1512
   -30.8469 -30.7698 -30.7426 -30.7254 -15.3974 -15.3370 -15.3043 -15.2979
   -15.2616 -15.2379 -15.2232 -15.1321 -15.1178 -15.1097 -15.0203 -14.9318
   -14.9118 -14.8668 -14.7752 -14.7680 -14.6374 -14.6280 -14.6186 -14.6009
   -14.5980 -14.5805 -14.5735 -14.5682 -14.5334 -14.4006 -14.3872 -14.2977
   -14.2695 -14.2169 -14.2089 -14.1712 -14.1503 -14.1456 -14.1039 -13.9615
   -11.6215  -4.7669  -4.7516  -1.2538  -0.2144   0.4783   0.6790   0.7028
     0.7912   0.8176   0.8360   0.9229   1.1451   1.1562   1.2600   1.2762
     1.3401   1.4300   1.4922   1.8244   1.9025   2.0644   2.1501   2.3244
     2.3925   2.4526   2.5481   2.6154   2.6608   2.6739   2.8722

          k = 0.0446 0.0258 0.0000 ( 32002 PWs)   bands (ev):

   -31.3135 -31.3061 -31.2444 -31.2416 -31.2121 -31.2103 -31.2076 -31.1530
   -30.8411 -30.7757 -30.7400 -30.7281 -15.3692 -15.3216 -15.2849 -15.2463
   -15.2423 -15.2291 -15.1517 -15.1141 -15.1068 -15.0881 -15.0167 -14.9542
   -14.8995 -14.8915 -14.7504 -14.7460 -14.7455 -14.7361 -14.6452 -14.6145
   -14.6103 -14.5858 -14.5441 -14.5435 -14.5192 -14.4125 -14.3933 -14.2959
   -14.2714 -14.2575 -14.2095 -14.2031 -14.1745 -14.1611 -14.0853 -13.9693
   -11.6204  -4.7690  -4.7501  -1.2258  -0.0775   0.5862   0.6744   0.7293
     0.8799   0.8920   0.9570   1.1226   1.1540   1.2521   1.3234   1.4559
     1.4699   1.5638   1.5702   1.8219   1.9572   2.0183   2.1177   2.2428
     2.3289   2.4126   2.5435   2.5776   2.6098   2.6700   2.7541

          k = 0.0446-0.1031 0.0000 ( 31991 PWs)   bands (ev):

   -31.2960 -31.2871 -31.2557 -31.2522 -31.2304 -31.2178 -31.1967 -31.1534
   -30.8275 -30.7813 -30.7534 -30.7229 -15.3000 -15.2418 -15.2127 -15.1939
   -15.1623 -15.1424 -15.0826 -15.0684 -15.0558 -15.0298 -15.0055 -14.9731
   -14.9516 -14.9450 -14.8994 -14.8672 -14.7987 -14.7686 -14.6756 -14.6587
   -14.5769 -14.5587 -14.5358 -14.5195 -14.4743 -14.4688 -14.4548 -14.4134
   -14.2978 -14.2626 -14.2242 -14.2033 -14.1826 -14.1625 -14.0913 -14.0211
   -11.6178  -4.7711  -4.7492  -1.1665   0.3094   0.7467   0.9204   0.9681
     1.0877   1.1231   1.1681   1.2970   1.3824   1.4540   1.5142   1.5995
     1.6740   1.7278   1.8603   1.9218   1.9785   2.0022   2.0657   2.1198
     2.1779   2.2288   2.3424   2.4090   2.4557   2.5325   2.5997

          k = 0.0446-0.0773 0.0000 ( 31986 PWs)   bands (ev):

   -31.2862 -31.2613 -31.2608 -31.2563 -31.2522 -31.2285 -31.1922 -31.1523
   -30.8196 -30.7742 -30.7719 -30.7196 -15.2164 -15.1779 -15.1616 -15.1351
   -15.1287 -15.1102 -15.0827 -15.0381 -15.0139 -15.0059 -14.9873 -14.9769
   -14.9592 -14.9582 -14.9576 -14.9499 -14.9125 -14.8893 -14.5897 -14.5788
   -14.5743 -14.5638 -14.5586 -14.5506 -14.5206 -14.5191 -14.4236 -14.4151
   -14.4099 -14.2591 -14.2094 -14.1878 -14.1763 -14.1196 -14.1101 -14.0985
   -11.6164  -4.7714  -4.7494  -1.1352   0.8167   0.8258   0.8282   1.2575
     1.2632   1.2732   1.3649   1.3934   1.6217   1.6783   1.6860   1.7095
     1.7194   1.7352   1.7656   1.8063   1.8339   1.9434   1.9471   1.9730
     2.0844   2.2618   2.2907   2.3310   2.3898   2.3927   2.4019

          k = 0.0446-0.0515 0.0000 ( 31991 PWs)   bands (ev):

   -31.2977 -31.2873 -31.2551 -31.2451 -31.2305 -31.2248 -31.1967 -31.1522
   -30.8278 -30.7803 -30.7545 -30.7226 -15.3004 -15.2411 -15.2117 -15.1940
   -15.1611 -15.1414 -15.0845 -15.0683 -15.0543 -15.0298 -15.0056 -14.9731
   -14.9526 -14.9460 -14.9001 -14.8674 -14.7994 -14.7698 -14.6759 -14.6594
   -14.5796 -14.5584 -14.5361 -14.5181 -14.4742 -14.4684 -14.4526 -14.4124
   -14.2981 -14.2618 -14.2243 -14.2043 -14.1822 -14.1623 -14.0916 -14.0208
   -11.6175  -4.7705  -4.7498  -1.1639   0.3089   0.7466   0.9211   0.9671
     1.0835   1.1231   1.1630   1.2985   1.3809   1.4565   1.5153   1.6004
     1.6696   1.7325   1.8605   1.9209   1.9737   1.9995   2.0636   2.1182
     2.1867   2.2324   2.3426   2.4084   2.4555   2.5222   2.5921

          k =-0.0669 0.0387 0.0000 ( 31970 PWs)   bands (ev):

   -31.2957 -31.2775 -31.2741 -31.2518 -31.2189 -31.2106 -31.2076 -31.1531
   -30.8259 -30.7877 -30.7444 -30.7271 -15.3077 -15.2565 -15.2248 -15.1846
   -15.1832 -15.1545 -15.0741 -15.0634 -15.0425 -15.0112 -14.9737 -14.9358
   -14.9269 -14.8944 -14.8901 -14.8302 -14.8199 -14.8084 -14.8049 -14.7592
   -14.5811 -14.5312 -14.4906 -14.4771 -14.4670 -14.4352 -14.4212 -14.3842
   -14.3462 -14.3310 -14.2514 -14.2054 -14.1913 -14.1660 -14.0414 -14.0143
   -11.6175  -4.7687  -4.7517  -1.1650   0.4319   0.4620   0.8475   0.9053
     1.1637   1.1812   1.2390   1.2469   1.2623   1.3641   1.6322   1.6740
     1.7960   1.8143   1.8491   1.8630   2.0841   2.1318   2.1686   2.2014
     2.2235   2.2499   2.2768   2.4598   2.5100   2.5290   2.5569

          k =-0.0669 0.0644 0.0000 ( 31991 PWs)   bands (ev):

   -31.2973 -31.2873 -31.2551 -31.2470 -31.2304 -31.2231 -31.1967 -31.1525
   -30.8277 -30.7805 -30.7542 -30.7226 -15.3003 -15.2412 -15.2116 -15.1940
   -15.1614 -15.1417 -15.0840 -15.0681 -15.0550 -15.0298 -15.0056 -14.9733
   -14.9523 -14.9457 -14.9003 -14.8681 -14.7989 -14.7688 -14.6760 -14.6600
   -14.5789 -14.5583 -14.5359 -14.5180 -14.4744 -14.4682 -14.4528 -14.4134
   -14.2977 -14.2619 -14.2241 -14.2045 -14.1819 -14.1625 -14.0916 -14.0208
   -11.6176  -4.7682  -4.7521  -1.1646   0.3091   0.7462   0.9208   0.9671
     1.0850   1.1216   1.1668   1.2987   1.3826   1.4509   1.5159   1.5983
     1.6722   1.7303   1.8600   1.9230   1.9798   2.0005   2.0662   2.1184
     2.1800   2.2290   2.3428   2.4082   2.4523   2.5295   2.5993

          k =-0.0669 0.0902 0.0000 ( 31991 PWs)   bands (ev):

   -31.2962 -31.2872 -31.2556 -31.2515 -31.2304 -31.2185 -31.1967 -31.1533
   -30.8276 -30.7812 -30.7535 -30.7229 -15.2997 -15.2418 -15.2127 -15.1940
   -15.1620 -15.1424 -15.0831 -15.0689 -15.0550 -15.0297 -15.0056 -14.9732
   -14.9517 -14.9454 -14.8993 -14.8670 -14.7990 -14.7693 -14.6755 -14.6582
   -14.5776 -14.5588 -14.5360 -14.5196 -14.4740 -14.4690 -14.4544 -14.4127
   -14.2980 -14.2626 -14.2243 -14.2032 -14.1826 -14.1625 -14.0913 -14.0211
   -11.6178  -4.7687  -4.7515  -1.1664   0.3092   0.7471   0.9206   0.9681
     1.0863   1.1244   1.1648   1.2969   1.3808   1.4595   1.5134   1.6012
     1.6722   1.7308   1.8609   1.9203   1.9725   2.0014   2.0633   2.1198
     2.1845   2.2326   2.3424   2.4098   2.4575   2.5258   2.5914

          k =-0.0669-0.0387 0.0000 ( 31970 PWs)   bands (ev):

   -31.2928 -31.2776 -31.2741 -31.2599 -31.2122 -31.2104 -31.2077 -31.1548
   -30.8256 -30.7887 -30.7428 -30.7281 -15.3065 -15.2586 -15.2244 -15.1869
   -15.1837 -15.1553 -15.0745 -15.0655 -15.0402 -15.0095 -14.9751 -14.9341
   -14.9260 -14.8941 -14.8908 -14.8293 -14.8167 -14.8059 -14.8055 -14.7605
   -14.5771 -14.5348 -14.4898 -14.4774 -14.4665 -14.4388 -14.4216 -14.3850
   -14.3449 -14.3313 -14.2525 -14.2052 -14.1902 -14.1667 -14.0401 -14.0155
   -11.6179  -4.7696  -4.7507  -1.1685   0.4308   0.4642   0.8483   0.9060
     1.1717   1.1799   1.2390   1.2438   1.2617   1.3726   1.6335   1.6719
     1.7999   1.8153   1.8498   1.8580   2.0888   2.1231   2.1719   2.1980
     2.2234   2.2479   2.2790   2.4658   2.5118   2.5284   2.5583

     the Fermi energy is     2.0197 ev

!    total energy              =   -1263.46595567 Ry
     Harris-Foulkes estimate   =   -1263.46595574 Ry
     estimated scf accuracy    <       0.00000006 Ry

     The total energy is the sum of the following terms:

     one-electron contribution =   -4812.61534680 Ry
     hartree contribution      =    2420.45781534 Ry
     xc contribution           =    -614.64326077 Ry
     ewald contribution        =    1743.45714281 Ry
     electric field correction =       0.00000045 Ry
     smearing contrib. (-TS)   =      -0.12230670 Ry

     convergence has been achieved in  11 iterations
 
 BEEF-vdW xc energy contributions
           1 :   -544.374016981743     
           2 :    500.640570871446     
           3 :   -423.359633305208     
           4 :    329.056750407159     
           5 :   -235.219974928216     
           6 :    155.676813185533     
           7 :   -98.0002147637388     
           8 :    63.1985627535373     
           9 :   -47.2086431439222     
          10 :    43.2890177695920     
          11 :   -44.4044322494371     
          12 :    44.9454550003114     
          13 :   -41.5466831015353     
          14 :    33.1400194064113     
          15 :   -20.5642031488087     
          16 :    5.98684882751490     
          17 :    7.76409505731340     
          18 :   -17.9600242685201     
          19 :    22.7509994763896     
          20 :   -21.7620403353357     
          21 :    16.2562610682294     
          22 :   -8.73571201639265     
          23 :    2.07237020039997     
          24 :    1.51384081312722     
          25 :   -1.21636796869234     
          26 :   -2.18407757899513     
          27 :    6.79960262930547     
          28 :   -10.5337746415348     
          29 :    11.9728119007157     
          30 :   -10.8780326579123     
          31 :   -46.4751844237942     
          32 :   -33.3532408458643     

     Forces acting on atoms (Ry/au):


     negative rho (up, down):  5.850E-01 0.000E+00
     atom    1 type  1   force =     0.00000827    0.00000017    0.00244737
     atom    2 type  1   force =    -0.00004847   -0.00169227    0.00452894
     atom    3 type  1   force =    -0.00140370    0.00089197    0.00448574
     atom    4 type  1   force =     0.00153149    0.00080629    0.00457246
     atom    5 type  1   force =    -0.00041546    0.00026112   -0.00505223
     atom    6 type  1   force =     0.00054310    0.00020013   -0.00535312
     atom    7 type  1   force =     0.00019683    0.00001343   -0.00227860
     atom    8 type  1   force =    -0.00014241   -0.00055127   -0.00514778
     atom    9 type  1   force =    -0.00005271   -0.00010920    0.00020953
     atom   10 type  1   force =    -0.00003926    0.00019396    0.00049976
     atom   11 type  1   force =     0.00021479   -0.00002536    0.00036787
     atom   12 type  1   force =     0.00013663    0.00005016    0.00026426
     atom   13 type  2   force =     0.00147011   -0.00004273    0.00156071
     atom   14 type  3   force =    -0.00076390    0.00053157   -0.00081434
     atom   15 type  3   force =    -0.00105190   -0.00034049   -0.00016912
     atom   16 type  3   force =    -0.00018342   -0.00018749   -0.00012144

     Total force =     0.002843     Total SCF correction =     0.000585
     SCF correction compared to forces is large: reduce conv_thr to get better values


     entering subroutine stress ...


     negative rho (up, down):  5.850E-01 0.000E+00
          total   stress  (Ry/bohr**3)                   (kbar)     P=   -0.89
  -0.00000378  -0.00000013  -0.00000068         -0.56     -0.02     -0.10
  -0.00000013  -0.00000376   0.00000002         -0.02     -0.55      0.00
  -0.00000068   0.00000002  -0.00001063         -0.10      0.00     -1.56


     bfgs converged in  15 scf cycles and  14 bfgs steps
     (criteria: energy <  1.0E+00, force <  1.9E-03)

     End of BFGS Geometry Optimization

     Final energy   =   -1263.4659556740 Ry
Begin final coordinates

ATOMIC_POSITIONS (crystal)
La1      0.166666667   0.166666667   0.383173129    0   0   0
La1      0.666666667   0.166666667   0.383173129    0   0   0
La1      0.166666667   0.666666667   0.383173129    0   0   0
La1      0.666666667   0.666666667   0.383173129    0   0   0
La1      0.833333333   0.333333333   0.500000000    0   0   0
La1      0.333333333   0.333333333   0.500000000    0   0   0
La1      0.833333333   0.833333333   0.500000000    0   0   0
La1      0.333333333   0.833333333   0.500000000    0   0   0
La1      0.005397630   0.005681505   0.617144618
La1      0.492357957   0.003614750   0.616480295
La1      0.005798253   0.490641206   0.616764109
La1      0.500669935   0.499813571   0.611774875
C1       0.171053616   0.167010119   0.692460714
H1       0.305534215   0.168657909   0.709697972
H1       0.036956846   0.300288300   0.710572532
H1       0.174334888   0.031162874   0.710249931
End final coordinates



     Writing output data file calc.save
 
     init_run     :     22.68s CPU     29.48s WALL (       1 calls)
     electrons    :   6204.09s CPU   7744.69s WALL (      15 calls)
     update_pot   :     33.63s CPU     38.72s WALL (      14 calls)
     forces       :    281.49s CPU    295.19s WALL (      15 calls)
     stress       :    893.02s CPU    934.53s WALL (      15 calls)

     Called by init_run:
     wfcinit      :     16.35s CPU     22.13s WALL (       1 calls)
     potinit      :      1.24s CPU      1.58s WALL (       1 calls)

     Called by electrons:
     c_bands      :   3959.04s CPU   5014.85s WALL (     175 calls)
     sum_band     :   1041.34s CPU   1238.99s WALL (     175 calls)
     v_of_rho     :    155.89s CPU    206.69s WALL (     188 calls)
     newd         :    714.48s CPU    826.59s WALL (     188 calls)
     mix_rho      :      5.13s CPU      6.72s WALL (     175 calls)
     vdW_energy   :    113.31s CPU    144.41s WALL (     728 calls)
     vdW_ffts     :    205.81s CPU    278.45s WALL (    1486 calls)
     vdW_v        :     84.71s CPU     99.99s WALL (     728 calls)

     Called by c_bands:
     init_us_2    :     36.14s CPU     42.23s WALL (    7620 calls)
     cegterg      :   3562.47s CPU   4605.11s WALL (    3500 calls)

     Called by *egterg:
     h_psi        :   2174.41s CPU   3088.33s WALL (   30108 calls)
     s_psi        :    232.33s CPU    240.39s WALL (   30108 calls)
     g_psi        :     14.26s CPU     14.69s WALL (   26588 calls)
     cdiaghg      :    579.61s CPU    591.65s WALL (   29768 calls)

     Called by h_psi:
     add_vuspsi   :    229.58s CPU    238.39s WALL (   30108 calls)

     General routines
     calbec       :    298.54s CPU    305.18s WALL (   34208 calls)
     fft          :    344.12s CPU    452.02s WALL (   43975 calls)
     ffts         :      0.43s CPU      0.65s WALL (     363 calls)
     fftw         :   1386.66s CPU   2443.25s WALL ( 1924544 calls)
     interpolate  :      3.15s CPU      5.25s WALL (     363 calls)
     davcio       :      0.01s CPU      0.18s WALL (      20 calls)
 
     Parallel routines
     fft_scatter  :   1012.33s CPU   1685.21s WALL ( 1968882 calls)
 
     PWSCF        :     2h 4m CPU        2h31m WALL

 
   This run was terminated on:   1:41:46  19Apr2018            

=------------------------------------------------------------------------------=
   JOB DONE.
=------------------------------------------------------------------------------=
