  python dir          : /home/users/winther/.local/lib/python2.7/site-packages/espresso
  espresso dir        : /home/users/vossj/suncat/s2/qe5/bin
  pseudo dir          : /home/users/winther/src/pseudo
  ase-espresso py git : d16fa15-git



     Program PWSCF v.5.1rc2 starts on  9May2018 at  7:48:47 

     This program is part of the open-source Quantum ESPRESSO suite
     for quantum simulation of materials; please cite
         "P. Giannozzi et al., J. Phys.:Condens. Matter 21 395502 (2009);
          URL http://www.quantum-espresso.org", 
     in publications or presentations arising from this work. More details at
     http://www.quantum-espresso.org/quote

     Parallel version (MPI), running on    20 processors
     R & G space division:  proc/nbgrp/npool/nimage =      20
     Reading input from pw.inp
     Message from routine read_cards :
     DEPRECATED: no units specified in CELL_PARAMETERS card

     Current dimensions of program PWSCF are:
     Max number of different atomic species (ntypx) = 10
     Max number of k-points (npk) =  40000
     Max angular momentum in pseudopotentials (lmaxx) =  3
     Presently stress not available with electric field


     **************************************************************************
     Initializing libbeef V0.1.2 with the BEEF-vdW functional.
     Citation: Wellendorff et al., PRB 85, 235149 (2012).
     **************************************************************************


     IMPORTANT: XC functional enforced from input :
     Exchange-correlation      = BEEF-VDW ( 1  4 27 13 2)
     Any further DFT definition will be discarded
     Please, verify this is what you really want


     Subspace diagonalization in iterative solution of the eigenvalue problem:
     scalapack distributed-memory algorithm (size of sub-group:  3*  3 procs)

 
     Parallelization info
     --------------------
     sticks:   dense  smooth     PW     G-vecs:    dense   smooth      PW
     Min         119      47     14                22279     5617     906
     Max         120      48     15                22306     5658     921
     Sum        2395     955    283               445881   112839   18187
 
     Generating pointlists ...
     new r_m :   0.4125 (alat units)  0.7795 (a.u.) for type    1
     new r_m :   0.4125 (alat units)  0.7795 (a.u.) for type    2
     new r_m :   0.4125 (alat units)  0.7795 (a.u.) for type    3


     bravais-lattice index     =            0
     lattice parameter (alat)  =       1.8897  a.u.
     unit-cell volume          =    3747.1846 (a.u.)^3
     number of atoms/cell      =           14
     number of atomic types    =            3
     number of electrons       =       185.00
     number of Kohn-Sham states=          102
     kinetic-energy cutoff     =      36.7493  Ry
     charge density cutoff     =     367.4932  Ry
     convergence threshold     =      1.0E-05
     mixing beta               =       0.3000
     number of iterations used =           10  plain     mixing
     Exchange-correlation      = BEEF-VDW ( 1  4 27 13 2)
     nstep                     =           50


     celldm(1)=   1.889726  celldm(2)=   0.000000  celldm(3)=   0.000000
     celldm(4)=   0.000000  celldm(5)=   0.000000  celldm(6)=   0.000000

     crystal axes: (cart. coord. in units of alat)
               a(1) = (   5.147050   0.000000   0.000000 )  
               a(2) = (   2.573525   4.457476   0.000000 )  
               a(3) = (   0.000000   0.000000  24.202549 )  

     reciprocal axes: (cart. coord. in units 2 pi/alat)
               b(1) = (  0.194286 -0.112171 -0.000000 )  
               b(2) = (  0.000000  0.224342  0.000000 )  
               b(3) = (  0.000000  0.000000  0.041318 )  


     PseudoPot. # 1 for Mn read from file:
     /home/users/winther/src/pseudo/Mn.UPF
     MD5 check sum: 82ef2b46521d7a7d9e736dc3972e4928
     Pseudo is Ultrasoft + core correction, Zval = 15.0
     Generated by new atomic code, or converted to UPF format
     Using radial grid of  859 points,  6 beta functions with: 
                l(1) =   0
                l(2) =   0
                l(3) =   1
                l(4) =   1
                l(5) =   2
                l(6) =   2
     Q(r) pseudized with  8 coefficients,  rinner =    0.950   0.950   0.950
                                                       0.950   0.950

     PseudoPot. # 2 for C  read from file:
     /home/users/winther/src/pseudo/C.UPF
     MD5 check sum: d1aef80898a10debaa0f26306b886e00
     Pseudo is Ultrasoft + core correction, Zval =  4.0
     Generated by new atomic code, or converted to UPF format
     Using radial grid of  721 points,  4 beta functions with: 
                l(1) =   0
                l(2) =   0
                l(3) =   1
                l(4) =   1
     Q(r) pseudized with  8 coefficients,  rinner =    1.100   1.100   1.100


     PseudoPot. # 3 for H  read from file:
     /home/users/winther/src/pseudo/H.UPF
     MD5 check sum: 761ae9a214b05c3daf00ab9f6b793d6f
     Pseudo is Ultrasoft, Zval =  1.0
     Generated by new atomic code, or converted to UPF format
     Using radial grid of  615 points,  2 beta functions with: 
                l(1) =   0
                l(2) =   0
     Q(r) pseudized with  8 coefficients,  rinner =    0.700

     vdW kernel table read from file vdW_kernel_table
     MD5 check sum: 095c7af220d748ca6e76c0b4c6cfb241

     atomic species   valence    mass     pseudopotential
        Mn1           15.00    54.93804     Mn( 1.00)
        C1             4.00    12.01100     C ( 1.00)
        H1             1.00     1.00800     H ( 1.00)

     Starting magnetic structure 
     atomic species   magnetization
        Mn1          0.193
        C1           0.000
        H1           0.000

     No symmetry found



   Cartesian axes

     site n.     atom                  positions (alat units)
         1           Mn1 tau(   1) = (   0.0000000   0.0000000  10.0000000  )
         2           Mn1 tau(   2) = (   1.2867625   2.2287380  10.0000000  )
         3           Mn1 tau(   3) = (   2.5735249   0.0000000  10.0000000  )
         4           Mn1 tau(   4) = (   3.8602874   2.2287380  10.0000000  )
         5           Mn1 tau(   5) = (   5.1470499   2.9716506  12.1012743  )
         6           Mn1 tau(   6) = (   3.8602874   0.7429127  12.1012743  )
         7           Mn1 tau(   7) = (   2.5735249   2.9716506  12.1012743  )
         8           Mn1 tau(   8) = (   1.2867625   0.7429127  12.1012743  )
         9           Mn1 tau(   9) = (   2.5729805   1.4859362  14.2013976  )
        10           Mn1 tau(  10) = (   3.8606631   3.7139626  14.2022569  )
        11           Mn1 tau(  11) = (   5.1464482   1.4876776  14.2025351  )
        12           Mn1 tau(  12) = (   6.4327546   3.7153858  14.2013278  )
        13           C1  tau(  13) = (   5.1472587   2.9696910  15.6026944  )
        14           H1  tau(  14) = (   3.8604843   2.2294764  14.8356087  )

     number of k points=    40  Fermi-Dirac smearing, width (Ry)=  0.0110
                       cart. coord. in units 2pi/alat
        k(    1) = (   0.0000000   0.0000000   0.0000000), wk =   0.0277778
        k(    2) = (   0.0000000   0.0373904   0.0000000), wk =   0.0555556
        k(    3) = (   0.0000000   0.0747807   0.0000000), wk =   0.0555556
        k(    4) = (   0.0000000  -0.1121711   0.0000000), wk =   0.0277778
        k(    5) = (   0.0323810  -0.0186952  -0.0000000), wk =   0.0555556
        k(    6) = (   0.0323810   0.0186952  -0.0000000), wk =   0.0555556
        k(    7) = (   0.0323810   0.0560856  -0.0000000), wk =   0.0555556
        k(    8) = (   0.0323810  -0.1308663  -0.0000000), wk =   0.0555556
        k(    9) = (   0.0323810  -0.0934759  -0.0000000), wk =   0.0555556
        k(   10) = (   0.0323810  -0.0560856  -0.0000000), wk =   0.0555556
        k(   11) = (   0.0647620  -0.0373904  -0.0000000), wk =   0.0555556
        k(   12) = (   0.0647620  -0.0000000  -0.0000000), wk =   0.0555556
        k(   13) = (   0.0647620   0.0373904  -0.0000000), wk =   0.0555556
        k(   14) = (   0.0647620  -0.1495615  -0.0000000), wk =   0.0555556
        k(   15) = (   0.0647620  -0.1121711  -0.0000000), wk =   0.0555556
        k(   16) = (   0.0647620  -0.0747807  -0.0000000), wk =   0.0555556
        k(   17) = (  -0.0971430   0.0560856   0.0000000), wk =   0.0277778
        k(   18) = (  -0.0971430   0.0934759   0.0000000), wk =   0.0555556
        k(   19) = (  -0.0971430   0.1308663   0.0000000), wk =   0.0555556
        k(   20) = (  -0.0971430  -0.0560856   0.0000000), wk =   0.0277778
        k(   21) = (   0.0000000   0.0000000   0.0000000), wk =   0.0277778
        k(   22) = (   0.0000000   0.0373904   0.0000000), wk =   0.0555556
        k(   23) = (   0.0000000   0.0747807   0.0000000), wk =   0.0555556
        k(   24) = (   0.0000000  -0.1121711   0.0000000), wk =   0.0277778
        k(   25) = (   0.0323810  -0.0186952  -0.0000000), wk =   0.0555556
        k(   26) = (   0.0323810   0.0186952  -0.0000000), wk =   0.0555556
        k(   27) = (   0.0323810   0.0560856  -0.0000000), wk =   0.0555556
        k(   28) = (   0.0323810  -0.1308663  -0.0000000), wk =   0.0555556
        k(   29) = (   0.0323810  -0.0934759  -0.0000000), wk =   0.0555556
        k(   30) = (   0.0323810  -0.0560856  -0.0000000), wk =   0.0555556
        k(   31) = (   0.0647620  -0.0373904  -0.0000000), wk =   0.0555556
        k(   32) = (   0.0647620  -0.0000000  -0.0000000), wk =   0.0555556
        k(   33) = (   0.0647620   0.0373904  -0.0000000), wk =   0.0555556
        k(   34) = (   0.0647620  -0.1495615  -0.0000000), wk =   0.0555556
        k(   35) = (   0.0647620  -0.1121711  -0.0000000), wk =   0.0555556
        k(   36) = (   0.0647620  -0.0747807  -0.0000000), wk =   0.0555556
        k(   37) = (  -0.0971430   0.0560856   0.0000000), wk =   0.0277778
        k(   38) = (  -0.0971430   0.0934759   0.0000000), wk =   0.0555556
        k(   39) = (  -0.0971430   0.1308663   0.0000000), wk =   0.0555556
        k(   40) = (  -0.0971430  -0.0560856   0.0000000), wk =   0.0277778

     Dense  grid:   445881 G-vectors     FFT dimensions: (  60,  60, 288)

     Smooth grid:   112839 G-vectors     FFT dimensions: (  40,  40, 180)

     Largest allocated arrays     est. size (Mb)     dimensions
        Kohn-Sham Wavefunctions         1.12 Mb     (     718,  102)
        NL pseudopotentials             2.48 Mb     (     718,  226)
        Each V/rho on FFT grid          1.65 Mb     (   54000,   2)
        Each G-vector array             0.17 Mb     (   22300)
        G-vector shells                 0.07 Mb     (    9306)
     Largest temporary arrays     est. size (Mb)     dimensions
        Auxiliary wavefunctions         4.47 Mb     (     718,  408)
        Each subspace H/S matrix        0.28 Mb     (     136,  136)
        Each <psi_i|beta_j> matrix      0.35 Mb     (     226,  102)
        Arrays for rho mixing           8.24 Mb     (   54000,   10)

     Check: negative/imaginary core charge=   -0.000010    0.000000

     Initial potential from superposition of free atoms
     Check: negative starting charge=(component1):   -0.001647
     Check: negative starting charge=(component2):   -0.001099

     starting charge  178.99893, renormalised to  185.00000

     negative rho (up, down):  1.702E-03 1.136E-03


     ************************************************************************
     *
     * You are using vdW-DF for exchange-correlation in this calculation.
     * Please cite the following three references that made this development
     * possible:
     *
     *   M. Dion, H. Rydberg, E. Schroder, D. C. Langreth, and
     *   B. I. Lundqvist, Phys. Rev. Lett. 92, 246401 (2004).
     *
     *   T. Thonhauser, V. R. Cooper, S. Li, A. Puzder, P. Hyldgaard, and
     *   D. C. Langreth, Phys. Rev. B 76, 125112 (2007).
     *
     *   G. Roman-Perez and J. M. Soler, Phys. Rev. Lett. 103, 096102 (2009).
     *
     *
     * If you are using vdW-DF2, please also cite:
     *
     *   K. Lee, E. D. Murray, L. Kong, B. I. Lundqvist, and
     *   D. C. Langreth, Phys. Rev. B 82, 081101(R) (2010).
     *
     *
     * If you are calculating the stress with vdW-DF, please also cite:
     *
     *   R. Sabatini, E. Kucukbenli, B. Kolb, T. Thonhauser, and
     *   S. de Gironcoli, J. Phys.: Condens. Matter 24, 424209 (2012).
     *
     ************************************************************************

     Carrying out vdW-DF run using the following parameters:

     Nqs =      20    Nr_points =    1024   r_max =   100.000
     q_mesh =
               0.00001000     0.04494208     0.09755937     0.15916263
               0.23128650     0.31572767     0.41458969     0.53033537
               0.66584808     0.82450364     1.01025438     1.22772762
               1.48234092     1.78043706     2.12944203     2.53805004
               3.01644009     3.57652955     4.23227104     5.00000000

     Gradients computed in reciprocal space

     ************************************************************************


 
     Adding external electric field

     Computed dipole along edir(3) : 
        Dipole               -1.0603 Ry au,         -2.6950 Debye
        Dipole field         -0.0036 Ry au
 
        Potential amp.        0.3171 Ry
        Total length         44.5928 bohr
 
 
     Adding external electric field

     Computed dipole along edir(3) : 
        Dipole               -1.0603 Ry au,         -2.6950 Debye
        Dipole field         -0.0036 Ry au
 
        Potential amp.        0.3171 Ry
        Total length         44.5928 bohr
 
     Starting wfc are  161 randomized atomic wfcs

     total cpu time spent up to now is        8.4 secs

     per-process dynamical memory:    49.2 Mb

     Self-consistent Calculation

     iteration #  1     ecut=    36.75 Ry     beta=0.30
     Davidson diagonalization with overlap
     ethr =  1.00E-02,  avg # of iterations =  2.0

     negative rho (up, down):  1.542E-03 1.091E-03
 
     Adding external electric field

     Computed dipole along edir(3) : 
        Dipole               18.6087 Ry au,         47.2986 Debye
        Dipole field          0.0624 Ry au
 
        Potential amp.       -5.5657 Ry
        Total length         44.5928 bohr
 
 
     Adding external electric field

     Computed dipole along edir(3) : 
        Dipole               18.6087 Ry au,         47.2986 Debye
        Dipole field          0.0624 Ry au
 
        Potential amp.       -5.5657 Ry
        Total length         44.5928 bohr
 
 
     Magnetic moment per site:
     atom:    1    charge:    6.1067    magn:    1.0647    constr:    0.0000
     atom:    2    charge:    6.1070    magn:    1.0638    constr:    0.0000
     atom:    3    charge:    6.1070    magn:    1.0638    constr:    0.0000
     atom:    4    charge:    6.1056    magn:    1.0628    constr:    0.0000
     atom:    5    charge:    5.9891    magn:    1.0121    constr:    0.0000
     atom:    6    charge:    5.9931    magn:    1.0179    constr:    0.0000
     atom:    7    charge:    5.9931    magn:    1.0179    constr:    0.0000
     atom:    8    charge:    5.9924    magn:    1.0150    constr:    0.0000
     atom:    9    charge:    5.7559    magn:    0.9535    constr:    0.0000
     atom:   10    charge:    5.7585    magn:    0.9453    constr:    0.0000
     atom:   11    charge:    5.7587    magn:    0.9453    constr:    0.0000
     atom:   12    charge:    5.7470    magn:    0.9467    constr:    0.0000
     atom:   13    charge:    0.6669    magn:   -0.0090    constr:    0.0000
     atom:   14    charge:    0.3558    magn:    0.0033    constr:    0.0000

     total cpu time spent up to now is       21.2 secs

     total energy              =   -2517.58305213 Ry
     Harris-Foulkes estimate   =   -2560.37043293 Ry
     estimated scf accuracy    <      90.00665423 Ry

     total magnetization       =    18.00 Bohr mag/cell
     absolute magnetization    =    18.65 Bohr mag/cell

     iteration #  2     ecut=    36.75 Ry     beta=0.30
     Davidson diagonalization with overlap
     ethr =  1.00E-02,  avg # of iterations = 14.0

     negative rho (up, down):  6.606E-04 4.690E-04
 
     Adding external electric field

     Computed dipole along edir(3) : 
        Dipole               -3.8525 Ry au,         -9.7920 Debye
        Dipole field         -0.0129 Ry au
 
        Potential amp.        1.1522 Ry
        Total length         44.5928 bohr
 
 
     Adding external electric field

     Computed dipole along edir(3) : 
        Dipole               -3.8525 Ry au,         -9.7920 Debye
        Dipole field         -0.0129 Ry au
 
        Potential amp.        1.1522 Ry
        Total length         44.5928 bohr
 
 
     Magnetic moment per site:
     atom:    1    charge:    5.9925    magn:    1.0406    constr:    0.0000
     atom:    2    charge:    5.9927    magn:    1.0397    constr:    0.0000
     atom:    3    charge:    5.9927    magn:    1.0397    constr:    0.0000
     atom:    4    charge:    5.9914    magn:    1.0387    constr:    0.0000
     atom:    5    charge:    5.9455    magn:    0.9896    constr:    0.0000
     atom:    6    charge:    5.9494    magn:    0.9952    constr:    0.0000
     atom:    7    charge:    5.9494    magn:    0.9952    constr:    0.0000
     atom:    8    charge:    5.9487    magn:    0.9924    constr:    0.0000
     atom:    9    charge:    5.8295    magn:    0.9340    constr:    0.0000
     atom:   10    charge:    5.8314    magn:    0.9260    constr:    0.0000
     atom:   11    charge:    5.8315    magn:    0.9260    constr:    0.0000
     atom:   12    charge:    5.8208    magn:    0.9273    constr:    0.0000
     atom:   13    charge:    0.6830    magn:   -0.0090    constr:    0.0000
     atom:   14    charge:    0.3663    magn:    0.0031    constr:    0.0000

     total cpu time spent up to now is       67.9 secs

     total energy              =   -2411.18392568 Ry
     Harris-Foulkes estimate   =   -2767.63589607 Ry
     estimated scf accuracy    <    8040.30454175 Ry

     total magnetization       =     2.10 Bohr mag/cell
     absolute magnetization    =     2.37 Bohr mag/cell

     iteration #  3     ecut=    36.75 Ry     beta=0.30
     Davidson diagonalization with overlap
     ethr =  1.00E-02,  avg # of iterations =  8.3

     negative rho (up, down):  7.578E-04 6.965E-04
 
     Adding external electric field

     Computed dipole along edir(3) : 
        Dipole               -1.4259 Ry au,         -3.6243 Debye
        Dipole field         -0.0048 Ry au
 
        Potential amp.        0.4265 Ry
        Total length         44.5928 bohr
 
 
     Adding external electric field

     Computed dipole along edir(3) : 
        Dipole               -1.4259 Ry au,         -3.6243 Debye
        Dipole field         -0.0048 Ry au
 
        Potential amp.        0.4265 Ry
        Total length         44.5928 bohr
 
 
     Magnetic moment per site:
     atom:    1    charge:    5.9337    magn:    0.9852    constr:    0.0000
     atom:    2    charge:    5.9339    magn:    0.9843    constr:    0.0000
     atom:    3    charge:    5.9339    magn:    0.9843    constr:    0.0000
     atom:    4    charge:    5.9326    magn:    0.9834    constr:    0.0000
     atom:    5    charge:    6.0471    magn:    0.9727    constr:    0.0000
     atom:    6    charge:    6.0468    magn:    0.9836    constr:    0.0000
     atom:    7    charge:    6.0461    magn:    0.9841    constr:    0.0000
     atom:    8    charge:    6.0488    magn:    0.9798    constr:    0.0000
     atom:    9    charge:    5.9629    magn:    0.8886    constr:    0.0000
     atom:   10    charge:    5.9623    magn:    0.8814    constr:    0.0000
     atom:   11    charge:    5.9624    magn:    0.8813    constr:    0.0000
     atom:   12    charge:    5.9545    magn:    0.8826    constr:    0.0000
     atom:   13    charge:    0.6369    magn:   -0.0087    constr:    0.0000
     atom:   14    charge:    0.3658    magn:    0.0025    constr:    0.0000

     total cpu time spent up to now is       97.8 secs

     total energy              =   -2548.86364870 Ry
     Harris-Foulkes estimate   =   -2595.74250408 Ry
     estimated scf accuracy    <     727.17184787 Ry

     total magnetization       =     5.26 Bohr mag/cell
     absolute magnetization    =     6.21 Bohr mag/cell

     iteration #  4     ecut=    36.75 Ry     beta=0.30
     Davidson diagonalization with overlap
     ethr =  1.00E-02,  avg # of iterations =  6.9

     negative rho (up, down):  9.023E-04 8.141E-04
 
     Adding external electric field

     Computed dipole along edir(3) : 
        Dipole               -0.1472 Ry au,         -0.3741 Debye
        Dipole field         -0.0005 Ry au
 
        Potential amp.        0.0440 Ry
        Total length         44.5928 bohr
 
 
     Adding external electric field

     Computed dipole along edir(3) : 
        Dipole               -0.1472 Ry au,         -0.3741 Debye
        Dipole field         -0.0005 Ry au
 
        Potential amp.        0.0440 Ry
        Total length         44.5928 bohr
 
 
     Magnetic moment per site:
     atom:    1    charge:    5.9868    magn:    0.9751    constr:    0.0000
     atom:    2    charge:    5.9868    magn:    0.9742    constr:    0.0000
     atom:    3    charge:    5.9863    magn:    0.9739    constr:    0.0000
     atom:    4    charge:    5.9872    magn:    0.9721    constr:    0.0000
     atom:    5    charge:    5.9683    magn:    0.9312    constr:    0.0000
     atom:    6    charge:    5.9683    magn:    0.9419    constr:    0.0000
     atom:    7    charge:    5.9678    magn:    0.9426    constr:    0.0000
     atom:    8    charge:    5.9699    magn:    0.9380    constr:    0.0000
     atom:    9    charge:    6.0430    magn:    0.8537    constr:    0.0000
     atom:   10    charge:    6.0336    magn:    0.8499    constr:    0.0000
     atom:   11    charge:    6.0336    magn:    0.8499    constr:    0.0000
     atom:   12    charge:    6.0336    magn:    0.8488    constr:    0.0000
     atom:   13    charge:    0.6219    magn:   -0.0088    constr:    0.0000
     atom:   14    charge:    0.3674    magn:    0.0020    constr:    0.0000

     total cpu time spent up to now is      124.6 secs

     total energy              =   -2552.43390590 Ry
     Harris-Foulkes estimate   =   -2562.84639666 Ry
     estimated scf accuracy    <     131.46629603 Ry

     total magnetization       =     9.74 Bohr mag/cell
     absolute magnetization    =    10.30 Bohr mag/cell

     iteration #  5     ecut=    36.75 Ry     beta=0.30
     Davidson diagonalization with overlap
     ethr =  1.00E-02,  avg # of iterations =  6.2

     negative rho (up, down):  9.138E-04 8.240E-04
 
     Adding external electric field

     Computed dipole along edir(3) : 
        Dipole               -0.7818 Ry au,         -1.9872 Debye
        Dipole field         -0.0026 Ry au
 
        Potential amp.        0.2338 Ry
        Total length         44.5928 bohr
 
 
     Adding external electric field

     Computed dipole along edir(3) : 
        Dipole               -0.7818 Ry au,         -1.9872 Debye
        Dipole field         -0.0026 Ry au
 
        Potential amp.        0.2338 Ry
        Total length         44.5928 bohr
 
 
     Magnetic moment per site:
     atom:    1    charge:    5.9923    magn:    0.9382    constr:    0.0000
     atom:    2    charge:    5.9919    magn:    0.9373    constr:    0.0000
     atom:    3    charge:    5.9951    magn:    0.9395    constr:    0.0000
     atom:    4    charge:    5.9917    magn:    0.9328    constr:    0.0000
     atom:    5    charge:    5.9859    magn:    0.8243    constr:    0.0000
     atom:    6    charge:    5.9866    magn:    0.8345    constr:    0.0000
     atom:    7    charge:    5.9888    magn:    0.8336    constr:    0.0000
     atom:    8    charge:    5.9793    magn:    0.8358    constr:    0.0000
     atom:    9    charge:    6.0168    magn:    0.8115    constr:    0.0000
     atom:   10    charge:    6.0063    magn:    0.7930    constr:    0.0000
     atom:   11    charge:    6.0054    magn:    0.7922    constr:    0.0000
     atom:   12    charge:    6.0238    magn:    0.7933    constr:    0.0000
     atom:   13    charge:    0.5970    magn:   -0.0161    constr:    0.0000
     atom:   14    charge:    0.3772    magn:   -0.0012    constr:    0.0000

     total cpu time spent up to now is      145.3 secs

     total energy              =   -2556.08085411 Ry
     Harris-Foulkes estimate   =   -2558.44894845 Ry
     estimated scf accuracy    <      38.01524589 Ry

     total magnetization       =    18.03 Bohr mag/cell
     absolute magnetization    =    18.93 Bohr mag/cell

     iteration #  6     ecut=    36.75 Ry     beta=0.30
     Davidson diagonalization with overlap
     ethr =  1.00E-02,  avg # of iterations =  1.9

     negative rho (up, down):  8.025E-04 6.798E-04
 
     Adding external electric field

     Computed dipole along edir(3) : 
        Dipole               -1.0430 Ry au,         -2.6510 Debye
        Dipole field         -0.0035 Ry au
 
        Potential amp.        0.3119 Ry
        Total length         44.5928 bohr
 
 
     Adding external electric field

     Computed dipole along edir(3) : 
        Dipole               -1.0430 Ry au,         -2.6510 Debye
        Dipole field         -0.0035 Ry au
 
        Potential amp.        0.3119 Ry
        Total length         44.5928 bohr
 
 
     Magnetic moment per site:
     atom:    1    charge:    5.9929    magn:    0.8311    constr:    0.0000
     atom:    2    charge:    5.9907    magn:    0.8283    constr:    0.0000
     atom:    3    charge:    5.9883    magn:    0.8314    constr:    0.0000
     atom:    4    charge:    5.9888    magn:    0.8230    constr:    0.0000
     atom:    5    charge:    5.9868    magn:    0.7777    constr:    0.0000
     atom:    6    charge:    5.9866    magn:    0.7947    constr:    0.0000
     atom:    7    charge:    5.9820    magn:    0.7946    constr:    0.0000
     atom:    8    charge:    6.0017    magn:    0.7903    constr:    0.0000
     atom:    9    charge:    6.0051    magn:    0.7657    constr:    0.0000
     atom:   10    charge:    6.0087    magn:    0.7383    constr:    0.0000
     atom:   11    charge:    6.0109    magn:    0.7376    constr:    0.0000
     atom:   12    charge:    5.9686    magn:    0.7336    constr:    0.0000
     atom:   13    charge:    0.5851    magn:   -0.0225    constr:    0.0000
     atom:   14    charge:    0.3855    magn:   -0.0031    constr:    0.0000

     total cpu time spent up to now is      156.0 secs

     total energy              =   -2557.01410625 Ry
     Harris-Foulkes estimate   =   -2557.58688741 Ry
     estimated scf accuracy    <      15.06222386 Ry

     total magnetization       =    16.00 Bohr mag/cell
     absolute magnetization    =    17.19 Bohr mag/cell

     iteration #  7     ecut=    36.75 Ry     beta=0.30
     Davidson diagonalization with overlap
     ethr =  8.14E-03,  avg # of iterations =  2.1

     negative rho (up, down):  9.038E-04 7.231E-04
 
     Adding external electric field

     Computed dipole along edir(3) : 
        Dipole               -1.0582 Ry au,         -2.6897 Debye
        Dipole field         -0.0035 Ry au
 
        Potential amp.        0.3165 Ry
        Total length         44.5928 bohr
 
 
     Adding external electric field

     Computed dipole along edir(3) : 
        Dipole               -1.0582 Ry au,         -2.6897 Debye
        Dipole field         -0.0035 Ry au
 
        Potential amp.        0.3165 Ry
        Total length         44.5928 bohr
 
 
     Magnetic moment per site:
     atom:    1    charge:    5.9888    magn:    0.7850    constr:    0.0000
     atom:    2    charge:    5.9879    magn:    0.7810    constr:    0.0000
     atom:    3    charge:    5.9863    magn:    0.7850    constr:    0.0000
     atom:    4    charge:    5.9876    magn:    0.7741    constr:    0.0000
     atom:    5    charge:    5.9891    magn:    0.7518    constr:    0.0000
     atom:    6    charge:    5.9902    magn:    0.7738    constr:    0.0000
     atom:    7    charge:    5.9938    magn:    0.7745    constr:    0.0000
     atom:    8    charge:    5.9712    magn:    0.7581    constr:    0.0000
     atom:    9    charge:    5.9945    magn:    0.7362    constr:    0.0000
     atom:   10    charge:    5.9861    magn:    0.7045    constr:    0.0000
     atom:   11    charge:    5.9858    magn:    0.7044    constr:    0.0000
     atom:   12    charge:    5.9922    magn:    0.6839    constr:    0.0000
     atom:   13    charge:    0.5837    magn:   -0.0275    constr:    0.0000
     atom:   14    charge:    0.3898    magn:   -0.0046    constr:    0.0000

     total cpu time spent up to now is      167.1 secs

     total energy              =   -2557.45924686 Ry
     Harris-Foulkes estimate   =   -2557.69352677 Ry
     estimated scf accuracy    <       3.40631140 Ry

     total magnetization       =    15.53 Bohr mag/cell
     absolute magnetization    =    16.52 Bohr mag/cell

     iteration #  8     ecut=    36.75 Ry     beta=0.30
     Davidson diagonalization with overlap
     ethr =  1.84E-03,  avg # of iterations =  5.3

     negative rho (up, down):  1.026E-03 7.537E-04
 
     Adding external electric field

     Computed dipole along edir(3) : 
        Dipole               -0.9868 Ry au,         -2.5082 Debye
        Dipole field         -0.0033 Ry au
 
        Potential amp.        0.2951 Ry
        Total length         44.5928 bohr
 
 
     Adding external electric field

     Computed dipole along edir(3) : 
        Dipole               -0.9868 Ry au,         -2.5082 Debye
        Dipole field         -0.0033 Ry au
 
        Potential amp.        0.2951 Ry
        Total length         44.5928 bohr
 
 
     Magnetic moment per site:
     atom:    1    charge:    5.9863    magn:    0.7505    constr:    0.0000
     atom:    2    charge:    5.9878    magn:    0.7469    constr:    0.0000
     atom:    3    charge:    5.9867    magn:    0.7512    constr:    0.0000
     atom:    4    charge:    5.9883    magn:    0.7394    constr:    0.0000
     atom:    5    charge:    5.9754    magn:    0.7108    constr:    0.0000
     atom:    6    charge:    5.9756    magn:    0.7382    constr:    0.0000
     atom:    7    charge:    5.9709    magn:    0.7345    constr:    0.0000
     atom:    8    charge:    5.9891    magn:    0.7314    constr:    0.0000
     atom:    9    charge:    5.9887    magn:    0.7177    constr:    0.0000
     atom:   10    charge:    5.9730    magn:    0.6745    constr:    0.0000
     atom:   11    charge:    5.9719    magn:    0.6745    constr:    0.0000
     atom:   12    charge:    5.9947    magn:    0.6515    constr:    0.0000
     atom:   13    charge:    0.5873    magn:   -0.0319    constr:    0.0000
     atom:   14    charge:    0.3936    magn:   -0.0064    constr:    0.0000

     total cpu time spent up to now is      182.1 secs

     total energy              =   -2557.64749134 Ry
     Harris-Foulkes estimate   =   -2557.80837426 Ry
     estimated scf accuracy    <       4.57204359 Ry

     total magnetization       =    16.55 Bohr mag/cell
     absolute magnetization    =    17.29 Bohr mag/cell

     iteration #  9     ecut=    36.75 Ry     beta=0.30
     Davidson diagonalization with overlap
     ethr =  1.84E-03,  avg # of iterations =  1.1

     negative rho (up, down):  1.060E-03 7.591E-04
 
     Adding external electric field

     Computed dipole along edir(3) : 
        Dipole               -0.9058 Ry au,         -2.3024 Debye
        Dipole field         -0.0030 Ry au
 
        Potential amp.        0.2709 Ry
        Total length         44.5928 bohr
 
 
     Adding external electric field

     Computed dipole along edir(3) : 
        Dipole               -0.9058 Ry au,         -2.3024 Debye
        Dipole field         -0.0030 Ry au
 
        Potential amp.        0.2709 Ry
        Total length         44.5928 bohr
 
 
     Magnetic moment per site:
     atom:    1    charge:    5.9882    magn:    0.7126    constr:    0.0000
     atom:    2    charge:    5.9881    magn:    0.7116    constr:    0.0000
     atom:    3    charge:    5.9871    magn:    0.7164    constr:    0.0000
     atom:    4    charge:    5.9897    magn:    0.7034    constr:    0.0000
     atom:    5    charge:    5.9702    magn:    0.6526    constr:    0.0000
     atom:    6    charge:    5.9704    magn:    0.6863    constr:    0.0000
     atom:    7    charge:    5.9672    magn:    0.6716    constr:    0.0000
     atom:    8    charge:    5.9700    magn:    0.7026    constr:    0.0000
     atom:    9    charge:    5.9822    magn:    0.7062    constr:    0.0000
     atom:   10    charge:    5.9773    magn:    0.6398    constr:    0.0000
     atom:   11    charge:    5.9770    magn:    0.6392    constr:    0.0000
     atom:   12    charge:    5.9769    magn:    0.6281    constr:    0.0000
     atom:   13    charge:    0.5914    magn:   -0.0355    constr:    0.0000
     atom:   14    charge:    0.3966    magn:   -0.0082    constr:    0.0000

     total cpu time spent up to now is      192.0 secs

     total energy              =   -2557.63705680 Ry
     Harris-Foulkes estimate   =   -2557.73184152 Ry
     estimated scf accuracy    <       2.64956359 Ry

     total magnetization       =    15.93 Bohr mag/cell
     absolute magnetization    =    16.63 Bohr mag/cell

     iteration # 10     ecut=    36.75 Ry     beta=0.30
     Davidson diagonalization with overlap
     ethr =  1.43E-03,  avg # of iterations =  1.2

     negative rho (up, down):  1.006E-03 7.555E-04
 
     Adding external electric field

     Computed dipole along edir(3) : 
        Dipole               -0.8847 Ry au,         -2.2487 Debye
        Dipole field         -0.0030 Ry au
 
        Potential amp.        0.2646 Ry
        Total length         44.5928 bohr
 
 
     Adding external electric field

     Computed dipole along edir(3) : 
        Dipole               -0.8847 Ry au,         -2.2487 Debye
        Dipole field         -0.0030 Ry au
 
        Potential amp.        0.2646 Ry
        Total length         44.5928 bohr
 
 
     Magnetic moment per site:
     atom:    1    charge:    5.9918    magn:    0.6898    constr:    0.0000
     atom:    2    charge:    5.9917    magn:    0.6909    constr:    0.0000
     atom:    3    charge:    5.9907    magn:    0.6956    constr:    0.0000
     atom:    4    charge:    5.9899    magn:    0.6838    constr:    0.0000
     atom:    5    charge:    5.9655    magn:    0.5895    constr:    0.0000
     atom:    6    charge:    5.9683    magn:    0.6288    constr:    0.0000
     atom:    7    charge:    5.9675    magn:    0.5981    constr:    0.0000
     atom:    8    charge:    5.9735    magn:    0.6752    constr:    0.0000
     atom:    9    charge:    5.9919    magn:    0.7085    constr:    0.0000
     atom:   10    charge:    5.9775    magn:    0.6253    constr:    0.0000
     atom:   11    charge:    5.9785    magn:    0.6244    constr:    0.0000
     atom:   12    charge:    5.9807    magn:    0.6163    constr:    0.0000
     atom:   13    charge:    0.5908    magn:   -0.0357    constr:    0.0000
     atom:   14    charge:    0.3969    magn:   -0.0091    constr:    0.0000

     total cpu time spent up to now is      202.1 secs

     total energy              =   -2557.66487063 Ry
     Harris-Foulkes estimate   =   -2557.69673966 Ry
     estimated scf accuracy    <       0.92396600 Ry

     total magnetization       =    15.98 Bohr mag/cell
     absolute magnetization    =    16.63 Bohr mag/cell

     iteration # 11     ecut=    36.75 Ry     beta=0.30
     Davidson diagonalization with overlap
     ethr =  4.99E-04,  avg # of iterations =  5.6

     negative rho (up, down):  9.118E-04 7.616E-04
 
     Adding external electric field

     Computed dipole along edir(3) : 
        Dipole               -0.8420 Ry au,         -2.1402 Debye
        Dipole field         -0.0028 Ry au
 
        Potential amp.        0.2518 Ry
        Total length         44.5928 bohr
 
 
     Adding external electric field

     Computed dipole along edir(3) : 
        Dipole               -0.8420 Ry au,         -2.1402 Debye
        Dipole field         -0.0028 Ry au
 
        Potential amp.        0.2518 Ry
        Total length         44.5928 bohr
 
 
     Magnetic moment per site:
     atom:    1    charge:    5.9886    magn:    0.6766    constr:    0.0000
     atom:    2    charge:    5.9890    magn:    0.6772    constr:    0.0000
     atom:    3    charge:    5.9900    magn:    0.6820    constr:    0.0000
     atom:    4    charge:    5.9939    magn:    0.6720    constr:    0.0000
     atom:    5    charge:    5.9777    magn:    0.5522    constr:    0.0000
     atom:    6    charge:    5.9734    magn:    0.5957    constr:    0.0000
     atom:    7    charge:    5.9706    magn:    0.5613    constr:    0.0000
     atom:    8    charge:    5.9766    magn:    0.6491    constr:    0.0000
     atom:    9    charge:    5.9888    magn:    0.7075    constr:    0.0000
     atom:   10    charge:    5.9857    magn:    0.6111    constr:    0.0000
     atom:   11    charge:    5.9847    magn:    0.6101    constr:    0.0000
     atom:   12    charge:    5.9870    magn:    0.6018    constr:    0.0000
     atom:   13    charge:    0.5891    magn:   -0.0374    constr:    0.0000
     atom:   14    charge:    0.3964    magn:   -0.0098    constr:    0.0000

     total cpu time spent up to now is      217.1 secs

     total energy              =   -2557.73065347 Ry
     Harris-Foulkes estimate   =   -2557.76195192 Ry
     estimated scf accuracy    <       1.29572173 Ry

     total magnetization       =    15.88 Bohr mag/cell
     absolute magnetization    =    16.71 Bohr mag/cell

     iteration # 12     ecut=    36.75 Ry     beta=0.30
     Davidson diagonalization with overlap
     ethr =  4.99E-04,  avg # of iterations =  1.0

     negative rho (up, down):  8.832E-04 7.649E-04
 
     Adding external electric field

     Computed dipole along edir(3) : 
        Dipole               -0.7713 Ry au,         -1.9605 Debye
        Dipole field         -0.0026 Ry au
 
        Potential amp.        0.2307 Ry
        Total length         44.5928 bohr
 
 
     Adding external electric field

     Computed dipole along edir(3) : 
        Dipole               -0.7713 Ry au,         -1.9605 Debye
        Dipole field         -0.0026 Ry au
 
        Potential amp.        0.2307 Ry
        Total length         44.5928 bohr
 
 
     Magnetic moment per site:
     atom:    1    charge:    5.9883    magn:    0.6498    constr:    0.0000
     atom:    2    charge:    5.9880    magn:    0.6492    constr:    0.0000
     atom:    3    charge:    5.9878    magn:    0.6559    constr:    0.0000
     atom:    4    charge:    5.9871    magn:    0.6516    constr:    0.0000
     atom:    5    charge:    5.9824    magn:    0.5157    constr:    0.0000
     atom:    6    charge:    5.9854    magn:    0.5587    constr:    0.0000
     atom:    7    charge:    5.9838    magn:    0.5245    constr:    0.0000
     atom:    8    charge:    5.9795    magn:    0.6069    constr:    0.0000
     atom:    9    charge:    5.9963    magn:    0.6922    constr:    0.0000
     atom:   10    charge:    5.9871    magn:    0.5894    constr:    0.0000
     atom:   11    charge:    5.9865    magn:    0.5868    constr:    0.0000
     atom:   12    charge:    5.9858    magn:    0.5779    constr:    0.0000
     atom:   13    charge:    0.5864    magn:   -0.0417    constr:    0.0000
     atom:   14    charge:    0.3964    magn:   -0.0109    constr:    0.0000

     total cpu time spent up to now is      227.1 secs

     total energy              =   -2557.71195671 Ry
     Harris-Foulkes estimate   =   -2557.74987087 Ry
     estimated scf accuracy    <       0.48971517 Ry

     total magnetization       =    15.41 Bohr mag/cell
     absolute magnetization    =    16.25 Bohr mag/cell

     iteration # 13     ecut=    36.75 Ry     beta=0.30
     Davidson diagonalization with overlap
     ethr =  2.65E-04,  avg # of iterations =  6.2

     negative rho (up, down):  8.913E-04 7.680E-04
 
     Adding external electric field

     Computed dipole along edir(3) : 
        Dipole               -0.6496 Ry au,         -1.6512 Debye
        Dipole field         -0.0022 Ry au
 
        Potential amp.        0.1943 Ry
        Total length         44.5928 bohr
 
 
     Adding external electric field

     Computed dipole along edir(3) : 
        Dipole               -0.6496 Ry au,         -1.6512 Debye
        Dipole field         -0.0022 Ry au
 
        Potential amp.        0.1943 Ry
        Total length         44.5928 bohr
 
 
     Magnetic moment per site:
     atom:    1    charge:    5.9900    magn:    0.6320    constr:    0.0000
     atom:    2    charge:    5.9905    magn:    0.6312    constr:    0.0000
     atom:    3    charge:    5.9902    magn:    0.6387    constr:    0.0000
     atom:    4    charge:    5.9892    magn:    0.6376    constr:    0.0000
     atom:    5    charge:    5.9844    magn:    0.4781    constr:    0.0000
     atom:    6    charge:    5.9857    magn:    0.5241    constr:    0.0000
     atom:    7    charge:    5.9895    magn:    0.4906    constr:    0.0000
     atom:    8    charge:    5.9826    magn:    0.5756    constr:    0.0000
     atom:    9    charge:    5.9947    magn:    0.6772    constr:    0.0000
     atom:   10    charge:    5.9871    magn:    0.5604    constr:    0.0000
     atom:   11    charge:    5.9877    magn:    0.5572    constr:    0.0000
     atom:   12    charge:    5.9855    magn:    0.5514    constr:    0.0000
     atom:   13    charge:    0.5859    magn:   -0.0445    constr:    0.0000
     atom:   14    charge:    0.3967    magn:   -0.0117    constr:    0.0000

     total cpu time spent up to now is      243.2 secs

     total energy              =   -2557.75004965 Ry
     Harris-Foulkes estimate   =   -2557.78788587 Ry
     estimated scf accuracy    <       4.60816823 Ry

     total magnetization       =    14.92 Bohr mag/cell
     absolute magnetization    =    15.74 Bohr mag/cell

     iteration # 14     ecut=    36.75 Ry     beta=0.30
     Davidson diagonalization with overlap
     ethr =  2.65E-04,  avg # of iterations =  1.0

     negative rho (up, down):  8.990E-04 7.668E-04
 
     Adding external electric field

     Computed dipole along edir(3) : 
        Dipole               -0.5726 Ry au,         -1.4555 Debye
        Dipole field         -0.0019 Ry au
 
        Potential amp.        0.1713 Ry
        Total length         44.5928 bohr
 
 
     Adding external electric field

     Computed dipole along edir(3) : 
        Dipole               -0.5726 Ry au,         -1.4555 Debye
        Dipole field         -0.0019 Ry au
 
        Potential amp.        0.1713 Ry
        Total length         44.5928 bohr
 
 
     Magnetic moment per site:
     atom:    1    charge:    5.9922    magn:    0.6256    constr:    0.0000
     atom:    2    charge:    5.9910    magn:    0.6251    constr:    0.0000
     atom:    3    charge:    5.9915    magn:    0.6326    constr:    0.0000
     atom:    4    charge:    5.9911    magn:    0.6322    constr:    0.0000
     atom:    5    charge:    5.9841    magn:    0.4533    constr:    0.0000
     atom:    6    charge:    5.9853    magn:    0.5025    constr:    0.0000
     atom:    7    charge:    5.9845    magn:    0.4714    constr:    0.0000
     atom:    8    charge:    5.9829    magn:    0.5602    constr:    0.0000
     atom:    9    charge:    5.9952    magn:    0.6639    constr:    0.0000
     atom:   10    charge:    5.9847    magn:    0.5375    constr:    0.0000
     atom:   11    charge:    5.9849    magn:    0.5351    constr:    0.0000
     atom:   12    charge:    5.9826    magn:    0.5306    constr:    0.0000
     atom:   13    charge:    0.5865    magn:   -0.0459    constr:    0.0000
     atom:   14    charge:    0.3971    magn:   -0.0119    constr:    0.0000

     total cpu time spent up to now is      253.1 secs

     total energy              =   -2557.73075025 Ry
     Harris-Foulkes estimate   =   -2557.76302623 Ry
     estimated scf accuracy    <       1.52373082 Ry

     total magnetization       =    14.37 Bohr mag/cell
     absolute magnetization    =    15.24 Bohr mag/cell

     iteration # 15     ecut=    36.75 Ry     beta=0.30
     Davidson diagonalization with overlap
     ethr =  2.65E-04,  avg # of iterations =  3.9

     negative rho (up, down):  8.993E-04 7.759E-04
 
     Adding external electric field

     Computed dipole along edir(3) : 
        Dipole               -0.4856 Ry au,         -1.2344 Debye
        Dipole field         -0.0016 Ry au
 
        Potential amp.        0.1452 Ry
        Total length         44.5928 bohr
 
 
     Adding external electric field

     Computed dipole along edir(3) : 
        Dipole               -0.4856 Ry au,         -1.2344 Debye
        Dipole field         -0.0016 Ry au
 
        Potential amp.        0.1452 Ry
        Total length         44.5928 bohr
 
 
     Magnetic moment per site:
     atom:    1    charge:    5.9896    magn:    0.6089    constr:    0.0000
     atom:    2    charge:    5.9914    magn:    0.6085    constr:    0.0000
     atom:    3    charge:    5.9906    magn:    0.6159    constr:    0.0000
     atom:    4    charge:    5.9897    magn:    0.6163    constr:    0.0000
     atom:    5    charge:    5.9819    magn:    0.4018    constr:    0.0000
     atom:    6    charge:    5.9827    magn:    0.4588    constr:    0.0000
     atom:    7    charge:    5.9850    magn:    0.4269    constr:    0.0000
     atom:    8    charge:    5.9854    magn:    0.5283    constr:    0.0000
     atom:    9    charge:    5.9941    magn:    0.6570    constr:    0.0000
     atom:   10    charge:    5.9850    magn:    0.5099    constr:    0.0000
     atom:   11    charge:    5.9842    magn:    0.5077    constr:    0.0000
     atom:   12    charge:    5.9819    magn:    0.5055    constr:    0.0000
     atom:   13    charge:    0.5872    magn:   -0.0474    constr:    0.0000
     atom:   14    charge:    0.3971    magn:   -0.0123    constr:    0.0000

     total cpu time spent up to now is      266.3 secs

     total energy              =   -2557.76216552 Ry
     Harris-Foulkes estimate   =   -2557.77007966 Ry
     estimated scf accuracy    <       1.16743208 Ry

     total magnetization       =    14.25 Bohr mag/cell
     absolute magnetization    =    15.09 Bohr mag/cell

     iteration # 16     ecut=    36.75 Ry     beta=0.30
     Davidson diagonalization with overlap
     ethr =  2.65E-04,  avg # of iterations =  1.0

     negative rho (up, down):  9.173E-04 7.914E-04
 
     Adding external electric field

     Computed dipole along edir(3) : 
        Dipole               -0.4462 Ry au,         -1.1341 Debye
        Dipole field         -0.0015 Ry au
 
        Potential amp.        0.1335 Ry
        Total length         44.5928 bohr
 
 
     Adding external electric field

     Computed dipole along edir(3) : 
        Dipole               -0.4462 Ry au,         -1.1341 Debye
        Dipole field         -0.0015 Ry au
 
        Potential amp.        0.1335 Ry
        Total length         44.5928 bohr
 
 
     Magnetic moment per site:
     atom:    1    charge:    5.9928    magn:    0.5889    constr:    0.0000
     atom:    2    charge:    5.9886    magn:    0.5912    constr:    0.0000
     atom:    3    charge:    5.9910    magn:    0.5974    constr:    0.0000
     atom:    4    charge:    5.9889    magn:    0.5987    constr:    0.0000
     atom:    5    charge:    5.9814    magn:    0.3573    constr:    0.0000
     atom:    6    charge:    5.9844    magn:    0.4208    constr:    0.0000
     atom:    7    charge:    5.9843    magn:    0.3895    constr:    0.0000
     atom:    8    charge:    5.9857    magn:    0.5025    constr:    0.0000
     atom:    9    charge:    5.9927    magn:    0.6603    constr:    0.0000
     atom:   10    charge:    5.9830    magn:    0.4953    constr:    0.0000
     atom:   11    charge:    5.9874    magn:    0.4913    constr:    0.0000
     atom:   12    charge:    5.9842    magn:    0.4934    constr:    0.0000
     atom:   13    charge:    0.5867    magn:   -0.0473    constr:    0.0000
     atom:   14    charge:    0.3968    magn:   -0.0123    constr:    0.0000

     total cpu time spent up to now is      276.2 secs

     total energy              =   -2557.76647582 Ry
     Harris-Foulkes estimate   =   -2557.76721980 Ry
     estimated scf accuracy    <       0.48932336 Ry

     total magnetization       =    13.70 Bohr mag/cell
     absolute magnetization    =    14.52 Bohr mag/cell

     iteration # 17     ecut=    36.75 Ry     beta=0.30
     Davidson diagonalization with overlap
     ethr =  2.64E-04,  avg # of iterations =  1.0

     negative rho (up, down):  9.475E-04 8.170E-04
 
     Adding external electric field

     Computed dipole along edir(3) : 
        Dipole               -0.3967 Ry au,         -1.0083 Debye
        Dipole field         -0.0013 Ry au
 
        Potential amp.        0.1186 Ry
        Total length         44.5928 bohr
 
 
     Adding external electric field

     Computed dipole along edir(3) : 
        Dipole               -0.3967 Ry au,         -1.0083 Debye
        Dipole field         -0.0013 Ry au
 
        Potential amp.        0.1186 Ry
        Total length         44.5928 bohr
 
 
     Magnetic moment per site:
     atom:    1    charge:    5.9883    magn:    0.5763    constr:    0.0000
     atom:    2    charge:    5.9892    magn:    0.5788    constr:    0.0000
     atom:    3    charge:    5.9885    magn:    0.5844    constr:    0.0000
     atom:    4    charge:    5.9884    magn:    0.5852    constr:    0.0000
     atom:    5    charge:    5.9824    magn:    0.3258    constr:    0.0000
     atom:    6    charge:    5.9836    magn:    0.3969    constr:    0.0000
     atom:    7    charge:    5.9819    magn:    0.3666    constr:    0.0000
     atom:    8    charge:    5.9850    magn:    0.4869    constr:    0.0000
     atom:    9    charge:    5.9948    magn:    0.6695    constr:    0.0000
     atom:   10    charge:    5.9854    magn:    0.4903    constr:    0.0000
     atom:   11    charge:    5.9850    magn:    0.4857    constr:    0.0000
     atom:   12    charge:    5.9841    magn:    0.4908    constr:    0.0000
     atom:   13    charge:    0.5865    magn:   -0.0460    constr:    0.0000
     atom:   14    charge:    0.3962    magn:   -0.0119    constr:    0.0000

     total cpu time spent up to now is      286.2 secs

     total energy              =   -2557.76433459 Ry
     Harris-Foulkes estimate   =   -2557.77074401 Ry
     estimated scf accuracy    <       0.25997416 Ry

     total magnetization       =    13.21 Bohr mag/cell
     absolute magnetization    =    14.04 Bohr mag/cell

     iteration # 18     ecut=    36.75 Ry     beta=0.30
     Davidson diagonalization with overlap
     ethr =  1.41E-04,  avg # of iterations =  1.0

     negative rho (up, down):  1.022E-03 8.751E-04
 
     Adding external electric field

     Computed dipole along edir(3) : 
        Dipole               -0.3357 Ry au,         -0.8533 Debye
        Dipole field         -0.0011 Ry au
 
        Potential amp.        0.1004 Ry
        Total length         44.5928 bohr
 
 
     Adding external electric field

     Computed dipole along edir(3) : 
        Dipole               -0.3357 Ry au,         -0.8533 Debye
        Dipole field         -0.0011 Ry au
 
        Potential amp.        0.1004 Ry
        Total length         44.5928 bohr
 
 
     Magnetic moment per site:
     atom:    1    charge:    5.9895    magn:    0.5580    constr:    0.0000
     atom:    2    charge:    5.9868    magn:    0.5629    constr:    0.0000
     atom:    3    charge:    5.9898    magn:    0.5672    constr:    0.0000
     atom:    4    charge:    5.9887    magn:    0.5701    constr:    0.0000
     atom:    5    charge:    5.9813    magn:    0.2869    constr:    0.0000
     atom:    6    charge:    5.9822    magn:    0.3659    constr:    0.0000
     atom:    7    charge:    5.9831    magn:    0.3355    constr:    0.0000
     atom:    8    charge:    5.9825    magn:    0.4603    constr:    0.0000
     atom:    9    charge:    5.9938    magn:    0.6729    constr:    0.0000
     atom:   10    charge:    5.9862    magn:    0.4762    constr:    0.0000
     atom:   11    charge:    5.9825    magn:    0.4700    constr:    0.0000
     atom:   12    charge:    5.9840    magn:    0.4784    constr:    0.0000
     atom:   13    charge:    0.5858    magn:   -0.0461    constr:    0.0000
     atom:   14    charge:    0.3960    magn:   -0.0118    constr:    0.0000

     total cpu time spent up to now is      296.1 secs

     total energy              =   -2557.77213465 Ry
     Harris-Foulkes estimate   =   -2557.77079798 Ry
     estimated scf accuracy    <       0.03039059 Ry

     total magnetization       =    12.86 Bohr mag/cell
     absolute magnetization    =    13.67 Bohr mag/cell

     iteration # 19     ecut=    36.75 Ry     beta=0.30
     Davidson diagonalization with overlap
     ethr =  1.64E-05,  avg # of iterations =  7.8

     negative rho (up, down):  1.433E-03 1.237E-03
 
     Adding external electric field

     Computed dipole along edir(3) : 
        Dipole               -0.2693 Ry au,         -0.6845 Debye
        Dipole field         -0.0009 Ry au
 
        Potential amp.        0.0805 Ry
        Total length         44.5928 bohr
 
 
     Adding external electric field

     Computed dipole along edir(3) : 
        Dipole               -0.2693 Ry au,         -0.6845 Debye
        Dipole field         -0.0009 Ry au
 
        Potential amp.        0.0805 Ry
        Total length         44.5928 bohr
 
 
     Magnetic moment per site:
     atom:    1    charge:    5.9892    magn:    0.5375    constr:    0.0000
     atom:    2    charge:    5.9891    magn:    0.5440    constr:    0.0000
     atom:    3    charge:    5.9891    magn:    0.5471    constr:    0.0000
     atom:    4    charge:    5.9891    magn:    0.5522    constr:    0.0000
     atom:    5    charge:    5.9803    magn:    0.2333    constr:    0.0000
     atom:    6    charge:    5.9823    magn:    0.3230    constr:    0.0000
     atom:    7    charge:    5.9822    magn:    0.2912    constr:    0.0000
     atom:    8    charge:    5.9810    magn:    0.4258    constr:    0.0000
     atom:    9    charge:    5.9931    magn:    0.6761    constr:    0.0000
     atom:   10    charge:    5.9844    magn:    0.4557    constr:    0.0000
     atom:   11    charge:    5.9843    magn:    0.4489    constr:    0.0000
     atom:   12    charge:    5.9833    magn:    0.4607    constr:    0.0000
     atom:   13    charge:    0.5850    magn:   -0.0464    constr:    0.0000
     atom:   14    charge:    0.3959    magn:   -0.0117    constr:    0.0000

     total cpu time spent up to now is      316.6 secs

     total energy              =   -2557.77925274 Ry
     Harris-Foulkes estimate   =   -2557.77956462 Ry
     estimated scf accuracy    <       0.14134121 Ry

     total magnetization       =    12.53 Bohr mag/cell
     absolute magnetization    =    13.36 Bohr mag/cell

     iteration # 20     ecut=    36.75 Ry     beta=0.30
     Davidson diagonalization with overlap
     ethr =  1.64E-05,  avg # of iterations =  1.0

     negative rho (up, down):  1.693E-03 1.458E-03
 
     Adding external electric field

     Computed dipole along edir(3) : 
        Dipole               -0.2779 Ry au,         -0.7063 Debye
        Dipole field         -0.0009 Ry au
 
        Potential amp.        0.0831 Ry
        Total length         44.5928 bohr
 
 
     Adding external electric field

     Computed dipole along edir(3) : 
        Dipole               -0.2779 Ry au,         -0.7063 Debye
        Dipole field         -0.0009 Ry au
 
        Potential amp.        0.0831 Ry
        Total length         44.5928 bohr
 
 
     Magnetic moment per site:
     atom:    1    charge:    5.9897    magn:    0.5320    constr:    0.0000
     atom:    2    charge:    5.9886    magn:    0.5401    constr:    0.0000
     atom:    3    charge:    5.9899    magn:    0.5401    constr:    0.0000
     atom:    4    charge:    5.9887    magn:    0.5466    constr:    0.0000
     atom:    5    charge:    5.9810    magn:    0.2028    constr:    0.0000
     atom:    6    charge:    5.9818    magn:    0.3008    constr:    0.0000
     atom:    7    charge:    5.9820    magn:    0.2663    constr:    0.0000
     atom:    8    charge:    5.9823    magn:    0.4079    constr:    0.0000
     atom:    9    charge:    5.9941    magn:    0.6810    constr:    0.0000
     atom:   10    charge:    5.9849    magn:    0.4452    constr:    0.0000
     atom:   11    charge:    5.9856    magn:    0.4421    constr:    0.0000
     atom:   12    charge:    5.9823    magn:    0.4538    constr:    0.0000
     atom:   13    charge:    0.5851    magn:   -0.0461    constr:    0.0000
     atom:   14    charge:    0.3958    magn:   -0.0116    constr:    0.0000

     total cpu time spent up to now is      326.5 secs

     total energy              =   -2557.78252475 Ry
     Harris-Foulkes estimate   =   -2557.78122434 Ry
     estimated scf accuracy    <       0.05026245 Ry

     total magnetization       =    11.97 Bohr mag/cell
     absolute magnetization    =    12.86 Bohr mag/cell

     iteration # 21     ecut=    36.75 Ry     beta=0.30
     Davidson diagonalization with overlap
     ethr =  1.64E-05,  avg # of iterations =  3.6

     negative rho (up, down):  1.285E-03 1.080E-03
 
     Adding external electric field

     Computed dipole along edir(3) : 
        Dipole               -0.2952 Ry au,         -0.7504 Debye
        Dipole field         -0.0010 Ry au
 
        Potential amp.        0.0883 Ry
        Total length         44.5928 bohr
 
 
     Adding external electric field

     Computed dipole along edir(3) : 
        Dipole               -0.2952 Ry au,         -0.7504 Debye
        Dipole field         -0.0010 Ry au
 
        Potential amp.        0.0883 Ry
        Total length         44.5928 bohr
 
 
     Magnetic moment per site:
     atom:    1    charge:    5.9912    magn:    0.5454    constr:    0.0000
     atom:    2    charge:    5.9895    magn:    0.5542    constr:    0.0000
     atom:    3    charge:    5.9908    magn:    0.5525    constr:    0.0000
     atom:    4    charge:    5.9900    magn:    0.5586    constr:    0.0000
     atom:    5    charge:    5.9788    magn:    0.2203    constr:    0.0000
     atom:    6    charge:    5.9806    magn:    0.3186    constr:    0.0000
     atom:    7    charge:    5.9800    magn:    0.2817    constr:    0.0000
     atom:    8    charge:    5.9806    magn:    0.4223    constr:    0.0000
     atom:    9    charge:    5.9965    magn:    0.6900    constr:    0.0000
     atom:   10    charge:    5.9866    magn:    0.4587    constr:    0.0000
     atom:   11    charge:    5.9857    magn:    0.4580    constr:    0.0000
     atom:   12    charge:    5.9849    magn:    0.4676    constr:    0.0000
     atom:   13    charge:    0.5848    magn:   -0.0443    constr:    0.0000
     atom:   14    charge:    0.3956    magn:   -0.0111    constr:    0.0000

     total cpu time spent up to now is      338.8 secs

     total energy              =   -2557.78096373 Ry
     Harris-Foulkes estimate   =   -2557.78436022 Ry
     estimated scf accuracy    <       0.08843331 Ry

     total magnetization       =    11.68 Bohr mag/cell
     absolute magnetization    =    12.58 Bohr mag/cell

     iteration # 22     ecut=    36.75 Ry     beta=0.30
     Davidson diagonalization with overlap
     ethr =  1.64E-05,  avg # of iterations =  1.4

     negative rho (up, down):  1.716E-03 1.473E-03
 
     Adding external electric field

     Computed dipole along edir(3) : 
        Dipole               -0.2719 Ry au,         -0.6910 Debye
        Dipole field         -0.0009 Ry au
 
        Potential amp.        0.0813 Ry
        Total length         44.5928 bohr
 
 
     Adding external electric field

     Computed dipole along edir(3) : 
        Dipole               -0.2719 Ry au,         -0.6910 Debye
        Dipole field         -0.0009 Ry au
 
        Potential amp.        0.0813 Ry
        Total length         44.5928 bohr
 
 
     Magnetic moment per site:
     atom:    1    charge:    5.9903    magn:    0.5354    constr:    0.0000
     atom:    2    charge:    5.9891    magn:    0.5455    constr:    0.0000
     atom:    3    charge:    5.9905    magn:    0.5425    constr:    0.0000
     atom:    4    charge:    5.9895    magn:    0.5499    constr:    0.0000
     atom:    5    charge:    5.9790    magn:    0.1861    constr:    0.0000
     atom:    6    charge:    5.9808    magn:    0.2919    constr:    0.0000
     atom:    7    charge:    5.9803    magn:    0.2536    constr:    0.0000
     atom:    8    charge:    5.9805    magn:    0.4015    constr:    0.0000
     atom:    9    charge:    5.9947    magn:    0.6925    constr:    0.0000
     atom:   10    charge:    5.9854    magn:    0.4466    constr:    0.0000
     atom:   11    charge:    5.9848    magn:    0.4459    constr:    0.0000
     atom:   12    charge:    5.9837    magn:    0.4581    constr:    0.0000
     atom:   13    charge:    0.5853    magn:   -0.0443    constr:    0.0000
     atom:   14    charge:    0.3956    magn:   -0.0111    constr:    0.0000

     total cpu time spent up to now is      349.0 secs

     total energy              =   -2557.78452823 Ry
     Harris-Foulkes estimate   =   -2557.78265802 Ry
     estimated scf accuracy    <       0.05073612 Ry

     total magnetization       =    11.96 Bohr mag/cell
     absolute magnetization    =    12.84 Bohr mag/cell

     iteration # 23     ecut=    36.75 Ry     beta=0.30
     Davidson diagonalization with overlap
     ethr =  1.64E-05,  avg # of iterations =  1.0

     negative rho (up, down):  2.440E-03 2.142E-03
 
     Adding external electric field

     Computed dipole along edir(3) : 
        Dipole               -0.2398 Ry au,         -0.6095 Debye
        Dipole field         -0.0008 Ry au
 
        Potential amp.        0.0717 Ry
        Total length         44.5928 bohr
 
 
     Adding external electric field

     Computed dipole along edir(3) : 
        Dipole               -0.2398 Ry au,         -0.6095 Debye
        Dipole field         -0.0008 Ry au
 
        Potential amp.        0.0717 Ry
        Total length         44.5928 bohr
 
 
     Magnetic moment per site:
     atom:    1    charge:    5.9910    magn:    0.5263    constr:    0.0000
     atom:    2    charge:    5.9884    magn:    0.5377    constr:    0.0000
     atom:    3    charge:    5.9880    magn:    0.5332    constr:    0.0000
     atom:    4    charge:    5.9900    magn:    0.5420    constr:    0.0000
     atom:    5    charge:    5.9799    magn:    0.1404    constr:    0.0000
     atom:    6    charge:    5.9786    magn:    0.2570    constr:    0.0000
     atom:    7    charge:    5.9800    magn:    0.2170    constr:    0.0000
     atom:    8    charge:    5.9804    magn:    0.3751    constr:    0.0000
     atom:    9    charge:    5.9943    magn:    0.6975    constr:    0.0000
     atom:   10    charge:    5.9848    magn:    0.4324    constr:    0.0000
     atom:   11    charge:    5.9843    magn:    0.4313    constr:    0.0000
     atom:   12    charge:    5.9837    magn:    0.4478    constr:    0.0000
     atom:   13    charge:    0.5856    magn:   -0.0436    constr:    0.0000
     atom:   14    charge:    0.3956    magn:   -0.0109    constr:    0.0000

     total cpu time spent up to now is      358.9 secs

     total energy              =   -2557.78765317 Ry
     Harris-Foulkes estimate   =   -2557.78523023 Ry
     estimated scf accuracy    <       0.03549580 Ry

     total magnetization       =    11.64 Bohr mag/cell
     absolute magnetization    =    12.56 Bohr mag/cell

     iteration # 24     ecut=    36.75 Ry     beta=0.30
     Davidson diagonalization with overlap
     ethr =  1.64E-05,  avg # of iterations =  1.6

     negative rho (up, down):  2.055E-03 1.783E-03
 
     Adding external electric field

     Computed dipole along edir(3) : 
        Dipole               -0.2492 Ry au,         -0.6334 Debye
        Dipole field         -0.0008 Ry au
 
        Potential amp.        0.0745 Ry
        Total length         44.5928 bohr
 
 
     Adding external electric field

     Computed dipole along edir(3) : 
        Dipole               -0.2492 Ry au,         -0.6334 Debye
        Dipole field         -0.0008 Ry au
 
        Potential amp.        0.0745 Ry
        Total length         44.5928 bohr
 
 
     Magnetic moment per site:
     atom:    1    charge:    5.9896    magn:    0.5322    constr:    0.0000
     atom:    2    charge:    5.9888    magn:    0.5427    constr:    0.0000
     atom:    3    charge:    5.9901    magn:    0.5384    constr:    0.0000
     atom:    4    charge:    5.9890    magn:    0.5469    constr:    0.0000
     atom:    5    charge:    5.9788    magn:    0.1529    constr:    0.0000
     atom:    6    charge:    5.9800    magn:    0.2667    constr:    0.0000
     atom:    7    charge:    5.9802    magn:    0.2272    constr:    0.0000
     atom:    8    charge:    5.9813    magn:    0.3836    constr:    0.0000
     atom:    9    charge:    5.9952    magn:    0.6977    constr:    0.0000
     atom:   10    charge:    5.9853    magn:    0.4381    constr:    0.0000
     atom:   11    charge:    5.9849    magn:    0.4369    constr:    0.0000
     atom:   12    charge:    5.9843    magn:    0.4526    constr:    0.0000
     atom:   13    charge:    0.5853    magn:   -0.0433    constr:    0.0000
     atom:   14    charge:    0.3956    magn:   -0.0109    constr:    0.0000

     total cpu time spent up to now is      369.3 secs

     total energy              =   -2557.78703450 Ry
     Harris-Foulkes estimate   =   -2557.78909537 Ry
     estimated scf accuracy    <       0.03886492 Ry

     total magnetization       =    11.24 Bohr mag/cell
     absolute magnetization    =    12.21 Bohr mag/cell

     iteration # 25     ecut=    36.75 Ry     beta=0.30
     Davidson diagonalization with overlap
     ethr =  1.64E-05,  avg # of iterations =  1.1

     negative rho (up, down):  1.940E-03 1.686E-03
 
     Adding external electric field

     Computed dipole along edir(3) : 
        Dipole               -0.2524 Ry au,         -0.6415 Debye
        Dipole field         -0.0008 Ry au
 
        Potential amp.        0.0755 Ry
        Total length         44.5928 bohr
 
 
     Adding external electric field

     Computed dipole along edir(3) : 
        Dipole               -0.2524 Ry au,         -0.6415 Debye
        Dipole field         -0.0008 Ry au
 
        Potential amp.        0.0755 Ry
        Total length         44.5928 bohr
 
 
     Magnetic moment per site:
     atom:    1    charge:    5.9902    magn:    0.5344    constr:    0.0000
     atom:    2    charge:    5.9888    magn:    0.5456    constr:    0.0000
     atom:    3    charge:    5.9893    magn:    0.5397    constr:    0.0000
     atom:    4    charge:    5.9891    magn:    0.5493    constr:    0.0000
     atom:    5    charge:    5.9781    magn:    0.1281    constr:    0.0000
     atom:    6    charge:    5.9806    magn:    0.2496    constr:    0.0000
     atom:    7    charge:    5.9801    magn:    0.2083    constr:    0.0000
     atom:    8    charge:    5.9806    magn:    0.3707    constr:    0.0000
     atom:    9    charge:    5.9952    magn:    0.7044    constr:    0.0000
     atom:   10    charge:    5.9859    magn:    0.4333    constr:    0.0000
     atom:   11    charge:    5.9844    magn:    0.4328    constr:    0.0000
     atom:   12    charge:    5.9832    magn:    0.4510    constr:    0.0000
     atom:   13    charge:    0.5857    magn:   -0.0422    constr:    0.0000
     atom:   14    charge:    0.3955    magn:   -0.0106    constr:    0.0000

     total cpu time spent up to now is      379.3 secs

     total energy              =   -2557.78961106 Ry
     Harris-Foulkes estimate   =   -2557.78801548 Ry
     estimated scf accuracy    <       0.03206206 Ry

     total magnetization       =    11.36 Bohr mag/cell
     absolute magnetization    =    12.32 Bohr mag/cell

     iteration # 26     ecut=    36.75 Ry     beta=0.30
     Davidson diagonalization with overlap
     ethr =  1.64E-05,  avg # of iterations =  1.1

     negative rho (up, down):  2.699E-03 2.390E-03
 
     Adding external electric field

     Computed dipole along edir(3) : 
        Dipole               -0.2215 Ry au,         -0.5629 Debye
        Dipole field         -0.0007 Ry au
 
        Potential amp.        0.0662 Ry
        Total length         44.5928 bohr
 
 
     Adding external electric field

     Computed dipole along edir(3) : 
        Dipole               -0.2215 Ry au,         -0.5629 Debye
        Dipole field         -0.0007 Ry au
 
        Potential amp.        0.0662 Ry
        Total length         44.5928 bohr
 
 
     Magnetic moment per site:
     atom:    1    charge:    5.9896    magn:    0.5245    constr:    0.0000
     atom:    2    charge:    5.9886    magn:    0.5375    constr:    0.0000
     atom:    3    charge:    5.9902    magn:    0.5282    constr:    0.0000
     atom:    4    charge:    5.9890    magn:    0.5407    constr:    0.0000
     atom:    5    charge:    5.9788    magn:    0.0627    constr:    0.0000
     atom:    6    charge:    5.9793    magn:    0.2011    constr:    0.0000
     atom:    7    charge:    5.9794    magn:    0.1565    constr:    0.0000
     atom:    8    charge:    5.9792    magn:    0.3331    constr:    0.0000
     atom:    9    charge:    5.9953    magn:    0.7153    constr:    0.0000
     atom:   10    charge:    5.9848    magn:    0.4150    constr:    0.0000
     atom:   11    charge:    5.9846    magn:    0.4154    constr:    0.0000
     atom:   12    charge:    5.9839    magn:    0.4382    constr:    0.0000
     atom:   13    charge:    0.5855    magn:   -0.0410    constr:    0.0000
     atom:   14    charge:    0.3954    magn:   -0.0103    constr:    0.0000

     total cpu time spent up to now is      389.3 secs

     total energy              =   -2557.79312963 Ry
     Harris-Foulkes estimate   =   -2557.79021466 Ry
     estimated scf accuracy    <       0.02039897 Ry

     total magnetization       =    11.22 Bohr mag/cell
     absolute magnetization    =    12.23 Bohr mag/cell

     iteration # 27     ecut=    36.75 Ry     beta=0.30
     Davidson diagonalization with overlap
     ethr =  1.10E-05,  avg # of iterations =  6.7

     negative rho (up, down):  2.776E-03 2.437E-03
 
     Adding external electric field

     Computed dipole along edir(3) : 
        Dipole               -0.2224 Ry au,         -0.5652 Debye
        Dipole field         -0.0007 Ry au
 
        Potential amp.        0.0665 Ry
        Total length         44.5928 bohr
 
 
     Adding external electric field

     Computed dipole along edir(3) : 
        Dipole               -0.2224 Ry au,         -0.5652 Debye
        Dipole field         -0.0007 Ry au
 
        Potential amp.        0.0665 Ry
        Total length         44.5928 bohr
 
 
     Magnetic moment per site:
     atom:    1    charge:    5.9896    magn:    0.5245    constr:    0.0000
     atom:    2    charge:    5.9885    magn:    0.5376    constr:    0.0000
     atom:    3    charge:    5.9900    magn:    0.5280    constr:    0.0000
     atom:    4    charge:    5.9890    magn:    0.5407    constr:    0.0000
     atom:    5    charge:    5.9784    magn:    0.0572    constr:    0.0000
     atom:    6    charge:    5.9793    magn:    0.1974    constr:    0.0000
     atom:    7    charge:    5.9796    magn:    0.1524    constr:    0.0000
     atom:    8    charge:    5.9791    magn:    0.3304    constr:    0.0000
     atom:    9    charge:    5.9951    magn:    0.7171    constr:    0.0000
     atom:   10    charge:    5.9848    magn:    0.4143    constr:    0.0000
     atom:   11    charge:    5.9847    magn:    0.4147    constr:    0.0000
     atom:   12    charge:    5.9841    magn:    0.4380    constr:    0.0000
     atom:   13    charge:    0.5856    magn:   -0.0408    constr:    0.0000
     atom:   14    charge:    0.3954    magn:   -0.0103    constr:    0.0000

     total cpu time spent up to now is      406.5 secs

     total energy              =   -2557.79672278 Ry
     Harris-Foulkes estimate   =   -2557.79637275 Ry
     estimated scf accuracy    <       0.03604477 Ry

     total magnetization       =    10.69 Bohr mag/cell
     absolute magnetization    =    12.12 Bohr mag/cell

     iteration # 28     ecut=    36.75 Ry     beta=0.30
     Davidson diagonalization with overlap
     ethr =  1.10E-05,  avg # of iterations =  1.0

     negative rho (up, down):  3.233E-03 2.850E-03
 
     Adding external electric field

     Computed dipole along edir(3) : 
        Dipole               -0.2069 Ry au,         -0.5260 Debye
        Dipole field         -0.0007 Ry au
 
        Potential amp.        0.0619 Ry
        Total length         44.5928 bohr
 
 
     Adding external electric field

     Computed dipole along edir(3) : 
        Dipole               -0.2069 Ry au,         -0.5260 Debye
        Dipole field         -0.0007 Ry au
 
        Potential amp.        0.0619 Ry
        Total length         44.5928 bohr
 
 
     Magnetic moment per site:
     atom:    1    charge:    5.9895    magn:    0.5203    constr:    0.0000
     atom:    2    charge:    5.9882    magn:    0.5346    constr:    0.0000
     atom:    3    charge:    5.9900    magn:    0.5228    constr:    0.0000
     atom:    4    charge:    5.9889    magn:    0.5373    constr:    0.0000
     atom:    5    charge:    5.9780    magn:    0.0181    constr:    0.0000
     atom:    6    charge:    5.9788    magn:    0.1694    constr:    0.0000
     atom:    7    charge:    5.9793    magn:    0.1221    constr:    0.0000
     atom:    8    charge:    5.9787    magn:    0.3095    constr:    0.0000
     atom:    9    charge:    5.9952    magn:    0.7258    constr:    0.0000
     atom:   10    charge:    5.9848    magn:    0.4060    constr:    0.0000
     atom:   11    charge:    5.9849    magn:    0.4064    constr:    0.0000
     atom:   12    charge:    5.9841    magn:    0.4328    constr:    0.0000
     atom:   13    charge:    0.5856    magn:   -0.0397    constr:    0.0000
     atom:   14    charge:    0.3953    magn:   -0.0100    constr:    0.0000

     total cpu time spent up to now is      416.4 secs

     total energy              =   -2557.79963128 Ry
     Harris-Foulkes estimate   =   -2557.79685639 Ry
     estimated scf accuracy    <       0.03220451 Ry

     total magnetization       =    10.66 Bohr mag/cell
     absolute magnetization    =    12.11 Bohr mag/cell

     iteration # 29     ecut=    36.75 Ry     beta=0.30
     Davidson diagonalization with overlap
     ethr =  1.10E-05,  avg # of iterations =  1.0

     negative rho (up, down):  3.639E-03 3.204E-03
 
     Adding external electric field

     Computed dipole along edir(3) : 
        Dipole               -0.2031 Ry au,         -0.5164 Debye
        Dipole field         -0.0007 Ry au
 
        Potential amp.        0.0608 Ry
        Total length         44.5928 bohr
 
 
     Adding external electric field

     Computed dipole along edir(3) : 
        Dipole               -0.2031 Ry au,         -0.5164 Debye
        Dipole field         -0.0007 Ry au
 
        Potential amp.        0.0608 Ry
        Total length         44.5928 bohr
 
 
     Magnetic moment per site:
     atom:    1    charge:    5.9901    magn:    0.5159    constr:    0.0000
     atom:    2    charge:    5.9889    magn:    0.5310    constr:    0.0000
     atom:    3    charge:    5.9893    magn:    0.5183    constr:    0.0000
     atom:    4    charge:    5.9886    magn:    0.5335    constr:    0.0000
     atom:    5    charge:    5.9786    magn:    0.0028    constr:    0.0000
     atom:    6    charge:    5.9800    magn:    0.1569    constr:    0.0000
     atom:    7    charge:    5.9781    magn:    0.1091    constr:    0.0000
     atom:    8    charge:    5.9788    magn:    0.2991    constr:    0.0000
     atom:    9    charge:    5.9954    magn:    0.7268    constr:    0.0000
     atom:   10    charge:    5.9841    magn:    0.3995    constr:    0.0000
     atom:   11    charge:    5.9841    magn:    0.4008    constr:    0.0000
     atom:   12    charge:    5.9846    magn:    0.4274    constr:    0.0000
     atom:   13    charge:    0.5855    magn:   -0.0399    constr:    0.0000
     atom:   14    charge:    0.3953    magn:   -0.0100    constr:    0.0000

     total cpu time spent up to now is      426.2 secs

     total energy              =   -2557.80096988 Ry
     Harris-Foulkes estimate   =   -2557.80009256 Ry
     estimated scf accuracy    <       0.02847596 Ry

     total magnetization       =    10.37 Bohr mag/cell
     absolute magnetization    =    12.01 Bohr mag/cell

     iteration # 30     ecut=    36.75 Ry     beta=0.30
     Davidson diagonalization with overlap
     ethr =  1.10E-05,  avg # of iterations =  1.6

     negative rho (up, down):  4.050E-03 3.557E-03
 
     Adding external electric field

     Computed dipole along edir(3) : 
        Dipole               -0.1817 Ry au,         -0.4619 Debye
        Dipole field         -0.0006 Ry au
 
        Potential amp.        0.0544 Ry
        Total length         44.5928 bohr
 
 
     Adding external electric field

     Computed dipole along edir(3) : 
        Dipole               -0.1817 Ry au,         -0.4619 Debye
        Dipole field         -0.0006 Ry au
 
        Potential amp.        0.0544 Ry
        Total length         44.5928 bohr
 
 
     Magnetic moment per site:
     atom:    1    charge:    5.9894    magn:    0.5081    constr:    0.0000
     atom:    2    charge:    5.9923    magn:    0.5243    constr:    0.0000
     atom:    3    charge:    5.9881    magn:    0.5104    constr:    0.0000
     atom:    4    charge:    5.9888    magn:    0.5261    constr:    0.0000
     atom:    5    charge:    5.9783    magn:   -0.0187    constr:    0.0000
     atom:    6    charge:    5.9796    magn:    0.1367    constr:    0.0000
     atom:    7    charge:    5.9810    magn:    0.0866    constr:    0.0000
     atom:    8    charge:    5.9788    magn:    0.2820    constr:    0.0000
     atom:    9    charge:    5.9956    magn:    0.7283    constr:    0.0000
     atom:   10    charge:    5.9839    magn:    0.3890    constr:    0.0000
     atom:   11    charge:    5.9853    magn:    0.3918    constr:    0.0000
     atom:   12    charge:    5.9835    magn:    0.4188    constr:    0.0000
     atom:   13    charge:    0.5850    magn:   -0.0405    constr:    0.0000
     atom:   14    charge:    0.3952    magn:   -0.0101    constr:    0.0000

     total cpu time spent up to now is      436.7 secs

     total energy              =   -2557.80253005 Ry
     Harris-Foulkes estimate   =   -2557.80161124 Ry
     estimated scf accuracy    <       0.03387724 Ry

     total magnetization       =    10.21 Bohr mag/cell
     absolute magnetization    =    11.94 Bohr mag/cell

     iteration # 31     ecut=    36.75 Ry     beta=0.30
     Davidson diagonalization with overlap
     ethr =  1.10E-05,  avg # of iterations =  7.5

     negative rho (up, down):  4.219E-03 3.705E-03
 
     Adding external electric field

     Computed dipole along edir(3) : 
        Dipole               -0.1899 Ry au,         -0.4826 Debye
        Dipole field         -0.0006 Ry au
 
        Potential amp.        0.0568 Ry
        Total length         44.5928 bohr
 
 
     Adding external electric field

[...]
    -9.4371  -5.2866  -4.4356  -3.7756  -3.1692  -2.9147  -2.7141  -2.5662
    -2.3904  -2.2939  -2.2343  -2.0254  -1.9739  -1.9115  -1.7506  -1.6218
    -1.4391  -1.3406  -1.2751  -1.1778  -1.0972  -1.0389  -0.7533  -0.7324
    -0.5674  -0.4523  -0.3242  -0.1922  -0.0291   0.0550   0.1570   0.2324
     0.2907   0.3885   0.4921   0.5876   0.6737   0.8107   0.8281   0.8715
     0.9046   0.9491   1.0334   1.0949   1.2256   1.3630   1.4466   1.6414
     1.7618   1.8883   1.9015   1.9816   2.1576   2.2372

          k = 0.0324-0.0935-0.0000 ( 14076 PWs)   bands (ev):

   -79.4442 -79.3771 -79.1563 -79.1512 -78.3421 -77.3061 -77.2699 -76.6249
   -76.6091 -76.6000 -76.5931 -76.5774 -48.2637 -48.1628 -48.1461 -48.1037
   -48.0926 -48.0474 -47.9732 -47.9658 -47.8202 -47.8045 -47.7813 -47.7654
   -47.2539 -47.0830 -46.9373 -46.2662 -46.1947 -46.0657 -46.0130 -45.8933
   -45.8594 -45.5709 -45.5421 -45.4958 -45.4757 -45.4523 -45.3963 -45.3516
   -45.3477 -45.3040 -45.2972 -45.2846 -45.2800 -45.2740 -45.2682 -45.2559
    -9.4512  -5.1511  -4.5941  -3.7272  -3.2914  -2.9058  -2.6486  -2.5157
    -2.4114  -2.3416  -2.1713  -2.0463  -1.9192  -1.8393  -1.7932  -1.6921
    -1.4625  -1.3210  -1.2911  -1.1890  -1.1206  -1.0489  -0.7775  -0.6787
    -0.4976  -0.4059  -0.3066  -0.1843  -0.1577   0.0764   0.1390   0.2426
     0.3112   0.3592   0.4777   0.5896   0.7260   0.8135   0.8635   0.8870
     0.9183   0.9781   1.0443   1.0812   1.2151   1.4030   1.4257   1.5591
     1.7473   1.8614   1.9409   2.0297   2.1135   2.2268

          k = 0.0324-0.0561-0.0000 ( 14095 PWs)   bands (ev):

   -79.4459 -79.3764 -79.1603 -79.1462 -78.3423 -77.3078 -77.2681 -76.6393
   -76.5997 -76.5978 -76.5875 -76.5797 -48.2654 -48.1783 -48.1636 -48.1578
   -48.1128 -47.9973 -47.9752 -47.9586 -47.8348 -47.7838 -47.7497 -47.7469
   -47.2623 -47.0875 -46.9380 -46.2768 -46.1843 -46.0883 -45.9953 -45.8959
   -45.8529 -45.6105 -45.5817 -45.5807 -45.4656 -45.3946 -45.3419 -45.3315
   -45.3267 -45.3096 -45.3089 -45.2783 -45.2753 -45.2631 -45.2584 -45.2485
    -9.5477  -5.5075  -4.9170  -3.5406  -3.1560  -3.0684  -2.8936  -2.7618
    -2.6139  -2.5615  -2.5166  -2.3849  -2.2388  -1.8723  -1.7437  -1.5963
    -1.3248  -1.0872  -0.9781  -0.9274  -0.8199  -0.7451  -0.5929  -0.4552
    -0.4158  -0.3709  -0.3317  -0.2471  -0.2135  -0.0965   0.0446   0.1677
     0.2385   0.2646   0.5231   0.6740   0.8184   0.8812   0.9928   1.1715
     1.1994   1.2506   1.3010   1.4208   1.4478   1.4870   1.6115   1.7145
     1.8176   1.9847   2.0479   2.0860   2.2635   2.3933

          k = 0.0648-0.0374-0.0000 ( 14106 PWs)   bands (ev):

   -79.4455 -79.3763 -79.1610 -79.1460 -78.3422 -77.3076 -77.2684 -76.6354
   -76.6026 -76.5998 -76.5839 -76.5824 -48.2649 -48.1700 -48.1649 -48.1465
   -48.1038 -47.9957 -47.9777 -47.9593 -47.8513 -47.7809 -47.7739 -47.7363
   -47.2592 -47.0857 -46.9379 -46.2786 -46.1861 -46.0798 -45.9988 -45.8957
   -45.8533 -45.5949 -45.5901 -45.5433 -45.4711 -45.3835 -45.3822 -45.3431
   -45.3347 -45.3060 -45.3030 -45.2796 -45.2780 -45.2616 -45.2599 -45.2530
    -9.5119  -5.4323  -4.8337  -3.5223  -3.2440  -2.8880  -2.8431  -2.6343
    -2.6050  -2.5212  -2.4147  -2.3190  -2.1596  -1.9126  -1.8010  -1.4821
    -1.4049  -1.1197  -1.0946  -1.0138  -0.8335  -0.7808  -0.7257  -0.6311
    -0.4955  -0.3955  -0.2535  -0.1789  -0.1256  -0.0362   0.0534   0.1668
     0.2159   0.3372   0.5433   0.6327   0.7453   0.8298   0.9626   0.9881
     1.0492   1.1527   1.1814   1.2642   1.4296   1.4698   1.6292   1.6974
     1.7192   1.9519   2.0972   2.1461   2.2484   2.2921

          k = 0.0648-0.0000-0.0000 ( 14095 PWs)   bands (ev):

   -79.4471 -79.3742 -79.1671 -79.1403 -78.3422 -77.3110 -77.2649 -76.6394
   -76.5999 -76.5949 -76.5916 -76.5784 -48.2656 -48.1967 -48.1660 -48.1481
   -48.1030 -47.9871 -47.9561 -47.9434 -47.8900 -47.7888 -47.7819 -47.6970
   -47.2565 -47.0877 -46.9387 -46.3159 -46.1693 -46.0906 -45.9701 -45.9006
   -45.8404 -45.6110 -45.5830 -45.5791 -45.4769 -45.3939 -45.3403 -45.3308
   -45.3280 -45.3097 -45.3080 -45.2804 -45.2723 -45.2680 -45.2561 -45.2494
    -9.5224  -5.6161  -4.8930  -3.2513  -3.2072  -3.0943  -2.9154  -2.8267
    -2.6504  -2.5660  -2.5247  -2.3655  -2.2629  -1.9077  -1.7293  -1.5356
    -1.3633  -1.1152  -1.0222  -0.9321  -0.7683  -0.6912  -0.6164  -0.4879
    -0.4143  -0.3798  -0.2925  -0.2269  -0.1507  -0.0802   0.0443   0.0747
     0.1643   0.2747   0.5559   0.6641   0.7505   0.8181   1.0222   1.1025
     1.1974   1.2599   1.3000   1.4030   1.4378   1.5028   1.6094   1.7284
     1.8005   2.0263   2.0452   2.1941   2.2705   2.3778

          k = 0.0648 0.0374-0.0000 ( 14106 PWs)   bands (ev):

   -79.4474 -79.3729 -79.1701 -79.1383 -78.3421 -77.3125 -77.2633 -76.6357
   -76.6005 -76.6000 -76.5891 -76.5791 -48.2653 -48.2032 -48.1591 -48.1317
   -48.0853 -47.9954 -47.9511 -47.9243 -47.9146 -47.8095 -47.8018 -47.6830
   -47.2491 -47.0868 -46.9390 -46.3361 -46.1661 -46.0867 -45.9567 -45.9023
   -45.8336 -45.5951 -45.5909 -45.5426 -45.4883 -45.3865 -45.3779 -45.3417
   -45.3339 -45.3066 -45.3039 -45.2826 -45.2751 -45.2682 -45.2564 -45.2536
    -9.4715  -5.5675  -4.8181  -3.5229  -2.9946  -2.9356  -2.8331  -2.6346
    -2.6174  -2.5100  -2.4360  -2.2904  -2.2382  -1.9081  -1.7202  -1.6652
    -1.3878  -1.1267  -1.0940  -0.9579  -0.8738  -0.7252  -0.7179  -0.6587
    -0.4658  -0.2839  -0.2431  -0.1994  -0.1336  -0.0424  -0.0028   0.0349
     0.1758   0.2688   0.5794   0.6564   0.7707   0.8206   0.9257   1.0186
     1.0408   1.1310   1.2026   1.2262   1.2863   1.5460   1.6701   1.7027
     1.8363   2.0312   2.1316   2.1835   2.1916   2.3255

          k = 0.0648-0.1496-0.0000 ( 14076 PWs)   bands (ev):

   -79.4462 -79.3737 -79.1687 -79.1402 -78.3420 -77.3111 -77.2647 -76.6257
   -76.6060 -76.6002 -76.5962 -76.5765 -48.2642 -48.1796 -48.1570 -48.1145
   -48.0659 -48.0008 -47.9533 -47.9479 -47.9167 -47.8240 -47.8024 -47.7001
   -47.2445 -47.0838 -46.9384 -46.3275 -46.1718 -46.0757 -45.9656 -45.9008
   -45.8400 -45.5716 -45.5426 -45.4958 -45.4931 -45.4514 -45.3955 -45.3508
   -45.3459 -45.3046 -45.2987 -45.2834 -45.2791 -45.2748 -45.2734 -45.2546
    -9.4100  -5.3963  -4.4431  -3.6968  -3.1666  -2.8179  -2.6792  -2.5725
    -2.4212  -2.2833  -2.1871  -2.0648  -2.0269  -1.8775  -1.7757  -1.6901
    -1.4499  -1.3452  -1.2616  -1.1359  -1.0611  -1.0142  -0.8859  -0.7177
    -0.5474  -0.3746  -0.2973  -0.2230  -0.1025   0.0449   0.1588   0.2463
     0.2636   0.3308   0.4856   0.6143   0.6810   0.8043   0.8243   0.8760
     0.9030   0.9565   1.0230   1.1009   1.2258   1.3543   1.5149   1.6247
     1.7572   1.8648   1.9418   2.0221   2.1914   2.2259

          k = 0.0648-0.1122-0.0000 ( 14088 PWs)   bands (ev):

   -79.4446 -79.3758 -79.1632 -79.1453 -78.3420 -77.3078 -77.2681 -76.6153
   -76.6098 -76.6045 -76.6001 -76.5749 -48.2634 -48.1585 -48.1321 -48.1214
   -48.0752 -48.0108 -47.9873 -47.9585 -47.8800 -47.8120 -47.7869 -47.7413
   -47.2472 -47.0819 -46.9376 -46.2936 -46.1845 -46.0605 -45.9993 -45.8964
   -45.8532 -45.5208 -45.5199 -45.4862 -45.4739 -45.4720 -45.4676 -45.3489
   -45.3133 -45.3126 -45.3077 -45.2904 -45.2847 -45.2820 -45.2771 -45.2537
    -9.4013  -5.1969  -4.0239  -3.7533  -3.6337  -3.0277  -2.5603  -2.3916
    -2.3239  -2.1586  -2.0042  -1.9263  -1.7710  -1.6923  -1.6710  -1.6181
    -1.5866  -1.5418  -1.5250  -1.5038  -1.2317  -1.0898  -0.8088  -0.6805
    -0.4953  -0.4704  -0.4498  -0.2515  -0.1597   0.0427   0.1926   0.2193
     0.3430   0.4601   0.5878   0.6327   0.7012   0.7645   0.8446   0.8871
     0.9141   0.9454   0.9705   1.0535   1.0705   1.1132   1.3159   1.5580
     1.7130   1.7891   1.8427   1.9925   2.1022   2.2781

          k = 0.0648-0.0748-0.0000 ( 14076 PWs)   bands (ev):

   -79.4442 -79.3771 -79.1562 -79.1513 -78.3421 -77.3058 -77.2702 -76.6249
   -76.6091 -76.6000 -76.5931 -76.5774 -48.2637 -48.1627 -48.1459 -48.1041
   -48.0925 -48.0475 -47.9725 -47.9667 -47.8192 -47.8050 -47.7815 -47.7655
   -47.2546 -47.0828 -46.9373 -46.2603 -46.2000 -46.0530 -46.0267 -45.8926
   -45.8601 -45.5709 -45.5421 -45.4958 -45.4752 -45.4523 -45.3963 -45.3516
   -45.3475 -45.3040 -45.2972 -45.2846 -45.2799 -45.2740 -45.2682 -45.2559
    -9.4523  -5.1559  -4.5923  -3.7224  -3.2919  -2.9063  -2.6476  -2.5084
    -2.4136  -2.3419  -2.1736  -2.0497  -1.9224  -1.8348  -1.7976  -1.6895
    -1.4603  -1.3179  -1.2932  -1.1885  -1.1206  -1.0525  -0.7798  -0.6780
    -0.4938  -0.4053  -0.2994  -0.1856  -0.1565   0.0779   0.1391   0.2450
     0.3072   0.3612   0.4778   0.5887   0.7158   0.8167   0.8653   0.8865
     0.9172   0.9794   1.0433   1.0828   1.2180   1.3993   1.4305   1.5576
     1.7480   1.8598   1.9385   2.0298   2.1127   2.2273

          k =-0.0971 0.0561 0.0000 ( 14098 PWs)   bands (ev):

   -79.4442 -79.3771 -79.1560 -79.1515 -78.3421 -77.3056 -77.2704 -76.6201
   -76.6175 -76.6000 -76.5841 -76.5827 -48.2637 -48.1623 -48.1504 -48.1079
   -48.0879 -48.0390 -47.9715 -47.9690 -47.8255 -47.8165 -47.7682 -47.7650
   -47.2552 -47.0824 -46.9373 -46.2579 -46.2025 -46.0478 -46.0318 -45.8922
   -45.8605 -45.5697 -45.5643 -45.4762 -45.4403 -45.4399 -45.4088 -45.4076
   -45.3469 -45.2934 -45.2908 -45.2809 -45.2794 -45.2759 -45.2614 -45.2601
    -9.4516  -5.2310  -4.2998  -4.1492  -3.1386  -2.7470  -2.6808  -2.4156
    -2.3981  -2.2966  -2.1796  -2.1422  -1.9341  -1.8763  -1.8311  -1.7343
    -1.4408  -1.3381  -1.2177  -1.1656  -1.0849  -1.0466  -0.9597  -0.7755
    -0.5242  -0.3869  -0.2547  -0.0934   0.0057   0.0826   0.1861   0.2742
     0.3766   0.4293   0.4966   0.5889   0.6069   0.7129   0.7698   0.8371
     0.8579   0.8943   0.9531   0.9984   1.2018   1.4415   1.4829   1.7388
     1.8203   1.8608   1.9604   1.9952   2.0773   2.1252

          k =-0.0971 0.0935 0.0000 ( 14076 PWs)   bands (ev):

   -79.4449 -79.3760 -79.1624 -79.1455 -78.3421 -77.3076 -77.2684 -76.6252
   -76.6081 -76.6000 -76.5940 -76.5771 -48.2639 -48.1605 -48.1511 -48.1246
   -48.0880 -47.9995 -47.9841 -47.9595 -47.8735 -47.8015 -47.7825 -47.7379
   -47.2517 -47.0828 -46.9377 -46.2870 -46.1862 -46.0650 -46.0015 -45.8959
   -45.8535 -45.5712 -45.5420 -45.4962 -45.4813 -45.4514 -45.3962 -45.3517
   -45.3466 -45.3037 -45.2977 -45.2832 -45.2807 -45.2748 -45.2694 -45.2555
    -9.4387  -5.2920  -4.4350  -3.7712  -3.1662  -2.9092  -2.7121  -2.5664
    -2.3906  -2.2989  -2.2377  -2.0257  -1.9763  -1.9107  -1.7530  -1.6222
    -1.4309  -1.3382  -1.2742  -1.1787  -1.1001  -1.0436  -0.7550  -0.7309
    -0.5656  -0.4485  -0.3180  -0.1896  -0.0279   0.0581   0.1561   0.2336
     0.2918   0.3880   0.4921   0.5801   0.6732   0.8127   0.8250   0.8716
     0.9020   0.9490   1.0330   1.0965   1.2316   1.3651   1.4437   1.6403
     1.7590   1.8848   1.9007   1.9830   2.1571   2.2353

          k =-0.0971 0.1309 0.0000 ( 14076 PWs)   bands (ev):

   -79.4462 -79.3737 -79.1687 -79.1402 -78.3420 -77.3110 -77.2649 -76.6257
   -76.6060 -76.6002 -76.5962 -76.5765 -48.2642 -48.1795 -48.1570 -48.1143
   -48.0661 -48.0008 -47.9532 -47.9482 -47.9165 -47.8235 -47.8028 -47.7001
   -47.2448 -47.0837 -46.9384 -46.3263 -46.1718 -46.0749 -45.9677 -45.9008
   -45.8403 -45.5716 -45.5426 -45.4958 -45.4928 -45.4514 -45.3955 -45.3508
   -45.3457 -45.3046 -45.2987 -45.2834 -45.2791 -45.2748 -45.2733 -45.2546
    -9.4105  -5.3981  -4.4422  -3.6981  -3.1610  -2.8173  -2.6771  -2.5733
    -2.4231  -2.2888  -2.1895  -2.0617  -2.0275  -1.8782  -1.7723  -1.6908
    -1.4498  -1.3430  -1.2620  -1.1358  -1.0612  -1.0167  -0.8855  -0.7174
    -0.5462  -0.3717  -0.3011  -0.2192  -0.1008   0.0451   0.1613   0.2454
     0.2662   0.3294   0.4842   0.6128   0.6787   0.8034   0.8228   0.8756
     0.9027   0.9565   1.0232   1.1017   1.2297   1.3546   1.5142   1.6224
     1.7558   1.8641   1.9417   2.0243   2.1889   2.2254

          k =-0.0971-0.0561 0.0000 ( 14098 PWs)   bands (ev):

   -79.4468 -79.3726 -79.1711 -79.1383 -78.3420 -77.3125 -77.2633 -76.6232
   -76.6129 -76.6003 -76.5892 -76.5791 -48.2644 -48.1932 -48.1555 -48.1039
   -48.0485 -48.0139 -47.9505 -47.9331 -47.9225 -47.8427 -47.8130 -47.6852
   -47.2414 -47.0840 -46.9388 -46.3425 -46.1680 -46.0769 -45.9547 -45.9024
   -45.8333 -45.5709 -45.5644 -45.4998 -45.4450 -45.4336 -45.4123 -45.4027
   -45.3452 -45.2976 -45.2856 -45.2828 -45.2824 -45.2758 -45.2683 -45.2559
    -9.3951  -5.4510  -4.3061  -4.0679  -2.9337  -2.6365  -2.6291  -2.5060
    -2.3635  -2.2848  -2.1734  -2.1102  -2.0627  -1.9556  -1.8690  -1.7465
    -1.3870  -1.3590  -1.2304  -1.1568  -1.0656  -1.0159  -0.9854  -0.7847
    -0.5591  -0.3684  -0.2038  -0.1514  -0.0568   0.0209   0.1993   0.2795
     0.3430   0.3885   0.5096   0.6342   0.6415   0.6718   0.6996   0.8430
     0.8491   0.9220   0.9529   1.0516   1.1760   1.3379   1.6955   1.7991
     1.8219   1.8641   1.9215   1.9725   2.1064   2.1905

     the Fermi energy is     1.0374 ev

!    total energy              =   -2557.99760966 Ry
     Harris-Foulkes estimate   =   -2557.99760916 Ry
     estimated scf accuracy    <       0.00000009 Ry

     The total energy is the sum of the following terms:

     one-electron contribution =  -23302.27757049 Ry
     hartree contribution      =   11647.96963604 Ry
     xc contribution           =    -334.88740609 Ry
     ewald contribution        =    9431.30200358 Ry
     electric field correction =       0.00012564 Ry
     smearing contrib. (-TS)   =      -0.10439833 Ry

     total magnetization       =     8.00 Bohr mag/cell
     absolute magnetization    =    24.39 Bohr mag/cell

     convergence has been achieved in  17 iterations
 
 BEEF-vdW xc energy contributions
           1 :   -291.988253237458     
           2 :    264.001570756613     
           3 :   -217.076322609616     
           4 :    164.882642769707     
           5 :   -119.714016632311     
           6 :    88.0986664170023     
           7 :   -69.8057521475819     
           8 :    60.0046514231118     
           9 :   -52.8718200043411     
          10 :    44.5961636605700     
          11 :   -34.4907083232887     
          12 :    24.1563506316003     
          13 :   -15.6851554278203     
          14 :    10.1652871008461     
          15 :   -7.25046401336618     
          16 :    5.71273541261951     
          17 :   -4.34682866687575     
          18 :    2.58393547738331     
          19 :  -0.555174877783770     
          20 :   -1.25777958803411     
          21 :    2.44774827904502     
          22 :   -2.91708072102671     
          23 :    2.85896446784011     
          24 :   -2.59890959233155     
          25 :    2.43554991405318     
          26 :   -2.54630711590238     
          27 :    2.94621740274863     
          28 :   -3.49191363456487     
          29 :    3.94331850929495     
          30 :   -4.08611382867809     
          31 :   -26.9958054449939     
          32 :   -19.2476388548736     

     Forces acting on atoms (Ry/au):


     negative rho (up, down):  2.077E-03 1.881E-03
     atom    1 type  1   force =    -0.00055483   -0.00027750    0.01470674
     atom    2 type  1   force =     0.00234995   -0.00153393    0.01268209
     atom    3 type  1   force =    -0.00014048    0.00277365    0.01265588
     atom    4 type  1   force =     0.00054186    0.00030864    0.01493290
     atom    5 type  1   force =     0.00055809    0.00017143   -0.00220844
     atom    6 type  1   force =    -0.00049728    0.00598803   -0.02370086
     atom    7 type  1   force =     0.00498350   -0.00287051   -0.02284795
     atom    8 type  1   force =    -0.00819257   -0.00466000   -0.00478064
     atom    9 type  1   force =    -0.00009895    0.00014170   -0.00006862
     atom   10 type  1   force =     0.00098689   -0.00157387    0.00030695
     atom   11 type  1   force =    -0.00086344    0.00142175    0.00018086
     atom   12 type  1   force =    -0.00053042   -0.00024863    0.00136358
     atom   13 type  2   force =     0.00057024   -0.00017656   -0.00131004
     atom   14 type  3   force =     0.00088745    0.00053579   -0.00191245

     Total force =     0.003923     Total SCF correction =     0.000371


     entering subroutine stress ...


     negative rho (up, down):  2.077E-03 1.881E-03
          total   stress  (Ry/bohr**3)                   (kbar)     P=  -12.02
  -0.00007221   0.00002212  -0.00000047        -10.62      3.25     -0.07
   0.00002212  -0.00009467  -0.00000094          3.25    -13.93     -0.14
  -0.00000047  -0.00000094  -0.00007816         -0.07     -0.14    -11.50


     bfgs converged in  28 scf cycles and  27 bfgs steps
     (criteria: energy <  1.0E+00, force <  1.9E-03)

     End of BFGS Geometry Optimization

     Final energy   =   -2557.9976096626 Ry
Begin final coordinates

ATOMIC_POSITIONS (crystal)
Mn1     -0.000000000   0.000000000   0.413179627    0   0   0
Mn1     -0.000000000   0.500000000   0.413179627    0   0   0
Mn1      0.500000000   0.000000000   0.413179627    0   0   0
Mn1      0.500000000   0.500000000   0.413179627    0   0   0
Mn1      0.666666667   0.666666667   0.500000000    0   0   0
Mn1      0.666666667   0.166666667   0.500000000    0   0   0
Mn1      0.166666667   0.666666667   0.500000000    0   0   0
Mn1      0.166666667   0.166666667   0.500000000    0   0   0
Mn1      0.334106164   0.335006793   0.584098180
Mn1      0.345260642   0.838212927   0.587164881
Mn1      0.838366457   0.344223772   0.587047249
Mn1      0.868335607   0.869223698   0.581067271
C1       0.715235529   0.711075127   0.624442508
H1       0.488062985   0.487915586   0.624958276
End final coordinates



     Writing output data file calc.save
 
     init_run     :      6.09s CPU      6.29s WALL (       1 calls)
     electrons    :  19265.73s CPU  19667.38s WALL (      28 calls)
     update_pot   :     16.74s CPU     17.46s WALL (      27 calls)
     forces       :     82.64s CPU     84.16s WALL (      28 calls)
     stress       :    259.61s CPU    261.04s WALL (      28 calls)

     Called by init_run:
     wfcinit      :      4.91s CPU      5.03s WALL (       1 calls)
     potinit      :      0.38s CPU      0.43s WALL (       1 calls)

     Called by electrons:
     c_bands      :  16345.90s CPU  16647.08s WALL (    1173 calls)
     sum_band     :   2009.16s CPU   2056.43s WALL (    1173 calls)
     v_of_rho     :    297.80s CPU    334.81s WALL (    1200 calls)
     newd         :    384.43s CPU    386.27s WALL (    1200 calls)
     mix_rho      :     17.29s CPU     18.68s WALL (    1173 calls)
     vdW_energy   :    100.22s CPU    114.29s WALL (    2208 calls)
     vdW_ffts     :    123.95s CPU    138.54s WALL (    4472 calls)
     vdW_v        :     63.67s CPU     65.91s WALL (    2208 calls)

     Called by c_bands:
     init_us_2    :     93.56s CPU     95.45s WALL (   96120 calls)
     cegterg      :  15742.61s CPU  16038.49s WALL (   46920 calls)

     Called by *egterg:
     h_psi        :   6393.31s CPU   6559.38s WALL (  261084 calls)
     s_psi        :    739.68s CPU    742.02s WALL (  261084 calls)
     g_psi        :     30.72s CPU     31.02s WALL (  214124 calls)
     cdiaghg      :   5086.96s CPU   5179.80s WALL (  259924 calls)

     Called by h_psi:
     add_vuspsi   :    751.00s CPU    753.79s WALL (  261084 calls)

     General routines
     calbec       :   1171.97s CPU   1238.55s WALL (  310244 calls)
     fft          :    270.63s CPU    297.33s WALL (  163120 calls)
     ffts         :      2.22s CPU      2.37s WALL (    4746 calls)
     fftw         :   4779.98s CPU   4896.64s WALL (29011906 calls)
     interpolate  :      9.65s CPU     10.80s WALL (    4746 calls)
     davcio       :      0.01s CPU      0.03s WALL (      40 calls)
 
     Parallel routines
     fft_scatter  :   2218.97s CPU   2301.14s WALL (29179772 calls)
 
     PWSCF        :     5h27m CPU        5h34m WALL

 
   This run was terminated on:  13:23:44   9May2018            

=------------------------------------------------------------------------------=
   JOB DONE.
=------------------------------------------------------------------------------=
