  python dir          : /home/mamunm/src/espresso
  espresso dir        : /home/vossj/suncat/esdld/espresso-dynpy-beef/bin
  pseudo dir          : /home/mamunm/src/pseudo/gbrv1.5pbe
  ase-espresso py git : GITVERSION



     Program PWSCF v.5.1rc2 (svn rev. ) starts on 16Apr2018 at 11:12:34 

     This program is part of the open-source Quantum ESPRESSO suite
     for quantum simulation of materials; please cite
         "P. Giannozzi et al., J. Phys.:Condens. Matter 21 395502 (2009);
          URL http://www.quantum-espresso.org", 
     in publications or presentations arising from this work. More details at
     http://www.quantum-espresso.org/quote

     Parallel version (MPI), running on    16 processors
     R & G space division:  proc/nbgrp/npool/nimage =      16
     Reading input from pw.inp
     Message from routine read_cards :
     DEPRECATED: no units specified in CELL_PARAMETERS card

     Current dimensions of program PWSCF are:
     Max number of different atomic species (ntypx) = 10
     Max number of k-points (npk) =  40000
     Max angular momentum in pseudopotentials (lmaxx) =  3
     Presently stress not available with electric field


     **************************************************************************
     Initializing libbeef V0.1.1 with the BEEF-vdW functional.
     Citation: Wellendorff et al., PRB 85, 235149 (2012).
     **************************************************************************


     IMPORTANT: XC functional enforced from input :
     Exchange-correlation      = BEEF-VDW ( 1  4 27 13 2)
     Any further DFT definition will be discarded
     Please, verify this is what you really want


     Subspace diagonalization in iterative solution of the eigenvalue problem:
     a serial algorithm will be used

 
     Parallelization info
     --------------------
     sticks:   dense  smooth     PW     G-vecs:    dense   smooth      PW
     Min         182      72     21                34582     8726    1377
     Max         183      73     23                34596     8767    1388
     Sum        2917    1159    349               553473   139985   22105
 


     bravais-lattice index     =            0
     lattice parameter (alat)  =       1.8897  a.u.
     unit-cell volume          =    4650.5773 (a.u.)^3
     number of atoms/cell      =           14
     number of atomic types    =            3
     number of electrons       =        43.00
     number of Kohn-Sham states=           31
     kinetic-energy cutoff     =      36.7493  Ry
     charge density cutoff     =     367.4932  Ry
     convergence threshold     =      1.0E-05
     mixing beta               =       0.3000
     number of iterations used =           10  plain     mixing
     Exchange-correlation      = BEEF-VDW ( 1  4 27 13 2)
     nstep                     =           50


     celldm(1)=   1.889726  celldm(2)=   0.000000  celldm(3)=   0.000000
     celldm(4)=   0.000000  celldm(5)=   0.000000  celldm(6)=   0.000000

     crystal axes: (cart. coord. in units of alat)
               a(1) = (   5.682886   0.000000   0.000000 )  
               a(2) = (   2.841443   4.921524   0.000000 )  
               a(3) = (   0.000000   0.000000  24.640057 )  

     reciprocal axes: (cart. coord. in units 2 pi/alat)
               b(1) = (  0.175967 -0.101595  0.000000 )  
               b(2) = (  0.000000  0.203189  0.000000 )  
               b(3) = (  0.000000  0.000000  0.040584 )  


     PseudoPot. # 1 for Al read from file:
     /home/mamunm/src/pseudo/gbrv1.5pbe/Al.UPF
     MD5 check sum: 0a6289f5291fc8f409219462bc851e1f
     Pseudo is Ultrasoft + core correction, Zval =  3.0
     Generated by new atomic code, or converted to UPF format
     Using radial grid of  893 points,  3 beta functions with: 
                l(1) =   0
                l(2) =   1
                l(3) =   2
     Q(r) pseudized with  8 coefficients,  rinner =    0.900   0.900   0.900
                                                       0.900   0.900

     PseudoPot. # 2 for O  read from file:
     /home/mamunm/src/pseudo/gbrv1.5pbe/O.UPF
     MD5 check sum: 734c27235a0248c51dbae37a1fbe46ec
     Pseudo is Ultrasoft + core correction, Zval =  6.0
     Generated by new atomic code, or converted to UPF format
     Using radial grid of  737 points,  5 beta functions with: 
                l(1) =   0
                l(2) =   0
                l(3) =   1
                l(4) =   1
                l(5) =   2
     Q(r) pseudized with  8 coefficients,  rinner =    0.900   0.900   0.900
                                                       0.900   0.900

     PseudoPot. # 3 for H  read from file:
     /home/mamunm/src/pseudo/gbrv1.5pbe/H.UPF
     MD5 check sum: 761ae9a214b05c3daf00ab9f6b793d6f
     Pseudo is Ultrasoft, Zval =  1.0
     Generated by new atomic code, or converted to UPF format
     Using radial grid of  615 points,  2 beta functions with: 
                l(1) =   0
                l(2) =   0
     Q(r) pseudized with  8 coefficients,  rinner =    0.700

     vdW kernel table read from file vdW_kernel_table
     MD5 check sum: 095c7af220d748ca6e76c0b4c6cfb241

     atomic species   valence    mass     pseudopotential
        Al1            3.00    26.98154     Al( 1.00)
        O1             6.00    15.99900     O ( 1.00)
        H1             1.00     1.00800     H ( 1.00)

     No symmetry found



   Cartesian axes

     site n.     atom                  positions (alat units)
         1           Al1 tau(   1) = (   1.4207216   0.8202540  10.0000000  )
         2           Al1 tau(   2) = (   4.2621647   0.8202540  10.0000000  )
         3           Al1 tau(   3) = (   2.8414431   3.2810159  10.0000000  )
         4           Al1 tau(   4) = (   5.6828862   3.2810159  10.0000000  )
         5           Al1 tau(   5) = (   5.6828862   1.6405079  12.3200286  )
         6           Al1 tau(   6) = (   2.8414431   1.6405079  12.3200286  )
         7           Al1 tau(   7) = (   7.1036078   4.1012699  12.3200286  )
         8           Al1 tau(   8) = (   4.2621647   4.1012699  12.3200286  )
         9           Al1 tau(   9) = (   0.0000000   0.0000000  14.6400572  )
        10           Al1 tau(  10) = (   2.8414431   0.0000000  14.6400572  )
        11           Al1 tau(  11) = (   1.4207216   2.4607619  14.6400572  )
        12           Al1 tau(  12) = (   4.2621647   2.4607619  14.6400572  )
        13           O1  tau(  13) = (   1.4207216   0.0000000  16.0425572  )
        14           H1  tau(  14) = (   1.4207216   0.0000000  16.9925572  )

     number of k points=    20  Fermi-Dirac smearing, width (Ry)=  0.0110
                       cart. coord. in units 2pi/alat
        k(    1) = (   0.0000000   0.0000000   0.0000000), wk =   0.0555556
        k(    2) = (   0.0000000   0.0338648   0.0000000), wk =   0.1111111
        k(    3) = (   0.0000000   0.0677297   0.0000000), wk =   0.1111111
        k(    4) = (   0.0000000  -0.1015945   0.0000000), wk =   0.0555556
        k(    5) = (   0.0293278  -0.0169324   0.0000000), wk =   0.1111111
        k(    6) = (   0.0293278   0.0169324   0.0000000), wk =   0.1111111
        k(    7) = (   0.0293278   0.0507973   0.0000000), wk =   0.1111111
        k(    8) = (   0.0293278  -0.1185270   0.0000000), wk =   0.1111111
        k(    9) = (   0.0293278  -0.0846621   0.0000000), wk =   0.1111111
        k(   10) = (   0.0293278  -0.0507973   0.0000000), wk =   0.1111111
        k(   11) = (   0.0586556  -0.0338648   0.0000000), wk =   0.1111111
        k(   12) = (   0.0586556   0.0000000   0.0000000), wk =   0.1111111
        k(   13) = (   0.0586556   0.0338648   0.0000000), wk =   0.1111111
        k(   14) = (   0.0586556  -0.1354594   0.0000000), wk =   0.1111111
        k(   15) = (   0.0586556  -0.1015945   0.0000000), wk =   0.1111111
        k(   16) = (   0.0586556  -0.0677297   0.0000000), wk =   0.1111111
        k(   17) = (  -0.0879835   0.0507973   0.0000000), wk =   0.0555556
        k(   18) = (  -0.0879835   0.0846621   0.0000000), wk =   0.1111111
        k(   19) = (  -0.0879835   0.1185270   0.0000000), wk =   0.1111111
        k(   20) = (  -0.0879835  -0.0507973   0.0000000), wk =   0.0555556

     Dense  grid:   553473 G-vectors     FFT dimensions: (  72,  72, 288)

     Smooth grid:   139985 G-vectors     FFT dimensions: (  45,  45, 180)

     Largest allocated arrays     est. size (Mb)     dimensions
        Kohn-Sham Wavefunctions         0.54 Mb     (    1132,   31)
        NL pseudopotentials             2.12 Mb     (    1132,  123)
        Each V/rho on FFT grid          1.42 Mb     (   93312)
        Each G-vector array             0.26 Mb     (   34591)
        G-vector shells                 0.10 Mb     (   13178)
     Largest temporary arrays     est. size (Mb)     dimensions
        Auxiliary wavefunctions         2.14 Mb     (    1132,  124)
        Each subspace H/S matrix        0.23 Mb     (     124,  124)
        Each <psi_i|beta_j> matrix      0.06 Mb     (     123,   31)
        Arrays for rho mixing          14.24 Mb     (   93312,   10)

     Initial potential from superposition of free atoms
     Check: negative starting charge=   -0.000274

     starting charge   42.97041, renormalised to   43.00000

     negative rho (up, down):  2.747E-04 0.000E+00


     ************************************************************************
     *
     * You are using vdW-DF for exchange-correlation in this calculation.
     * Please cite the following three references that made this development
     * possible:
     *
     *   M. Dion, H. Rydberg, E. Schroder, D. C. Langreth, and
     *   B. I. Lundqvist, Phys. Rev. Lett. 92, 246401 (2004).
     *
     *   T. Thonhauser, V. R. Cooper, S. Li, A. Puzder, P. Hyldgaard, and
     *   D. C. Langreth, Phys. Rev. B 76, 125112 (2007).
     *
     *   G. Roman-Perez and J. M. Soler, Phys. Rev. Lett. 103, 096102 (2009).
     *
     *
     * If you are using vdW-DF2, please also cite:
     *
     *   K. Lee, E. D. Murray, L. Kong, B. I. Lundqvist, and
     *   D. C. Langreth, Phys. Rev. B 82, 081101(R) (2010).
     *
     *
     * If you are calculating the stress with vdW-DF, please also cite:
     *
     *   R. Sabatini, E. Kucukbenli, B. Kolb, T. Thonhauser, and
     *   S. de Gironcoli, J. Phys.: Condens. Matter 24, 424209 (2012).
     *
     ************************************************************************

     Carrying out vdW-DF run using the following parameters:

     Nqs =      20    Nr_points =    1024   r_max =   100.000
     q_mesh =
               0.00001000     0.04494208     0.09755937     0.15916263
               0.23128650     0.31572767     0.41458969     0.53033537
               0.66584808     0.82450364     1.01025438     1.22772762
               1.48234092     1.78043706     2.12944203     2.53805004
               3.01644009     3.57652955     4.23227104     5.00000000

     Gradients computed in reciprocal space

     ************************************************************************


 
     Adding external electric field

     Computed dipole along edir(3) : 
        Dipole               -0.0351 Ry au,         -0.0891 Debye
        Dipole field         -0.0001 Ry au
 
        Potential amp.        0.0086 Ry
        Total length         45.3989 bohr
 
     Starting wfc are   53 randomized atomic wfcs

     total cpu time spent up to now is        4.2 secs

     Self-consistent Calculation

     iteration #  1     ecut=    36.75 Ry     beta=0.30
     Davidson diagonalization with overlap
     ethr =  1.00E-02,  avg # of iterations =  3.0

     negative rho (up, down):  1.989E-04 0.000E+00
 
     Adding external electric field

     Computed dipole along edir(3) : 
        Dipole                0.0030 Ry au,          0.0075 Debye
        Dipole field          0.0000 Ry au
 
        Potential amp.       -0.0007 Ry
        Total length         45.3989 bohr
 

     total cpu time spent up to now is        9.9 secs

     total energy              =    -115.96893639 Ry
     Harris-Foulkes estimate   =    -116.53981101 Ry
     estimated scf accuracy    <       1.34449672 Ry

     iteration #  2     ecut=    36.75 Ry     beta=0.30
     Davidson diagonalization with overlap
     ethr =  3.13E-03,  avg # of iterations =  2.4

     negative rho (up, down):  2.756E-04 0.000E+00
 
     Adding external electric field

     Computed dipole along edir(3) : 
        Dipole                0.8773 Ry au,          2.2298 Debye
        Dipole field          0.0024 Ry au
 
        Potential amp.       -0.2152 Ry
        Total length         45.3989 bohr
 

     total cpu time spent up to now is       14.7 secs

     total energy              =    -116.08119963 Ry
     Harris-Foulkes estimate   =    -116.32904553 Ry
     estimated scf accuracy    <       0.88681778 Ry

     iteration #  3     ecut=    36.75 Ry     beta=0.30
     Davidson diagonalization with overlap
     ethr =  2.06E-03,  avg # of iterations =  2.8

     negative rho (up, down):  3.763E-04 0.000E+00
 
     Adding external electric field

     Computed dipole along edir(3) : 
        Dipole                0.0394 Ry au,          0.1001 Debye
        Dipole field          0.0001 Ry au
 
        Potential amp.       -0.0097 Ry
        Total length         45.3989 bohr
 

     total cpu time spent up to now is       19.4 secs

     total energy              =    -116.05659918 Ry
     Harris-Foulkes estimate   =    -116.36674010 Ry
     estimated scf accuracy    <       3.49402369 Ry

     iteration #  4     ecut=    36.75 Ry     beta=0.30
     Davidson diagonalization with overlap
     ethr =  2.06E-03,  avg # of iterations =  2.1

     negative rho (up, down):  4.101E-04 0.000E+00
 
     Adding external electric field

     Computed dipole along edir(3) : 
        Dipole                0.3118 Ry au,          0.7925 Debye
        Dipole field          0.0008 Ry au
 
        Potential amp.       -0.0765 Ry
        Total length         45.3989 bohr
 

     total cpu time spent up to now is       23.8 secs

     total energy              =    -116.21251363 Ry
     Harris-Foulkes estimate   =    -116.26038485 Ry
     estimated scf accuracy    <       0.45434298 Ry

     iteration #  5     ecut=    36.75 Ry     beta=0.30
     Davidson diagonalization with overlap
     ethr =  1.06E-03,  avg # of iterations =  1.0

     negative rho (up, down):  4.368E-04 0.000E+00
 
     Adding external electric field

     Computed dipole along edir(3) : 
        Dipole                0.3692 Ry au,          0.9385 Debye
        Dipole field          0.0010 Ry au
 
        Potential amp.       -0.0906 Ry
        Total length         45.3989 bohr
 

     total cpu time spent up to now is       27.9 secs

     total energy              =    -116.23106564 Ry
     Harris-Foulkes estimate   =    -116.23367764 Ry
     estimated scf accuracy    <       0.01678152 Ry

     iteration #  6     ecut=    36.75 Ry     beta=0.30
     Davidson diagonalization with overlap
     ethr =  3.90E-05,  avg # of iterations =  6.0

     negative rho (up, down):  4.354E-04 0.000E+00
 
     Adding external electric field

     Computed dipole along edir(3) : 
        Dipole                0.3138 Ry au,          0.7975 Debye
        Dipole field          0.0008 Ry au
 
        Potential amp.       -0.0770 Ry
        Total length         45.3989 bohr
 

     total cpu time spent up to now is       33.9 secs

     total energy              =    -116.23113910 Ry
     Harris-Foulkes estimate   =    -116.23367201 Ry
     estimated scf accuracy    <       0.00641339 Ry

     iteration #  7     ecut=    36.75 Ry     beta=0.30
     Davidson diagonalization with overlap
     ethr =  1.49E-05,  avg # of iterations =  4.7

     negative rho (up, down):  4.598E-04 0.000E+00
 
     Adding external electric field

     Computed dipole along edir(3) : 
        Dipole                0.3518 Ry au,          0.8942 Debye
        Dipole field          0.0010 Ry au
 
        Potential amp.       -0.0863 Ry
        Total length         45.3989 bohr
 

     total cpu time spent up to now is       39.2 secs

     total energy              =    -116.23237574 Ry
     Harris-Foulkes estimate   =    -116.23352526 Ry
     estimated scf accuracy    <       0.00648300 Ry

     iteration #  8     ecut=    36.75 Ry     beta=0.30
     Davidson diagonalization with overlap
     ethr =  1.49E-05,  avg # of iterations =  2.9

     negative rho (up, down):  4.712E-04 0.000E+00
 
     Adding external electric field

     Computed dipole along edir(3) : 
        Dipole                0.3554 Ry au,          0.9033 Debye
        Dipole field          0.0010 Ry au
 
        Potential amp.       -0.0872 Ry
        Total length         45.3989 bohr
 

     total cpu time spent up to now is       43.7 secs

     total energy              =    -116.23281110 Ry
     Harris-Foulkes estimate   =    -116.23285421 Ry
     estimated scf accuracy    <       0.00022400 Ry

     iteration #  9     ecut=    36.75 Ry     beta=0.30
     Davidson diagonalization with overlap
     ethr =  5.21E-07,  avg # of iterations =  5.2

     negative rho (up, down):  4.778E-04 0.000E+00
 
     Adding external electric field

     Computed dipole along edir(3) : 
        Dipole                0.3503 Ry au,          0.8903 Debye
        Dipole field          0.0009 Ry au
 
        Potential amp.       -0.0859 Ry
        Total length         45.3989 bohr
 

     total cpu time spent up to now is       49.3 secs

     total energy              =    -116.23286445 Ry
     Harris-Foulkes estimate   =    -116.23290785 Ry
     estimated scf accuracy    <       0.00011533 Ry

     iteration # 10     ecut=    36.75 Ry     beta=0.30
     Davidson diagonalization with overlap
     ethr =  2.68E-07,  avg # of iterations =  2.0

     negative rho (up, down):  4.846E-04 0.000E+00
 
     Adding external electric field

     Computed dipole along edir(3) : 
        Dipole                0.3514 Ry au,          0.8932 Debye
        Dipole field          0.0009 Ry au
 
        Potential amp.       -0.0862 Ry
        Total length         45.3989 bohr
 

     total cpu time spent up to now is       53.9 secs

     total energy              =    -116.23288509 Ry
     Harris-Foulkes estimate   =    -116.23288922 Ry
     estimated scf accuracy    <       0.00003114 Ry

     iteration # 11     ecut=    36.75 Ry     beta=0.30
     Davidson diagonalization with overlap
     ethr =  7.24E-08,  avg # of iterations =  2.0

     negative rho (up, down):  5.016E-04 0.000E+00

     negative rho (up, down):  5.016E-04 0.000E+00

     negative rho (up, down):  5.016E-04 0.000E+00

     negative rho (up, down):  5.016E-04 0.000E+00

     negative rho (up, down):  5.016E-04 0.000E+00

     negative rho (up, down):  5.016E-04 0.000E+00

     negative rho (up, down):  5.016E-04 0.000E+00

     negative rho (up, down):  5.016E-04 0.000E+00

     negative rho (up, down):  5.016E-04 0.000E+00

     negative rho (up, down):  5.016E-04 0.000E+00

     negative rho (up, down):  5.016E-04 0.000E+00

     negative rho (up, down):  5.016E-04 0.000E+00

     negative rho (up, down):  5.016E-04 0.000E+00

     negative rho (up, down):  5.016E-04 0.000E+00

     negative rho (up, down):  5.016E-04 0.000E+00

     negative rho (up, down):  5.016E-04 0.000E+00

     negative rho (up, down):  5.016E-04 0.000E+00

     negative rho (up, down):  5.016E-04 0.000E+00

     negative rho (up, down):  5.016E-04 0.000E+00

     negative rho (up, down):  5.016E-04 0.000E+00

     negative rho (up, down):  5.016E-04 0.000E+00

     negative rho (up, down):  5.016E-04 0.000E+00

     negative rho (up, down):  5.016E-04 0.000E+00

     negative rho (up, down):  5.016E-04 0.000E+00

     negative rho (up, down):  5.016E-04 0.000E+00

     negative rho (up, down):  5.016E-04 0.000E+00

     negative rho (up, down):  5.016E-04 0.000E+00

     negative rho (up, down):  5.016E-04 0.000E+00

     negative rho (up, down):  5.016E-04 0.000E+00

     negative rho (up, down):  5.016E-04 0.000E+00

     negative rho (up, down):  5.016E-04 0.000E+00

     negative rho (up, down):  5.016E-04 0.000E+00

     negative rho (up, down):  5.016E-04 0.000E+00

     negative rho (up, down):  5.016E-04 0.000E+00

     negative rho (up, down):  5.016E-04 0.000E+00
 
     Adding external electric field

     Computed dipole along edir(3) : 
        Dipole                0.3531 Ry au,          0.8975 Debye
        Dipole field          0.0010 Ry au
 
        Potential amp.       -0.0866 Ry
        Total length         45.3989 bohr
 

     total cpu time spent up to now is       73.9 secs

     End of self-consistent calculation

          k = 0.0000 0.0000 0.0000 ( 17579 PWs)   bands (ev):

   -21.7481 -10.9773 -10.1648  -8.6166  -6.5512  -6.1020  -5.8491  -4.8068
    -4.7791  -4.7635  -4.6714  -4.6406  -4.5292  -3.4116  -3.4058  -3.2811
    -2.8571  -2.8248  -2.6334  -2.2960  -0.5694  -0.4191  -0.3695   0.0002
     0.1436   0.1939   0.5507   1.6478   2.4157   2.4508   2.4516

          k = 0.0000 0.0339 0.0000 ( 17522 PWs)   bands (ev):

   -21.7477 -10.8574 -10.0874  -8.5116  -6.6567  -6.6147  -6.0895  -5.5567
    -5.4982  -5.4592  -4.5532  -3.8497  -3.7635  -3.6082  -3.5941  -2.9086
    -2.6875  -2.0148  -1.9730  -1.6560  -0.9305  -0.7362  -0.6188   0.3729
     0.8383   0.8693   1.0515   1.6518   1.8808   2.0711   2.5092

          k = 0.0000 0.0677 0.0000 ( 17510 PWs)   bands (ev):

   -21.7470 -10.5926  -9.8067  -8.2638  -7.9145  -6.7473  -6.5455  -6.0723
    -5.8583  -5.5706  -4.9668  -4.2572  -4.1728  -3.2418  -2.5159  -2.3622
    -2.0925  -1.4567  -1.3585  -0.4788  -0.3035  -0.2962   0.0381   0.8611
     1.2699   1.3153   1.4178   1.7208   1.7793   2.1603   2.4484

          k = 0.0000-0.1016 0.0000 ( 17464 PWs)   bands (ev):

   -21.7467 -10.4612  -9.2522  -9.0178  -7.7003  -7.1721  -6.8149  -6.1666
    -5.9797  -5.7156  -4.7477  -4.2932  -4.1886  -4.0276  -2.0366  -1.8321
    -1.5988  -1.0258  -0.5620  -0.4050  -0.2161  -0.1729   0.8761   0.8896
     1.2516   1.3695   1.4722   1.6487   1.9261   2.0347   2.5044

          k = 0.0293-0.0169 0.0000 ( 17522 PWs)   bands (ev):

   -21.7477 -10.8577 -10.0874  -8.5152  -6.8171  -6.3685  -6.0627  -5.7650
    -5.5071  -5.3067  -4.6623  -3.8155  -3.7676  -3.6260  -3.4957  -2.9677
    -2.6837  -2.0196  -1.9254  -1.7266  -0.8352  -0.7323  -0.6795   0.3733
     0.7527   0.9477   1.0814   1.6442   1.8681   2.0705   2.5420

          k = 0.0293 0.0169 0.0000 ( 17522 PWs)   bands (ev):

   -21.7477 -10.8577 -10.0874  -8.5152  -6.8171  -6.3685  -6.0627  -5.7650
    -5.5071  -5.3067  -4.6623  -3.8155  -3.7676  -3.6260  -3.4957  -2.9677
    -2.6837  -2.0196  -1.9254  -1.7266  -0.8352  -0.7323  -0.6795   0.3733
     0.7527   0.9477   1.0814   1.6442   1.8681   2.0705   2.5420

          k = 0.0293 0.0508 0.0000 ( 17513 PWs)   bands (ev):

   -21.7472 -10.6630  -9.9100  -8.3034  -7.3080  -7.1880  -6.5565  -6.1510
    -5.3985  -5.2572  -4.8714  -4.2611  -4.1759  -2.9718  -2.8648  -2.6267
    -2.2710  -1.9975  -1.3234  -1.2055  -0.0498   0.0638   0.2739   0.4335
     0.6096   0.6859   1.0588   1.6976   2.1483   2.7596   2.8383

          k = 0.0293-0.1185 0.0000 ( 17495 PWs)   bands (ev):

   -21.7466 -10.4716  -9.4317  -8.5242  -7.8238  -7.5352  -6.8754  -6.5671
    -5.6528  -5.4450  -4.6852  -4.4696  -3.7680  -2.9188  -2.8369  -2.6497
    -1.7962  -1.0694  -0.9091  -0.7181  -0.0370   0.1876   0.4329   1.0851
     1.1647   1.4034   1.8780   1.9533   2.2164   2.3165   2.6595

          k = 0.0293-0.0847 0.0000 ( 17495 PWs)   bands (ev):

   -21.7466 -10.4716  -9.4317  -8.5242  -7.8238  -7.5352  -6.8754  -6.5671
    -5.6528  -5.4450  -4.6852  -4.4696  -3.7680  -2.9188  -2.8369  -2.6497
    -1.7962  -1.0694  -0.9091  -0.7181  -0.0370   0.1876   0.4329   1.0851
     1.1647   1.4034   1.8780   1.9533   2.2164   2.3165   2.6595

          k = 0.0293-0.0508 0.0000 ( 17513 PWs)   bands (ev):

   -21.7472 -10.6630  -9.9100  -8.3034  -7.3080  -7.1880  -6.5565  -6.1510
    -5.3985  -5.2572  -4.8714  -4.2611  -4.1759  -2.9718  -2.8648  -2.6267
    -2.2710  -1.9975  -1.3234  -1.2055  -0.0498   0.0638   0.2739   0.4335
     0.6096   0.6859   1.0588   1.6976   2.1483   2.7596   2.8383

          k = 0.0587-0.0339 0.0000 ( 17510 PWs)   bands (ev):

   -21.7469 -10.5932  -9.8071  -8.2877  -7.9111  -6.7925  -6.3943  -6.0970
    -5.8137  -5.5556  -5.1743  -4.2776  -4.0358  -3.3100  -2.4899  -2.3327
    -2.1228  -1.5045  -1.3104  -0.5591  -0.3342  -0.1656   0.0317   0.8616
     1.2476   1.2859   1.4626   1.7534   1.8682   2.1973   2.4001

          k = 0.0587 0.0000 0.0000 ( 17513 PWs)   bands (ev):

   -21.7471 -10.6636  -9.9101  -8.3173  -7.2729  -7.2179  -6.5848  -6.0326
    -5.4301  -5.1604  -5.0748  -4.2719  -4.1277  -3.0086  -2.7328  -2.6783
    -2.3394  -1.9696  -1.2962  -1.2404  -0.0325   0.0899   0.2637   0.4385
     0.5425   0.7544   1.1203   1.7069   2.1377   2.7705   2.7964

          k = 0.0587 0.0339 0.0000 ( 17510 PWs)   bands (ev):

   -21.7469 -10.5932  -9.8071  -8.2877  -7.9111  -6.7925  -6.3943  -6.0970
    -5.8137  -5.5556  -5.1743  -4.2776  -4.0358  -3.3100  -2.4899  -2.3327
    -2.1228  -1.5045  -1.3104  -0.5591  -0.3342  -0.1656   0.0317   0.8616
     1.2476   1.2859   1.4626   1.7534   1.8682   2.1973   2.4001

          k = 0.0587-0.1355 0.0000 ( 17495 PWs)   bands (ev):

   -21.7466 -10.4719  -9.4328  -8.5331  -7.8168  -7.5467  -6.9480  -6.2466
    -6.0499  -5.2115  -4.7672  -4.4348  -3.8437  -2.8894  -2.8292  -2.6292
    -1.8008  -1.0386  -0.8827  -0.8116  -0.0953   0.1787   0.5255   1.0975
     1.2664   1.3902   1.8358   1.9837   2.1368   2.4573   2.6467

          k = 0.0587-0.1016 0.0000 ( 17442 PWs)   bands (ev):

   -21.7464 -10.4245  -8.7630  -8.7525  -8.5124  -7.3525  -7.2285  -6.5295
    -6.1163  -5.5134  -4.1085  -3.9664  -3.7138  -2.8563  -2.8271  -2.7061
    -1.7235  -1.2637  -1.2150  -0.9050  -0.8083  -0.2003   1.5728   1.6377
     1.8267   2.0536   2.2475   2.3163   2.7372   2.8008   2.8506

          k = 0.0587-0.0677 0.0000 ( 17495 PWs)   bands (ev):

   -21.7466 -10.4719  -9.4328  -8.5331  -7.8168  -7.5467  -6.9480  -6.2466
    -6.0499  -5.2115  -4.7672  -4.4348  -3.8437  -2.8894  -2.8292  -2.6292
    -1.8008  -1.0386  -0.8827  -0.8116  -0.0953   0.1787   0.5255   1.0975
     1.2664   1.3902   1.8358   1.9837   2.1368   2.4573   2.6467

          k =-0.0880 0.0508 0.0000 ( 17464 PWs)   bands (ev):

   -21.7466 -10.4617  -9.2581  -9.0173  -7.7628  -7.1664  -6.5954  -6.1695
    -6.1682  -5.6445  -4.7404  -4.4372  -4.1111  -4.0390  -2.0390  -1.7618
    -1.5857  -1.1231  -0.5575  -0.5000  -0.2717  -0.0403   0.8291   1.0112
     1.3452   1.4409   1.4721   1.6695   1.8003   2.1299   2.5248

          k =-0.0880 0.0847 0.0000 ( 17495 PWs)   bands (ev):

   -21.7466 -10.4721  -9.4339  -8.5298  -7.8540  -7.5190  -6.8739  -6.4605
    -5.8288  -5.2724  -4.7392  -4.5134  -3.8136  -2.9223  -2.8090  -2.5986
    -1.8242  -1.0873  -0.9247  -0.7253  -0.1342   0.3156   0.5360   1.1034
     1.2001   1.3659   1.8362   2.0221   2.1258   2.4478   2.6549

          k =-0.0880 0.1185 0.0000 ( 17495 PWs)   bands (ev):

   -21.7466 -10.4721  -9.4339  -8.5298  -7.8540  -7.5190  -6.8739  -6.4605
    -5.8288  -5.2724  -4.7392  -4.5134  -3.8136  -2.9223  -2.8090  -2.5986
    -1.8242  -1.0873  -0.9247  -0.7253  -0.1342   0.3156   0.5360   1.1034
     1.2001   1.3659   1.8362   2.0221   2.1258   2.4478   2.6549

          k =-0.0880-0.0508 0.0000 ( 17464 PWs)   bands (ev):

   -21.7466 -10.4617  -9.2581  -9.0173  -7.7628  -7.1664  -6.5954  -6.1695
    -6.1682  -5.6445  -4.7404  -4.4372  -4.1111  -4.0390  -2.0390  -1.7618
    -1.5857  -1.1231  -0.5575  -0.5000  -0.2717  -0.0403   0.8291   1.0112
     1.3452   1.4409   1.4721   1.6695   1.8003   2.1299   2.5248

     the Fermi energy is    -0.0592 ev

!    total energy              =    -116.23288763 Ry
     Harris-Foulkes estimate   =    -116.23288466 Ry
     estimated scf accuracy    <       0.00000062 Ry

     The total energy is the sum of the following terms:

     one-electron contribution =    -820.95432838 Ry
     hartree contribution      =     420.50265366 Ry
     xc contribution           =     -61.61352104 Ry
     ewald contribution        =     345.86195481 Ry
     electric field correction =       0.00033690 Ry
     smearing contrib. (-TS)   =      -0.02998359 Ry

     convergence has been achieved in  11 iterations
 
 BEEF-vdW xc energy contributions
           1 :   -50.7578962099281     
           2 :    43.5735861494789     
           3 :   -32.5380629685746     
           4 :    21.9858519552575     
           5 :   -14.6995682727131     
           6 :    10.8987339719889     
           7 :   -9.04854835171778     
           8 :    7.51024868662702     
           9 :   -5.70402233242373     
          10 :    4.07399706599974     
          11 :   -3.22045032455321     
          12 :    3.14469822490415     
          13 :   -3.24842562263117     
          14 :    2.93045866987283     
          15 :   -2.11822443698333     
          16 :    1.24153512144875     
          17 :  -0.751350812263652     
          18 :   0.692798319534113     
          19 :  -0.726567113890233     
          20 :   0.513968411217263     
          21 :  -4.664132050284309E-002
          22 :  -0.389417314318152     
          23 :   0.530832609523522     
          24 :  -0.396127402326968     
          25 :   0.244548207191016     
          26 :  -0.305807130568240     
          27 :   0.561660497287470     
          28 :  -0.785816053169498     
          29 :   0.780046171120254     
          30 :  -0.563047423788547     
          31 :   -7.39016011355056     
          32 :   -5.34056761903565     

     Forces acting on atoms (Ry/au):


     negative rho (up, down):  5.016E-04 0.000E+00
     atom    1 type  1   force =    -0.00000009    0.00258671    0.00269415
     atom    2 type  1   force =    -0.00000015    0.00083530   -0.00063653
     atom    3 type  1   force =    -0.00059705   -0.00108364    0.00067929
     atom    4 type  1   force =     0.00059727   -0.00108350    0.00067942
     atom    5 type  1   force =    -0.00139897   -0.00113361    0.00180594
     atom    6 type  1   force =     0.00139901   -0.00113378    0.00180572
     atom    7 type  1   force =    -0.00000004   -0.00310176   -0.00349008
     atom    8 type  1   force =    -0.00000003   -0.00188604    0.01195322
     atom    9 type  1   force =    -0.01464742   -0.00260494    0.01064516
     atom   10 type  1   force =     0.01464739   -0.00260502    0.01064506
     atom   11 type  1   force =    -0.00000015    0.02852049   -0.01727210
     atom   12 type  1   force =     0.00000007   -0.02256202   -0.01517587
     atom   13 type  2   force =     0.00000021    0.00447369   -0.06390070
     atom   14 type  3   force =    -0.00000005    0.00077809    0.05956734

     Total force =     0.100859     Total SCF correction =     0.000859


     entering subroutine stress ...


     negative rho (up, down):  5.016E-04 0.000E+00
          total   stress  (Ry/bohr**3)                   (kbar)     P=   -4.00
  -0.00006433  -0.00000000  -0.00000000         -9.46     -0.00     -0.00
  -0.00000000  -0.00001960   0.00000774         -0.00     -2.88      1.14
  -0.00000000   0.00000774   0.00000238         -0.00      1.14      0.35


     BFGS Geometry Optimization

     number of scf cycles    =   1
     number of bfgs steps    =   0

     energy   new            =    -116.2328876320 Ry

     new trust radius        =       0.0640571152 bohr
     new conv_thr            =       0.0000099958 Ry


ATOMIC_POSITIONS (crystal)
Al1      0.166666667   0.166666667   0.405843214    0   0   0
Al1      0.666666667   0.166666667   0.405843214    0   0   0
Al1      0.166666667   0.666666667   0.405843214    0   0   0
Al1      0.666666667   0.666666667   0.405843214    0   0   0
Al1      0.833333333   0.333333333   0.500000000    0   0   0
Al1      0.333333333   0.333333333   0.500000000    0   0   0
Al1      0.833333333   0.833333333   0.500000000    0   0   0
Al1      0.333333333   0.833333333   0.500000000    0   0   0
Al1     -0.001223889  -0.000280091   0.594385405
Al1      0.501503980  -0.000280099   0.594385402
Al1     -0.001533319   0.503066610   0.593785845
Al1      0.501212975   0.497574063   0.593830864
O1       0.249759507   0.000481025   0.649703946
H1       0.249958164   0.000083663   0.690910688



     Writing output data file calc.save
     Check: negative starting charge=   -0.000274
     NEW-OLD atomic charge density approx. for the potential
     Check: negative starting charge=   -0.000272

     negative rho (up, down):  6.111E-04 0.000E+00
 
     Adding external electric field

     Computed dipole along edir(3) : 
        Dipole                0.3531 Ry au,          0.8974 Debye
        Dipole field          0.0010 Ry au
 
        Potential amp.       -0.0866 Ry
        Total length         45.3989 bohr
 

     total cpu time spent up to now is       83.0 secs

     Self-consistent Calculation

     iteration #  1     ecut=    36.75 Ry     beta=0.30
     Davidson diagonalization with overlap
     ethr =  1.00E-06,  avg # of iterations =  7.0

     negative rho (up, down):  5.197E-04 0.000E+00
 
     Adding external electric field

     Computed dipole along edir(3) : 
        Dipole                0.4316 Ry au,          1.0969 Debye
        Dipole field          0.0012 Ry au
 
        Potential amp.       -0.1059 Ry
        Total length         45.3989 bohr
 

     total cpu time spent up to now is       91.2 secs

     total energy              =    -116.23390180 Ry
     Harris-Foulkes estimate   =    -116.23585430 Ry
     estimated scf accuracy    <       0.00510371 Ry

     iteration #  2     ecut=    36.75 Ry     beta=0.30
     Davidson diagonalization with overlap
     ethr =  1.19E-05,  avg # of iterations =  3.5

     negative rho (up, down):  4.851E-04 0.000E+00
 
     Adding external electric field

     Computed dipole along edir(3) : 
        Dipole                0.3244 Ry au,          0.8245 Debye
        Dipole field          0.0009 Ry au
 
        Potential amp.       -0.0796 Ry
        Total length         45.3989 bohr
 

     total cpu time spent up to now is       96.3 secs

     total energy              =    -116.23239899 Ry
     Harris-Foulkes estimate   =    -116.23616808 Ry
     estimated scf accuracy    <       0.03115327 Ry

     iteration #  3     ecut=    36.75 Ry     beta=0.30
     Davidson diagonalization with overlap
     ethr =  1.19E-05,  avg # of iterations =  3.6

     negative rho (up, down):  4.704E-04 0.000E+00
 
     Adding external electric field

     Computed dipole along edir(3) : 
        Dipole                0.3649 Ry au,          0.9274 Debye
        Dipole field          0.0010 Ry au
 
        Potential amp.       -0.0895 Ry
        Total length         45.3989 bohr
 

     total cpu time spent up to now is      101.2 secs

     total energy              =    -116.23410363 Ry
     Harris-Foulkes estimate   =    -116.23539417 Ry
     estimated scf accuracy    <       0.01835425 Ry

     iteration #  4     ecut=    36.75 Ry     beta=0.30
     Davidson diagonalization with overlap
     ethr =  1.19E-05,  avg # of iterations =  1.9

     negative rho (up, down):  4.690E-04 0.000E+00
 
     Adding external electric field

     Computed dipole along edir(3) : 
        Dipole                0.3622 Ry au,          0.9207 Debye
        Dipole field          0.0010 Ry au
 
        Potential amp.       -0.0889 Ry
        Total length         45.3989 bohr
 

     total cpu time spent up to now is      105.6 secs

     total energy              =    -116.23469254 Ry
     Harris-Foulkes estimate   =    -116.23480493 Ry
     estimated scf accuracy    <       0.00042339 Ry

     iteration #  5     ecut=    36.75 Ry     beta=0.30
     Davidson diagonalization with overlap
     ethr =  9.85E-07,  avg # of iterations =  2.5

     negative rho (up, down):  4.689E-04 0.000E+00
 
     Adding external electric field

     Computed dipole along edir(3) : 
        Dipole                0.3591 Ry au,          0.9128 Debye
        Dipole field          0.0010 Ry au
 
        Potential amp.       -0.0881 Ry
        Total length         45.3989 bohr
 

     total cpu time spent up to now is      110.2 secs

     total energy              =    -116.23473018 Ry
     Harris-Foulkes estimate   =    -116.23475452 Ry
     estimated scf accuracy    <       0.00009389 Ry

     iteration #  6     ecut=    36.75 Ry     beta=0.30
     Davidson diagonalization with overlap
     ethr =  2.18E-07,  avg # of iterations =  2.0

     negative rho (up, down):  4.888E-04 0.000E+00

     negative rho (up, down):  4.888E-04 0.000E+00

     negative rho (up, down):  4.888E-04 0.000E+00

     negative rho (up, down):  4.888E-04 0.000E+00

     negative rho (up, down):  4.888E-04 0.000E+00

     negative rho (up, down):  4.888E-04 0.000E+00

     negative rho (up, down):  4.888E-04 0.000E+00

     negative rho (up, down):  4.888E-04 0.000E+00

     negative rho (up, down):  4.888E-04 0.000E+00

     negative rho (up, down):  4.888E-04 0.000E+00

     negative rho (up, down):  4.888E-04 0.000E+00

     negative rho (up, down):  4.888E-04 0.000E+00

     negative rho (up, down):  4.888E-04 0.000E+00

     negative rho (up, down):  4.888E-04 0.000E+00

     negative rho (up, down):  4.888E-04 0.000E+00

     negative rho (up, down):  4.888E-04 0.000E+00

     negative rho (up, down):  4.888E-04 0.000E+00

     negative rho (up, down):  4.888E-04 0.000E+00

     negative rho (up, down):  4.888E-04 0.000E+00

     negative rho (up, down):  4.888E-04 0.000E+00

     negative rho (up, down):  4.888E-04 0.000E+00

     negative rho (up, down):  4.888E-04 0.000E+00

     negative rho (up, down):  4.888E-04 0.000E+00

     negative rho (up, down):  4.888E-04 0.000E+00

     negative rho (up, down):  4.888E-04 0.000E+00

     negative rho (up, down):  4.888E-04 0.000E+00

     negative rho (up, down):  4.888E-04 0.000E+00

     negative rho (up, down):  4.888E-04 0.000E+00

     negative rho (up, down):  4.888E-04 0.000E+00

     negative rho (up, down):  4.888E-04 0.000E+00

     negative rho (up, down):  4.888E-04 0.000E+00

     negative rho (up, down):  4.888E-04 0.000E+00

     negative rho (up, down):  4.888E-04 0.000E+00

     negative rho (up, down):  4.888E-04 0.000E+00

     negative rho (up, down):  4.888E-04 0.000E+00
 
     Adding external electric field

     Computed dipole along edir(3) : 
        Dipole                0.3546 Ry au,          0.9012 Debye
        Dipole field          0.0010 Ry au
 
        Potential amp.       -0.0870 Ry
        Total length         45.3989 bohr
 

     total cpu time spent up to now is      130.6 secs

     End of self-consistent calculation

          k = 0.0000 0.0000 0.0000 ( 17579 PWs)   bands (ev):

   -21.4935 -10.9041 -10.0476  -8.5875  -6.6699  -6.0968  -5.8919  -4.8018
    -4.7665  -4.7616  -4.6493  -4.6118  -4.5065  -3.4039  -3.3939  -3.2563
    -2.8571  -2.7925  -2.6098  -2.2600  -0.5655  -0.3994  -0.3698   0.0556
     0.1880   0.2311   0.5121   1.5826   2.4209   2.4488   2.4678

          k = 0.0000 0.0339 0.0000 ( 17522 PWs)   bands (ev):

   -21.4931 -10.7718  -9.9793  -8.4878  -6.7265  -6.6484  -6.0942  -5.5823
    -5.4793  -5.4481  -4.5486  -3.8358  -3.7351  -3.5847  -3.5738  -2.8955
    -2.6729  -1.9945  -1.9676  -1.6346  -0.8961  -0.7086  -0.5927   0.3883
     0.8403   0.8961   1.0400   1.5525   1.9186   2.0986   2.5421

          k = 0.0000 0.0677 0.0000 ( 17510 PWs)   bands (ev):

   -21.4923 -10.4582  -9.7430  -8.2551  -7.8919  -6.8434  -6.5458  -6.0657
    -5.8589  -5.5653  -4.9802  -4.2324  -4.1568  -3.2185  -2.5080  -2.3414
    -2.0764  -1.4335  -1.3359  -0.4712  -0.2739  -0.2679   0.0507   0.8642
     1.2908   1.3397   1.4059   1.7361   1.7518   2.0846   2.4730

          k = 0.0000-0.1016 0.0000 ( 17464 PWs)   bands (ev):

   -21.4919 -10.2891  -9.2432  -8.9830  -7.6935  -7.1608  -6.9029  -6.1441
    -5.9865  -5.7352  -4.7554  -4.2780  -4.1805  -3.9855  -2.0291  -1.8056
    -1.5855  -1.0101  -0.5424  -0.3851  -0.1986  -0.1510   0.8921   0.9132
     1.2700   1.3906   1.4840   1.6624   1.8354   2.0584   2.4682

          k = 0.0293-0.0169 0.0000 ( 17522 PWs)   bands (ev):

   -21.4931 -10.7720  -9.9793  -8.4938  -6.8800  -6.3961  -6.0747  -5.7799
    -5.4929  -5.3050  -4.6504  -3.8029  -3.7509  -3.6055  -3.4642  -2.9585
    -2.6690  -2.0053  -1.9135  -1.7025  -0.8059  -0.7052  -0.6525   0.3897
     0.7711   0.9384   1.0936   1.5505   1.8986   2.0997   2.5696

          k = 0.0293 0.0169 0.0000 ( 17522 PWs)   bands (ev):

   -21.4931 -10.7720  -9.9793  -8.4938  -6.8800  -6.3961  -6.0747  -5.7799
    -5.4929  -5.3050  -4.6504  -3.8029  -3.7509  -3.6055  -3.4642  -2.9585
    -2.6690  -2.0053  -1.9135  -1.7025  -0.8059  -0.7052  -0.6525   0.3897
     0.7711   0.9384   1.0936   1.5505   1.8986   2.0997   2.5696

          k = 0.0293 0.0508 0.0000 ( 17513 PWs)   bands (ev):

   -21.4925 -10.5453  -9.8301  -8.2918  -7.3204  -7.1638  -6.6336  -6.1641
    -5.4180  -5.2465  -4.8629  -4.2419  -4.1538  -2.9618  -2.8516  -2.6066
    -2.2456  -1.9707  -1.3159  -1.1778  -0.0391   0.0785   0.2757   0.4801
     0.6434   0.7078   1.0213   1.6788   2.0990   2.7649   2.8589

          k = 0.0293-0.1185 0.0000 ( 17495 PWs)   bands (ev):

   -21.4918 -10.3040  -9.4026  -8.5081  -7.8275  -7.5224  -6.8888  -6.6174
    -5.6764  -5.4393  -4.6856  -4.4517  -3.7609  -2.8971  -2.8032  -2.6286
    -1.7875  -1.0583  -0.8893  -0.7028  -0.0187   0.2172   0.4534   1.1074
     1.1749   1.4006   1.8761   1.9552   2.1932   2.2922   2.5946

          k = 0.0293-0.0847 0.0000 ( 17495 PWs)   bands (ev):

   -21.4918 -10.3040  -9.4026  -8.5081  -7.8275  -7.5224  -6.8888  -6.6174
    -5.6764  -5.4393  -4.6856  -4.4517  -3.7609  -2.8971  -2.8032  -2.6286
    -1.7875  -1.0583  -0.8893  -0.7028  -0.0187   0.2172   0.4534   1.1074
     1.1749   1.4006   1.8761   1.9552   2.1932   2.2922   2.5946

          k = 0.0293-0.0508 0.0000 ( 17513 PWs)   bands (ev):

   -21.4925 -10.5453  -9.8301  -8.2918  -7.3204  -7.1638  -6.6336  -6.1641
    -5.4180  -5.2465  -4.8629  -4.2419  -4.1538  -2.9618  -2.8516  -2.6066
    -2.2456  -1.9707  -1.3159  -1.1778  -0.0391   0.0785   0.2757   0.4801
     0.6434   0.7078   1.0213   1.6788   2.0990   2.7649   2.8589

          k = 0.0587-0.0339 0.0000 ( 17510 PWs)   bands (ev):

   -21.4922 -10.4582  -9.7441  -8.2946  -7.8832  -6.8561  -6.4039  -6.0925
    -5.8143  -5.5573  -5.1828  -4.2587  -4.0190  -3.2877  -2.4778  -2.3167
    -2.1035  -1.4934  -1.2880  -0.5510  -0.3070  -0.1345   0.0477   0.8731
     1.2546   1.2961   1.4720   1.7332   1.8358   2.1599   2.4377

          k = 0.0587 0.0000 0.0000 ( 17513 PWs)   bands (ev):

   -21.4924 -10.5456  -9.8305  -8.3140  -7.2655  -7.2098  -6.6482  -6.0517
    -5.4371  -5.1754  -5.0509  -4.2524  -4.1082  -2.9995  -2.7083  -2.6706
    -2.3109  -1.9525  -1.2812  -1.2167  -0.0248   0.0967   0.2768   0.4854
     0.5839   0.7575   1.0752   1.7250   2.0732   2.7838   2.8104

          k = 0.0587 0.0339 0.0000 ( 17510 PWs)   bands (ev):

   -21.4922 -10.4582  -9.7441  -8.2946  -7.8832  -6.8561  -6.4039  -6.0925
    -5.8143  -5.5573  -5.1828  -4.2587  -4.0190  -3.2877  -2.4778  -2.3167
    -2.1035  -1.4934  -1.2880  -0.5510  -0.3070  -0.1345   0.0477   0.8731
     1.2546   1.2961   1.4720   1.7332   1.8358   2.1599   2.4377

          k = 0.0587-0.1355 0.0000 ( 17495 PWs)   bands (ev):

   -21.4918 -10.3035  -9.4053  -8.5234  -7.8121  -7.5449  -6.9615  -6.2659
    -6.0847  -5.2139  -4.7671  -4.4176  -3.8291  -2.8728  -2.8071  -2.6010
    -1.7958  -1.0182  -0.8613  -0.7992  -0.0851   0.2103   0.5409   1.1174
     1.2840   1.3805   1.8361   1.9642   2.1437   2.4585   2.5615

          k = 0.0587-0.1016 0.0000 ( 17442 PWs)   bands (ev):

   -21.4916 -10.2451  -8.7641  -8.7437  -8.4760  -7.3920  -7.2237  -6.4859
    -6.1811  -5.5398  -4.1134  -3.9575  -3.6894  -2.8385  -2.8040  -2.6803
    -1.7005  -1.2605  -1.1993  -0.8871  -0.7888  -0.1766   1.5910   1.6560
     1.8473   2.0720   2.1956   2.2539   2.7099   2.8224   2.8542

          k = 0.0587-0.0677 0.0000 ( 17495 PWs)   bands (ev):

   -21.4918 -10.3035  -9.4053  -8.5234  -7.8121  -7.5449  -6.9615  -6.2659
    -6.0847  -5.2139  -4.7671  -4.4176  -3.8291  -2.8728  -2.8071  -2.6010
    -1.7958  -1.0182  -0.8613  -0.7992  -0.0851   0.2103   0.5409   1.1174
     1.2840   1.3805   1.8361   1.9642   2.1437   2.4585   2.5615

          k =-0.0880 0.0508 0.0000 ( 17464 PWs)   bands (ev):

   -21.4917 -10.2881  -9.2557  -8.9815  -7.7846  -7.1397  -6.6405  -6.2026
    -6.1472  -5.6596  -4.7271  -4.4485  -4.0894  -4.0032  -2.0228  -1.7476
    -1.5742  -1.1087  -0.5421  -0.4821  -0.2551  -0.0147   0.8462   1.0249
     1.3719   1.4509   1.4895   1.6973   1.7818   2.0281   2.5129

          k =-0.0880 0.0847 0.0000 ( 17495 PWs)   bands (ev):

   -21.4917 -10.3035  -9.4078  -8.5177  -7.8674  -7.4997  -6.8706  -6.5110
    -5.8444  -5.2851  -4.7269  -4.5002  -3.8016  -2.9117  -2.7817  -2.5695
    -1.8154  -1.0752  -0.9065  -0.7076  -0.1230   0.3388   0.5511   1.1180
     1.2212   1.3758   1.8543   2.0305   2.0717   2.4347   2.5818

          k =-0.0880 0.1185 0.0000 ( 17495 PWs)   bands (ev):

   -21.4917 -10.3035  -9.4078  -8.5177  -7.8674  -7.4997  -6.8706  -6.5110
    -5.8444  -5.2851  -4.7269  -4.5002  -3.8016  -2.9117  -2.7817  -2.5695
    -1.8154  -1.0752  -0.9065  -0.7076  -0.1230   0.3388   0.5511   1.1180
     1.2212   1.3758   1.8543   2.0305   2.0717   2.4347   2.5818

          k =-0.0880-0.0508 0.0000 ( 17464 PWs)   bands (ev):

   -21.4917 -10.2881  -9.2557  -8.9815  -7.7846  -7.1397  -6.6405  -6.2026
    -6.1472  -5.6596  -4.7271  -4.4485  -4.0894  -4.0032  -2.0228  -1.7476
    -1.5742  -1.1087  -0.5421  -0.4821  -0.2551  -0.0147   0.8462   1.0249
     1.3719   1.4509   1.4895   1.6973   1.7818   2.0281   2.5129

     the Fermi energy is    -0.0402 ev

!    total energy              =    -116.23474116 Ry
     Harris-Foulkes estimate   =    -116.23474869 Ry
     estimated scf accuracy    <       0.00000781 Ry

     The total energy is the sum of the following terms:

     one-electron contribution =    -822.17843807 Ry
     hartree contribution      =     421.10284941 Ry
     xc contribution           =     -61.56576719 Ry
     ewald contribution        =     346.43621741 Ry
     electric field correction =       0.00033968 Ry
     smearing contrib. (-TS)   =      -0.02994240 Ry

     convergence has been achieved in   6 iterations
 
 BEEF-vdW xc energy contributions
           1 :   -50.7161977814202     
           2 :    43.5387037374568     
           3 :   -32.5070148692612     
           4 :    21.9513133972516     
           5 :   -14.6581349796874     
           6 :    10.8523017173294     
           7 :   -9.00274917836907     
           8 :    7.47160721714268     
           9 :   -5.67705374068658     
          10 :    4.06054203396583     
          11 :   -3.22059310582112     
          12 :    3.15713535149406     
          13 :   -3.27033751734465     
          14 :    2.95843759915180     
          15 :   -2.14969911837455     
          16 :    1.27416889647087     
          17 :  -0.782435410237966     
          18 :   0.721410206418035     
          19 :  -0.754190595642321     
          20 :   0.541555192655537     
          21 :  -7.317968126903907E-002
          22 :  -0.365371558099191     
          23 :   0.510194766412617     
          24 :  -0.379434529742220     
          25 :   0.231601809415352     
          26 :  -0.295540806709695     
          27 :   0.553201325082192     
          28 :  -0.779154255327768     
          29 :   0.775527122253848     
          30 :  -0.561076587811279     
          31 :   -7.38795515841852     
          32 :   -5.33887566335925     

     Forces acting on atoms (Ry/au):


     negative rho (up, down):  4.888E-04 0.000E+00
     atom    1 type  1   force =    -0.00000008    0.00239869    0.00271411
     atom    2 type  1   force =     0.00000001    0.00074972   -0.00057549
     atom    3 type  1   force =    -0.00042571   -0.00097614    0.00069772
     atom    4 type  1   force =     0.00042572   -0.00097618    0.00069764
     atom    5 type  1   force =    -0.00099622   -0.00165268    0.00185872
     atom    6 type  1   force =     0.00099624   -0.00165273    0.00185872
     atom    7 type  1   force =     0.00000000   -0.00262197   -0.00410810
     atom    8 type  1   force =    -0.00000002   -0.00166171    0.01226379
     atom    9 type  1   force =    -0.01490666   -0.00229221    0.00668312
     atom   10 type  1   force =     0.01490661   -0.00229223    0.00668314
     atom   11 type  1   force =     0.00000001    0.02560635   -0.01621497
     atom   12 type  1   force =     0.00000002   -0.02044415   -0.01450501
     atom   13 type  2   force =     0.00000005    0.00490471    0.06143460
     atom   14 type  3   force =     0.00000003    0.00091054   -0.05948800

     Total force =     0.097104     Total SCF correction =     0.002378


     entering subroutine stress ...


     negative rho (up, down):  4.888E-04 0.000E+00
          total   stress  (Ry/bohr**3)                   (kbar)     P=   -6.00
  -0.00006067  -0.00000000   0.00000000         -8.92     -0.00      0.00
  -0.00000000  -0.00001752   0.00000843         -0.00     -2.58      1.24
   0.00000000   0.00000843  -0.00004408          0.00      1.24     -6.48


     number of scf cycles    =   2
     number of bfgs steps    =   1

     energy   old            =    -116.2328876320 Ry
     energy   new            =    -116.2347411650 Ry

     CASE: energy  _new < energy  _old

     new trust radius        =       0.0299192526 bohr
     new conv_thr            =       0.0000001000 Ry


ATOMIC_POSITIONS (crystal)
Al1      0.166666667   0.166666667   0.405843214    0   0   0
Al1      0.666666667   0.166666667   0.405843214    0   0   0
Al1      0.166666667   0.666666667   0.405843214    0   0   0
Al1      0.666666667   0.666666667   0.405843214    0   0   0
Al1      0.833333333   0.333333333   0.500000000    0   0   0
Al1      0.333333333   0.333333333   0.500000000    0   0   0
Al1      0.833333333   0.833333333   0.500000000    0   0   0
Al1      0.333333333   0.833333333   0.500000000    0   0   0
Al1     -0.002423197  -0.000526037   0.594547918
Al1      0.502949233  -0.000526049   0.594547916
Al1     -0.002897885   0.505795736   0.593445646
Al1      0.502299142   0.495401735   0.593528279
O1       0.249513802   0.000972453   0.650175024
H1       0.249913378   0.000173235   0.690439939



     Writing output data file calc.save
     Check: negative starting charge=   -0.000272
     NEW-OLD atomic charge density approx. for the potential
     Check: negative starting charge=   -0.000273

     negative rho (up, down):  4.894E-04 0.000E+00
 
     Adding external electric field

     Computed dipole along edir(3) : 
        Dipole                0.3545 Ry au,          0.9011 Debye
        Dipole field          0.0010 Ry au
 
        Potential amp.       -0.0870 Ry
        Total length         45.3989 bohr
 

     total cpu time spent up to now is      139.7 secs

     Self-consistent Calculation

     iteration #  1     ecut=    36.75 Ry     beta=0.30
     Davidson diagonalization with overlap
     ethr =  1.00E-06,  avg # of iterations =  4.0

     negative rho (up, down):  4.828E-04 0.000E+00
 
     Adding external electric field

     Computed dipole along edir(3) : 
        Dipole                0.3181 Ry au,          0.8086 Debye
        Dipole field          0.0009 Ry au
 
        Potential amp.       -0.0781 Ry
        Total length         45.3989 bohr
 

     total cpu time spent up to now is      146.6 secs

     total energy              =    -116.23840104 Ry
     Harris-Foulkes estimate   =    -116.23876342 Ry
     estimated scf accuracy    <       0.00071141 Ry

     iteration #  2     ecut=    36.75 Ry     beta=0.30
     Davidson diagonalization with overlap
     ethr =  1.65E-06,  avg # of iterations =  3.6

     negative rho (up, down):  4.813E-04 0.000E+00
 
     Adding external electric field

     Computed dipole along edir(3) : 
        Dipole                0.3593 Ry au,          0.9132 Debye
        Dipole field          0.0010 Ry au
 
        Potential amp.       -0.0881 Ry
        Total length         45.3989 bohr
 

     total cpu time spent up to now is      151.8 secs

     total energy              =    -116.23811626 Ry
     Harris-Foulkes estimate   =    -116.23870712 Ry
     estimated scf accuracy    <       0.00731295 Ry

     iteration #  3     ecut=    36.75 Ry     beta=0.30
     Davidson diagonalization with overlap
     ethr =  1.65E-06,  avg # of iterations =  3.2

     negative rho (up, down):  4.833E-04 0.000E+00
 
     Adding external electric field

     Computed dipole along edir(3) : 
        Dipole                0.3507 Ry au,          0.8913 Debye
        Dipole field          0.0009 Ry au
 
        Potential amp.       -0.0860 Ry
        Total length         45.3989 bohr
 

     total cpu time spent up to now is      156.8 secs

     total energy              =    -116.23848218 Ry
     Harris-Foulkes estimate   =    -116.23858761 Ry
     estimated scf accuracy    <       0.00114492 Ry

     iteration #  4     ecut=    36.75 Ry     beta=0.30
     Davidson diagonalization with overlap
     ethr =  1.65E-06,  avg # of iterations =  1.1

     negative rho (up, down):  4.869E-04 0.000E+00
 
     Adding external electric field

     Computed dipole along edir(3) : 
        Dipole                0.3522 Ry au,          0.8951 Debye
        Dipole field          0.0010 Ry au
 
        Potential amp.       -0.0864 Ry
        Total length         45.3989 bohr
 

     total cpu time spent up to now is      160.9 secs

     total energy              =    -116.23851800 Ry
     Harris-Foulkes estimate   =    -116.23851843 Ry
     estimated scf accuracy    <       0.00001636 Ry

     iteration #  5     ecut=    36.75 Ry     beta=0.30
     Davidson diagonalization with overlap
     ethr =  3.80E-08,  avg # of iterations =  2.8

     negative rho (up, down):  4.891E-04 0.000E+00
 
     Adding external electric field

     Computed dipole along edir(3) : 
        Dipole                0.3530 Ry au,          0.8972 Debye
        Dipole field          0.0010 Ry au
 
        Potential amp.       -0.0866 Ry
        Total length         45.3989 bohr
 

     total cpu time spent up to now is      165.7 secs

     total energy              =    -116.23852020 Ry
     Harris-Foulkes estimate   =    -116.23851889 Ry
     estimated scf accuracy    <       0.00000387 Ry

     iteration #  6     ecut=    36.75 Ry     beta=0.30
     Davidson diagonalization with overlap
     ethr =  9.01E-09,  avg # of iterations =  2.0

     negative rho (up, down):  4.911E-04 0.000E+00
 
     Adding external electric field

     Computed dipole along edir(3) : 
        Dipole                0.3538 Ry au,          0.8993 Debye
        Dipole field          0.0010 Ry au
 
        Potential amp.       -0.0868 Ry
        Total length         45.3989 bohr
 

     total cpu time spent up to now is      170.1 secs

     total energy              =    -116.23852072 Ry
     Harris-Foulkes estimate   =    -116.23851915 Ry
     estimated scf accuracy    <       0.00000172 Ry

     iteration #  7     ecut=    36.75 Ry     beta=0.30
     Davidson diagonalization with overlap
     ethr =  4.00E-09,  avg # of iterations =  2.0

     negative rho (up, down):  4.924E-04 0.000E+00
 
     Adding external electric field

     Computed dipole along edir(3) : 
        Dipole                0.3538 Ry au,          0.8993 Debye
        Dipole field          0.0010 Ry au
 
        Potential amp.       -0.0868 Ry
        Total length         45.3989 bohr
 

     total cpu time spent up to now is      174.5 secs

     total energy              =    -116.23852091 Ry
     Harris-Foulkes estimate   =    -116.23852083 Ry
     estimated scf accuracy    <       0.00000029 Ry

     iteration #  8     ecut=    36.75 Ry     beta=0.30
     Davidson diagonalization with overlap
     ethr =  6.66E-10,  avg # of iterations =  1.9

     negative rho (up, down):  4.951E-04 0.000E+00

     negative rho (up, down):  4.951E-04 0.000E+00

     negative rho (up, down):  4.951E-04 0.000E+00

     negative rho (up, down):  4.951E-04 0.000E+00

     negative rho (up, down):  4.951E-04 0.000E+00

     negative rho (up, down):  4.951E-04 0.000E+00

     negative rho (up, down):  4.951E-04 0.000E+00

     negative rho (up, down):  4.951E-04 0.000E+00

     negative rho (up, down):  4.951E-04 0.000E+00

     negative rho (up, down):  4.951E-04 0.000E+00

     negative rho (up, down):  4.951E-04 0.000E+00

     negative rho (up, down):  4.951E-04 0.000E+00

     negative rho (up, down):  4.951E-04 0.000E+00

     negative rho (up, down):  4.951E-04 0.000E+00

     negative rho (up, down):  4.951E-04 0.000E+00

     negative rho (up, down):  4.951E-04 0.000E+00

     negative rho (up, down):  4.951E-04 0.000E+00

     negative rho (up, down):  4.951E-04 0.000E+00

     negative rho (up, down):  4.951E-04 0.000E+00

     negative rho (up, down):  4.951E-04 0.000E+00

     negative rho (up, down):  4.951E-04 0.000E+00

     negative rho (up, down):  4.951E-04 0.000E+00

     negative rho (up, down):  4.951E-04 0.000E+00

     negative rho (up, down):  4.951E-04 0.000E+00

     negative rho (up, down):  4.951E-04 0.000E+00

     negative rho (up, down):  4.951E-04 0.000E+00

     negative rho (up, down):  4.951E-04 0.000E+00

     negative rho (up, down):  4.951E-04 0.000E+00

     negative rho (up, down):  4.951E-04 0.000E+00

     negative rho (up, down):  4.951E-04 0.000E+00

     negative rho (up, down):  4.951E-04 0.000E+00

     negative rho (up, down):  4.951E-04 0.000E+00

     negative rho (up, down):  4.951E-04 0.000E+00

     negative rho (up, down):  4.951E-04 0.000E+00

     negative rho (up, down):  4.951E-04 0.000E+00
 
     Adding external electric field

     Computed dipole along edir(3) : 
        Dipole                0.3561 Ry au,          0.9052 Debye
        Dipole field          0.0010 Ry au
 
        Potential amp.       -0.0874 Ry
        Total length         45.3989 bohr
 

     total cpu time spent up to now is      194.5 secs

     End of self-consistent calculation

          k = 0.0000 0.0000 0.0000 ( 17579 PWs)   bands (ev):

   -21.5492 -10.9187 -10.0679  -8.6055  -6.6147  -6.1087  -5.8246  -4.8232
    -4.7842  -4.7787  -4.6531  -4.6155  -4.5084  -3.4296  -3.3994  -3.2603
    -2.8802  -2.7951  -2.6188  -2.2605  -0.5825  -0.4026  -0.3909   0.0557
     0.1844   0.2179   0.5365   1.6054   2.4070   2.4277   2.4652

          k = 0.0000 0.0339 0.0000 ( 17522 PWs)   bands (ev):

   -21.5488 -10.7870  -9.9993  -8.5040  -6.6743  -6.6427  -6.0952  -5.5631
    -5.4852  -5.4535  -4.5596  -3.8452  -3.7411  -3.5901  -3.5857  -2.9007
    -2.6872  -1.9998  -1.9897  -1.6451  -0.8982  -0.7188  -0.5957   0.3859
     0.8307   0.8895   1.0352   1.5851   1.9122   2.0934   2.5496

          k = 0.0000 0.0677 0.0000 ( 17510 PWs)   bands (ev):

   -21.5480 -10.4763  -9.7600  -8.2620  -7.9064  -6.7980  -6.5349  -6.0802
    -5.8588  -5.5676  -4.9671  -4.2401  -4.1646  -3.2280  -2.5209  -2.3461
    -2.0868  -1.4395  -1.3397  -0.4881  -0.2843  -0.2728   0.0456   0.8619
     1.2866   1.3370   1.3954   1.7291   1.7755   2.1089   2.4644

          k = 0.0000-0.1016 0.0000 ( 17464 PWs)   bands (ev):

   -21.5476 -10.3105  -9.2552  -8.9949  -7.6896  -7.1853  -6.8611  -6.1530
    -5.9835  -5.7033  -4.7836  -4.2855  -4.1780  -3.9838  -2.0489  -1.8087
    -1.5906  -1.0119  -0.5487  -0.3921  -0.2078  -0.1600   0.8855   0.9082
     1.2636   1.3905   1.4843   1.6494   1.8767   2.0393   2.4862

          k = 0.0293-0.0169 0.0000 ( 17522 PWs)   bands (ev):

   -21.5488 -10.7870  -9.9992  -8.5111  -6.8518  -6.3829  -6.0445  -5.7737
    -5.5075  -5.2953  -4.6607  -3.8191  -3.7640  -3.6136  -3.4673  -2.9688
    -2.6789  -2.0176  -1.9277  -1.7109  -0.8150  -0.7130  -0.6567   0.3868
     0.7618   0.9409   1.0887   1.5820   1.8932   2.0906   2.5698

          k = 0.0293 0.0169 0.0000 ( 17522 PWs)   bands (ev):

   -21.5488 -10.7870  -9.9992  -8.5111  -6.8518  -6.3829  -6.0445  -5.7737
    -5.5075  -5.2953  -4.6607  -3.8191  -3.7640  -3.6136  -3.4673  -2.9688
    -2.6789  -2.0176  -1.9277  -1.7109  -0.8150  -0.7130  -0.6567   0.3868
     0.7618   0.9409   1.0887   1.5820   1.8932   2.0906   2.5698

          k = 0.0293 0.0508 0.0000 ( 17513 PWs)   bands (ev):

   -21.5482 -10.5620  -9.8485  -8.3052  -7.3281  -7.1623  -6.5994  -6.1317
    -5.4403  -5.2435  -4.8530  -4.2502  -4.1610  -2.9775  -2.8624  -2.6142
    -2.2545  -1.9727  -1.3340  -1.1815  -0.0512   0.0692   0.2548   0.4837
     0.6329   0.7063   1.0439   1.6840   2.1187   2.7484   2.8571

          k = 0.0293-0.1185 0.0000 ( 17495 PWs)   bands (ev):

   -21.5476 -10.3245  -9.4165  -8.5179  -7.8379  -7.5243  -6.8810  -6.5906
    -5.6583  -5.4342  -4.6968  -4.4547  -3.7749  -2.9023  -2.8053  -2.6387
    -1.7951  -1.0703  -0.8989  -0.7144  -0.0244   0.2202   0.4490   1.1046
     1.1654   1.4024   1.8736   1.9560   2.2028   2.2971   2.6132

          k = 0.0293-0.0847 0.0000 ( 17495 PWs)   bands (ev):

   -21.5476 -10.3245  -9.4165  -8.5179  -7.8379  -7.5243  -6.8810  -6.5906
    -5.6583  -5.4342  -4.6968  -4.4547  -3.7749  -2.9023  -2.8053  -2.6387
    -1.7951  -1.0703  -0.8989  -0.7144  -0.0244   0.2202   0.4490   1.1046
     1.1654   1.4024   1.8736   1.9560   2.2028   2.2971   2.6132

          k = 0.0293-0.0508 0.0000 ( 17513 PWs)   bands (ev):

   -21.5482 -10.5620  -9.8485  -8.3052  -7.3281  -7.1623  -6.5994  -6.1317
    -5.4403  -5.2435  -4.8530  -4.2502  -4.1610  -2.9775  -2.8624  -2.6142
    -2.2545  -1.9727  -1.3340  -1.1815  -0.0512   0.0692   0.2548   0.4837
     0.6329   0.7063   1.0439   1.6840   2.1187   2.7484   2.8571

          k = 0.0587-0.0339 0.0000 ( 17510 PWs)   bands (ev):

   -21.5479 -10.4752  -9.7619  -8.3096  -7.8921  -6.8303  -6.3743  -6.1049
    -5.8114  -5.5409  -5.1803  -4.2712  -4.0275  -3.2954  -2.4860  -2.3275
    -2.1122  -1.5089  -1.2985  -0.5670  -0.3129  -0.1323   0.0393   0.8744
     1.2436   1.2902   1.4722   1.7447   1.8407   2.1692   2.4355

          k = 0.0587 0.0000 0.0000 ( 17513 PWs)   bands (ev):

   -21.5481 -10.5616  -9.8493  -8.3308  -7.2741  -7.2061  -6.6220  -6.0094
    -5.4381  -5.1733  -5.0550  -4.2623  -4.1161  -3.0127  -2.7147  -2.6860
    -2.3200  -1.9636  -1.2935  -1.2216  -0.0399   0.0814   0.2672   0.4863
     0.5819   0.7469   1.1033   1.7168   2.0992   2.7752   2.8052

          k = 0.0587 0.0339 0.0000 ( 17510 PWs)   bands (ev):

   -21.5479 -10.4752  -9.7619  -8.3096  -7.8921  -6.8303  -6.3743  -6.1049
    -5.8114  -5.5409  -5.1803  -4.2712  -4.0275  -3.2954  -2.4860  -2.3275
    -2.1122  -1.5089  -1.2985  -0.5670  -0.3129  -0.1323   0.0393   0.8744
     1.2436   1.2902   1.4722   1.7447   1.8407   2.1692   2.4355

          k = 0.0587-0.1355 0.0000 ( 17495 PWs)   bands (ev):

   -21.5475 -10.3230  -9.4204  -8.5366  -7.8174  -7.5529  -6.9495  -6.2367
    -6.0672  -5.2055  -4.7779  -4.4206  -3.8366  -2.8867  -2.8182  -2.6060
    -1.8073  -1.0245  -0.8677  -0.8072  -0.0969   0.2020   0.5363   1.1116
     1.2780   1.3874   1.8314   1.9763   2.1456   2.4673   2.5871

          k = 0.0587-0.1016 0.0000 ( 17442 PWs)   bands (ev):

   -21.5473 -10.2656  -8.7827  -8.7551  -8.4823  -7.3906  -7.2164  -6.4870
    -6.1591  -5.5035  -4.1333  -3.9624  -3.6933  -2.8488  -2.8122  -2.6869
    -1.7075  -1.2748  -1.2028  -0.9008  -0.8024  -0.1696   1.5843   1.6524
     1.8543   2.0655   2.2395   2.2522   2.7212   2.8168   2.8469

          k = 0.0587-0.0677 0.0000 ( 17495 PWs)   bands (ev):

   -21.5475 -10.3230  -9.4204  -8.5366  -7.8174  -7.5529  -6.9495  -6.2367
    -6.0672  -5.2055  -4.7779  -4.4206  -3.8366  -2.8867  -2.8182  -2.6060
    -1.8073  -1.0245  -0.8677  -0.8072  -0.0969   0.2020   0.5363   1.1116
     1.2780   1.3874   1.8314   1.9763   2.1456   2.4673   2.5871

          k =-0.0880 0.0508 0.0000 ( 17464 PWs)   bands (ev):

   -21.5475 -10.3073  -9.2729  -8.9925  -7.7900  -7.1487  -6.6082  -6.1849
    -6.1563  -5.6297  -4.7357  -4.4671  -4.0904  -4.0065  -2.0333  -1.7665
    -1.5838  -1.1107  -0.5525  -0.4926  -0.2639  -0.0185   0.8412   1.0190
     1.3711   1.4373   1.4904   1.6945   1.7842   2.0645   2.5168

          k =-0.0880 0.0847 0.0000 ( 17495 PWs)   bands (ev):

   -21.5475 -10.3223  -9.4244  -8.5295  -7.8786  -7.5028  -6.8632  -6.4813
    -5.8231  -5.2744  -4.7260  -4.5124  -3.8110  -2.9284  -2.7891  -2.5772
    -1.8216  -1.0859  -0.9200  -0.7150  -0.1363   0.3380   0.5450   1.1118
     1.2210   1.3755   1.8507   2.0304   2.0891   2.4414   2.6046

          k =-0.0880 0.1185 0.0000 ( 17495 PWs)   bands (ev):

   -21.5475 -10.3223  -9.4244  -8.5295  -7.8786  -7.5028  -6.8632  -6.4813
    -5.8231  -5.2744  -4.7260  -4.5124  -3.8110  -2.9284  -2.7891  -2.5772
    -1.8216  -1.0859  -0.9200  -0.7150  -0.1363   0.3380   0.5450   1.1118
     1.2210   1.3755   1.8507   2.0304   2.0891   2.4414   2.6046

          k =-0.0880-0.0508 0.0000 ( 17464 PWs)   bands (ev):

   -21.5475 -10.3073  -9.2729  -8.9925  -7.7900  -7.1487  -6.6082  -6.1849
    -6.1563  -5.6297  -4.7357  -4.4671  -4.0904  -4.0065  -2.0333  -1.7665
    -1.5838  -1.1107  -0.5525  -0.4926  -0.2639  -0.0185   0.8412   1.0190
     1.3711   1.4373   1.4904   1.6945   1.7842   2.0645   2.5168

     the Fermi energy is    -0.0476 ev

!    total energy              =    -116.23852088 Ry
     Harris-Foulkes estimate   =    -116.23851655 Ry
     estimated scf accuracy    <       0.00000008 Ry

     The total energy is the sum of the following terms:

     one-electron contribution =    -821.84657993 Ry
     hartree contribution      =     420.95308626 Ry
     xc contribution           =     -61.58399802 Ry
     ewald contribution        =     346.26848125 Ry
     electric field correction =       0.00034268 Ry
     smearing contrib. (-TS)   =      -0.02985312 Ry

     convergence has been achieved in   8 iterations
 
 BEEF-vdW xc energy contributions
           1 :   -50.7318224690034     
           2 :    43.5509290904054     
           3 :   -32.5169076907233     
           4 :    21.9621853456477     
           5 :   -14.6720238838834     
           6 :    10.8692985824709     
           7 :   -9.02135365659156     
           8 :    7.48950413010343     
           9 :   -5.69198359014787     
          10 :    4.07061897436770     
          11 :   -3.22458035440109     
          12 :    3.15529308404295     
          13 :   -3.26500232657933     
          14 :    2.95297528502227     
          15 :   -2.14608106941490     
          16 :    1.27186732601629     
          17 :  -0.779755184129776     
          18 :   0.717098438591186     
          19 :  -0.748377622620318     
          20 :   0.536052573257201     
          21 :  -7.003870728922834E-002
          22 :  -0.365960572297347     
          23 :   0.509805166247908     
          24 :  -0.379329711518885     
          25 :   0.231571032168077     
          26 :  -0.294892288663014     
          27 :   0.552176916906113     
          28 :  -0.778859336688946     
          29 :   0.776582691352814     
          30 :  -0.562317287725925     
          31 :   -7.38889912276489     
          32 :   -5.33937186858199     

     Forces acting on atoms (Ry/au):


     negative rho (up, down):  4.951E-04 0.000E+00
     atom    1 type  1   force =    -0.00000000    0.00242000    0.00288906
     atom    2 type  1   force =    -0.00000000    0.00083703   -0.00045891
     atom    3 type  1   force =    -0.00035511   -0.00101585    0.00077592
     atom    4 type  1   force =     0.00035511   -0.00101585    0.00077592
     atom    5 type  1   force =    -0.00082350   -0.00201734    0.00151190
     atom    6 type  1   force =     0.00082350   -0.00201734    0.00151190
     atom    7 type  1   force =     0.00000000   -0.00220950   -0.00502582
     atom    8 type  1   force =    -0.00000000   -0.00126084    0.01279582
     atom    9 type  1   force =    -0.00945389   -0.00202155    0.00854029
     atom   10 type  1   force =     0.00945391   -0.00202153    0.00854029
     atom   11 type  1   force =     0.00000002    0.02183186   -0.01490270
     atom   12 type  1   force =    -0.00000002   -0.01736629   -0.01343549
     atom   13 type  2   force =    -0.00000004    0.00492773    0.02141339
     atom   14 type  3   force =     0.00000002    0.00092946   -0.02493157

     Total force =     0.051175     Total SCF correction =     0.000281


     entering subroutine stress ...


     negative rho (up, down):  4.951E-04 0.000E+00
          total   stress  (Ry/bohr**3)                   (kbar)     P=   -5.43
  -0.00006238  -0.00000000  -0.00000000         -9.18     -0.00     -0.00
  -0.00000000  -0.00001766   0.00000833         -0.00     -2.60      1.22
  -0.00000000   0.00000833  -0.00003067         -0.00      1.22     -4.51


     number of scf cycles    =   3
     number of bfgs steps    =   2

     energy   old            =    -116.2347411650 Ry
     energy   new            =    -116.2385208829 Ry

     CASE: energy  _new < energy  _old

     new trust radius        =       0.0329111778 bohr
     new conv_thr            =       0.0000001000 Ry


ATOMIC_POSITIONS (crystal)
Al1      0.166666667   0.166666667   0.405843214    0   0   0
Al1      0.666666667   0.166666667   0.405843214    0   0   0
Al1      0.166666667   0.666666667   0.405843214    0   0   0
Al1      0.666666667   0.666666667   0.405843214    0   0   0
Al1      0.833333333   0.333333333   0.500000000    0   0   0
Al1      0.333333333   0.333333333   0.500000000    0   0   0
Al1      0.833333333   0.833333333   0.500000000    0   0   0
Al1      0.333333333   0.833333333   0.500000000    0   0   0
Al1     -0.003484754  -0.000798024   0.594769407
Al1      0.504282777  -0.000798037   0.594769404
Al1     -0.004376251   0.508752466   0.593057302
Al1      0.503473752   0.493052515   0.593180604
O1       0.249211929   0.001576203   0.650314504
H1       0.249857431   0.000285131   0.690218920



     Writing output data file calc.save
     Check: negative starting charge=   -0.000273
     NEW-OLD atomic charge density approx. for the potential
     Check: negative starting charge=   -0.000274

     negative rho (up, down):  4.889E-04 0.000E+00
 
     Adding external electric field

     Computed dipole along edir(3) : 
        Dipole                0.3561 Ry au,          0.9051 Debye
        Dipole field          0.0010 Ry au
 
        Potential amp.       -0.0874 Ry
        Total length         45.3989 bohr
 

     total cpu time spent up to now is      203.6 secs

     Self-consistent Calculation

     iteration #  1     ecut=    36.75 Ry     beta=0.30
     Davidson diagonalization with overlap
     ethr =  1.00E-06,  avg # of iterations =  3.5

     negative rho (up, down):  4.888E-04 0.000E+00
 
     Adding external electric field

     Computed dipole along edir(3) : 
        Dipole                0.3160 Ry au,          0.8031 Debye
        Dipole field          0.0009 Ry au
 
        Potential amp.       -0.0775 Ry
        Total length         45.3989 bohr
 

     total cpu time spent up to now is      210.0 secs

     total energy              =    -116.24046026 Ry
     Harris-Foulkes estimate   =    -116.24068074 Ry
     estimated scf accuracy    <       0.00033576 Ry

     iteration #  2     ecut=    36.75 Ry     beta=0.30
     Davidson diagonalization with overlap
     ethr =  7.81E-07,  avg # of iterations =  3.5

     negative rho (up, down):  4.890E-04 0.000E+00
 
     Adding external electric field

     Computed dipole along edir(3) : 
        Dipole                0.3529 Ry au,          0.8969 Debye
        Dipole field          0.0010 Ry au
 
        Potential amp.       -0.0866 Ry
        Total length         45.3989 bohr
 

     total cpu time spent up to now is      215.1 secs

     total energy              =    -116.24018733 Ry
     Harris-Foulkes estimate   =    -116.24082151 Ry
     estimated scf accuracy    <       0.00979748 Ry

     iteration #  3     ecut=    36.75 Ry     beta=0.30
     Davidson diagonalization with overlap
     ethr =  7.81E-07,  avg # of iterations =  3.1

     negative rho (up, down):  4.904E-04 0.000E+00
 
     Adding external electric field

     Computed dipole along edir(3) : 
        Dipole                0.3514 Ry au,          0.8933 Debye
        Dipole field          0.0009 Ry au
 
        Potential amp.       -0.0862 Ry
        Total length         45.3989 bohr
 

     total cpu time spent up to now is      220.1 secs

     total energy              =    -116.24054894 Ry
     Harris-Foulkes estimate   =    -116.24056129 Ry
     estimated scf accuracy    <       0.00007823 Ry

     iteration #  4     ecut=    36.75 Ry     beta=0.30
     Davidson diagonalization with overlap
     ethr =  1.82E-07,  avg # of iterations =  1.4

     negative rho (up, down):  4.914E-04 0.000E+00
 
     Adding external electric field

     Computed dipole along edir(3) : 
        Dipole                0.3515 Ry au,          0.8933 Debye
        Dipole field          0.0009 Ry au
 
        Potential amp.       -0.0862 Ry
        Total length         45.3989 bohr
 

     total cpu time spent up to now is      224.3 secs

     total energy              =    -116.24055260 Ry
     Harris-Foulkes estimate   =    -116.24055432 Ry
     estimated scf accuracy    <       0.00000919 Ry

     iteration #  5     ecut=    36.75 Ry     beta=0.30
     Davidson diagonalization with overlap
     ethr =  2.14E-08,  avg # of iterations =  2.0

     negative rho (up, down):  4.928E-04 0.000E+00
 
     Adding external electric field

     Computed dipole along edir(3) : 
        Dipole                0.3518 Ry au,          0.8942 Debye
        Dipole field          0.0010 Ry au
 
        Potential amp.       -0.0863 Ry
        Total length         45.3989 bohr
 

     total cpu time spent up to now is      228.7 secs

     total energy              =    -116.24055410 Ry
     Harris-Foulkes estimate   =    -116.24055317 Ry
     estimated scf accuracy    <       0.00000186 Ry

     iteration #  6     ecut=    36.75 Ry     beta=0.30
     Davidson diagonalization with overlap
     ethr =  4.33E-09,  avg # of iterations =  1.6

     negative rho (up, down):  4.941E-04 0.000E+00
 
     Adding external electric field

     Computed dipole along edir(3) : 
        Dipole                0.3521 Ry au,          0.8949 Debye
        Dipole field          0.0010 Ry au
 
        Potential amp.       -0.0864 Ry
        Total length         45.3989 bohr
 

     total cpu time spent up to now is      233.0 secs

     total energy              =    -116.24055440 Ry
     Harris-Foulkes estimate   =    -116.24055372 Ry
     estimated scf accuracy    <       0.00000041 Ry

     iteration #  7     ecut=    36.75 Ry     beta=0.30
     Davidson diagonalization with overlap
     ethr =  9.53E-10,  avg # of iterations =  2.0

     negative rho (up, down):  4.955E-04 0.000E+00

     negative rho (up, down):  4.955E-04 0.000E+00

     negative rho (up, down):  4.955E-04 0.000E+00

     negative rho (up, down):  4.955E-04 0.000E+00

     negative rho (up, down):  4.955E-04 0.000E+00

     negative rho (up, down):  4.955E-04 0.000E+00

     negative rho (up, down):  4.955E-04 0.000E+00

     negative rho (up, down):  4.955E-04 0.000E+00

     negative rho (up, down):  4.955E-04 0.000E+00

     negative rho (up, down):  4.955E-04 0.000E+00

     negative rho (up, down):  4.955E-04 0.000E+00

     negative rho (up, down):  4.955E-04 0.000E+00

     negative rho (up, down):  4.955E-04 0.000E+00

     negative rho (up, down):  4.955E-04 0.000E+00

     negative rho (up, down):  4.955E-04 0.000E+00

     negative rho (up, down):  4.955E-04 0.000E+00

     negative rho (up, down):  4.955E-04 0.000E+00

     negative rho (up, down):  4.955E-04 0.000E+00

     negative rho (up, down):  4.955E-04 0.000E+00

     negative rho (up, down):  4.955E-04 0.000E+00

     negative rho (up, down):  4.955E-04 0.000E+00

     negative rho (up, down):  4.955E-04 0.000E+00

     negative rho (up, down):  4.955E-04 0.000E+00

     negative rho (up, down):  4.955E-04 0.000E+00

     negative rho (up, down):  4.955E-04 0.000E+00

     negative rho (up, down):  4.955E-04 0.000E+00

     negative rho (up, down):  4.955E-04 0.000E+00

     negative rho (up, down):  4.955E-04 0.000E+00

     negative rho (up, down):  4.955E-04 0.000E+00

     negative rho (up, down):  4.955E-04 0.000E+00

     negative rho (up, down):  4.955E-04 0.000E+00

     negative rho (up, down):  4.955E-04 0.000E+00

     negative rho (up, down):  4.955E-04 0.000E+00

     negative rho (up, down):  4.955E-04 0.000E+00

     negative rho (up, down):  4.955E-04 0.000E+00
 
     Adding external electric field

     Computed dipole along edir(3) : 
        Dipole                0.3522 Ry au,          0.8953 Debye
        Dipole field          0.0010 Ry au
 
        Potential amp.       -0.0864 Ry
        Total length         45.3989 bohr
 

     total cpu time spent up to now is      253.4 secs

     End of self-consistent calculation

          k = 0.0000 0.0000 0.0000 ( 17579 PWs)   bands (ev):

   -21.5710 -10.9204 -10.0681  -8.6159  -6.5992  -6.1168  -5.7824  -4.8413
    -4.8000  -4.7858  -4.6506  -4.6119  -4.5055  -3.4495  -3.3994  -3.2577
    -2.8963  -2.7908  -2.6208  -2.2537  -0.5941  -0.4070  -0.4003   0.0668
     0.1901   0.2139   0.5494   1.6130   2.3966   2.4121   2.4672

          k = 0.0000 0.0339 0.0000 ( 17522 PWs)   bands (ev):

   -21.5706 -10.7878 -10.0002  -8.5136  -6.6595  -6.6376  -6.0980  -5.5565
    -5.4825  -5.4554  -4.5676  -3.8498  -3.7403  -3.5904  -3.5886  -2.9015
    -2.6952  -2.0056  -1.9989  -1.6489  -0.8922  -0.7217  -0.5920   0.3868
     0.8237   0.8897   1.0296   1.5953   1.9153   2.0953   2.5626

          k = 0.0000 0.0677 0.0000 ( 17510 PWs)   bands (ev):

   -21.5698 -10.4739  -9.7641  -8.2660  -7.9134  -6.7850  -6.5281  -6.0888
    -5.8589  -5.5693  -4.9606  -4.2402  -4.1679  -3.2314  -2.5294  -2.3445
    -2.0914  -1.4389  -1.3373  -0.4997  -0.2882  -0.2698   0.0451   0.8609
     1.2869   1.3409   1.3861   1.7267   1.7896   2.1179   2.4626

          k = 0.0000-0.1016 0.0000 ( 17464 PWs)   bands (ev):

   -21.5694 -10.3059  -9.2632  -8.9977  -7.6851  -7.2031  -6.8490  -6.1548
    -5.9826  -5.6837  -4.8062  -4.2888  -4.1760  -3.9743  -2.0628  -1.8051
    -1.5919  -1.0100  -0.5486  -0.3929  -0.2114  -0.1626   0.8836   0.9084
     1.2603   1.3965   1.4902   1.6435   1.8911   2.0272   2.4934

          k = 0.0293-0.0169 0.0000 ( 17522 PWs)   bands (ev):

   -21.5705 -10.7876 -10.0001  -8.5220  -6.8460  -6.3797  -6.0245  -5.7714
    -5.5162  -5.2865  -4.6662  -3.8296  -3.7711  -3.6148  -3.4635  -2.9744
    -2.6831  -2.0244  -1.9353  -1.7122  -0.8159  -0.7141  -0.6542   0.3875
     0.7589   0.9412   1.0882   1.5920   1.8953   2.0899   2.5755

          k = 0.0293 0.0169 0.0000 ( 17522 PWs)   bands (ev):

   -21.5705 -10.7876 -10.0001  -8.5220  -6.8460  -6.3797  -6.0245  -5.7714
    -5.5162  -5.2865  -4.6662  -3.8296  -3.7711  -3.6148  -3.4635  -2.9744
    -2.6831  -2.0244  -1.9353  -1.7122  -0.8159  -0.7141  -0.6542   0.3875
     0.7589   0.9412   1.0882   1.5920   1.8953   2.0899   2.5755

          k = 0.0293 0.0508 0.0000 ( 17513 PWs)   bands (ev):

   -21.5700 -10.5605  -9.8515  -8.3143  -7.3376  -7.1562  -6.5906  -6.1095
    -5.4621  -5.2393  -4.8449  -4.2526  -4.1617  -2.9886  -2.8663  -2.6163
    -2.2571  -1.9678  -1.3461  -1.1786  -0.0585   0.0646   0.2406   0.4962
     0.6309   0.7104   1.0550   1.6850   2.1277   2.7367   2.8602

          k = 0.0293-0.1185 0.0000 ( 17495 PWs)   bands (ev):

[...]
     ethr =  6.03E-08,  avg # of iterations =  2.6

     negative rho (up, down):  5.063E-04 0.000E+00
 
     Adding external electric field

     Computed dipole along edir(3) : 
        Dipole                0.3025 Ry au,          0.7689 Debye
        Dipole field          0.0008 Ry au
 
        Potential amp.       -0.0742 Ry
        Total length         45.3989 bohr
 

     total cpu time spent up to now is     1973.0 secs

     total energy              =    -116.25095947 Ry
     Harris-Foulkes estimate   =    -116.25096734 Ry
     estimated scf accuracy    <       0.00018249 Ry

     iteration #  3     ecut=    36.75 Ry     beta=0.30
     Davidson diagonalization with overlap
     ethr =  6.03E-08,  avg # of iterations =  2.8

     negative rho (up, down):  5.061E-04 0.000E+00
 
     Adding external electric field

     Computed dipole along edir(3) : 
        Dipole                0.2992 Ry au,          0.7605 Debye
        Dipole field          0.0008 Ry au
 
        Potential amp.       -0.0734 Ry
        Total length         45.3989 bohr
 

     total cpu time spent up to now is     1977.7 secs

     total energy              =    -116.25096858 Ry
     Harris-Foulkes estimate   =    -116.25098121 Ry
     estimated scf accuracy    <       0.00008514 Ry

     iteration #  4     ecut=    36.75 Ry     beta=0.30
     Davidson diagonalization with overlap
     ethr =  6.03E-08,  avg # of iterations =  1.9

     negative rho (up, down):  5.059E-04 0.000E+00
 
     Adding external electric field

     Computed dipole along edir(3) : 
        Dipole                0.2992 Ry au,          0.7604 Debye
        Dipole field          0.0008 Ry au
 
        Potential amp.       -0.0734 Ry
        Total length         45.3989 bohr
 

     total cpu time spent up to now is     1981.8 secs

     total energy              =    -116.25097203 Ry
     Harris-Foulkes estimate   =    -116.25097262 Ry
     estimated scf accuracy    <       0.00000295 Ry

     iteration #  5     ecut=    36.75 Ry     beta=0.30
     Davidson diagonalization with overlap
     ethr =  6.85E-09,  avg # of iterations =  2.0

     negative rho (up, down):  5.059E-04 0.000E+00
 
     Adding external electric field

     Computed dipole along edir(3) : 
        Dipole                0.2991 Ry au,          0.7603 Debye
        Dipole field          0.0008 Ry au
 
        Potential amp.       -0.0734 Ry
        Total length         45.3989 bohr
 

     total cpu time spent up to now is     1986.1 secs

     total energy              =    -116.25097233 Ry
     Harris-Foulkes estimate   =    -116.25097232 Ry
     estimated scf accuracy    <       0.00000038 Ry

     iteration #  6     ecut=    36.75 Ry     beta=0.30
     Davidson diagonalization with overlap
     ethr =  8.81E-10,  avg # of iterations =  2.2

     negative rho (up, down):  5.059E-04 0.000E+00
 
     Adding external electric field

     Computed dipole along edir(3) : 
        Dipole                0.2991 Ry au,          0.7603 Debye
        Dipole field          0.0008 Ry au
 
        Potential amp.       -0.0734 Ry
        Total length         45.3989 bohr
 

     total cpu time spent up to now is     1990.7 secs

     total energy              =    -116.25097236 Ry
     Harris-Foulkes estimate   =    -116.25097240 Ry
     estimated scf accuracy    <       0.00000010 Ry

     iteration #  7     ecut=    36.75 Ry     beta=0.30
     Davidson diagonalization with overlap
     ethr =  2.37E-10,  avg # of iterations =  2.5

     negative rho (up, down):  5.057E-04 0.000E+00

     negative rho (up, down):  5.057E-04 0.000E+00

     negative rho (up, down):  5.057E-04 0.000E+00

     negative rho (up, down):  5.057E-04 0.000E+00

     negative rho (up, down):  5.057E-04 0.000E+00

     negative rho (up, down):  5.057E-04 0.000E+00

     negative rho (up, down):  5.057E-04 0.000E+00

     negative rho (up, down):  5.057E-04 0.000E+00

     negative rho (up, down):  5.057E-04 0.000E+00

     negative rho (up, down):  5.057E-04 0.000E+00

     negative rho (up, down):  5.057E-04 0.000E+00

     negative rho (up, down):  5.057E-04 0.000E+00

     negative rho (up, down):  5.057E-04 0.000E+00

     negative rho (up, down):  5.057E-04 0.000E+00

     negative rho (up, down):  5.057E-04 0.000E+00

     negative rho (up, down):  5.057E-04 0.000E+00

     negative rho (up, down):  5.057E-04 0.000E+00

     negative rho (up, down):  5.057E-04 0.000E+00

     negative rho (up, down):  5.057E-04 0.000E+00

     negative rho (up, down):  5.057E-04 0.000E+00

     negative rho (up, down):  5.057E-04 0.000E+00

     negative rho (up, down):  5.057E-04 0.000E+00

     negative rho (up, down):  5.057E-04 0.000E+00

     negative rho (up, down):  5.057E-04 0.000E+00

     negative rho (up, down):  5.057E-04 0.000E+00

     negative rho (up, down):  5.057E-04 0.000E+00

     negative rho (up, down):  5.057E-04 0.000E+00

     negative rho (up, down):  5.057E-04 0.000E+00

     negative rho (up, down):  5.057E-04 0.000E+00

     negative rho (up, down):  5.057E-04 0.000E+00

     negative rho (up, down):  5.057E-04 0.000E+00

     negative rho (up, down):  5.057E-04 0.000E+00

     negative rho (up, down):  5.057E-04 0.000E+00

     negative rho (up, down):  5.057E-04 0.000E+00

     negative rho (up, down):  5.057E-04 0.000E+00
 
     Adding external electric field

     Computed dipole along edir(3) : 
        Dipole                0.2993 Ry au,          0.7606 Debye
        Dipole field          0.0008 Ry au
 
        Potential amp.       -0.0734 Ry
        Total length         45.3989 bohr
 

     total cpu time spent up to now is     2011.2 secs

     End of self-consistent calculation

          k = 0.0000 0.0000 0.0000 ( 17579 PWs)   bands (ev):

   -21.9306 -10.9795 -10.0556  -8.7389  -6.9272  -6.2984  -6.0355  -5.0370
    -4.9276  -4.9076  -4.6963  -4.6925  -4.5477  -3.5909  -3.4042  -3.2614
    -3.0381  -2.8836  -2.7553  -2.2245  -0.6484  -0.5207  -0.4817   0.1005
     0.2475   0.2544   0.6036   1.6853   2.2708   2.3397   2.4198

          k = 0.0000 0.0339 0.0000 ( 17522 PWs)   bands (ev):

   -21.9302 -10.8385  -9.9993  -8.6370  -6.9764  -6.7661  -6.2498  -5.8582
    -5.5505  -5.5234  -4.7489  -3.9337  -3.8139  -3.6322  -3.6273  -2.9630
    -2.8210  -2.1318  -2.0912  -1.6780  -0.9162  -0.7771  -0.5472   0.3721
     0.7630   0.8805   0.9891   1.6728   1.8915   2.0687   2.6431

          k = 0.0000 0.0677 0.0000 ( 17510 PWs)   bands (ev):

   -21.9295 -10.4844  -9.8147  -8.3908  -8.0058  -7.0775  -6.6593  -6.2436
    -5.9677  -5.7028  -5.2265  -4.2633  -4.2449  -3.3101  -2.6082  -2.3755
    -2.2069  -1.5220  -1.3331  -0.6072  -0.3720  -0.3059   0.0162   0.8396
     1.1879   1.2552   1.3344   1.6507   1.7992   2.1346   2.5298

          k = 0.0000-0.1016 0.0000 ( 17464 PWs)   bands (ev):

   -21.9291 -10.2761  -9.3957  -9.0652  -7.7880  -7.3152  -7.1289  -6.2932
    -6.0993  -5.9060  -4.9264  -4.4353  -4.3701  -3.8951  -2.1456  -1.7874
    -1.6649  -1.1011  -0.6372  -0.4459  -0.3617  -0.1730   0.7426   0.8555
     1.1406   1.3868   1.4202   1.6052   1.9502   2.0396   2.4929

          k = 0.0293-0.0169 0.0000 ( 17522 PWs)   bands (ev):

   -21.9302 -10.8379  -9.9981  -8.6510  -7.0971  -6.5542  -6.2727  -5.8967
    -5.6195  -5.4502  -4.7384  -3.9328  -3.8906  -3.6946  -3.4956  -3.0391
    -2.7792  -2.1217  -2.0641  -1.7286  -0.8601  -0.7820  -0.6065   0.3781
     0.7360   0.9179   1.0632   1.6668   1.8878   2.0428   2.6298

          k = 0.0293 0.0169 0.0000 ( 17522 PWs)   bands (ev):

   -21.9302 -10.8379  -9.9981  -8.6510  -7.0971  -6.5542  -6.2727  -5.8967
    -5.6195  -5.4502  -4.7384  -3.9328  -3.8906  -3.6946  -3.4956  -3.0391
    -2.7792  -2.1217  -2.0641  -1.7286  -0.8601  -0.7820  -0.6065   0.3781
     0.7360   0.9179   1.0632   1.6668   1.8878   2.0428   2.6298

          k = 0.0293 0.0508 0.0000 ( 17513 PWs)   bands (ev):

   -21.9296 -10.5855  -9.8817  -8.4438  -7.5116  -7.2363  -6.8315  -6.3031
    -5.6200  -5.4126  -4.9800  -4.3481  -4.2105  -3.1039  -2.8583  -2.6799
    -2.3954  -1.9757  -1.4812  -1.2026  -0.1187  -0.0386   0.1213   0.5194
     0.6138   0.7328   1.0530   1.6611   2.2079   2.6450   2.8280

          k = 0.0293-0.1185 0.0000 ( 17495 PWs)   bands (ev):

   -21.9291 -10.2938  -9.5204  -8.6286  -7.9886  -7.6278  -7.0179  -6.7813
    -5.9450  -5.5253  -4.8508  -4.5380  -3.9182  -2.9435  -2.8038  -2.6917
    -1.8870  -1.1567  -1.0006  -0.8015  -0.1253   0.2555   0.3858   1.0453
     1.1209   1.3791   1.7725   1.9280   2.1600   2.2988   2.7062

          k = 0.0293-0.0847 0.0000 ( 17495 PWs)   bands (ev):

   -21.9291 -10.2938  -9.5204  -8.6286  -7.9886  -7.6278  -7.0179  -6.7813
    -5.9450  -5.5253  -4.8508  -4.5380  -3.9182  -2.9435  -2.8038  -2.6917
    -1.8870  -1.1567  -1.0006  -0.8015  -0.1253   0.2555   0.3858   1.0453
     1.1209   1.3791   1.7725   1.9280   2.1600   2.2988   2.7062

          k = 0.0293-0.0508 0.0000 ( 17513 PWs)   bands (ev):

   -21.9296 -10.5855  -9.8817  -8.4438  -7.5116  -7.2363  -6.8315  -6.3031
    -5.6200  -5.4126  -4.9800  -4.3481  -4.2105  -3.1039  -2.8583  -2.6799
    -2.3954  -1.9757  -1.4812  -1.2026  -0.1187  -0.0386   0.1213   0.5194
     0.6138   0.7328   1.0530   1.6611   2.2079   2.6450   2.8280

          k = 0.0587-0.0339 0.0000 ( 17510 PWs)   bands (ev):

   -21.9293 -10.4777  -9.8175  -8.4733  -7.9910  -7.0634  -6.5327  -6.2625
    -5.9392  -5.7136  -5.2670  -4.3603  -4.1484  -3.3245  -2.5765  -2.3873
    -2.2323  -1.5916  -1.3699  -0.6823  -0.3626  -0.1000  -0.0325   0.8587
     1.1825   1.2290   1.4428   1.6688   1.8130   2.1494   2.4992

          k = 0.0587 0.0000 0.0000 ( 17513 PWs)   bands (ev):

   -21.9295 -10.5821  -9.8828  -8.4913  -7.4331  -7.3111  -6.8225  -6.2272
    -5.5949  -5.4084  -5.0210  -4.3644  -4.2122  -3.1204  -2.7927  -2.6413
    -2.5287  -1.9915  -1.4364  -1.2456  -0.1156  -0.0174   0.1649   0.4819
     0.6541   0.7091   1.1469   1.6283   2.1979   2.7129   2.7656

          k = 0.0587 0.0339 0.0000 ( 17510 PWs)   bands (ev):

   -21.9293 -10.4777  -9.8175  -8.4733  -7.9910  -7.0634  -6.5327  -6.2625
    -5.9392  -5.7136  -5.2670  -4.3603  -4.1484  -3.3245  -2.5765  -2.3873
    -2.2323  -1.5916  -1.3699  -0.6823  -0.3626  -0.1000  -0.0325   0.8587
     1.1825   1.2290   1.4428   1.6688   1.8130   2.1494   2.4992

          k = 0.0587-0.1355 0.0000 ( 17495 PWs)   bands (ev):

   -21.9290 -10.2858  -9.5291  -8.6693  -7.9486  -7.6736  -7.0963  -6.4368
    -6.2291  -5.4068  -4.9023  -4.5247  -3.8692  -3.0038  -2.8821  -2.6287
    -1.9141  -1.1113  -0.9413  -0.8727  -0.1960   0.1832   0.5064   1.0383
     1.2610   1.3583   1.7619   1.9344   2.1018   2.4768   2.6609

          k = 0.0587-0.1016 0.0000 ( 17442 PWs)   bands (ev):

   -21.9288 -10.2168  -8.9591  -8.8870  -8.5325  -7.5775  -7.3050  -6.5644
    -6.4028  -5.7506  -4.2845  -4.1056  -3.6682  -2.9492  -2.8962  -2.7374
    -1.7791  -1.3325  -1.2127  -1.1000  -0.9313  -0.0515   1.5358   1.6435
     1.8141   1.9969   2.1731   2.2944   2.6360   2.7431   2.7906

          k = 0.0587-0.0677 0.0000 ( 17495 PWs)   bands (ev):

   -21.9290 -10.2858  -9.5291  -8.6693  -7.9486  -7.6736  -7.0963  -6.4368
    -6.2291  -5.4068  -4.9023  -4.5247  -3.8692  -3.0038  -2.8821  -2.6287
    -1.9141  -1.1113  -0.9413  -0.8727  -0.1960   0.1832   0.5064   1.0383
     1.2610   1.3583   1.7619   1.9344   2.1018   2.4768   2.6609

          k =-0.0880 0.0508 0.0000 ( 17464 PWs)   bands (ev):

   -21.9289 -10.2584  -9.4306  -9.0697  -7.9470  -7.2830  -6.8041  -6.3956
    -6.2200  -5.8245  -4.8238  -4.5950  -4.2731  -3.9430  -2.1238  -1.8261
    -1.6704  -1.2214  -0.6406  -0.5733  -0.3455  -0.0191   0.7870   0.9711
     1.3325   1.3425   1.4401   1.6000   1.8205   2.0856   2.4718

          k =-0.0880 0.0847 0.0000 ( 17495 PWs)   bands (ev):

   -21.9289 -10.2807  -9.5417  -8.6513  -8.0456  -7.5936  -7.0095  -6.6554
    -6.0330  -5.4847  -4.7781  -4.6143  -3.8770  -3.0198  -2.8676  -2.6344
    -1.9046  -1.1556  -1.0219  -0.7903  -0.2266   0.2900   0.5541   1.0237
     1.2071   1.3464   1.7949   1.9342   2.0749   2.4308   2.6785

          k =-0.0880 0.1185 0.0000 ( 17495 PWs)   bands (ev):

   -21.9289 -10.2807  -9.5417  -8.6513  -8.0456  -7.5936  -7.0095  -6.6554
    -6.0330  -5.4847  -4.7781  -4.6143  -3.8770  -3.0198  -2.8676  -2.6344
    -1.9046  -1.1556  -1.0219  -0.7903  -0.2266   0.2900   0.5541   1.0237
     1.2071   1.3464   1.7949   1.9342   2.0749   2.4308   2.6785

          k =-0.0880-0.0508 0.0000 ( 17464 PWs)   bands (ev):

   -21.9289 -10.2584  -9.4306  -9.0697  -7.9470  -7.2830  -6.8041  -6.3956
    -6.2200  -5.8245  -4.8238  -4.5950  -4.2731  -3.9430  -2.1238  -1.8261
    -1.6704  -1.2214  -0.6406  -0.5733  -0.3455  -0.0191   0.7870   0.9711
     1.3325   1.3425   1.4401   1.6000   1.8205   2.0856   2.4718

     the Fermi energy is    -0.1001 ev

!    total energy              =    -116.25097234 Ry
     Harris-Foulkes estimate   =    -116.25097217 Ry
     estimated scf accuracy    <       0.00000006 Ry

     The total energy is the sum of the following terms:

     one-electron contribution =    -830.73967223 Ry
     hartree contribution      =     425.27325772 Ry
     xc contribution           =     -61.65586675 Ry
     ewald contribution        =     350.89988467 Ry
     electric field correction =       0.00024199 Ry
     smearing contrib. (-TS)   =      -0.02881774 Ry

     convergence has been achieved in   7 iterations
 
 BEEF-vdW xc energy contributions
           1 :   -50.7997162503506     
           2 :    43.6245148685501     
           3 :   -32.5906032108044     
           4 :    22.0196572044936     
           5 :   -14.6997959688262     
           6 :    10.8693046203592     
           7 :   -9.00883251627887     
           8 :    7.47934108184548     
           9 :   -5.68697006454276     
          10 :    4.06242576337281     
          11 :   -3.20608686291448     
          12 :    3.13182739203593     
          13 :   -3.25207013463935     
          14 :    2.96147358050398     
          15 :   -2.17003691019437     
          16 :    1.29155392648407     
          17 :  -0.777092521707559     
          18 :   0.691155194846289     
          19 :  -0.718800980782859     
          20 :   0.527983800761426     
          21 :  -9.120876360154284E-002
          22 :  -0.332823300442996     
          23 :   0.490538000435741     
          24 :  -0.384670264604594     
          25 :   0.249529151005532     
          26 :  -0.304905507684552     
          27 :   0.545779607996380     
          28 :  -0.766368458807001     
          29 :   0.774288847386167     
          30 :  -0.575474384342996     
          31 :   -7.39415450427691     
          32 :   -5.34497835993886     

     Forces acting on atoms (Ry/au):


     negative rho (up, down):  5.057E-04 0.000E+00
     atom    1 type  1   force =     0.00000000    0.00167556    0.00375344
     atom    2 type  1   force =     0.00000000    0.00108146    0.00030098
     atom    3 type  1   force =     0.00101388   -0.00024437    0.00069722
     atom    4 type  1   force =    -0.00101388   -0.00024437    0.00069722
     atom    5 type  1   force =     0.00274986   -0.00380540   -0.00064349
     atom    6 type  1   force =    -0.00274986   -0.00380540   -0.00064351
     atom    7 type  1   force =     0.00000000    0.00490478   -0.01601870
     atom    8 type  1   force =     0.00000001    0.00271512    0.00959465
     atom    9 type  1   force =     0.00045357    0.00005132    0.00073437
     atom   10 type  1   force =    -0.00045361    0.00005132    0.00073437
     atom   11 type  1   force =    -0.00000003   -0.00054299   -0.00052031
     atom   12 type  1   force =     0.00000004    0.00013898    0.00022329
     atom   13 type  2   force =     0.00000004   -0.00109076    0.00189468
     atom   14 type  3   force =    -0.00000002   -0.00088523   -0.00080422

     Total force =     0.002888     Total SCF correction =     0.000297
     SCF correction compared to forces is large: reduce conv_thr to get better values


     entering subroutine stress ...


     negative rho (up, down):  5.057E-04 0.000E+00
          total   stress  (Ry/bohr**3)                   (kbar)     P=   -2.85
  -0.00004934   0.00000000   0.00000000         -7.26      0.00      0.00
   0.00000000  -0.00000476  -0.00000575          0.00     -0.70     -0.85
   0.00000000  -0.00000575  -0.00000396          0.00     -0.85     -0.58


     bfgs converged in  33 scf cycles and  32 bfgs steps
     (criteria: energy <  1.0E+00, force <  1.9E-03)

     End of BFGS Geometry Optimization

     Final energy   =    -116.2509723369 Ry
Begin final coordinates

ATOMIC_POSITIONS (crystal)
Al1      0.166666667   0.166666667   0.405843214    0   0   0
Al1      0.666666667   0.166666667   0.405843214    0   0   0
Al1      0.166666667   0.666666667   0.405843214    0   0   0
Al1      0.666666667   0.666666667   0.405843214    0   0   0
Al1      0.833333333   0.333333333   0.500000000    0   0   0
Al1      0.333333333   0.333333333   0.500000000    0   0   0
Al1      0.833333333   0.833333333   0.500000000    0   0   0
Al1      0.333333333   0.833333333   0.500000000    0   0   0
Al1     -0.009451496   0.008972145   0.594978871
Al1      0.500479376   0.008972141   0.594978873
Al1     -0.021144385   0.542288797   0.590768439
Al1      0.504151032   0.491697870   0.589826757
O1       0.212778433   0.074443085   0.647354259
H1       0.262159820  -0.024319612   0.681945566
End final coordinates



     Writing output data file calc.save
 
     init_run     :      2.73s CPU      3.80s WALL (       1 calls)
     electrons    :   1237.93s CPU   1720.17s WALL (      33 calls)
     update_pot   :     39.49s CPU     44.76s WALL (      32 calls)
     forces       :     58.69s CPU     64.19s WALL (      33 calls)
     stress       :    141.33s CPU    154.03s WALL (      33 calls)

     Called by init_run:
     wfcinit      :      1.24s CPU      1.97s WALL (       1 calls)
     potinit      :      0.67s CPU      0.79s WALL (       1 calls)

     Called by electrons:
     c_bands      :    534.73s CPU    790.29s WALL (     254 calls)
     sum_band     :    148.24s CPU    200.51s WALL (     254 calls)
     v_of_rho     :    109.83s CPU    142.23s WALL (     282 calls)
     newd         :     62.14s CPU     78.44s WALL (     282 calls)
     mix_rho      :      3.16s CPU      4.43s WALL (     254 calls)
     vdW_energy   :    102.97s CPU    116.57s WALL (    1470 calls)
     vdW_ffts     :    170.98s CPU    251.06s WALL (    3006 calls)
     vdW_v        :     77.76s CPU     93.65s WALL (    1470 calls)

     Called by c_bands:
     init_us_2    :      9.53s CPU     11.48s WALL (   11500 calls)
     cegterg      :    498.70s CPU    752.48s WALL (    5080 calls)

     Called by *egterg:
     h_psi        :    390.13s CPU    611.49s WALL (   17624 calls)
     s_psi        :     18.08s CPU     18.52s WALL (   17624 calls)
     g_psi        :      3.20s CPU      3.24s WALL (   12524 calls)
     cdiaghg      :     31.36s CPU     31.92s WALL (   16864 calls)

     Called by h_psi:
     add_vuspsi   :     17.46s CPU     18.10s WALL (   17624 calls)

     General routines
     calbec       :     35.37s CPU     36.15s WALL (   24024 calls)
     fft          :    279.29s CPU    397.49s WALL (   88063 calls)
     ffts         :      0.37s CPU      0.51s WALL (     536 calls)
     fftw         :    353.83s CPU    617.10s WALL (  913406 calls)
     interpolate  :      1.89s CPU      3.59s WALL (     536 calls)
     davcio       :      0.00s CPU      0.06s WALL (      20 calls)
 
     Parallel routines
     fft_scatter  :    366.11s CPU    577.10s WALL ( 1002005 calls)
 
     PWSCF        : 24m55.21s CPU    33m38.66s WALL

 
   This run was terminated on:  11:46:13  16Apr2018            

=------------------------------------------------------------------------------=
   JOB DONE.
=------------------------------------------------------------------------------=
