  python dir          : /u/if/winther/.local/lib/python2.7/site-packages/espresso
  espresso dir        : /nfs/slac/g/suncatfs/sw/espv18/espresso-dynpy-beef/bin
  pseudo dir          : /nfs/slac/g/suncatfs/sw/external/esp-psp/gbrv1.5pbe
  ase-espresso py git : d16fa15-git



     Program PWSCF v.5.1rc2 (svn rev. 11289) starts on  9May2018 at  6:52:37 

     This program is part of the open-source Quantum ESPRESSO suite
     for quantum simulation of materials; please cite
         "P. Giannozzi et al., J. Phys.:Condens. Matter 21 395502 (2009);
          URL http://www.quantum-espresso.org", 
     in publications or presentations arising from this work. More details at
     http://www.quantum-espresso.org/quote

     Parallel version (MPI), running on    24 processors
     K-points division:     npool     =       2
     R & G space division:  proc/nbgrp/npool/nimage =      12
     Reading input from pw.inp
     Message from routine read_cards :
     DEPRECATED: no units specified in CELL_PARAMETERS card

     Current dimensions of program PWSCF are:
     Max number of different atomic species (ntypx) = 10
     Max number of k-points (npk) =  40000
     Max angular momentum in pseudopotentials (lmaxx) =  3
     Presently stress not available with electric field


     **************************************************************************
     Initializing libbeef V0.1.1 with the BEEF-vdW functional.
     Citation: Wellendorff et al., PRB 85, 235149 (2012).
     **************************************************************************


     IMPORTANT: XC functional enforced from input :
     Exchange-correlation      = BEEF-VDW ( 1  4 27 13 2)
     Any further DFT definition will be discarded
     Please, verify this is what you really want


     Subspace diagonalization in iterative solution of the eigenvalue problem:
     a serial algorithm will be used

 
     Parallelization info
     --------------------
     sticks:   dense  smooth     PW     G-vecs:    dense   smooth      PW
     Min         239      96     27                45287    11464    1804
     Max         240      97     29                45310    11495    1817
     Sum        2869    1159    337               543535   137813   21685
 


     bravais-lattice index     =            0
     lattice parameter (alat)  =       1.8897  a.u.
     unit-cell volume          =    4569.9960 (a.u.)^3
     number of atoms/cell      =           16
     number of atomic types    =            3
     number of electrons       =       199.00
     number of Kohn-Sham states=          109
     kinetic-energy cutoff     =      36.7493  Ry
     charge density cutoff     =     367.4932  Ry
     convergence threshold     =      1.0E-05
     mixing beta               =       0.3000
     number of iterations used =           10  plain     mixing
     Exchange-correlation      = BEEF-VDW ( 1  4 27 13 2)
     nstep                     =           50


     celldm(1)=   1.889726  celldm(2)=   0.000000  celldm(3)=   0.000000
     celldm(4)=   0.000000  celldm(5)=   0.000000  celldm(6)=   0.000000

     crystal axes: (cart. coord. in units of alat)
               a(1) = (   5.637663   0.000000   0.000000 )  
               a(2) = (   2.818831   4.882359   0.000000 )  
               a(3) = (   0.000000   0.000000  24.603132 )  

     reciprocal axes: (cart. coord. in units 2 pi/alat)
               b(1) = (  0.177378 -0.102410  0.000000 )  
               b(2) = (  0.000000  0.204819  0.000000 )  
               b(3) = (  0.000000  0.000000  0.040645 )  


     PseudoPot. # 1 for Pd read from file:
     /nfs/slac/g/suncatfs/sw/external/esp-psp/gbrv1.5pbe/Pd.UPF
     MD5 check sum: 2d733d2bc2cbfd217af676df1668a4bc
     Pseudo is Ultrasoft + core correction, Zval = 16.0
     Generated by new atomic code, or converted to UPF format
     Using radial grid of  887 points,  6 beta functions with: 
                l(1) =   0
                l(2) =   0
                l(3) =   1
                l(4) =   1
                l(5) =   2
                l(6) =   2
     Q(r) pseudized with  8 coefficients,  rinner =    1.130   1.130   1.130
                                                       1.130   1.130

     PseudoPot. # 2 for C  read from file:
     /nfs/slac/g/suncatfs/sw/external/esp-psp/gbrv1.5pbe/C.UPF
     MD5 check sum: d1aef80898a10debaa0f26306b886e00
     Pseudo is Ultrasoft + core correction, Zval =  4.0
     Generated by new atomic code, or converted to UPF format
     Using radial grid of  721 points,  4 beta functions with: 
                l(1) =   0
                l(2) =   0
                l(3) =   1
                l(4) =   1
     Q(r) pseudized with  8 coefficients,  rinner =    1.100   1.100   1.100


     PseudoPot. # 3 for H  read from file:
     /nfs/slac/g/suncatfs/sw/external/esp-psp/gbrv1.5pbe/H.UPF
     MD5 check sum: 761ae9a214b05c3daf00ab9f6b793d6f
     Pseudo is Ultrasoft, Zval =  1.0
     Generated by new atomic code, or converted to UPF format
     Using radial grid of  615 points,  2 beta functions with: 
                l(1) =   0
                l(2) =   0
     Q(r) pseudized with  8 coefficients,  rinner =    0.700

     vdW kernel table read from file vdW_kernel_table
     MD5 check sum: 095c7af220d748ca6e76c0b4c6cfb241

     atomic species   valence    mass     pseudopotential
        Pd1           16.00   106.42000     Pd( 1.00)
        C1             4.00    12.01100     C ( 1.00)
        H1             1.00     1.00800     H ( 1.00)

     No symmetry found



   Cartesian axes

     site n.     atom                  positions (alat units)
         1           Pd1 tau(   1) = (   0.0000000   0.0000000  10.0000000  )
         2           Pd1 tau(   2) = (   1.4094157   2.4411796  10.0000000  )
         3           Pd1 tau(   3) = (   2.8188314   0.0000000  10.0000000  )
         4           Pd1 tau(   4) = (   4.2282471   2.4411796  10.0000000  )
         5           Pd1 tau(   5) = (   5.6376627   3.2549061  12.3015662  )
         6           Pd1 tau(   6) = (   4.2282471   0.8137265  12.3015662  )
         7           Pd1 tau(   7) = (   2.8188314   3.2549061  12.3015662  )
         8           Pd1 tau(   8) = (   1.4094157   0.8137265  12.3015662  )
         9           Pd1 tau(   9) = (   2.8182870   1.6275640  14.6019814  )
        10           Pd1 tau(  10) = (   4.2286228   4.0680320  14.6028407  )
        11           Pd1 tau(  11) = (   5.6370610   1.6293053  14.6031189  )
        12           Pd1 tau(  12) = (   7.0460207   4.0694552  14.6019115  )
        13           C1  tau(  13) = (   4.9331638   2.8460832  16.0800983  )
        14           H1  tau(  14) = (   5.3964754   3.6512813  16.6165979  )
        15           H1  tau(  15) = (   4.4695157   2.0452417  16.6149480  )
        16           H1  tau(  16) = (   1.4086958   0.8132659  14.6141895  )

     number of k points=    20  Fermi-Dirac smearing, width (Ry)=  0.0110
                       cart. coord. in units 2pi/alat
        k(    1) = (   0.0000000   0.0000000   0.0000000), wk =   0.0555556
        k(    2) = (   0.0000000   0.0341365   0.0000000), wk =   0.1111111
        k(    3) = (   0.0000000   0.0682730   0.0000000), wk =   0.1111111
        k(    4) = (   0.0000000  -0.1024095   0.0000000), wk =   0.0555556
        k(    5) = (   0.0295631  -0.0170683   0.0000000), wk =   0.1111111
        k(    6) = (   0.0295631   0.0170683   0.0000000), wk =   0.1111111
        k(    7) = (   0.0295631   0.0512048   0.0000000), wk =   0.1111111
        k(    8) = (   0.0295631  -0.1194778   0.0000000), wk =   0.1111111
        k(    9) = (   0.0295631  -0.0853413   0.0000000), wk =   0.1111111
        k(   10) = (   0.0295631  -0.0512048   0.0000000), wk =   0.1111111
        k(   11) = (   0.0591262  -0.0341365   0.0000000), wk =   0.1111111
        k(   12) = (   0.0591262  -0.0000000   0.0000000), wk =   0.1111111
        k(   13) = (   0.0591262   0.0341365   0.0000000), wk =   0.1111111
        k(   14) = (   0.0591262  -0.1365460   0.0000000), wk =   0.1111111
        k(   15) = (   0.0591262  -0.1024095   0.0000000), wk =   0.1111111
        k(   16) = (   0.0591262  -0.0682730   0.0000000), wk =   0.1111111
        k(   17) = (  -0.0886892   0.0512048   0.0000000), wk =   0.0555556
        k(   18) = (  -0.0886892   0.0853413   0.0000000), wk =   0.1111111
        k(   19) = (  -0.0886892   0.1194778   0.0000000), wk =   0.1111111
        k(   20) = (  -0.0886892  -0.0512048   0.0000000), wk =   0.0555556

     Dense  grid:   543535 G-vectors     FFT dimensions: (  72,  72, 288)

     Smooth grid:   137813 G-vectors     FFT dimensions: (  45,  45, 180)

     Largest allocated arrays     est. size (Mb)     dimensions
        Kohn-Sham Wavefunctions         2.46 Mb     (    1479,  109)
        NL pseudopotentials             5.19 Mb     (    1479,  230)
        Each V/rho on FFT grid          1.90 Mb     (  124416)
        Each G-vector array             0.35 Mb     (   45289)
        G-vector shells                 0.13 Mb     (   16884)
     Largest temporary arrays     est. size (Mb)     dimensions
        Auxiliary wavefunctions         9.84 Mb     (    1479,  436)
        Each subspace H/S matrix        2.90 Mb     (     436,  436)
        Each <psi_i|beta_j> matrix      0.38 Mb     (     230,  109)
        Arrays for rho mixing          18.98 Mb     (  124416,   10)

     Initial potential from superposition of free atoms
     Check: negative starting charge=   -0.903476

     starting charge  192.99985, renormalised to  199.00000

     negative rho (up, down):  9.316E-01 0.000E+00


     ************************************************************************
     *
     * You are using vdW-DF for exchange-correlation in this calculation.
     * Please cite the following three references that made this development
     * possible:
     *
     *   M. Dion, H. Rydberg, E. Schroder, D. C. Langreth, and
     *   B. I. Lundqvist, Phys. Rev. Lett. 92, 246401 (2004).
     *
     *   T. Thonhauser, V. R. Cooper, S. Li, A. Puzder, P. Hyldgaard, and
     *   D. C. Langreth, Phys. Rev. B 76, 125112 (2007).
     *
     *   G. Roman-Perez and J. M. Soler, Phys. Rev. Lett. 103, 096102 (2009).
     *
     *
     * If you are using vdW-DF2, please also cite:
     *
     *   K. Lee, E. D. Murray, L. Kong, B. I. Lundqvist, and
     *   D. C. Langreth, Phys. Rev. B 82, 081101(R) (2010).
     *
     *
     * If you are calculating the stress with vdW-DF, please also cite:
     *
     *   R. Sabatini, E. Kucukbenli, B. Kolb, T. Thonhauser, and
     *   S. de Gironcoli, J. Phys.: Condens. Matter 24, 424209 (2012).
     *
     ************************************************************************

     Carrying out vdW-DF run using the following parameters:

     Nqs =      20    Nr_points =    1024   r_max =   100.000
     q_mesh =
               0.00001000     0.04494208     0.09755937     0.15916263
               0.23128650     0.31572767     0.41458969     0.53033537
               0.66584808     0.82450364     1.01025438     1.22772762
               1.48234092     1.78043706     2.12944203     2.53805004
               3.01644009     3.57652955     4.23227104     5.00000000

     Gradients computed in reciprocal space

     ************************************************************************


 
     Adding external electric field

     Computed dipole along edir(3) : 
        Dipole               -1.5303 Ry au,         -3.8897 Debye
        Dipole field         -0.0042 Ry au
 
        Potential amp.        0.3815 Ry
        Total length         45.3309 bohr
 
     Starting wfc are  151 randomized atomic wfcs

     total cpu time spent up to now is       14.3 secs

     per-process dynamical memory:    77.3 Mb

     Self-consistent Calculation

     iteration #  1     ecut=    36.75 Ry     beta=0.30
     Davidson diagonalization with overlap
     ethr =  1.00E-02,  avg # of iterations =  5.2

     negative rho (up, down):  9.257E-01 0.000E+00
 
     Adding external electric field

     Computed dipole along edir(3) : 
        Dipole               28.8536 Ry au,         73.3385 Debye
        Dipole field          0.0793 Ry au
 
        Potential amp.       -7.1931 Ry
        Total length         45.3309 bohr
 

     total cpu time spent up to now is       43.7 secs

     total energy              =   -2359.71343933 Ry
     Harris-Foulkes estimate   =   -2415.34267855 Ry
     estimated scf accuracy    <     117.58619233 Ry

     iteration #  2     ecut=    36.75 Ry     beta=0.30
     Davidson diagonalization with overlap
     ethr =  1.00E-02,  avg # of iterations = 16.1

     negative rho (up, down):  9.203E-01 0.000E+00
 
     Adding external electric field

     Computed dipole along edir(3) : 
        Dipole                2.0689 Ry au,          5.2587 Debye
        Dipole field          0.0057 Ry au
 
        Potential amp.       -0.5158 Ry
        Total length         45.3309 bohr
 

     total cpu time spent up to now is      113.1 secs

     total energy              =   -2217.17281861 Ry
     Harris-Foulkes estimate   =   -2691.96041639 Ry
     estimated scf accuracy    <   14022.84314355 Ry

     iteration #  3     ecut=    36.75 Ry     beta=0.30
     Davidson diagonalization with overlap
     ethr =  1.00E-02,  avg # of iterations =  7.7

     negative rho (up, down):  9.284E-01 0.000E+00
 
     Adding external electric field

     Computed dipole along edir(3) : 
        Dipole                4.1438 Ry au,         10.5324 Debye
        Dipole field          0.0114 Ry au
 
        Potential amp.       -1.0330 Ry
        Total length         45.3309 bohr
 

     total cpu time spent up to now is      167.7 secs

     total energy              =   -2384.61067422 Ry
     Harris-Foulkes estimate   =   -2466.95293193 Ry
     estimated scf accuracy    <    1328.32115694 Ry

     iteration #  4     ecut=    36.75 Ry     beta=0.30
     Davidson diagonalization with overlap
     ethr =  1.00E-02,  avg # of iterations =  5.7

     negative rho (up, down):  9.475E-01 0.000E+00
 
     Adding external electric field

     Computed dipole along edir(3) : 
        Dipole                4.1731 Ry au,         10.6068 Debye
        Dipole field          0.0115 Ry au
 
        Potential amp.       -1.0403 Ry
        Total length         45.3309 bohr
 

     total cpu time spent up to now is      207.0 secs

     total energy              =   -2410.78779185 Ry
     Harris-Foulkes estimate   =   -2415.60367121 Ry
     estimated scf accuracy    <      19.31178444 Ry

     iteration #  5     ecut=    36.75 Ry     beta=0.30
     Davidson diagonalization with overlap
     ethr =  9.70E-03,  avg # of iterations =  2.0

     negative rho (up, down):  9.336E-01 0.000E+00
 
     Adding external electric field

     Computed dipole along edir(3) : 
        Dipole                2.4331 Ry au,          6.1842 Debye
        Dipole field          0.0067 Ry au
 
        Potential amp.       -0.6066 Ry
        Total length         45.3309 bohr
 

     total cpu time spent up to now is      228.1 secs

     total energy              =   -2412.37570324 Ry
     Harris-Foulkes estimate   =   -2413.98714360 Ry
     estimated scf accuracy    <      14.16978354 Ry

     iteration #  6     ecut=    36.75 Ry     beta=0.30
     Davidson diagonalization with overlap
     ethr =  7.12E-03,  avg # of iterations =  1.1

     negative rho (up, down):  9.349E-01 0.000E+00
 
     Adding external electric field

     Computed dipole along edir(3) : 
        Dipole                1.4378 Ry au,          3.6546 Debye
        Dipole field          0.0040 Ry au
 
        Potential amp.       -0.3584 Ry
        Total length         45.3309 bohr
 

     total cpu time spent up to now is      248.5 secs

     total energy              =   -2412.41852294 Ry
     Harris-Foulkes estimate   =   -2412.85616910 Ry
     estimated scf accuracy    <       4.73156870 Ry

     iteration #  7     ecut=    36.75 Ry     beta=0.30
     Davidson diagonalization with overlap
     ethr =  2.38E-03,  avg # of iterations =  2.1

     negative rho (up, down):  9.357E-01 0.000E+00
 
     Adding external electric field

     Computed dipole along edir(3) : 
        Dipole                1.0448 Ry au,          2.6556 Debye
        Dipole field          0.0029 Ry au
 
        Potential amp.       -0.2605 Ry
        Total length         45.3309 bohr
 

     total cpu time spent up to now is      269.6 secs

     total energy              =   -2412.51980652 Ry
     Harris-Foulkes estimate   =   -2412.65396183 Ry
     estimated scf accuracy    <       0.91647184 Ry

     iteration #  8     ecut=    36.75 Ry     beta=0.30
     Davidson diagonalization with overlap
     ethr =  4.61E-04,  avg # of iterations =  3.0

     negative rho (up, down):  9.363E-01 0.000E+00
 
     Adding external electric field

     Computed dipole along edir(3) : 
        Dipole                0.8616 Ry au,          2.1899 Debye
        Dipole field          0.0024 Ry au
 
        Potential amp.       -0.2148 Ry
        Total length         45.3309 bohr
 

     total cpu time spent up to now is      292.9 secs

     total energy              =   -2412.54281111 Ry
     Harris-Foulkes estimate   =   -2412.59497839 Ry
     estimated scf accuracy    <       0.43572545 Ry

     iteration #  9     ecut=    36.75 Ry     beta=0.30
     Davidson diagonalization with overlap
     ethr =  2.19E-04,  avg # of iterations =  1.0

     negative rho (up, down):  9.373E-01 0.000E+00
 
     Adding external electric field

     Computed dipole along edir(3) : 
        Dipole                0.5235 Ry au,          1.3305 Debye
        Dipole field          0.0014 Ry au
 
        Potential amp.       -0.1305 Ry
        Total length         45.3309 bohr
 

     total cpu time spent up to now is      313.0 secs

     total energy              =   -2412.54265641 Ry
     Harris-Foulkes estimate   =   -2412.56895039 Ry
     estimated scf accuracy    <       0.14426766 Ry

     iteration # 10     ecut=    36.75 Ry     beta=0.30
     Davidson diagonalization with overlap
     ethr =  7.25E-05,  avg # of iterations =  3.0

     negative rho (up, down):  9.388E-01 0.000E+00
 
     Adding external electric field

     Computed dipole along edir(3) : 
        Dipole                0.0381 Ry au,          0.0968 Debye
        Dipole field          0.0001 Ry au
 
        Potential amp.       -0.0095 Ry
        Total length         45.3309 bohr
 

     total cpu time spent up to now is      335.6 secs

     total energy              =   -2412.51560497 Ry
     Harris-Foulkes estimate   =   -2412.55359587 Ry
     estimated scf accuracy    <       0.20929853 Ry

     iteration # 11     ecut=    36.75 Ry     beta=0.30
     Davidson diagonalization with overlap
     ethr =  7.25E-05,  avg # of iterations =  3.5

     negative rho (up, down):  9.396E-01 0.000E+00
 
     Adding external electric field

     Computed dipole along edir(3) : 
        Dipole               -0.1328 Ry au,         -0.3375 Debye
        Dipole field         -0.0004 Ry au
 
        Potential amp.        0.0331 Ry
        Total length         45.3309 bohr
 

     total cpu time spent up to now is      358.5 secs

     total energy              =   -2412.52417603 Ry
     Harris-Foulkes estimate   =   -2412.53325113 Ry
     estimated scf accuracy    <       0.06872481 Ry

     iteration # 12     ecut=    36.75 Ry     beta=0.30
     Davidson diagonalization with overlap
     ethr =  3.45E-05,  avg # of iterations =  3.5

     negative rho (up, down):  9.400E-01 0.000E+00
 
     Adding external electric field

     Computed dipole along edir(3) : 
        Dipole               -0.1488 Ry au,         -0.3781 Debye
        Dipole field         -0.0004 Ry au
 
        Potential amp.        0.0371 Ry
        Total length         45.3309 bohr
 

     total cpu time spent up to now is      381.1 secs

     total energy              =   -2412.52548660 Ry
     Harris-Foulkes estimate   =   -2412.52832294 Ry
     estimated scf accuracy    <       0.01658737 Ry

     iteration # 13     ecut=    36.75 Ry     beta=0.30
     Davidson diagonalization with overlap
     ethr =  8.34E-06,  avg # of iterations =  2.8

     negative rho (up, down):  9.405E-01 0.000E+00
 
     Adding external electric field

     Computed dipole along edir(3) : 
        Dipole               -0.0276 Ry au,         -0.0701 Debye
        Dipole field         -0.0001 Ry au
 
        Potential amp.        0.0069 Ry
        Total length         45.3309 bohr
 

     total cpu time spent up to now is      403.0 secs

     total energy              =   -2412.52558403 Ry
     Harris-Foulkes estimate   =   -2412.52751037 Ry
     estimated scf accuracy    <       0.00957529 Ry

     iteration # 14     ecut=    36.75 Ry     beta=0.30
     Davidson diagonalization with overlap
     ethr =  4.81E-06,  avg # of iterations =  5.3

     negative rho (up, down):  9.410E-01 0.000E+00
 
     Adding external electric field

     Computed dipole along edir(3) : 
        Dipole                0.0488 Ry au,          0.1241 Debye
        Dipole field          0.0001 Ry au
 
        Potential amp.       -0.0122 Ry
        Total length         45.3309 bohr
 

     total cpu time spent up to now is      427.5 secs

     total energy              =   -2412.52586164 Ry
     Harris-Foulkes estimate   =   -2412.52690790 Ry
     estimated scf accuracy    <       0.00710857 Ry

     iteration # 15     ecut=    36.75 Ry     beta=0.30
     Davidson diagonalization with overlap
     ethr =  3.57E-06,  avg # of iterations =  2.5

     negative rho (up, down):  9.412E-01 0.000E+00
 
     Adding external electric field

     Computed dipole along edir(3) : 
        Dipole                0.0853 Ry au,          0.2167 Debye
        Dipole field          0.0002 Ry au
 
        Potential amp.       -0.0213 Ry
        Total length         45.3309 bohr
 

     total cpu time spent up to now is      449.0 secs

     total energy              =   -2412.52635242 Ry
     Harris-Foulkes estimate   =   -2412.52670890 Ry
     estimated scf accuracy    <       0.00369735 Ry

     iteration # 16     ecut=    36.75 Ry     beta=0.30
     Davidson diagonalization with overlap
     ethr =  1.86E-06,  avg # of iterations =  1.1

     negative rho (up, down):  9.418E-01 0.000E+00
 
     Adding external electric field

     Computed dipole along edir(3) : 
        Dipole                0.1276 Ry au,          0.3244 Debye
        Dipole field          0.0004 Ry au
 
        Potential amp.       -0.0318 Ry
        Total length         45.3309 bohr
 

     total cpu time spent up to now is      469.2 secs

     total energy              =   -2412.52643533 Ry
     Harris-Foulkes estimate   =   -2412.52658364 Ry
     estimated scf accuracy    <       0.00226787 Ry

     iteration # 17     ecut=    36.75 Ry     beta=0.30
     Davidson diagonalization with overlap
     ethr =  1.14E-06,  avg # of iterations =  2.1

     negative rho (up, down):  9.421E-01 0.000E+00
 
     Adding external electric field

     Computed dipole along edir(3) : 
        Dipole                0.1753 Ry au,          0.4456 Debye
        Dipole field          0.0005 Ry au
 
        Potential amp.       -0.0437 Ry
        Total length         45.3309 bohr
 

     total cpu time spent up to now is      490.3 secs

     total energy              =   -2412.52656619 Ry
     Harris-Foulkes estimate   =   -2412.52659424 Ry
     estimated scf accuracy    <       0.00067848 Ry

     iteration # 18     ecut=    36.75 Ry     beta=0.30
     Davidson diagonalization with overlap
     ethr =  3.41E-07,  avg # of iterations =  2.5

     negative rho (up, down):  9.424E-01 0.000E+00
 
     Adding external electric field

     Computed dipole along edir(3) : 
        Dipole                0.1877 Ry au,          0.4771 Debye
        Dipole field          0.0005 Ry au
 
        Potential amp.       -0.0468 Ry
        Total length         45.3309 bohr
 

     total cpu time spent up to now is      511.7 secs

     total energy              =   -2412.52661531 Ry
     Harris-Foulkes estimate   =   -2412.52661806 Ry
     estimated scf accuracy    <       0.00020278 Ry

     iteration # 19     ecut=    36.75 Ry     beta=0.30
     Davidson diagonalization with overlap
     ethr =  1.02E-07,  avg # of iterations =  1.0

     negative rho (up, down):  9.427E-01 0.000E+00
 
     Adding external electric field

     Computed dipole along edir(3) : 
        Dipole                0.1950 Ry au,          0.4956 Debye
        Dipole field          0.0005 Ry au
 
        Potential amp.       -0.0486 Ry
        Total length         45.3309 bohr
 

     total cpu time spent up to now is      531.9 secs

     total energy              =   -2412.52662588 Ry
     Harris-Foulkes estimate   =   -2412.52662332 Ry
     estimated scf accuracy    <       0.00002667 Ry

     iteration # 20     ecut=    36.75 Ry     beta=0.30
     Davidson diagonalization with overlap
     ethr =  1.34E-08,  avg # of iterations =  2.2

     negative rho (up, down):  9.427E-01 0.000E+00
 
     Adding external electric field

     Computed dipole along edir(3) : 
        Dipole                0.1993 Ry au,          0.5066 Debye
        Dipole field          0.0005 Ry au
 
        Potential amp.       -0.0497 Ry
        Total length         45.3309 bohr
 

     total cpu time spent up to now is      553.3 secs

     total energy              =   -2412.52662586 Ry
     Harris-Foulkes estimate   =   -2412.52662607 Ry
     estimated scf accuracy    <       0.00005008 Ry

     iteration # 21     ecut=    36.75 Ry     beta=0.30
     Davidson diagonalization with overlap
     ethr =  1.34E-08,  avg # of iterations =  1.0

     negative rho (up, down):  9.429E-01 0.000E+00
 
     Adding external electric field

     Computed dipole along edir(3) : 
        Dipole                0.2008 Ry au,          0.5104 Debye
        Dipole field          0.0006 Ry au
 
        Potential amp.       -0.0501 Ry
        Total length         45.3309 bohr
 

     total cpu time spent up to now is      573.4 secs

     total energy              =   -2412.52662675 Ry
     Harris-Foulkes estimate   =   -2412.52662822 Ry
     estimated scf accuracy    <       0.00004747 Ry

     iteration # 22     ecut=    36.75 Ry     beta=0.30
     Davidson diagonalization with overlap
     ethr =  1.34E-08,  avg # of iterations =  1.0

     negative rho (up, down):  9.430E-01 0.000E+00

     negative rho (up, down):  9.430E-01 0.000E+00

     negative rho (up, down):  9.430E-01 0.000E+00

     negative rho (up, down):  9.430E-01 0.000E+00

     negative rho (up, down):  9.430E-01 0.000E+00

     negative rho (up, down):  9.430E-01 0.000E+00

     negative rho (up, down):  9.430E-01 0.000E+00

     negative rho (up, down):  9.430E-01 0.000E+00

     negative rho (up, down):  9.430E-01 0.000E+00

     negative rho (up, down):  9.430E-01 0.000E+00

     negative rho (up, down):  9.430E-01 0.000E+00

     negative rho (up, down):  9.430E-01 0.000E+00

     negative rho (up, down):  9.430E-01 0.000E+00

     negative rho (up, down):  9.430E-01 0.000E+00

     negative rho (up, down):  9.430E-01 0.000E+00

     negative rho (up, down):  9.430E-01 0.000E+00

     negative rho (up, down):  9.430E-01 0.000E+00

     negative rho (up, down):  9.430E-01 0.000E+00

     negative rho (up, down):  9.430E-01 0.000E+00

     negative rho (up, down):  9.430E-01 0.000E+00

     negative rho (up, down):  9.430E-01 0.000E+00

     negative rho (up, down):  9.430E-01 0.000E+00

     negative rho (up, down):  9.430E-01 0.000E+00

     negative rho (up, down):  9.430E-01 0.000E+00

     negative rho (up, down):  9.430E-01 0.000E+00

     negative rho (up, down):  9.430E-01 0.000E+00

     negative rho (up, down):  9.430E-01 0.000E+00

     negative rho (up, down):  9.430E-01 0.000E+00

     negative rho (up, down):  9.430E-01 0.000E+00

     negative rho (up, down):  9.430E-01 0.000E+00

     negative rho (up, down):  9.430E-01 0.000E+00

     negative rho (up, down):  9.430E-01 0.000E+00

     negative rho (up, down):  9.430E-01 0.000E+00

     negative rho (up, down):  9.430E-01 0.000E+00

     negative rho (up, down):  9.430E-01 0.000E+00
 
     Adding external electric field

     Computed dipole along edir(3) : 
        Dipole                0.2106 Ry au,          0.5352 Debye
        Dipole field          0.0006 Ry au
 
        Potential amp.       -0.0525 Ry
        Total length         45.3309 bohr
 

     total cpu time spent up to now is      631.4 secs

     End of self-consistent calculation

          k = 0.0000 0.0000 0.0000 ( 17231 PWs)   bands (ev):

   -49.4471 -49.2966 -49.0496 -48.9305 -48.9162 -48.8486 -48.5556 -48.5211
   -48.5089 -48.5027 -48.4140 -48.3856 -48.3833 -48.3721 -48.3432 -48.3354
   -48.3234 -48.3213 -48.2753 -48.2716 -48.2696 -48.2617 -48.2576 -48.1920
   -48.1320 -48.1170 -48.1080 -48.1001 -48.0954 -48.0485 -48.0466 -47.9949
   -47.9742 -47.9519 -47.9274 -47.9151 -11.2773  -7.1157  -5.7890  -4.2596
    -4.0989  -3.3110  -3.1703  -3.1583  -3.0657  -3.0200  -2.9773  -2.8757
    -2.8613  -2.7951  -2.7147  -2.6149  -2.5728  -2.3960  -2.1283  -1.7581
    -1.5904  -1.4818  -1.4720  -1.4157  -1.2945  -1.2661  -1.1858  -1.0544
    -1.0051  -0.9326  -0.8903  -0.7925  -0.7869  -0.7695  -0.7624  -0.6122
    -0.3124  -0.2959  -0.1274  -0.0094   0.0789   0.1759   0.2648   0.3926
     0.4470   0.5023   0.5628   0.7806   0.7952   0.8599   0.9839   0.9968
     1.0283   1.0349   1.0592   1.1135   1.1619   1.2013   1.2353   1.3811
     1.3904   1.3924   1.4491   1.5798   1.5829   1.5885   2.2349   2.8393
     3.4030   3.5480   4.1059   4.3330   4.7293

          k = 0.0000 0.0341 0.0000 ( 17192 PWs)   bands (ev):

   -49.4369 -49.3046 -49.0486 -48.9295 -48.9122 -48.8512 -48.5586 -48.5112
   -48.4951 -48.4939 -48.4121 -48.3839 -48.3806 -48.3708 -48.3493 -48.3381
   -48.3260 -48.3196 -48.2890 -48.2728 -48.2641 -48.2560 -48.2507 -48.1910
   -48.1333 -48.1214 -48.1147 -48.1067 -48.0972 -48.0627 -48.0517 -47.9945
   -47.9737 -47.9521 -47.9271 -47.9155 -11.2655  -7.0228  -5.7982  -4.0935
    -4.0078  -3.2022  -3.0614  -3.0336  -2.9554  -2.8944  -2.8459  -2.7951
    -2.7609  -2.7173  -2.6364  -2.4979  -2.4591  -2.3500  -2.1080  -1.7602
    -1.6399  -1.5419  -1.4242  -1.3601  -1.2927  -1.2371  -1.1792  -1.1143
    -1.0769  -0.9322  -0.9049  -0.8622  -0.8079  -0.7458  -0.7067  -0.6566
    -0.4773  -0.3125  -0.2260  -0.0689   0.0153   0.0555   0.1557   0.2292
     0.3230   0.3499   0.4878   0.5426   0.6622   0.7100   0.7802   0.8467
     0.8846   0.9175   0.9685   0.9775   1.0207   1.1210   1.1597   1.1728
     1.2384   1.2749   1.3662   1.4119   1.4431   1.6878   2.3524   2.6656
     3.3588   3.5533   3.6660   4.1262   4.3596

          k = 0.0000 0.0683 0.0000 ( 17196 PWs)   bands (ev):

   -49.4108 -49.3263 -49.0466 -48.9278 -48.9029 -48.8572 -48.5648 -48.4889
   -48.4733 -48.4539 -48.4082 -48.3823 -48.3772 -48.3719 -48.3655 -48.3553
   -48.3340 -48.3195 -48.3093 -48.2831 -48.2482 -48.2393 -48.2184 -48.1890
   -48.1414 -48.1357 -48.1313 -48.1206 -48.1038 -48.0915 -48.0619 -47.9936
   -47.9728 -47.9527 -47.9266 -47.9163 -11.2422  -6.8133  -5.8148  -3.9130
    -3.5642  -3.0788  -2.8720  -2.7505  -2.7258  -2.6497  -2.5452  -2.5082
    -2.4704  -2.4527  -2.4074  -2.3378  -2.1406  -2.1043  -1.9688  -1.7724
    -1.7019  -1.6553  -1.5637  -1.4253  -1.3384  -1.2226  -1.1836  -1.1236
    -1.0744  -1.0012  -0.9335  -0.8488  -0.7758  -0.7353  -0.6918  -0.6540
    -0.6099  -0.5249  -0.4195  -0.3716  -0.2720  -0.1238  -0.0532  -0.0272
     0.0165   0.0444   0.0808   0.1207   0.2066   0.3237   0.4119   0.4730
     0.5289   0.6194   0.6771   0.7270   0.7657   0.8397   0.8658   0.9431
     0.9773   1.1171   1.1722   1.2717   1.3365   1.5565   1.9859   2.8167
     3.1350   3.7095   4.0292   4.4732   4.7253

          k = 0.0000-0.1024 0.0000 ( 17240 PWs)   bands (ev):

   -49.3893 -49.3457 -49.0455 -48.9270 -48.8972 -48.8610 -48.5681 -48.4740
   -48.4591 -48.4081 -48.3998 -48.3920 -48.3847 -48.3839 -48.3773 -48.3653
   -48.3587 -48.3152 -48.3013 -48.2934 -48.2380 -48.2261 -48.1925 -48.1714
   -48.1594 -48.1490 -48.1408 -48.1370 -48.1276 -48.0826 -48.0717 -47.9932
   -47.9723 -47.9530 -47.9263 -47.9167 -11.2306  -6.6932  -5.8211  -3.8609
    -3.2281  -3.0530  -2.8306  -2.6098  -2.5519  -2.4690  -2.3907  -2.3410
    -2.2834  -2.2059  -2.1343  -2.1021  -2.0588  -1.9837  -1.8733  -1.7713
    -1.7452  -1.5769  -1.5264  -1.4811  -1.4168  -1.4036  -1.3383  -1.1899
    -1.0722  -1.0677  -0.8538  -0.8328  -0.8051  -0.7591  -0.7118  -0.6493
    -0.5796  -0.5691  -0.4822  -0.4677  -0.4099  -0.3641  -0.3528  -0.3090
    -0.1812  -0.0892  -0.0812  -0.0406   0.0383   0.0666   0.1108   0.2199
     0.2754   0.3083   0.4586   0.5309   0.5531   0.6266   0.8401   0.9132
     1.0602   1.1145   1.1617   1.1734   1.3259   1.3530   2.1236   2.7862
     3.4844   3.7639   4.0180   4.2918   4.8132

          k = 0.0296-0.0171 0.0000 ( 17192 PWs)   bands (ev):

   -49.4367 -49.3049 -49.0472 -48.9310 -48.9120 -48.8516 -48.5584 -48.5120
   -48.5002 -48.4886 -48.4121 -48.3840 -48.3802 -48.3707 -48.3461 -48.3396
   -48.3259 -48.3209 -48.2831 -48.2786 -48.2640 -48.2544 -48.2527 -48.1910
   -48.1335 -48.1211 -48.1166 -48.1067 -48.0959 -48.0638 -48.0504 -47.9944
   -47.9737 -47.9522 -47.9270 -47.9155 -11.2668  -7.0166  -5.7886  -4.0954
    -4.0139  -3.2336  -3.0577  -3.0403  -2.9124  -2.8964  -2.8762  -2.7920
    -2.7559  -2.7194  -2.6388  -2.5020  -2.4630  -2.3559  -2.1153  -1.7568
    -1.6290  -1.5051  -1.4123  -1.3927  -1.2965  -1.2450  -1.1758  -1.1039
    -1.0618  -0.9239  -0.8991  -0.8814  -0.7980  -0.7625  -0.7035  -0.6551
    -0.4699  -0.3142  -0.2197  -0.0721   0.0167   0.0776   0.1699   0.2468
     0.2997   0.3609   0.5066   0.5505   0.5989   0.7053   0.7811   0.8514
     0.8910   0.9087   0.9647   1.0007   1.0529   1.1203   1.1499   1.1771
     1.2372   1.2842   1.3729   1.4123   1.4477   1.5706   2.2727   2.7089
     3.2503   3.5194   3.8334   4.0825   4.3692

          k = 0.0296 0.0171 0.0000 ( 17192 PWs)   bands (ev):

   -49.4455 -49.2963 -49.0471 -48.9292 -48.9119 -48.8473 -48.5617 -48.5089
   -48.4995 -48.4916 -48.4119 -48.3865 -48.3819 -48.3715 -48.3469 -48.3420
   -48.3290 -48.3185 -48.2901 -48.2724 -48.2626 -48.2552 -48.2517 -48.1912
   -48.1350 -48.1258 -48.1061 -48.1022 -48.1002 -48.0624 -48.0518 -47.9944
   -47.9738 -47.9518 -47.9278 -47.9151 -11.2696  -7.0278  -5.7999  -4.1092
    -4.0344  -3.2055  -3.0602  -3.0126  -2.9393  -2.9026  -2.8709  -2.7787
    -2.7526  -2.7074  -2.6270  -2.5294  -2.4263  -2.3231  -2.0894  -1.7099
    -1.6267  -1.4866  -1.4212  -1.3884  -1.2921  -1.2272  -1.1843  -1.1657
    -1.0217  -0.9967  -0.8875  -0.8726  -0.7958  -0.7443  -0.6750  -0.6558
    -0.4217  -0.3320  -0.2392  -0.1286  -0.0494   0.0725   0.1731   0.2248
     0.2853   0.3691   0.4992   0.6037   0.6413   0.7161   0.7404   0.8533
     0.8618   0.9051   0.9105   1.0049   1.0919   1.1309   1.1545   1.1670
     1.2522   1.3390   1.3527   1.4150   1.4758   1.7672   2.1498   2.5264
     3.2338   3.5290   3.6700   4.0794   4.5929

          k = 0.0296 0.0512 0.0000 ( 17186 PWs)   bands (ev):

   -49.4345 -49.3042 -49.0456 -48.9273 -48.9051 -48.8489 -48.5681 -48.4912
   -48.4773 -48.4714 -48.4089 -48.3874 -48.3803 -48.3726 -48.3663 -48.3388
   -48.3281 -48.3237 -48.3145 -48.2782 -48.2517 -48.2407 -48.2332 -48.1899
   -48.1441 -48.1376 -48.1086 -48.1072 -48.1041 -48.0886 -48.0603 -47.9938
   -47.9732 -47.9519 -47.9278 -47.9154 -11.2534  -6.8802  -5.8217  -4.0192
    -3.7008  -3.0257  -2.8898  -2.8305  -2.7711  -2.7035  -2.6347  -2.5842
    -2.5660  -2.5090  -2.4755  -2.3286  -2.2705  -2.1216  -2.0169  -1.7334
    -1.6794  -1.5719  -1.4888  -1.4052  -1.3437  -1.2421  -1.1849  -1.1191
    -1.0701  -1.0259  -0.8998  -0.8902  -0.8358  -0.7660  -0.6895  -0.6088
    -0.5312  -0.4991  -0.4141  -0.3180  -0.2600  -0.0751  -0.0228   0.0270
     0.1050   0.1589   0.2399   0.2652   0.3320   0.3809   0.4921   0.5945
     0.6609   0.6728   0.7247   0.7829   0.8876   0.9590   1.0005   1.0504
     1.0650   1.1662   1.2238   1.2409   1.5254   1.6954   2.2292   2.3549
     2.6698   3.2369   3.9286   4.3530   4.9178

          k = 0.0296-0.1195 0.0000 ( 17183 PWs)   bands (ev):

   -49.4086 -49.3266 -49.0441 -48.9269 -48.8976 -48.8560 -48.5713 -48.4699
   -48.4511 -48.4267 -48.4087 -48.4051 -48.3816 -48.3759 -48.3696 -48.3629
   -48.3448 -48.3211 -48.3113 -48.2922 -48.2361 -48.2192 -48.1985 -48.1862
   -48.1702 -48.1413 -48.1373 -48.1211 -48.1152 -48.0917 -48.0739 -47.9932
   -47.9724 -47.9526 -47.9271 -47.9162 -11.2346  -6.6950  -5.8328  -3.9296
    -3.1818  -3.0186  -2.7275  -2.5877  -2.5173  -2.4718  -2.3879  -2.3419
    -2.2566  -2.2034  -2.1587  -2.1020  -2.0037  -1.9416  -1.9047  -1.8346
    -1.7370  -1.6048  -1.5651  -1.5364  -1.4293  -1.3650  -1.2765  -1.2219
    -1.1294  -1.0513  -1.0293  -0.9267  -0.8779  -0.8178  -0.7547  -0.7082
    -0.6731  -0.6491  -0.5652  -0.4230  -0.3829  -0.3476  -0.2937  -0.2385
    -0.1951  -0.0711  -0.0434   0.0217   0.0939   0.1502   0.2492   0.2742
     0.3537   0.4951   0.5658   0.6174   0.6933   0.8441   0.8896   0.9664
     1.0007   1.0780   1.1305   1.1865   1.2193   1.4371   1.8498   2.3078
     2.9539   3.2150   4.0036   4.8202   5.3442

          k = 0.0296-0.0853 0.0000 ( 17183 PWs)   bands (ev):

   -49.3886 -49.3464 -49.0441 -48.9285 -48.8968 -48.8616 -48.5677 -48.4745
   -48.4486 -48.4290 -48.4070 -48.4021 -48.3801 -48.3758 -48.3661 -48.3620
   -48.3445 -48.3196 -48.3062 -48.2970 -48.2364 -48.2184 -48.1979 -48.1856
   -48.1733 -48.1384 -48.1368 -48.1283 -48.1166 -48.0922 -48.0727 -47.9932
   -47.9722 -47.9530 -47.9262 -47.9167 -11.2319  -6.6776  -5.8244  -3.8592
    -3.2781  -3.0261  -2.7196  -2.5885  -2.5208  -2.4819  -2.3921  -2.3623
    -2.2737  -2.2288  -2.1850  -2.1209  -2.0199  -1.9867  -1.9153  -1.8180
    -1.7308  -1.6233  -1.5761  -1.5025  -1.4669  -1.3569  -1.3112  -1.2502
    -1.1047  -1.0483  -0.9557  -0.9142  -0.8831  -0.7870  -0.7412  -0.7122
    -0.6323  -0.6005  -0.5237  -0.4150  -0.3966  -0.3314  -0.3061  -0.2353
    -0.1761  -0.1004  -0.0532   0.0375   0.0702   0.1916   0.2139   0.3118
     0.3457   0.4858   0.5640   0.6118   0.6804   0.8095   0.8942   0.9645
     1.0054   1.0784   1.1091   1.1805   1.2174   1.4525   1.9498   2.1823
     2.7657   3.4594   4.1337   4.6951   5.3826

          k = 0.0296-0.0512 0.0000 ( 17186 PWs)   bands (ev):

   -49.4114 -49.3268 -49.0457 -48.9306 -48.9048 -48.8586 -48.5612 -48.4981
   -48.4757 -48.4688 -48.4093 -48.3820 -48.3759 -48.3700 -48.3652 -48.3361
   -48.3299 -48.3191 -48.3072 -48.2850 -48.2534 -48.2375 -48.2354 -48.1895
   -48.1441 -48.1341 -48.1207 -48.1142 -48.0984 -48.0909 -48.0586 -47.9938
   -47.9729 -47.9528 -47.9262 -47.9164 -11.2479  -6.8529  -5.8014  -3.9169
    -3.7185  -3.1344  -2.8966  -2.8181  -2.7851  -2.7124  -2.6337  -2.5976
    -2.5827  -2.5536  -2.4986  -2.3495  -2.2951  -2.1851  -2.0262  -1.7928
    -1.6747  -1.6368  -1.4950  -1.4045  -1.3467  -1.2375  -1.1746  -1.1459
    -1.0451  -0.9761  -0.9145  -0.8588  -0.8167  -0.7580  -0.6920  -0.6172
    -0.5412  -0.4772  -0.3717  -0.3287  -0.1170  -0.0659   0.0135   0.0444
     0.0763   0.1491   0.2464   0.2679   0.3444   0.3688   0.5136   0.6283
     0.6550   0.6949   0.7259   0.7791   0.8503   0.8876   0.9836   1.0449
     1.0750   1.1593   1.1872   1.2399   1.4858   1.7398   2.0449   2.3876
     2.9020   3.1667   4.1414   4.5543   4.7951

          k = 0.0591-0.0341 0.0000 ( 17196 PWs)   bands (ev):

   -49.4099 -49.3276 -49.0421 -48.9324 -48.9017 -48.8590 -48.5640 -48.4913
   -48.4796 -48.4478 -48.4080 -48.3820 -48.3749 -48.3694 -48.3622 -48.3567
   -48.3297 -48.3206 -48.3106 -48.2884 -48.2468 -48.2381 -48.2208 -48.1890
   -48.1399 -48.1375 -48.1356 -48.1201 -48.1044 -48.0890 -48.0608 -47.9934
   -47.9727 -47.9528 -47.9263 -47.9164 -11.2460  -6.7856  -5.7999  -3.9226
    -3.5963  -3.1490  -2.8321  -2.7440  -2.7325  -2.6551  -2.5618  -2.5239
    -2.4748  -2.4376  -2.4100  -2.3200  -2.2186  -2.0857  -1.9341  -1.7915
    -1.6906  -1.6286  -1.5298  -1.4174  -1.3522  -1.2185  -1.1305  -1.1050
    -1.0796  -0.9899  -0.9654  -0.8709  -0.7690  -0.7333  -0.6844  -0.6278
    -0.6105  -0.5259  -0.3762  -0.3361  -0.2240  -0.1539  -0.0820  -0.0201
     0.0240   0.0496   0.0812   0.1151   0.2043   0.3344   0.4057   0.4691
     0.5410   0.5904   0.6676   0.7185   0.7617   0.7965   0.9072   0.9429
     0.9873   1.1159   1.1680   1.2313   1.3369   1.3984   1.9128   2.7867
     3.1639   3.6906   4.0370   4.4128   4.6360

          k = 0.0591-0.0000 0.0000 ( 17186 PWs)   bands (ev):

   -49.4341 -49.3048 -49.0426 -48.9298 -48.9052 -48.8499 -48.5676 -48.4949
   -48.4801 -48.4669 -48.4088 -48.3854 -48.3798 -48.3717 -48.3641 -48.3420
   -48.3291 -48.3197 -48.3130 -48.2827 -48.2502 -48.2405 -48.2346 -48.1898
   -48.1454 -48.1380 -48.1104 -48.1073 -48.1019 -48.0891 -48.0590 -47.9936
   -47.9732 -47.9520 -47.9276 -47.9155 -11.2560  -6.8642  -5.8079  -4.0212
    -3.7196  -3.1117  -2.8510  -2.8073  -2.7701  -2.7078  -2.6347  -2.5904
    -2.5599  -2.5416  -2.4713  -2.3422  -2.2554  -2.1680  -1.9800  -1.7351
    -1.6659  -1.4950  -1.4755  -1.4252  -1.3952  -1.2193  -1.1658  -1.1257
    -1.0629  -1.0202  -0.9229  -0.8959  -0.8393  -0.7516  -0.6793  -0.6081
    -0.5140  -0.4689  -0.3683  -0.3072  -0.2695  -0.0926  -0.0268   0.0280
     0.0966   0.1685   0.2152   0.2733   0.3259   0.3591   0.5015   0.5908
     0.6597   0.6709   0.7246   0.7935   0.8761   0.9565   1.0138   1.0366
     1.0688   1.1735   1.2259   1.2459   1.4725   1.7682   1.9576   2.3737
     2.7513   3.1233   3.9630   4.3528   4.9446

          k = 0.0591 0.0341 0.0000 ( 17196 PWs)   bands (ev):

   -49.4423 -49.2958 -49.0421 -48.9271 -48.9023 -48.8443 -48.5745 -48.4823
   -48.4776 -48.4550 -48.4076 -48.3905 -48.3801 -48.3731 -48.3671 -48.3566
   -48.3325 -48.3314 -48.3101 -48.2810 -48.2438 -48.2404 -48.2207 -48.1894
   -48.1483 -48.1408 -48.1220 -48.1035 -48.1018 -48.0940 -48.0617 -47.9934
   -47.9732 -47.9515 -47.9286 -47.9151 -11.2543  -6.8269  -5.8349  -4.0420
    -3.5574  -3.0090  -2.8574  -2.7781  -2.6680  -2.6301  -2.5108  -2.4820
    -2.4639  -2.4294  -2.3916  -2.2993  -2.1363  -2.0174  -1.9182  -1.7397
    -1.6567  -1.5840  -1.4665  -1.4483  -1.3170  -1.2884  -1.1852  -1.1313
    -1.0748  -1.0041  -0.9605  -0.9272  -0.8047  -0.7360  -0.7181  -0.5981
    -0.5663  -0.5302  -0.4654  -0.3751  -0.3237  -0.1766  -0.1466  -0.0137
     0.0099   0.0644   0.0915   0.1566   0.2010   0.3438   0.4060   0.5097
     0.5445   0.5701   0.6511   0.7502   0.7569   0.8398   0.8685   0.9424
     1.0694   1.0985   1.2093   1.3144   1.3356   1.5231   1.9616   2.4101
     2.8667   3.7605   4.0410   4.3245   4.5981

          k = 0.0591-0.1365 0.0000 ( 17183 PWs)   bands (ev):

   -49.4318 -49.3041 -49.0411 -48.9265 -48.8975 -48.8470 -48.5778 -48.4660
   -48.4517 -48.4298 -48.4101 -48.4046 -48.3847 -48.3778 -48.3722 -48.3635
   -48.3450 -48.3286 -48.3115 -48.2906 -48.2347 -48.2169 -48.2017 -48.1869
   -48.1729 -48.1428 -48.1354 -48.1140 -48.1082 -48.0939 -48.0734 -47.9930
   -47.9727 -47.9517 -47.9285 -47.9154 -11.2428  -6.7023  -5.8541  -4.0063
    -3.1499  -2.9035  -2.7895  -2.6830  -2.4444  -2.4205  -2.3658  -2.2962
    -2.2621  -2.2029  -2.1094  -2.0664  -1.9794  -1.8837  -1.8597  -1.7883
    -1.7602  -1.6209  -1.5511  -1.5185  -1.4512  -1.2937  -1.2893  -1.2370
    -1.1336  -1.0817  -1.0414  -0.9690  -0.9264  -0.8449  -0.7862  -0.7296
    -0.6976  -0.6065  -0.5572  -0.4514  -0.4223  -0.3396  -0.2846  -0.2247
    -0.1825  -0.0792  -0.0285   0.0342   0.0599   0.1471   0.2789   0.3211
     0.3568   0.4810   0.5278   0.6169   0.6866   0.8391   0.8996   0.9969
     1.0368   1.0720   1.1322   1.1926   1.2335   1.4373   1.6718   2.4091
     2.6327   3.2273   4.0483   4.5707   5.3053

          k = 0.0591-0.1024 0.0000 ( 17208 PWs)   bands (ev):

   -49.4070 -49.3275 -49.0405 -48.9285 -48.8947 -48.8563 -48.5740 -48.4489
   -48.4386 -48.4187 -48.4119 -48.4076 -48.4029 -48.3795 -48.3685 -48.3675
   -48.3338 -48.3210 -48.3164 -48.3048 -48.2173 -48.2065 -48.1939 -48.1854
   -48.1776 -48.1708 -48.1401 -48.1215 -48.0971 -48.0956 -48.0901 -47.9928
   -47.9722 -47.9526 -47.9272 -47.9162 -11.2329  -6.6057  -5.8504  -3.9461
    -3.0887  -2.7570  -2.6877  -2.4415  -2.3502  -2.3008  -2.2594  -2.2072
    -2.1734  -2.1071  -2.0451  -2.0031  -1.9659  -1.9379  -1.8718  -1.8258
    -1.6488  -1.6345  -1.5957  -1.5838  -1.4816  -1.4031  -1.3613  -1.3361
    -1.2673  -1.1971  -1.0896  -1.0438  -1.0294  -1.0247  -0.9158  -0.7272
    -0.6833  -0.6563  -0.6511  -0.5887  -0.5632  -0.5407  -0.4011  -0.2117
    -0.1746  -0.0378  -0.0112   0.0745   0.1249   0.1894   0.2559   0.3267
     0.4068   0.5242   0.6425   0.6585   0.7096   0.8651   0.9379   0.9788
     0.9970   1.0271   1.0697   1.1028   1.1208   1.2812   1.4326   1.8009
     2.4769   3.3637   4.1438   4.6026   5.4116

          k = 0.0591-0.0683 0.0000 ( 17183 PWs)   bands (ev):

   -49.3872 -49.3481 -49.0410 -48.9317 -48.8957 -48.8632 -48.5671 -48.4768
   -48.4552 -48.4224 -48.4067 -48.3994 -48.3799 -48.3747 -48.3663 -48.3593
   -48.3417 -48.3221 -48.3076 -48.2997 -48.2352 -48.2169 -48.1997 -48.1862
   -48.1739 -48.1399 -48.1377 -48.1276 -48.1177 -48.0898 -48.0724 -47.9930
   -47.9722 -47.9531 -47.9260 -47.9168 -11.2345  -6.6532  -5.8226  -3.8665
    -3.3225  -3.0315  -2.6776  -2.6186  -2.5535  -2.4716  -2.4206  -2.3746
    -2.2506  -2.2338  -2.1740  -2.1185  -2.0520  -1.9537  -1.8812  -1.8032
    -1.7747  -1.6490  -1.5545  -1.5213  -1.4241  -1.3427  -1.2639  -1.2258
    -1.0830  -1.0513  -0.9957  -0.9216  -0.9043  -0.8182  -0.7150  -0.6904
    -0.6355  -0.5602  -0.5190  -0.4345  -0.3521  -0.3313  -0.3016  -0.2672
    -0.1502  -0.1027  -0.0678   0.0471   0.0836   0.1842   0.2224   0.3029
     0.3290   0.4706   0.5693   0.6348   0.6866   0.7544   0.8928   0.9619
     1.0104   1.0493   1.0991   1.1810   1.2187   1.3475   1.9373   2.2662
     2.7156   3.3263   4.3746   4.5499   5.4632

          k =-0.0887 0.0512 0.0000 ( 17240 PWs)   bands (ev):

   -49.3865 -49.3489 -49.0394 -48.9334 -48.8949 -48.8642 -48.5669 -48.4784
   -48.4658 -48.4061 -48.3927 -48.3913 -48.3812 -48.3772 -48.3739 -48.3658
   -48.3606 -48.3154 -48.3050 -48.2981 -48.2354 -48.2253 -48.1929 -48.1726
   -48.1652 -48.1482 -48.1425 -48.1380 -48.1265 -48.0786 -48.0720 -47.9930
   -47.9722 -47.9532 -47.9259 -47.9169 -11.2357  -6.6449  -5.8171  -3.8755
    -3.3331  -3.0438  -2.7686  -2.6551  -2.5818  -2.5201  -2.3909  -2.3530
    -2.2846  -2.2067  -2.1279  -2.0834  -2.0210  -1.9768  -1.9329  -1.7883
    -1.6655  -1.5678  -1.5457  -1.4845  -1.4072  -1.3561  -1.2328  -1.1882
    -1.0761  -1.0241  -0.9280  -0.8403  -0.7907  -0.7501  -0.7058  -0.6264
    -0.5802  -0.5628  -0.4870  -0.4610  -0.3993  -0.3776  -0.3287  -0.2581
    -0.1494  -0.1349  -0.0811  -0.0473   0.0584   0.0650   0.1081   0.2295
     0.2785   0.3005   0.4383   0.5176   0.5782   0.6164   0.7069   0.9079
     1.0313   1.0874   1.1189   1.1612   1.3338   1.3539   2.0369   2.7226
     3.4205   3.6780   4.1852   4.3564   4.7936

          k =-0.0887 0.0853 0.0000 ( 17183 PWs)   bands (ev):

   -49.4076 -49.3280 -49.0394 -48.9313 -48.8968 -48.8579 -48.5704 -48.4750
   -48.4569 -48.4216 -48.4059 -48.4010 -48.3817 -48.3730 -48.3679 -48.3615
   -48.3441 -48.3210 -48.3132 -48.2973 -48.2338 -48.2182 -48.2007 -48.1868
   -48.1710 -48.1438 -48.1387 -48.1206 -48.1154 -48.0896 -48.0729 -47.9929
   -47.9724 -47.9527 -47.9268 -47.9163 -11.2385  -6.6595  -5.8284  -3.9354
    -3.2757  -3.0232  -2.6915  -2.5926  -2.5305  -2.4664  -2.4241  -2.3577
    -2.2715  -2.1883  -2.1783  -2.0878  -2.0344  -1.9281  -1.8830  -1.7768
    -1.7262  -1.6093  -1.5863  -1.5156  -1.4102  -1.3401  -1.2644  -1.1962
    -1.1558  -1.0765  -0.9771  -0.9205  -0.8907  -0.8016  -0.7483  -0.7119
    -0.6976  -0.6053  -0.5092  -0.4489  -0.3593  -0.3349  -0.3102  -0.2473
    -0.2092  -0.0840  -0.0072   0.0372   0.0769   0.1592   0.2383   0.2572
     0.3500   0.4389   0.5915   0.6270   0.7117   0.7766   0.8924   0.9691
     0.9954   1.0438   1.0949   1.1975   1.2223   1.3569   2.0108   2.1364
     2.7270   3.3903   3.9796   4.7727   5.4114

          k =-0.0887 0.1195 0.0000 ( 17183 PWs)   bands (ev):

   -49.4316 -49.3045 -49.0396 -48.9276 -48.8977 -48.8475 -48.5775 -48.4696
   -48.4502 -48.4316 -48.4061 -48.4037 -48.3855 -48.3762 -48.3717 -48.3634
   -48.3464 -48.3280 -48.3107 -48.2929 -48.2336 -48.2175 -48.2017 -48.1867
   -48.1741 -48.1430 -48.1360 -48.1138 -48.1081 -48.0938 -48.0727 -47.9929
   -47.9727 -47.9518 -47.9284 -47.9154 -11.2440  -6.6911  -5.8517  -4.0065
    -3.1779  -2.9574  -2.7638  -2.6448  -2.4298  -2.4224  -2.3762  -2.3138
    -2.2639  -2.2007  -2.1787  -2.0573  -1.9564  -1.8879  -1.8225  -1.7875
    -1.7297  -1.6211  -1.5591  -1.4874  -1.4377  -1.3600  -1.2917  -1.2336
    -1.1057  -1.0927  -1.0366  -0.9732  -0.9114  -0.8424  -0.7787  -0.7197
    -0.6906  -0.5958  -0.5561  -0.4431  -0.4138  -0.3365  -0.2926  -0.2407
    -0.1890  -0.0990  -0.0077   0.0224   0.0631   0.1590   0.2635   0.3133
     0.3393   0.4928   0.5602   0.5834   0.6981   0.8186   0.8825   0.9991
     1.0344   1.0719   1.1275   1.1915   1.2358   1.4488   1.8061   2.1476
     2.5848   3.4938   3.8490   4.5862   5.3393

          k =-0.0887-0.0512 0.0000 ( 17240 PWs)   bands (ev):

   -49.4407 -49.2956 -49.0397 -48.9261 -48.8970 -48.8428 -48.5812 -48.4645
   -48.4639 -48.4117 -48.4036 -48.3956 -48.3932 -48.3816 -48.3725 -48.3677
   -48.3673 -48.3305 -48.3021 -48.2895 -48.2351 -48.2239 -48.1957 -48.1799
   -48.1592 -48.1489 -48.1423 -48.1328 -48.1023 -48.0857 -48.0703 -47.9929
   -47.9728 -47.9513 -47.9291 -47.9150 -11.2468  -6.7080  -5.8636  -4.0277
    -3.0806  -2.9861  -2.8374  -2.7319  -2.4819  -2.4087  -2.3329  -2.2699
    -2.2447  -2.2061  -2.0710  -2.0431  -1.9393  -1.9250  -1.8150  -1.7475
    -1.6674  -1.5715  -1.4887  -1.4655  -1.4185  -1.3796  -1.3094  -1.1860
    -1.1291  -1.0663  -0.9917  -0.9594  -0.8588  -0.8150  -0.6765  -0.6481
    -0.6337  -0.6092  -0.5168  -0.4768  -0.4528  -0.3872  -0.3735  -0.2453
    -0.1622  -0.0796  -0.0698  -0.0345   0.0483   0.0914   0.1196   0.2323
     0.2567   0.3574   0.4604   0.4916   0.5433   0.6705   0.8436   0.8663
     1.0437   1.0837   1.2022   1.2674   1.3343   1.3670   2.1360   2.2133
     3.3208   3.6766   3.8857   4.2356   5.1395

     the Fermi energy is     1.3575 ev

!    total energy              =   -2412.52662476 Ry
     Harris-Foulkes estimate   =   -2412.52661692 Ry
     estimated scf accuracy    <       0.00000275 Ry

     The total energy is the sum of the following terms:

     one-electron contribution =  -20849.98869839 Ry
     hartree contribution      =   10478.22770765 Ry
     xc contribution           =    -396.39366652 Ry
     ewald contribution        =    8355.73067295 Ry
     electric field correction =       0.00012193 Ry
     smearing contrib. (-TS)   =      -0.10276239 Ry

     convergence has been achieved in  22 iterations
 
 BEEF-vdW xc energy contributions
           1 :   -344.973807658494     
           2 :    315.211939720836     
           3 :   -264.434757992797     
           4 :    206.245708011918     
           5 :   -153.808134859671     
           6 :    115.563318521715     
           7 :   -93.4171890797836     
           8 :    83.6973403495517     
           9 :   -80.0555270395560     
          10 :    76.7615961266708     
          11 :   -70.9043032101601     
          12 :    62.7436805444758     
          13 :   -54.4732859418739     
          14 :    48.3619640827111     
          15 :   -45.3555351556148     
          16 :    44.7480069923528     
          17 :   -44.8567894153133     
          18 :    44.1183392641802     
          19 :   -41.9119462731556     
          20 :    38.6964140980323     
          21 :   -35.5110951561085     
          22 :    33.2399640214703     
          23 :   -32.1059246750320     
          24 :    31.6479334991482     
          25 :   -31.1150430845832     
          26 :    29.9746611510170     
          27 :   -28.2110423807335     
          28 :    26.2583655974626     
          29 :   -24.6578736603155     
          30 :    23.6868746072776     
          31 :   -33.7969910622454     
          32 :   -24.9822017354343     

     Forces acting on atoms (Ry/au):


     negative rho (up, down):  9.430E-01 0.000E+00
     atom    1 type  1   force =     0.00028226    0.00009406   -0.00038124
     atom    2 type  1   force =    -0.00055406    0.00158284   -0.00312651
     atom    3 type  1   force =     0.00069845   -0.00093215   -0.00269433
     atom    4 type  1   force =     0.00031838    0.00021780   -0.00083128
     atom    5 type  1   force =     0.00034353    0.00034264   -0.01214326
     atom    6 type  1   force =     0.00067423   -0.00260033   -0.00513957
     atom    7 type  1   force =    -0.00138609    0.00088198   -0.00742379
     atom    8 type  1   force =     0.00022100   -0.00217996   -0.00893958
     atom    9 type  1   force =     0.05131823    0.03315170    0.00071619
     atom   10 type  1   force =    -0.01278125   -0.07583534    0.00108239
     atom   11 type  1   force =    -0.04943237    0.04406415    0.00288340
     atom   12 type  1   force =     0.00382870   -0.00090157   -0.00247624
     atom   13 type  2   force =     0.00001434   -0.00042861   -0.04311855
     atom   14 type  3   force =     0.01914135    0.00260533    0.03156889
     atom   15 type  3   force =    -0.02055680   -0.00812064    0.03752289
     atom   16 type  3   force =     0.00787008    0.00805809    0.01250059

     Total force =     0.139544     Total SCF correction =     0.004218


     entering subroutine stress ...


     negative rho (up, down):  9.430E-01 0.000E+00
          total   stress  (Ry/bohr**3)                   (kbar)     P=    5.95
   0.00003364  -0.00000023  -0.00000240          4.95     -0.03     -0.35
  -0.00000023   0.00002472  -0.00000325         -0.03      3.64     -0.48
  -0.00000240  -0.00000325   0.00006306         -0.35     -0.48      9.28


     BFGS Geometry Optimization

     number of scf cycles    =   1
     number of bfgs steps    =   0

     energy   new            =   -2412.5266247577 Ry

     new trust radius        =       0.0769124862 bohr
     new conv_thr            =       0.0000099958 Ry


ATOMIC_POSITIONS (crystal)
Pd1      0.000000000   0.000000000   0.406452311    0   0   0
Pd1     -0.000000000   0.500000000   0.406452311    0   0   0
Pd1      0.500000000   0.000000000   0.406452311    0   0   0
Pd1      0.500000000   0.500000000   0.406452311    0   0   0
Pd1      0.666666667   0.666666667   0.500000000    0   0   0
Pd1      0.666666667   0.166666667   0.500000000    0   0   0
Pd1      0.166666667   0.666666667   0.500000000    0   0   0
Pd1      0.166666667   0.166666667   0.500000000    0   0   0
Pd1      0.336245797   0.336949218   0.593516311
Pd1      0.336371505   0.824990856   0.593559114
Pd1      0.826009002   0.338488633   0.593609158
Pd1      0.833469720   0.833404089   0.593444807
C1       0.583595644   0.582885500   0.652651897
H1       0.584948132   0.748134226   0.676064462
H1       0.581854180   0.418024240   0.676125464
H1       0.166888188   0.167445700   0.594265978



     Writing output data file calc.save
     Check: negative starting charge=   -0.903476
     NEW-OLD atomic charge density approx. for the potential
     Check: negative starting charge=   -0.903709

     negative rho (up, down):  9.425E-01 0.000E+00
 
     Adding external electric field

     Computed dipole along edir(3) : 
        Dipole                0.2117 Ry au,          0.5380 Debye
        Dipole field          0.0006 Ry au
 
        Potential amp.       -0.0528 Ry
        Total length         45.3309 bohr
 

     total cpu time spent up to now is      688.1 secs

     per-process dynamical memory:   123.8 Mb

     Self-consistent Calculation

     iteration #  1     ecut=    36.75 Ry     beta=0.30
     Davidson diagonalization with overlap
     ethr =  1.00E-06,  avg # of iterations =  4.2

     negative rho (up, down):  9.427E-01 0.000E+00
 
     Adding external electric field

     Computed dipole along edir(3) : 
        Dipole                0.1379 Ry au,          0.3504 Debye
        Dipole field          0.0004 Ry au
 
        Potential amp.       -0.0344 Ry
        Total length         45.3309 bohr
 

     total cpu time spent up to now is      730.4 secs

     total energy              =   -2412.53817314 Ry
     Harris-Foulkes estimate   =   -2412.53992897 Ry
     estimated scf accuracy    <       0.00425604 Ry

     iteration #  2     ecut=    36.75 Ry     beta=0.30
     Davidson diagonalization with overlap
     ethr =  2.14E-06,  avg # of iterations =  3.6

     negative rho (up, down):  9.428E-01 0.000E+00
 
     Adding external electric field

     Computed dipole along edir(3) : 
        Dipole                0.2448 Ry au,          0.6223 Debye
        Dipole field          0.0007 Ry au
 
        Potential amp.       -0.0610 Ry
        Total length         45.3309 bohr
 

     total cpu time spent up to now is      757.9 secs

     total energy              =   -2412.53073588 Ry
     Harris-Foulkes estimate   =   -2412.54712621 Ry
     estimated scf accuracy    <       0.44697979 Ry

     iteration #  3     ecut=    36.75 Ry     beta=0.30
     Davidson diagonalization with overlap
     ethr =  2.14E-06,  avg # of iterations =  4.5

     negative rho (up, down):  9.429E-01 0.000E+00
 
     Adding external electric field

     Computed dipole along edir(3) : 
        Dipole                0.2134 Ry au,          0.5425 Debye
        Dipole field          0.0006 Ry au
 
        Potential amp.       -0.0532 Ry
        Total length         45.3309 bohr
 

     total cpu time spent up to now is      784.3 secs

     total energy              =   -2412.53835962 Ry
     Harris-Foulkes estimate   =   -2412.54045032 Ry
     estimated scf accuracy    <       0.03225726 Ry

     iteration #  4     ecut=    36.75 Ry     beta=0.30
     Davidson diagonalization with overlap
     ethr =  2.14E-06,  avg # of iterations =  3.8

     negative rho (up, down):  9.429E-01 0.000E+00
 
     Adding external electric field

     Computed dipole along edir(3) : 
        Dipole                0.2105 Ry au,          0.5350 Debye
        Dipole field          0.0006 Ry au
 
        Potential amp.       -0.0525 Ry
        Total length         45.3309 bohr
 

     total cpu time spent up to now is      807.8 secs

     total energy              =   -2412.53928679 Ry
     Harris-Foulkes estimate   =   -2412.53960330 Ry
     estimated scf accuracy    <       0.00234419 Ry

     iteration #  5     ecut=    36.75 Ry     beta=0.30
     Davidson diagonalization with overlap
     ethr =  1.18E-06,  avg # of iterations =  1.3

     negative rho (up, down):  9.431E-01 0.000E+00
 
     Adding external electric field

     Computed dipole along edir(3) : 
        Dipole                0.2096 Ry au,          0.5327 Debye
        Dipole field          0.0006 Ry au
 
        Potential amp.       -0.0522 Ry
        Total length         45.3309 bohr
 

     total cpu time spent up to now is      828.4 secs

     total energy              =   -2412.53939148 Ry
     Harris-Foulkes estimate   =   -2412.53955064 Ry
     estimated scf accuracy    <       0.00114628 Ry

     iteration #  6     ecut=    36.75 Ry     beta=0.30
     Davidson diagonalization with overlap
     ethr =  5.76E-07,  avg # of iterations =  1.2

     negative rho (up, down):  9.432E-01 0.000E+00
 
     Adding external electric field

     Computed dipole along edir(3) : 
        Dipole                0.2118 Ry au,          0.5382 Debye
        Dipole field          0.0006 Ry au
 
        Potential amp.       -0.0528 Ry
        Total length         45.3309 bohr
 

     total cpu time spent up to now is      849.0 secs

     total energy              =   -2412.53944719 Ry
     Harris-Foulkes estimate   =   -2412.53951517 Ry
     estimated scf accuracy    <       0.00044608 Ry

     iteration #  7     ecut=    36.75 Ry     beta=0.30
     Davidson diagonalization with overlap
     ethr =  2.24E-07,  avg # of iterations =  1.0

     negative rho (up, down):  9.432E-01 0.000E+00
 
     Adding external electric field

     Computed dipole along edir(3) : 
        Dipole                0.2125 Ry au,          0.5401 Debye
        Dipole field          0.0006 Ry au
 
        Potential amp.       -0.0530 Ry
        Total length         45.3309 bohr
 

     total cpu time spent up to now is      869.2 secs

     total energy              =   -2412.53948693 Ry
     Harris-Foulkes estimate   =   -2412.53948952 Ry
     estimated scf accuracy    <       0.00004261 Ry

     iteration #  8     ecut=    36.75 Ry     beta=0.30
     Davidson diagonalization with overlap
     ethr =  2.14E-08,  avg # of iterations =  2.1

     negative rho (up, down):  9.433E-01 0.000E+00
 
     Adding external electric field

     Computed dipole along edir(3) : 
        Dipole                0.2124 Ry au,          0.5400 Debye
        Dipole field          0.0006 Ry au
 
        Potential amp.       -0.0530 Ry
        Total length         45.3309 bohr
 

     total cpu time spent up to now is      891.8 secs

     total energy              =   -2412.53948826 Ry
     Harris-Foulkes estimate   =   -2412.53949803 Ry
     estimated scf accuracy    <       0.00006840 Ry

     iteration #  9     ecut=    36.75 Ry     beta=0.30
     Davidson diagonalization with overlap
     ethr =  2.14E-08,  avg # of iterations =  1.3

     negative rho (up, down):  9.433E-01 0.000E+00

     negative rho (up, down):  9.433E-01 0.000E+00

     negative rho (up, down):  9.433E-01 0.000E+00

     negative rho (up, down):  9.433E-01 0.000E+00

     negative rho (up, down):  9.433E-01 0.000E+00

     negative rho (up, down):  9.433E-01 0.000E+00

     negative rho (up, down):  9.433E-01 0.000E+00

     negative rho (up, down):  9.433E-01 0.000E+00

     negative rho (up, down):  9.433E-01 0.000E+00

     negative rho (up, down):  9.433E-01 0.000E+00

     negative rho (up, down):  9.433E-01 0.000E+00

     negative rho (up, down):  9.433E-01 0.000E+00

     negative rho (up, down):  9.433E-01 0.000E+00

     negative rho (up, down):  9.433E-01 0.000E+00

     negative rho (up, down):  9.433E-01 0.000E+00

     negative rho (up, down):  9.433E-01 0.000E+00

     negative rho (up, down):  9.433E-01 0.000E+00

     negative rho (up, down):  9.433E-01 0.000E+00

     negative rho (up, down):  9.433E-01 0.000E+00

     negative rho (up, down):  9.433E-01 0.000E+00

     negative rho (up, down):  9.433E-01 0.000E+00

     negative rho (up, down):  9.433E-01 0.000E+00

     negative rho (up, down):  9.433E-01 0.000E+00

     negative rho (up, down):  9.433E-01 0.000E+00

     negative rho (up, down):  9.433E-01 0.000E+00

     negative rho (up, down):  9.433E-01 0.000E+00

     negative rho (up, down):  9.433E-01 0.000E+00

     negative rho (up, down):  9.433E-01 0.000E+00

     negative rho (up, down):  9.433E-01 0.000E+00

     negative rho (up, down):  9.433E-01 0.000E+00

     negative rho (up, down):  9.433E-01 0.000E+00

     negative rho (up, down):  9.433E-01 0.000E+00

     negative rho (up, down):  9.433E-01 0.000E+00

     negative rho (up, down):  9.433E-01 0.000E+00

     negative rho (up, down):  9.433E-01 0.000E+00
 
     Adding external electric field

     Computed dipole along edir(3) : 
        Dipole                0.2118 Ry au,          0.5385 Debye
        Dipole field          0.0006 Ry au
 
        Potential amp.       -0.0528 Ry
        Total length         45.3309 bohr
 

     total cpu time spent up to now is      950.0 secs

     End of self-consistent calculation

          k = 0.0000 0.0000 0.0000 ( 17231 PWs)   bands (ev):

   -49.4811 -49.3279 -49.0778 -48.9449 -48.9315 -48.8693 -48.5408 -48.5012
   -48.4908 -48.4852 -48.3878 -48.3739 -48.3624 -48.3566 -48.3293 -48.3165
   -48.3073 -48.3022 -48.2575 -48.2517 -48.2508 -48.2442 -48.2408 -48.1817
   -48.1169 -48.0985 -48.0902 -48.0840 -48.0767 -48.0300 -48.0280 -47.9811
   -47.9575 -47.9332 -47.9073 -47.8963 -11.2311  -6.9040  -5.6455  -4.2599
    -4.2295  -3.3404  -3.1718  -3.1451  -3.0475  -3.0187  -2.9613  -2.8711
    -2.8584  -2.7783  -2.7051  -2.5927  -2.5587  -2.4089  -2.1822  -1.7599
    -1.5801  -1.4639  -1.4588  -1.3956  -1.2861  -1.2553  -1.1721  -1.0355
    -0.9947  -0.9200  -0.8871  -0.7955  -0.7713  -0.7514  -0.7458  -0.6163
    -0.2982  -0.2829  -0.1141  -0.0047   0.0951   0.1766   0.2750   0.4093
     0.4629   0.5225   0.5761   0.7910   0.8103   0.8826   1.0128   1.0219
     1.0413   1.0450   1.0662   1.1289   1.1779   1.2235   1.2431   1.4002
     1.4061   1.4108   1.4283   1.5984   1.6013   1.6077   2.2894   2.8528
     3.4048   3.5701   4.1277   4.3141   4.7384

          k = 0.0000 0.0341 0.0000 ( 17192 PWs)   bands (ev):

   -49.4720 -49.3348 -49.0769 -48.9438 -48.9275 -48.8721 -48.5438 -48.4907
   -48.4781 -48.4756 -48.3854 -48.3712 -48.3607 -48.3553 -48.3342 -48.3197
   -48.3078 -48.3040 -48.2712 -48.2546 -48.2443 -48.2393 -48.2329 -48.1806
   -48.1181 -48.1031 -48.0966 -48.0904 -48.0785 -48.0439 -48.0334 -47.9807
   -47.9570 -47.9334 -47.9070 -47.8967 -11.2193  -6.8003  -5.6518  -4.2084
    -4.0404  -3.2404  -3.0545  -3.0382  -2.9532  -2.8749  -2.8298  -2.7962
    -2.7563  -2.7018  -2.6285  -2.4851  -2.4432  -2.3558  -2.1445  -1.7525
    -1.6324  -1.5252  -1.4170  -1.3495  -1.2751  -1.2261  -1.1714  -1.0997
    -1.0663  -0.9215  -0.8880  -0.8520  -0.7937  -0.7387  -0.7053  -0.6381
    -0.4678  -0.2968  -0.2159  -0.0686   0.0280   0.0622   0.1667   0.2408
     0.3317   0.3751   0.5023   0.5595   0.6686   0.7224   0.7949   0.8563
     0.8982   0.9354   0.9822   0.9944   1.0376   1.1372   1.1789   1.1888
     1.2572   1.2950   1.3853   1.4309   1.4620   1.7057   2.3966   2.6821
     3.3654   3.5714   3.6829   4.1394   4.3566

          k = 0.0000 0.0683 0.0000 ( 17196 PWs)   bands (ev):

   -49.4497 -49.3526 -49.0750 -48.9417 -48.9182 -48.8787 -48.5499 -48.4673
   -48.4570 -48.4358 -48.3795 -48.3683 -48.3587 -48.3562 -48.3509 -48.3349
   -48.3171 -48.3048 -48.2933 -48.2655 -48.2291 -48.2221 -48.2007 -48.1781
   -48.1238 -48.1199 -48.1129 -48.1037 -48.0849 -48.0729 -48.0437 -47.9800
   -47.9561 -47.9338 -47.9063 -47.8975 -11.1957  -6.5619  -5.6604  -4.1231
    -3.5619  -3.1360  -2.8885  -2.7501  -2.7230  -2.6414  -2.5418  -2.5117
    -2.4526  -2.4374  -2.3927  -2.3242  -2.1280  -2.0944  -1.9568  -1.7888
    -1.6908  -1.6346  -1.5601  -1.4174  -1.3247  -1.2076  -1.1729  -1.1125
    -1.0613  -0.9770  -0.9220  -0.8434  -0.7638  -0.7284  -0.6775  -0.6387
    -0.5949  -0.5148  -0.4229  -0.3553  -0.2715  -0.1065  -0.0396  -0.0113
     0.0334   0.0619   0.0871   0.1381   0.2174   0.3464   0.4224   0.4818
     0.5355   0.6392   0.6903   0.7426   0.7849   0.8630   0.8827   0.9612
     0.9873   1.1357   1.1875   1.2962   1.3534   1.5735   2.0304   2.8534
     3.1388   3.7235   4.0513   4.4821   4.7384

          k = 0.0000-0.1024 0.0000 ( 17240 PWs)   bands (ev):

   -49.4342 -49.3659 -49.0740 -48.9408 -48.9123 -48.8832 -48.5531 -48.4509
   -48.4441 -48.3859 -48.3786 -48.3717 -48.3688 -48.3649 -48.3579 -48.3519
   -48.3423 -48.3035 -48.2809 -48.2789 -48.2191 -48.2086 -48.1814 -48.1553
   -48.1412 -48.1298 -48.1223 -48.1206 -48.1105 -48.0637 -48.0538 -47.9796
   -47.9556 -47.9340 -47.9060 -47.8980 -11.1840  -6.4217  -5.6595  -4.1164
    -3.2786  -3.0663  -2.8308  -2.6105  -2.5545  -2.4633  -2.3892  -2.3653
    -2.2485  -2.1829  -2.1229  -2.0733  -2.0644  -1.9667  -1.8639  -1.7806
    -1.7601  -1.5597  -1.5167  -1.4610  -1.3998  -1.3693  -1.3324  -1.1736
    -1.0689  -1.0391  -0.8355  -0.8249  -0.7892  -0.7577  -0.6911  -0.6376
    -0.6033  -0.5592  -0.4675  -0.4490  -0.4086  -0.3520  -0.3391  -0.2814
    -0.1583  -0.0826  -0.0750  -0.0309   0.0661   0.0932   0.1245   0.2328
     0.2902   0.3207   0.4745   0.5426   0.5682   0.6386   0.8569   0.9237
     1.0780   1.1316   1.1773   1.2003   1.3481   1.3693   2.1799   2.8010
     3.4815   3.7786   4.0621   4.3090   4.8382

          k = 0.0296-0.0171 0.0000 ( 17192 PWs)   bands (ev):

   -49.4718 -49.3351 -49.0754 -48.9448 -48.9279 -48.8724 -48.5434 -48.4920
   -48.4825 -48.4706 -48.3854 -48.3710 -48.3607 -48.3551 -48.3312 -48.3198
   -48.3086 -48.3055 -48.2649 -48.2606 -48.2445 -48.2373 -48.2350 -48.1805
   -48.1183 -48.1025 -48.0988 -48.0904 -48.0772 -48.0453 -48.0319 -47.9807
   -47.9570 -47.9334 -47.9069 -47.8967 -11.2205  -6.7935  -5.6421  -4.2105
    -4.0478  -3.2730  -3.0563  -3.0377  -2.9159  -2.8790  -2.8581  -2.7886
    -2.7514  -2.7038  -2.6308  -2.4835  -2.4477  -2.3670  -2.1437  -1.7530
    -1.6244  -1.4975  -1.3980  -1.3826  -1.2828  -1.2320  -1.1658  -1.0898
    -1.0497  -0.9085  -0.8955  -0.8638  -0.7832  -0.7519  -0.7012  -0.6379
    -0.4617  -0.2998  -0.2136  -0.0719   0.0348   0.0814   0.1824   0.2599
     0.3158   0.3773   0.5236   0.5648   0.6099   0.7195   0.7968   0.8611
     0.9053   0.9258   0.9793   1.0180   1.0689   1.1369   1.1695   1.1937
     1.2569   1.3047   1.3915   1.4312   1.4620   1.5934   2.3023   2.7399
     3.2528   3.5343   3.8529   4.0943   4.3590

          k = 0.0296 0.0171 0.0000 ( 17192 PWs)   bands (ev):

   -49.4798 -49.3276 -49.0755 -48.9439 -48.9268 -48.8680 -48.5467 -48.4896
   -48.4798 -48.4748 -48.3854 -48.3751 -48.3610 -48.3560 -48.3308 -48.3239
   -48.3139 -48.2996 -48.2728 -48.2536 -48.2425 -48.2390 -48.2339 -48.1808
   -48.1197 -48.1074 -48.0884 -48.0848 -48.0825 -48.0440 -48.0331 -47.9806
   -47.9571 -47.9330 -47.9077 -47.8962 -11.2233  -6.8073  -5.6537  -4.2405
    -4.0406  -3.2393  -3.0648  -2.9994  -2.9404  -2.8913  -2.8556  -2.7757
    -2.7477  -2.6909  -2.6200  -2.5049  -2.4146  -2.3355  -2.1339  -1.7077
    -1.6174  -1.4719  -1.4098  -1.3713  -1.2790  -1.2245  -1.1671  -1.1504
    -1.0235  -0.9876  -0.8728  -0.8538  -0.7901  -0.7364  -0.6842  -0.6399
    -0.4100  -0.3100  -0.2270  -0.1248  -0.0356   0.0714   0.1850   0.2374
     0.3019   0.3884   0.5189   0.6195   0.6446   0.7200   0.7562   0.8721
     0.8768   0.9193   0.9258   1.0280   1.1113   1.1494   1.1701   1.1841
     1.2713   1.3576   1.3691   1.4340   1.5046   1.7775   2.1828   2.5583
     3.2488   3.5451   3.6844   4.1005   4.5717

          k = 0.0296 0.0512 0.0000 ( 17186 PWs)   bands (ev):

   -49.4699 -49.3343 -49.0741 -48.9421 -48.9198 -48.8701 -48.5530 -48.4712
   -48.4585 -48.4542 -48.3811 -48.3742 -48.3621 -48.3559 -48.3500 -48.3233
   -48.3099 -48.3048 -48.2997 -48.2599 -48.2333 -48.2228 -48.2152 -48.1793
   -48.1257 -48.1222 -48.0915 -48.0900 -48.0855 -48.0699 -48.0417 -47.9801
   -47.9565 -47.9331 -47.9077 -47.8966 -11.2070  -6.6410  -5.6716  -4.1908
    -3.6892  -3.0714  -2.9205  -2.8310  -2.7565  -2.6998  -2.6307  -2.5725
    -2.5559  -2.5018  -2.4637  -2.3107  -2.2697  -2.1233  -2.0233  -1.7358
    -1.6636  -1.5517  -1.4869  -1.3920  -1.3294  -1.2428  -1.1634  -1.1085
    -1.0614  -1.0244  -0.8988  -0.8801  -0.8229  -0.7520  -0.6816  -0.5988
    -0.5150  -0.4779  -0.4008  -0.3137  -0.2550  -0.0709  -0.0073   0.0360
     0.1212   0.1739   0.2524   0.2769   0.3441   0.4041   0.5038   0.6052
     0.6800   0.6892   0.7441   0.7963   0.9034   0.9739   1.0182   1.0698
     1.0899   1.1849   1.2419   1.2574   1.5473   1.7269   2.2530   2.3782
     2.6891   3.2736   3.9576   4.3625   4.9012

          k = 0.0296-0.1195 0.0000 ( 17183 PWs)   bands (ev):

   -49.4480 -49.3527 -49.0726 -48.9411 -48.9127 -48.8778 -48.5560 -48.4487
   -48.4341 -48.4087 -48.3902 -48.3754 -48.3693 -48.3579 -48.3528 -48.3469
   -48.3278 -48.3056 -48.2956 -48.2749 -48.2177 -48.2016 -48.1836 -48.1726
   -48.1512 -48.1248 -48.1204 -48.1042 -48.0962 -48.0730 -48.0557 -47.9796
   -47.9558 -47.9336 -47.9068 -47.8974 -11.1880  -6.4240  -5.6771  -4.1540
    -3.2149  -3.0602  -2.7521  -2.5921  -2.5114  -2.4649  -2.3896  -2.3407
    -2.2513  -2.1818  -2.1458  -2.0804  -1.9940  -1.9308  -1.8927  -1.8446
    -1.7322  -1.5864  -1.5563  -1.5235  -1.4079  -1.3483  -1.2705  -1.2026
    -1.1169  -1.0464  -1.0043  -0.9068  -0.8611  -0.8068  -0.7440  -0.6946
    -0.6718  -0.6618  -0.5612  -0.4122  -0.3649  -0.3297  -0.2786  -0.2243
    -0.1852  -0.0608  -0.0272   0.0406   0.1029   0.1702   0.2658   0.2951
     0.3698   0.5073   0.5763   0.6286   0.7100   0.8583   0.9081   0.9867
     1.0142   1.0929   1.1522   1.2075   1.2368   1.4579   1.8826   2.3332
     2.9855   3.2340   4.0464   4.8372   5.3640

          k = 0.0296-0.0853 0.0000 ( 17183 PWs)   bands (ev):

   -49.4338 -49.3665 -49.0725 -48.9422 -48.9123 -48.8837 -48.5525 -48.4537
   -48.4312 -48.4113 -48.3857 -48.3753 -48.3673 -48.3574 -48.3507 -48.3440
   -48.3272 -48.3045 -48.2911 -48.2805 -48.2179 -48.2007 -48.1836 -48.1713
   -48.1553 -48.1217 -48.1190 -48.1111 -48.0978 -48.0737 -48.0545 -47.9796
   -47.9556 -47.9340 -47.9059 -47.8981 -11.1853  -6.4005  -5.6694  -4.1154
    -3.3176  -3.0545  -2.7220  -2.5939  -2.5300  -2.4646  -2.4051  -2.3548
    -2.2640  -2.2081  -2.1652  -2.1140  -2.0117  -1.9721  -1.9053  -1.8033
    -1.7280  -1.6140  -1.5555  -1.4970  -1.4458  -1.3496  -1.2965  -1.2348
    -1.0924  -1.0355  -0.9424  -0.8875  -0.8732  -0.7769  -0.7249  -0.7014
    -0.6194  -0.5970  -0.5183  -0.4042  -0.3869  -0.3101  -0.2917  -0.2107
    -0.1697  -0.0929  -0.0413   0.0481   0.0848   0.2067   0.2294   0.3270
     0.3599   0.4969   0.5791   0.6300   0.6931   0.8226   0.9131   0.9838
     1.0170   1.0960   1.1263   1.2011   1.2355   1.4602   1.9904   2.2080
     2.7879   3.4896   4.1732   4.7085   5.3767

          k = 0.0296-0.0512 0.0000 ( 17186 PWs)   bands (ev):

   -49.4501 -49.3533 -49.0740 -48.9441 -48.9209 -48.8799 -48.5462 -48.4780
   -48.4585 -48.4504 -48.3815 -48.3665 -48.3588 -48.3541 -48.3490 -48.3173
   -48.3114 -48.3049 -48.2916 -48.2676 -48.2346 -48.2201 -48.2173 -48.1788
   -48.1262 -48.1186 -48.1039 -48.0956 -48.0797 -48.0723 -48.0402 -47.9801
   -47.9563 -47.9339 -47.9059 -47.8977 -11.2014  -6.6061  -5.6512  -4.1183
    -3.7184  -3.1908  -2.9001  -2.8299  -2.7825  -2.6999  -2.6251  -2.5920
    -2.5669  -2.5407  -2.4853  -2.3384  -2.2793  -2.1755  -2.0239  -1.7994
    -1.6692  -1.6151  -1.4865  -1.4055  -1.3379  -1.2248  -1.1559  -1.1298
    -1.0252  -0.9658  -0.8982  -0.8448  -0.8059  -0.7551  -0.6789  -0.6023
    -0.5360  -0.4597  -0.3649  -0.3148  -0.1078  -0.0446   0.0263   0.0462
     0.0865   0.1692   0.2560   0.2845   0.3593   0.3818   0.5266   0.6434
     0.6697   0.7136   0.7424   0.7984   0.8634   0.9024   0.9949   1.0633
     1.0915   1.1744   1.2079   1.2577   1.4907   1.7809   2.0593   2.4041
     2.9332   3.1977   4.1617   4.5533   4.7872

          k = 0.0591-0.0341 0.0000 ( 17196 PWs)   bands (ev):

   -49.4487 -49.3540 -49.0704 -48.9459 -48.9182 -48.8802 -48.5487 -48.4713
   -48.4624 -48.4292 -48.3797 -48.3673 -48.3579 -48.3529 -48.3455 -48.3378
   -48.3137 -48.3031 -48.2966 -48.2710 -48.2282 -48.2201 -48.2032 -48.1781
   -48.1232 -48.1197 -48.1180 -48.1034 -48.0857 -48.0705 -48.0423 -47.9798
   -47.9561 -47.9339 -47.9060 -47.8977 -11.1993  -6.5281  -5.6511  -4.1350
    -3.5999  -3.1946  -2.8357  -2.7599  -2.7347  -2.6445  -2.5572  -2.5269
    -2.4570  -2.4216  -2.3944  -2.3020  -2.2107  -2.0766  -1.9269  -1.7984
    -1.6817  -1.6107  -1.5161  -1.4279  -1.3417  -1.2069  -1.1200  -1.0916
    -1.0531  -0.9773  -0.9483  -0.8566  -0.7573  -0.7230  -0.6746  -0.6156
    -0.6007  -0.5272  -0.3604  -0.3243  -0.2179  -0.1388  -0.0702  -0.0036
     0.0422   0.0646   0.0925   0.1299   0.2212   0.3642   0.4080   0.4782
     0.5537   0.6079   0.6819   0.7358   0.7800   0.8181   0.9213   0.9615
     0.9977   1.1361   1.1840   1.2589   1.3544   1.4171   1.9568   2.8107
     3.1832   3.6987   4.0544   4.4157   4.6427

          k = 0.0591-0.0000 0.0000 ( 17186 PWs)   bands (ev):

   -49.4695 -49.3351 -49.0711 -48.9440 -48.9209 -48.8708 -48.5522 -48.4763
   -48.4608 -48.4489 -48.3812 -48.3732 -48.3600 -48.3552 -48.3467 -48.3261
   -48.3138 -48.3011 -48.2965 -48.2646 -48.2321 -48.2223 -48.2169 -48.1792
   -48.1270 -48.1226 -48.0927 -48.0910 -48.0835 -48.0704 -48.0402 -47.9799
   -47.9565 -47.9332 -47.9075 -47.8967 -11.2094  -6.6223  -5.6596  -4.1956
    -3.7092  -3.1592  -2.8650  -2.8166  -2.7620  -2.7029  -2.6345  -2.5726
    -2.5515  -2.5341  -2.4576  -2.3183  -2.2510  -2.1775  -1.9794  -1.7422
    -1.6587  -1.4941  -1.4632  -1.4158  -1.3768  -1.2133  -1.1543  -1.1090
    -1.0563  -1.0113  -0.9108  -0.8884  -0.8255  -0.7364  -0.6726  -0.5998
    -0.5003  -0.4530  -0.3656  -0.2975  -0.2566  -0.0882  -0.0143   0.0456
     0.1045   0.1902   0.2274   0.2887   0.3399   0.3792   0.5123   0.6042
     0.6798   0.6844   0.7478   0.8074   0.8926   0.9716   1.0345   1.0571
     1.0894   1.1908   1.2424   1.2635   1.4967   1.8164   1.9671   2.3962
     2.7663   3.1554   3.9822   4.3621   4.9280

          k = 0.0591 0.0341 0.0000 ( 17196 PWs)   bands (ev):

   -49.4770 -49.3271 -49.0708 -48.9420 -48.9169 -48.8655 -48.5589 -48.4651
   -48.4572 -48.4365 -48.3797 -48.3785 -48.3615 -48.3557 -48.3472 -48.3415
   -48.3186 -48.3159 -48.2904 -48.2629 -48.2270 -48.2208 -48.2031 -48.1785
   -48.1301 -48.1252 -48.1034 -48.0858 -48.0851 -48.0761 -48.0427 -47.9797
   -47.9565 -47.9326 -47.9086 -47.8962 -11.2078  -6.5816  -5.6874  -4.2072
    -3.5441  -3.0439  -2.8946  -2.7878  -2.6705  -2.6132  -2.5144  -2.4893
    -2.4463  -2.4119  -2.3775  -2.2761  -2.1590  -2.0039  -1.9202  -1.7454
    -1.6368  -1.5832  -1.4556  -1.4211  -1.3134  -1.3013  -1.1698  -1.1279
    -1.0518  -0.9980  -0.9596  -0.9127  -0.7916  -0.7314  -0.7147  -0.5838
    -0.5567  -0.5157  -0.4532  -0.3585  -0.3172  -0.1658  -0.1381  -0.0065
     0.0273   0.0844   0.1083   0.1711   0.2132   0.3566   0.4176   0.5231
     0.5577   0.5913   0.6644   0.7718   0.7738   0.8646   0.8911   0.9611
     1.0940   1.1157   1.2281   1.3291   1.3504   1.5518   2.0119   2.4465
     2.8876   3.7735   4.0652   4.3295   4.6058

          k = 0.0591-0.1365 0.0000 ( 17183 PWs)   bands (ev):

   -49.4677 -49.3343 -49.0698 -48.9412 -48.9122 -48.8684 -48.5622 -48.4476
   -48.4329 -48.4095 -48.3924 -48.3759 -48.3722 -48.3603 -48.3546 -48.3480
   -48.3284 -48.3154 -48.2918 -48.2734 -48.2173 -48.1982 -48.1859 -48.1740
   -48.1547 -48.1270 -48.1170 -48.0956 -48.0918 -48.0759 -48.0544 -47.9794
   -47.9560 -47.9328 -47.9084 -47.8965 -11.1961  -6.4344  -5.7078  -4.1917
    -3.1488  -2.9785  -2.8190  -2.6937  -2.4524  -2.4003  -2.3640  -2.3102
    -2.2487  -2.1827  -2.1066  -2.0430  -1.9797  -1.8839  -1.8453  -1.7740
    -1.7591  -1.5941  -1.5401  -1.5171  -1.4318  -1.2873  -1.2680  -1.2237
    -1.1426  -1.0639  -1.0434  -0.9543  -0.9114  -0.8388  -0.7699  -0.7236
    -0.6827  -0.6038  -0.5448  -0.4415  -0.4072  -0.3241  -0.2665  -0.2146
    -0.1800  -0.0629  -0.0174   0.0496   0.0749   0.1698   0.2934   0.3435
     0.3656   0.5020   0.5374   0.6346   0.7036   0.8492   0.9273   1.0168
     1.0591   1.0905   1.1523   1.2081   1.2509   1.4572   1.7061   2.4404
     2.6756   3.2517   4.0692   4.5936   5.3103

          k = 0.0591-0.1024 0.0000 ( 17208 PWs)   bands (ev):

   -49.4466 -49.3535 -49.0691 -48.9426 -48.9102 -48.8781 -48.5585 -48.4289
   -48.4194 -48.4022 -48.3934 -48.3874 -48.3726 -48.3674 -48.3545 -48.3507
   -48.3183 -48.3019 -48.2996 -48.2906 -48.1996 -48.1887 -48.1807 -48.1689
   -48.1594 -48.1524 -48.1245 -48.1046 -48.0787 -48.0768 -48.0716 -47.9792
   -47.9556 -47.9336 -47.9070 -47.8974 -11.1861  -6.3113  -5.7074  -4.1779
    -3.1710  -2.7958  -2.6823  -2.4509  -2.3677  -2.3094  -2.2453  -2.2118
    -2.1548  -2.0914  -2.0366  -1.9934  -1.9587  -1.9172  -1.8420  -1.8089
    -1.6438  -1.6141  -1.5798  -1.5673  -1.4740  -1.4033  -1.3381  -1.3132
    -1.2599  -1.1762  -1.0807  -1.0266  -1.0111  -1.0054  -0.9192  -0.7296
    -0.6753  -0.6412  -0.6361  -0.5772  -0.5474  -0.5212  -0.3960  -0.2072
    -0.1582  -0.0348   0.0178   0.0899   0.1339   0.2074   0.2741   0.3414
[...]
    -1.6319  -1.5837  -1.5444  -1.4340  -1.3299  -1.3003  -1.1638  -1.1333
    -1.0661  -0.9964  -0.9546  -0.8469  -0.7677  -0.7202  -0.7006  -0.6461
    -0.6165  -0.5811  -0.4283  -0.3920  -0.2781  -0.1603  -0.1081  -0.0700
     0.0006   0.0097   0.0641   0.1120   0.1883   0.3330   0.4095   0.4399
     0.4879   0.5724   0.6471   0.6951   0.7391   0.7820   0.8709   0.9248
     0.9394   1.0974   1.1395   1.2422   1.3144   1.4047   1.8575   2.7964
     3.1020   3.6369   3.9806   4.2049   4.6870

          k = 0.0591-0.0000 0.0000 ( 17186 PWs)   bands (ev):

   -49.3138 -49.2114 -49.0021 -48.9397 -48.8364 -48.8035 -48.5149 -48.4953
   -48.4866 -48.4767 -48.4202 -48.4060 -48.3894 -48.3767 -48.3645 -48.3613
   -48.3446 -48.3361 -48.3258 -48.2931 -48.2735 -48.2595 -48.2557 -48.2227
   -48.1913 -48.1787 -48.1657 -48.1361 -48.1213 -48.1076 -48.0785 -48.0699
   -47.9934 -47.9844 -47.9366 -47.9287 -10.9528  -5.1833  -4.9954  -4.2182
    -3.6445  -2.8467  -2.8049  -2.7388  -2.6884  -2.6721  -2.5931  -2.5661
    -2.5372  -2.4812  -2.4692  -2.3229  -2.2240  -2.1261  -2.0263  -1.7564
    -1.6123  -1.5403  -1.4987  -1.4341  -1.3259  -1.2053  -1.1652  -1.0874
    -1.0333  -0.9718  -0.9119  -0.8824  -0.7877  -0.7722  -0.7154  -0.6678
    -0.5977  -0.4864  -0.4220  -0.3738  -0.2828  -0.0956  -0.0612  -0.0243
     0.0780   0.1400   0.2174   0.2686   0.2857   0.3627   0.4637   0.5794
     0.6392   0.6673   0.6854   0.7651   0.8621   0.9451   0.9776   1.0110
     1.0396   1.1408   1.2024   1.2516   1.5224   1.6590   2.0916   2.3176
     2.6103   3.1127   3.8558   4.0353   4.8102

          k = 0.0591 0.0341 0.0000 ( 17196 PWs)   bands (ev):

   -49.3208 -49.2054 -49.0043 -48.9334 -48.8326 -48.7987 -48.5132 -48.4858
   -48.4852 -48.4693 -48.4276 -48.4045 -48.3897 -48.3735 -48.3732 -48.3630
   -48.3569 -48.3405 -48.3277 -48.2936 -48.2722 -48.2532 -48.2440 -48.2217
   -48.1943 -48.1726 -48.1724 -48.1380 -48.1236 -48.1213 -48.0781 -48.0696
   -47.9937 -47.9837 -47.9376 -47.9280 -10.9519  -5.1541  -4.9941  -4.2461
    -3.5026  -2.8517  -2.7233  -2.6850  -2.6295  -2.5747  -2.4753  -2.4511
    -2.4439  -2.4232  -2.3999  -2.2669  -2.0787  -1.9862  -1.9702  -1.6788
    -1.6595  -1.6261  -1.5228  -1.4229  -1.2857  -1.1909  -1.1558  -1.1081
    -0.9974  -0.9930  -0.9445  -0.8538  -0.8414  -0.7623  -0.7163  -0.6476
    -0.6381  -0.4733  -0.4645  -0.4456  -0.3808  -0.1815  -0.1724  -0.0673
    -0.0525   0.0413   0.0724   0.1122   0.2651   0.2685   0.4305   0.5208
     0.5224   0.5362   0.6176   0.6611   0.7520   0.8281   0.8686   0.9266
     1.0482   1.0675   1.1984   1.2805   1.3540   1.5663   2.0795   2.1636
     2.6343   3.7598   3.8242   4.0924   4.5225

          k = 0.0591-0.1365 0.0000 ( 17183 PWs)   bands (ev):

   -49.3122 -49.2114 -48.9999 -48.9383 -48.8272 -48.8004 -48.5005 -48.4830
   -48.4620 -48.4457 -48.4325 -48.4093 -48.3997 -48.3871 -48.3748 -48.3634
   -48.3586 -48.3470 -48.3277 -48.3044 -48.2609 -48.2350 -48.2275 -48.2156
   -48.1985 -48.1941 -48.1796 -48.1564 -48.1324 -48.1196 -48.0888 -48.0691
   -47.9928 -47.9843 -47.9371 -47.9285 -10.9448  -5.1043  -4.8705  -4.1677
    -3.1198  -2.7939  -2.6828  -2.5002  -2.4393  -2.3743  -2.3352  -2.2653
    -2.2216  -2.2004  -2.1360  -2.0405  -1.9242  -1.8808  -1.8241  -1.7666
    -1.7449  -1.6135  -1.5345  -1.4722  -1.4433  -1.3183  -1.2768  -1.2305
    -1.1231  -1.0600  -1.0104  -0.9501  -0.8911  -0.8399  -0.7929  -0.7251
    -0.6753  -0.6174  -0.5893  -0.4948  -0.4696  -0.3593  -0.3042  -0.2672
    -0.1741  -0.1191  -0.0421   0.0043   0.0280   0.0737   0.2462   0.3186
     0.3513   0.4815   0.5142   0.5694   0.6822   0.7644   0.8713   0.9725
     1.0109   1.0667   1.1097   1.1471   1.2445   1.5208   1.6137   2.2677
     2.5374   3.0982   3.7762   4.3368   5.1041

          k = 0.0591-0.1024 0.0000 ( 17208 PWs)   bands (ev):

   -49.2921 -49.2278 -48.9903 -48.9526 -48.8240 -48.8088 -48.4889 -48.4624
   -48.4611 -48.4356 -48.4306 -48.4225 -48.4062 -48.3888 -48.3804 -48.3608
   -48.3526 -48.3323 -48.3293 -48.3221 -48.2411 -48.2303 -48.2262 -48.2128
   -48.1981 -48.1942 -48.1933 -48.1883 -48.1200 -48.1130 -48.1088 -48.0688
   -47.9912 -47.9861 -47.9353 -47.9300 -10.9387  -5.0816  -4.7321  -4.0310
    -2.9925  -2.6983  -2.6527  -2.3519  -2.2866  -2.1870  -2.1647  -2.1357
    -2.1133  -2.0543  -2.0304  -1.9814  -1.9720  -1.9326  -1.8982  -1.8169
    -1.6308  -1.6058  -1.5826  -1.5751  -1.4919  -1.4024  -1.3809  -1.3001
    -1.2539  -1.1312  -1.1244  -1.0659  -1.0426  -1.0398  -0.8863  -0.8286
    -0.6914  -0.6802  -0.6744  -0.6475  -0.6152  -0.5757  -0.4739  -0.2695
    -0.2260  -0.0826   0.0344   0.0744   0.1287   0.1663   0.2938   0.3222
     0.3884   0.4663   0.6183   0.6585   0.6895   0.8350   0.9206   0.9390
     0.9656   1.0285   1.0539   1.0875   1.1216   1.2239   1.3699   1.7671
     2.4643   3.2384   3.7457   4.4576   5.3741

          k = 0.0591-0.0683 0.0000 ( 17183 PWs)   bands (ev):

   -49.2771 -49.2419 -48.9833 -48.9636 -48.8273 -48.8141 -48.4886 -48.4820
   -48.4706 -48.4453 -48.4242 -48.4057 -48.3994 -48.3840 -48.3742 -48.3582
   -48.3516 -48.3405 -48.3247 -48.3101 -48.2553 -48.2423 -48.2259 -48.2166
   -48.2051 -48.1983 -48.1891 -48.1547 -48.1361 -48.1103 -48.0937 -48.0691
   -47.9902 -47.9875 -47.9329 -47.9321 -10.9396  -5.0824  -4.7819  -3.9615
    -3.2494  -2.9016  -2.6364  -2.4776  -2.4521  -2.3921  -2.3386  -2.3048
    -2.2444  -2.2049  -2.1471  -2.0670  -2.0030  -1.9418  -1.8680  -1.8427
    -1.7218  -1.6175  -1.5675  -1.5001  -1.4705  -1.3805  -1.3079  -1.2648
    -1.1410  -1.0630  -0.9887  -0.9382  -0.8777  -0.7966  -0.7599  -0.7066
    -0.6574  -0.5968  -0.5502  -0.4559  -0.4163  -0.3490  -0.3160  -0.2895
    -0.1585  -0.1332  -0.0838  -0.0009   0.0301   0.1609   0.1649   0.3160
     0.3681   0.4394   0.5408   0.5794   0.6537   0.7582   0.8461   0.9341
     0.9954   1.0292   1.0793   1.1755   1.1954   1.3279   2.0711   2.1166
     2.6468   3.2585   4.1042   4.4676   5.2637

          k =-0.0887 0.0512 0.0000 ( 17240 PWs)   bands (ev):

   -49.2771 -49.2419 -48.9824 -48.9645 -48.8268 -48.8145 -48.4880 -48.4851
   -48.4791 -48.4249 -48.4189 -48.4028 -48.4011 -48.3885 -48.3802 -48.3715
   -48.3532 -48.3427 -48.3150 -48.3085 -48.2533 -48.2523 -48.2251 -48.2064
   -48.1989 -48.1919 -48.1887 -48.1592 -48.1584 -48.0968 -48.0960 -48.0692
   -47.9901 -47.9875 -47.9327 -47.9323 -10.9396  -5.0935  -4.7671  -3.9620
    -3.2057  -3.0205  -2.6652  -2.5350  -2.4459  -2.4060  -2.3397  -2.3269
    -2.2352  -2.1652  -2.0947  -2.0448  -1.9942  -1.9739  -1.8627  -1.8276
    -1.7169  -1.5518  -1.5254  -1.4836  -1.4488  -1.3856  -1.3418  -1.1880
    -1.1013  -1.0756  -0.9005  -0.8292  -0.7933  -0.7825  -0.7207  -0.6377
    -0.6050  -0.5483  -0.5090  -0.4796  -0.4212  -0.3960  -0.3572  -0.2416
    -0.1963  -0.1647  -0.0922  -0.0466   0.0070   0.0873   0.0993   0.1907
     0.2378   0.2678   0.4066   0.4818   0.5135   0.6000   0.7624   0.8441
     0.9565   1.0707   1.1013   1.1269   1.3187   1.3296   2.0746   2.6871
     3.2335   3.7378   4.0616   4.2892   4.6997

          k =-0.0887 0.0853 0.0000 ( 17183 PWs)   bands (ev):

   -49.2928 -49.2277 -48.9909 -48.9531 -48.8276 -48.8092 -48.4915 -48.4837
   -48.4693 -48.4457 -48.4219 -48.4071 -48.3975 -48.3877 -48.3770 -48.3635
   -48.3507 -48.3422 -48.3264 -48.3078 -48.2555 -48.2431 -48.2278 -48.2174
   -48.1973 -48.1903 -48.1851 -48.1683 -48.1320 -48.1096 -48.0940 -48.0691
   -47.9914 -47.9861 -47.9351 -47.9301 -10.9413  -5.0972  -4.7982  -4.0475
    -3.1698  -2.9202  -2.6105  -2.4964  -2.4502  -2.3597  -2.3405  -2.3052
    -2.2413  -2.1966  -2.1569  -2.0718  -1.9793  -1.9129  -1.8721  -1.8060
    -1.7014  -1.6079  -1.5829  -1.5257  -1.4237  -1.3913  -1.2682  -1.2133
    -1.1313  -1.0644  -1.0027  -0.9123  -0.8824  -0.7961  -0.7804  -0.7313
    -0.7050  -0.6627  -0.5647  -0.4691  -0.3815  -0.3684  -0.3275  -0.2620
    -0.1902  -0.1040  -0.0404   0.0126   0.0565   0.1114   0.2229   0.2757
     0.3544   0.4143   0.5453   0.5676   0.6804   0.7846   0.8545   0.9344
     0.9902   1.0227   1.0678   1.1749   1.2001   1.3215   1.9552   2.2321
     2.7625   3.1005   3.8786   4.5944   5.1721

          k =-0.0887 0.1195 0.0000 ( 17183 PWs)   bands (ev):

   -49.3122 -49.2114 -48.9997 -48.9386 -48.8273 -48.8003 -48.5004 -48.4832
   -48.4619 -48.4455 -48.4324 -48.4096 -48.3996 -48.3873 -48.3744 -48.3636
   -48.3585 -48.3470 -48.3278 -48.3043 -48.2609 -48.2351 -48.2275 -48.2155
   -48.1986 -48.1942 -48.1795 -48.1564 -48.1324 -48.1196 -48.0888 -48.0691
   -47.9928 -47.9843 -47.9371 -47.9285 -10.9448  -5.1042  -4.8683  -4.1670
    -3.1213  -2.7932  -2.6838  -2.4990  -2.4388  -2.3738  -2.3357  -2.2668
    -2.2215  -2.1998  -2.1367  -2.0413  -1.9249  -1.8822  -1.8238  -1.7673
    -1.7459  -1.6164  -1.5335  -1.4708  -1.4456  -1.3181  -1.2761  -1.2304
    -1.1220  -1.0607  -1.0098  -0.9517  -0.8917  -0.8399  -0.7946  -0.7269
    -0.6758  -0.6154  -0.5896  -0.4938  -0.4687  -0.3598  -0.3047  -0.2686
    -0.1756  -0.1176  -0.0406   0.0059   0.0287   0.0747   0.2464   0.3176
     0.3521   0.4817   0.5146   0.5698   0.6814   0.7664   0.8713   0.9723
     1.0109   1.0662   1.1098   1.1472   1.2445   1.5230   1.6140   2.2647
     2.5384   3.1031   3.7726   4.3375   5.1066

          k =-0.0887-0.0512 0.0000 ( 17240 PWs)   bands (ev):

   -49.3198 -49.2053 -49.0028 -48.9326 -48.8267 -48.7963 -48.5054 -48.4847
   -48.4681 -48.4340 -48.4249 -48.4113 -48.3958 -48.3864 -48.3854 -48.3752
   -48.3619 -48.3523 -48.3214 -48.3005 -48.2648 -48.2360 -48.2265 -48.2043
   -48.1981 -48.1912 -48.1731 -48.1616 -48.1481 -48.1158 -48.0836 -48.0691
   -47.9933 -47.9836 -47.9379 -47.9279 -10.9466  -5.1068  -4.9075  -4.2109
    -3.0502  -2.9386  -2.6551  -2.5268  -2.5034  -2.3510  -2.3108  -2.2502
    -2.2468  -2.1897  -2.0530  -2.0278  -1.9027  -1.8519  -1.8277  -1.7689
    -1.6880  -1.5092  -1.5001  -1.4619  -1.3827  -1.3686  -1.2567  -1.1358
    -1.1142  -1.1027  -0.9886  -0.9181  -0.8721  -0.7176  -0.6682  -0.6467
    -0.5776  -0.5632  -0.5352  -0.4961  -0.4879  -0.4124  -0.4047  -0.3422
    -0.1843  -0.0969  -0.0961  -0.0792   0.0225   0.0379   0.0949   0.2124
     0.2458   0.3298   0.4486   0.4954   0.5039   0.6644   0.6913   0.8519
     1.0319   1.0535   1.1912   1.2857   1.2967   1.3753   2.1170   2.3022
     2.7826   3.5655   3.8194   4.1564   5.0941

     the Fermi energy is     1.3328 ev

!    total energy              =   -2412.59637541 Ry
     Harris-Foulkes estimate   =   -2412.59637564 Ry
     estimated scf accuracy    <       0.00000003 Ry

     The total energy is the sum of the following terms:

     one-electron contribution =  -20574.39139354 Ry
     hartree contribution      =   10340.43729047 Ry
     xc contribution           =    -396.10924548 Ry
     ewald contribution        =    8217.57031638 Ry
     electric field correction =       0.00010617 Ry
     smearing contrib. (-TS)   =      -0.10344940 Ry

     convergence has been achieved in  10 iterations
 
 BEEF-vdW xc energy contributions
           1 :   -344.681891505668     
           2 :    314.825060546386     
           3 :   -263.943386750923     
           4 :    205.738279561311     
           5 :   -153.421733956798     
           6 :    115.412822997840     
           7 :   -93.5331435502687     
           8 :    84.0032323522815     
           9 :   -80.3994367220811     
          10 :    76.9886324993734     
          11 :   -70.9311903719905     
          12 :    62.5933696618800     
          13 :   -54.2511710111243     
          14 :    48.1901578106882     
          15 :   -45.3042814976079     
          16 :    44.8033713826067     
          17 :   -44.9403786968885     
          18 :    44.1425924633602     
          19 :   -41.8353073055637     
          20 :    38.5457355085114     
          21 :   -35.3608420923102     
          22 :    33.1644644069419     
          23 :   -32.1352030362457     
          24 :    31.7535530643099     
          25 :   -31.2321759121696     
          26 :    30.0434409609570     
          27 :   -28.2099441188183     
          28 :    26.2101062560758     
          29 :   -24.6077736817688     
          30 :    23.6705609434845     
          31 :   -33.7779850180434     
          32 :   -24.9428386686926     

     Forces acting on atoms (Ry/au):


     negative rho (up, down):  9.441E-01 0.000E+00
     atom    1 type  1   force =     0.00034668    0.00020041   -0.00033872
     atom    2 type  1   force =    -0.00083388    0.00149186   -0.00402161
     atom    3 type  1   force =     0.00087052   -0.00146742   -0.00404551
     atom    4 type  1   force =     0.00048480    0.00029601    0.00041470
     atom    5 type  1   force =    -0.00566235   -0.00310231    0.00193552
     atom    6 type  1   force =     0.00511249    0.00387549   -0.00077535
     atom    7 type  1   force =     0.00597916    0.00225989   -0.00064509
     atom    8 type  1   force =    -0.00564061   -0.00342559    0.00932502
     atom    9 type  1   force =    -0.00133169   -0.00010759   -0.00047934
     atom   10 type  1   force =     0.00079221    0.00163686   -0.00064968
     atom   11 type  1   force =     0.00023179    0.00029034   -0.00008899
     atom   12 type  1   force =     0.00039122    0.00014259    0.00001832
     atom   13 type  2   force =     0.00013179   -0.00114744   -0.00045331
     atom   14 type  3   force =     0.00053848    0.00049024   -0.00100195
     atom   15 type  3   force =    -0.00098795   -0.00020171    0.00087906
     atom   16 type  3   force =    -0.00042266   -0.00123164   -0.00007309

     Total force =     0.003554     Total SCF correction =     0.000472
     SCF correction compared to forces is large: reduce conv_thr to get better values


     entering subroutine stress ...


     negative rho (up, down):  9.441E-01 0.000E+00
          total   stress  (Ry/bohr**3)                   (kbar)     P=   -7.81
  -0.00007067   0.00000483  -0.00000188        -10.40      0.71     -0.28
   0.00000483  -0.00007754  -0.00000148          0.71    -11.41     -0.22
  -0.00000188  -0.00000148  -0.00001099         -0.28     -0.22     -1.62


     bfgs converged in  25 scf cycles and  24 bfgs steps
     (criteria: energy <  1.0E+00, force <  1.9E-03)

     End of BFGS Geometry Optimization

     Final energy   =   -2412.5963754069 Ry
Begin final coordinates

ATOMIC_POSITIONS (crystal)
Pd1      0.000000000   0.000000000   0.406452311    0   0   0
Pd1     -0.000000000   0.500000000   0.406452311    0   0   0
Pd1      0.500000000   0.000000000   0.406452311    0   0   0
Pd1      0.500000000   0.500000000   0.406452311    0   0   0
Pd1      0.666666667   0.666666667   0.500000000    0   0   0
Pd1      0.666666667   0.166666667   0.500000000    0   0   0
Pd1      0.166666667   0.666666667   0.500000000    0   0   0
Pd1      0.166666667   0.166666667   0.500000000    0   0   0
Pd1      0.331962089   0.330325558   0.593091476
Pd1      0.338780854   0.825764017   0.599530268
Pd1      0.826687315   0.338926772   0.599361787
Pd1      0.835986492   0.835467003   0.591694128
C1       0.582581768   0.582457122   0.660303629
H1       0.673853025   0.674026598   0.685983042
H1       0.490728159   0.487460440   0.684877580
H1       0.168784092   0.172643004   0.631005349
End final coordinates



     Writing output data file calc.save
 
     init_run     :     12.22s CPU     13.05s WALL (       1 calls)
     electrons    :   8770.29s CPU   9301.80s WALL (      25 calls)
     update_pot   :     63.98s CPU     67.44s WALL (      24 calls)
     forces       :    303.04s CPU    321.04s WALL (      25 calls)
     stress       :    959.52s CPU    991.13s WALL (      25 calls)

     Called by init_run:
     wfcinit      :      7.11s CPU      7.33s WALL (       1 calls)
     potinit      :      1.57s CPU      1.82s WALL (       1 calls)

     Called by electrons:
     c_bands      :   5226.66s CPU   5480.27s WALL (     346 calls)
     sum_band     :   1527.22s CPU   1602.78s WALL (     346 calls)
     v_of_rho     :    400.70s CPU    455.57s WALL (     370 calls)
     newd         :    797.98s CPU    815.09s WALL (     370 calls)
     mix_rho      :     16.09s CPU     16.79s WALL (     346 calls)
     vdW_energy   :    205.22s CPU    232.94s WALL (    1270 calls)
     vdW_ffts     :    498.70s CPU    557.67s WALL (    2590 calls)
     vdW_v        :    192.12s CPU    206.47s WALL (    1270 calls)

     Called by c_bands:
     init_us_2    :     34.81s CPU     35.06s WALL (    7430 calls)
     cegterg      :   4995.34s CPU   5177.33s WALL (    3460 calls)

     Called by *egterg:
     h_psi        :   3215.22s CPU   3352.66s WALL (   11311 calls)
     s_psi        :    266.18s CPU    266.69s WALL (   11311 calls)
     g_psi        :     16.25s CPU     16.29s WALL (    7841 calls)
     cdiaghg      :    522.42s CPU    527.66s WALL (   11051 calls)

     Called by h_psi:
     add_vuspsi   :    279.71s CPU    280.33s WALL (   11311 calls)

     General routines
     calbec       :    457.48s CPU    474.73s WALL (   15271 calls)
     fft          :    753.76s CPU    873.81s WALL (   77023 calls)
     ffts         :      1.04s CPU      1.19s WALL (     716 calls)
     fftw         :   1851.65s CPU   2030.12s WALL ( 2118946 calls)
     interpolate  :      9.57s CPU     10.17s WALL (     716 calls)
     davcio       :      0.00s CPU      0.14s WALL (      10 calls)
 
     Parallel routines
     fft_scatter  :   1366.55s CPU   1646.19s WALL ( 2196685 calls)
 
     PWSCF        :     2h49m CPU        2h59m WALL

 
   This run was terminated on:   9:52: 6   9May2018            

=------------------------------------------------------------------------------=
   JOB DONE.
=------------------------------------------------------------------------------=
Job  /afs/slac/g/suncat/bin/suncat-tsmpirun -x LD_LIBRARY_PATH -wdir /scratch/qe877436_66Ufn pw.x -npool 2 -in pw.inp

TID   HOST_NAME   COMMAND_LINE            STATUS            TERMINATION_TIME
===== ========== ================  =======================  ===================
00000 suncat1062 pw.x -npool 2 -i  Done                     05/09/2018 09:52:06
00001 suncat1062 pw.x -npool 2 -i  Done                     05/09/2018 09:52:06
00002 suncat1062 pw.x -npool 2 -i  Done                     05/09/2018 09:52:06
00003 suncat1062 pw.x -npool 2 -i  Done                     05/09/2018 09:52:06
00004 suncat1062 pw.x -npool 2 -i  Done                     05/09/2018 09:52:06
00005 suncat1062 pw.x -npool 2 -i  Done                     05/09/2018 09:52:06
00006 suncat1062 pw.x -npool 2 -i  Done                     05/09/2018 09:52:06
00007 suncat1062 pw.x -npool 2 -i  Done                     05/09/2018 09:52:06
00008 suncat1062 pw.x -npool 2 -i  Done                     05/09/2018 09:52:06
00009 suncat1062 pw.x -npool 2 -i  Done                     05/09/2018 09:52:06
00010 suncat1062 pw.x -npool 2 -i  Done                     05/09/2018 09:52:06
00011 suncat1062 pw.x -npool 2 -i  Done                     05/09/2018 09:52:06
00012 suncat1058 pw.x -npool 2 -i  Done                     05/09/2018 09:52:06
00013 suncat1058 pw.x -npool 2 -i  Done                     05/09/2018 09:52:06
00014 suncat1058 pw.x -npool 2 -i  Done                     05/09/2018 09:52:06
00015 suncat1058 pw.x -npool 2 -i  Done                     05/09/2018 09:52:06
00016 suncat1058 pw.x -npool 2 -i  Done                     05/09/2018 09:52:06
00017 suncat1058 pw.x -npool 2 -i  Done                     05/09/2018 09:52:06
00018 suncat1058 pw.x -npool 2 -i  Done                     05/09/2018 09:52:06
00019 suncat1058 pw.x -npool 2 -i  Done                     05/09/2018 09:52:06
00020 suncat1058 pw.x -npool 2 -i  Done                     05/09/2018 09:52:06
00021 suncat1058 pw.x -npool 2 -i  Done                     05/09/2018 09:52:06
00022 suncat1058 pw.x -npool 2 -i  Done                     05/09/2018 09:52:06
00023 suncat1058 pw.x -npool 2 -i  Done                     05/09/2018 09:52:06
