  python dir          : /home/mamunm/src/espresso
  espresso dir        : /home/vossj/suncat/esdld/espresso-dynpy-beef/bin
  pseudo dir          : /home/mamunm/src/pseudo/gbrv1.5pbe
  ase-espresso py git : GITVERSION



     Program PWSCF v.5.1rc2 (svn rev. ) starts on 18Apr2018 at  2:16: 2 

     This program is part of the open-source Quantum ESPRESSO suite
     for quantum simulation of materials; please cite
         "P. Giannozzi et al., J. Phys.:Condens. Matter 21 395502 (2009);
          URL http://www.quantum-espresso.org", 
     in publications or presentations arising from this work. More details at
     http://www.quantum-espresso.org/quote

     Parallel version (MPI), running on    16 processors
     R & G space division:  proc/nbgrp/npool/nimage =      16
     Reading input from pw.inp
     Message from routine read_cards :
     DEPRECATED: no units specified in CELL_PARAMETERS card

     Current dimensions of program PWSCF are:
     Max number of different atomic species (ntypx) = 10
     Max number of k-points (npk) =  40000
     Max angular momentum in pseudopotentials (lmaxx) =  3
     Presently stress not available with electric field


     **************************************************************************
     Initializing libbeef V0.1.1 with the BEEF-vdW functional.
     Citation: Wellendorff et al., PRB 85, 235149 (2012).
     **************************************************************************


     IMPORTANT: XC functional enforced from input :
     Exchange-correlation      = BEEF-VDW ( 1  4 27 13 2)
     Any further DFT definition will be discarded
     Please, verify this is what you really want


     Subspace diagonalization in iterative solution of the eigenvalue problem:
     a serial algorithm will be used

 
     Parallelization info
     --------------------
     sticks:   dense  smooth     PW     G-vecs:    dense   smooth      PW
     Min         229      92     27                44757    11310    1747
     Max         230      93     28                44782    11361    1763
     Sum        3679    1483    433               716469   181389   28035
 


     bravais-lattice index     =            0
     lattice parameter (alat)  =       1.8897  a.u.
     unit-cell volume          =    6024.3322 (a.u.)^3
     number of atoms/cell      =           14
     number of atomic types    =            3
     number of electrons       =       150.00
     number of Kohn-Sham states=           85
     kinetic-energy cutoff     =      36.7493  Ry
     charge density cutoff     =     367.4932  Ry
     convergence threshold     =      1.0E-05
     mixing beta               =       0.3000
     number of iterations used =           10  plain     mixing
     Exchange-correlation      = BEEF-VDW ( 1  4 27 13 2)
     nstep                     =           50


     celldm(1)=   1.889726  celldm(2)=   0.000000  celldm(3)=   0.000000
     celldm(4)=   0.000000  celldm(5)=   0.000000  celldm(6)=   0.000000

     crystal axes: (cart. coord. in units of alat)
               a(1) = (   6.393197   0.000000   0.000000 )  
               a(2) = (   3.196599   5.536671   0.000000 )  
               a(3) = (   0.000000   0.000000  25.220024 )  

     reciprocal axes: (cart. coord. in units 2 pi/alat)
               b(1) = (  0.156416 -0.090307  0.000000 )  
               b(2) = (  0.000000  0.180614  0.000000 )  
               b(3) = (  0.000000  0.000000  0.039651 )  


     PseudoPot. # 1 for Hf read from file:
     /home/mamunm/src/pseudo/gbrv1.5pbe/Hf.UPF
     MD5 check sum: 8ee9378dfe14276e333edf04c5e4aa26
     Pseudo is Ultrasoft + core correction, Zval = 12.0
     Generated by new atomic code, or converted to UPF format
     Using radial grid of  921 points,  8 beta functions with: 
                l(1) =   0
                l(2) =   0
                l(3) =   0
                l(4) =   1
                l(5) =   1
                l(6) =   2
                l(7) =   2
                l(8) =   3
     Q(r) pseudized with  6 coefficients,  rinner =    1.200   1.200   1.200
                                                       1.200   1.200   1.200
                                                       1.200

     PseudoPot. # 2 for N  read from file:
     /home/mamunm/src/pseudo/gbrv1.5pbe/N.UPF
     MD5 check sum: 95339753478d7afb44899504a8723017
     Pseudo is Ultrasoft + core correction, Zval =  5.0
     Generated by new atomic code, or converted to UPF format
     Using radial grid of  729 points,  4 beta functions with: 
                l(1) =   0
                l(2) =   0
                l(3) =   1
                l(4) =   1
     Q(r) pseudized with  8 coefficients,  rinner =    0.900   0.900   0.900


     PseudoPot. # 3 for H  read from file:
     /home/mamunm/src/pseudo/gbrv1.5pbe/H.UPF
     MD5 check sum: 761ae9a214b05c3daf00ab9f6b793d6f
     Pseudo is Ultrasoft, Zval =  1.0
     Generated by new atomic code, or converted to UPF format
     Using radial grid of  615 points,  2 beta functions with: 
                l(1) =   0
                l(2) =   0
     Q(r) pseudized with  8 coefficients,  rinner =    0.700

     vdW kernel table read from file vdW_kernel_table
     MD5 check sum: 095c7af220d748ca6e76c0b4c6cfb241

     atomic species   valence    mass     pseudopotential
        Hf1           12.00   178.49000     Hf( 1.00)
        N1             5.00    14.00700     N ( 1.00)
        H1             1.00     1.00800     H ( 1.00)

     No symmetry found



   Cartesian axes

     site n.     atom                  positions (alat units)
         1           Hf1 tau(   1) = (   1.5982993   0.9227785  10.0000000  )
         2           Hf1 tau(   2) = (   4.7948978   0.9227785  10.0000000  )
         3           Hf1 tau(   3) = (   3.1965986   3.6911141  10.0000000  )
         4           Hf1 tau(   4) = (   6.3931971   3.6911141  10.0000000  )
         5           Hf1 tau(   5) = (   6.3931971   1.8455570  12.6100118  )
         6           Hf1 tau(   6) = (   3.1965986   1.8455570  12.6100118  )
         7           Hf1 tau(   7) = (   7.9914964   4.6138926  12.6100118  )
         8           Hf1 tau(   8) = (   4.7948978   4.6138926  12.6100118  )
         9           Hf1 tau(   9) = (   0.0000000   0.0000000  15.2200236  )
        10           Hf1 tau(  10) = (   3.1965986   0.0000000  15.2200236  )
        11           Hf1 tau(  11) = (   1.5982993   2.7683356  15.2200236  )
        12           Hf1 tau(  12) = (   4.7948978   2.7683356  15.2200236  )
        13           N1  tau(  13) = (   1.5982993   0.9227785  16.8190236  )
        14           H1  tau(  14) = (   1.5982993   0.9227785  17.8690236  )

     number of k points=    20  Fermi-Dirac smearing, width (Ry)=  0.0110
                       cart. coord. in units 2pi/alat
        k(    1) = (   0.0000000   0.0000000   0.0000000), wk =   0.0555556
        k(    2) = (   0.0000000   0.0301023   0.0000000), wk =   0.1111111
        k(    3) = (   0.0000000   0.0602046   0.0000000), wk =   0.1111111
        k(    4) = (   0.0000000  -0.0903070   0.0000000), wk =   0.0555556
        k(    5) = (   0.0260694  -0.0150512   0.0000000), wk =   0.1111111
        k(    6) = (   0.0260694   0.0150512   0.0000000), wk =   0.1111111
        k(    7) = (   0.0260694   0.0451535   0.0000000), wk =   0.1111111
        k(    8) = (   0.0260694  -0.1053581   0.0000000), wk =   0.1111111
        k(    9) = (   0.0260694  -0.0752558   0.0000000), wk =   0.1111111
        k(   10) = (   0.0260694  -0.0451535   0.0000000), wk =   0.1111111
        k(   11) = (   0.0521388  -0.0301023   0.0000000), wk =   0.1111111
        k(   12) = (   0.0521388   0.0000000   0.0000000), wk =   0.1111111
        k(   13) = (   0.0521388   0.0301023   0.0000000), wk =   0.1111111
        k(   14) = (   0.0521388  -0.1204093   0.0000000), wk =   0.1111111
        k(   15) = (   0.0521388  -0.0903070   0.0000000), wk =   0.1111111
        k(   16) = (   0.0521388  -0.0602046   0.0000000), wk =   0.1111111
        k(   17) = (  -0.0782081   0.0451535   0.0000000), wk =   0.0555556
        k(   18) = (  -0.0782081   0.0752558   0.0000000), wk =   0.1111111
        k(   19) = (  -0.0782081   0.1053581   0.0000000), wk =   0.1111111
        k(   20) = (  -0.0782081  -0.0451535   0.0000000), wk =   0.0555556

     Dense  grid:   716469 G-vectors     FFT dimensions: (  75,  75, 300)

     Smooth grid:   181389 G-vectors     FFT dimensions: (  48,  48, 192)

     Largest allocated arrays     est. size (Mb)     dimensions
        Kohn-Sham Wavefunctions         1.89 Mb     (    1455,   85)
        NL pseudopotentials             7.15 Mb     (    1455,  322)
        Each V/rho on FFT grid          1.63 Mb     (  106875)
        Each G-vector array             0.34 Mb     (   44782)
        G-vector shells                 0.13 Mb     (   17151)
     Largest temporary arrays     est. size (Mb)     dimensions
        Auxiliary wavefunctions         7.55 Mb     (    1455,  340)
        Each subspace H/S matrix        1.76 Mb     (     340,  340)
        Each <psi_i|beta_j> matrix      0.42 Mb     (     322,   85)
        Arrays for rho mixing          16.31 Mb     (  106875,   10)

     Check: negative/imaginary core charge=   -0.000003    0.000000

     Initial potential from superposition of free atoms
     Check: negative starting charge=   -1.301362

     starting charge  125.99996, renormalised to  150.00000

     negative rho (up, down):  1.549E+00 0.000E+00


     ************************************************************************
     *
     * You are using vdW-DF for exchange-correlation in this calculation.
     * Please cite the following three references that made this development
     * possible:
     *
     *   M. Dion, H. Rydberg, E. Schroder, D. C. Langreth, and
     *   B. I. Lundqvist, Phys. Rev. Lett. 92, 246401 (2004).
     *
     *   T. Thonhauser, V. R. Cooper, S. Li, A. Puzder, P. Hyldgaard, and
     *   D. C. Langreth, Phys. Rev. B 76, 125112 (2007).
     *
     *   G. Roman-Perez and J. M. Soler, Phys. Rev. Lett. 103, 096102 (2009).
     *
     *
     * If you are using vdW-DF2, please also cite:
     *
     *   K. Lee, E. D. Murray, L. Kong, B. I. Lundqvist, and
     *   D. C. Langreth, Phys. Rev. B 82, 081101(R) (2010).
     *
     *
     * If you are calculating the stress with vdW-DF, please also cite:
     *
     *   R. Sabatini, E. Kucukbenli, B. Kolb, T. Thonhauser, and
     *   S. de Gironcoli, J. Phys.: Condens. Matter 24, 424209 (2012).
     *
     ************************************************************************

     Carrying out vdW-DF run using the following parameters:

     Nqs =      20    Nr_points =    1024   r_max =   100.000
     q_mesh =
               0.00001000     0.04494208     0.09755937     0.15916263
               0.23128650     0.31572767     0.41458969     0.53033537
               0.66584808     0.82450364     1.01025438     1.22772762
               1.48234092     1.78043706     2.12944203     2.53805004
               3.01644009     3.57652955     4.23227104     5.00000000

     Gradients computed in reciprocal space

     ************************************************************************


 
     Adding external electric field

     Computed dipole along edir(3) : 
        Dipole               -9.4679 Ry au,        -24.0651 Debye
        Dipole field         -0.0197 Ry au
 
        Potential amp.        1.8354 Ry
        Total length         46.4675 bohr
 
     Starting wfc are  161 randomized atomic wfcs

     total cpu time spent up to now is       12.7 secs

     Self-consistent Calculation

     iteration #  1     ecut=    36.75 Ry     beta=0.30
     Davidson diagonalization with overlap
     ethr =  1.00E-02,  avg # of iterations =  9.7

     negative rho (up, down):  1.436E+00 0.000E+00
 
     Adding external electric field

     Computed dipole along edir(3) : 
        Dipole              154.5424 Ry au,        392.8075 Debye
        Dipole field          0.3224 Ry au
 
        Potential amp.      -29.9590 Ry
        Total length         46.4675 bohr
 

     total cpu time spent up to now is       46.9 secs

     total energy              =   -1287.60297956 Ry
     Harris-Foulkes estimate   =   -1939.22464182 Ry
     estimated scf accuracy    <    1398.07449036 Ry

     iteration #  2     ecut=    36.75 Ry     beta=0.30
     Davidson diagonalization with overlap
     c_bands:  5 eigenvalues not converged
     ethr =  1.00E-02,  avg # of iterations = 21.9

     negative rho (up, down):  1.380E+00 0.000E+00
 
     Adding external electric field

     Computed dipole along edir(3) : 
        Dipole               45.6451 Ry au,        116.0182 Debye
        Dipole field          0.0952 Ry au
 
        Potential amp.       -8.8486 Ry
        Total length         46.4675 bohr
 

     total cpu time spent up to now is      145.9 secs

     total energy              =   -1438.06022513 Ry
     Harris-Foulkes estimate   =   -3068.80515810 Ry
     estimated scf accuracy    <   14959.69899294 Ry

     iteration #  3     ecut=    36.75 Ry     beta=0.30
     Davidson diagonalization with overlap
     ethr =  1.00E-02,  avg # of iterations = 16.1

     negative rho (up, down):  1.331E+00 0.000E+00
 
     Adding external electric field

     Computed dipole along edir(3) : 
        Dipole               38.8975 Ry au,         98.8677 Debye
        Dipole field          0.0811 Ry au
 
        Potential amp.       -7.5405 Ry
        Total length         46.4675 bohr
 

     total cpu time spent up to now is      212.4 secs

     total energy              =   -1892.55633736 Ry
     Harris-Foulkes estimate   =   -2254.07292409 Ry
     estimated scf accuracy    <    2227.77724448 Ry

     iteration #  4     ecut=    36.75 Ry     beta=0.30
     Davidson diagonalization with overlap
     ethr =  1.00E-02,  avg # of iterations = 12.2

     negative rho (up, down):  1.326E+00 0.000E+00
 
     Adding external electric field

     Computed dipole along edir(3) : 
        Dipole               31.2240 Ry au,         79.3636 Debye
        Dipole field          0.0651 Ry au
 
        Potential amp.       -6.0530 Ry
        Total length         46.4675 bohr
 

     total cpu time spent up to now is      260.9 secs

     total energy              =   -1971.91752693 Ry
     Harris-Foulkes estimate   =   -2019.13786407 Ry
     estimated scf accuracy    <     201.85748924 Ry

     iteration #  5     ecut=    36.75 Ry     beta=0.30
     Davidson diagonalization with overlap
     ethr =  1.00E-02,  avg # of iterations =  9.2

     negative rho (up, down):  1.350E+00 0.000E+00
 
     Adding external electric field

     Computed dipole along edir(3) : 
        Dipole               27.5401 Ry au,         70.0000 Debye
        Dipole field          0.0574 Ry au
 
        Potential amp.       -5.3388 Ry
        Total length         46.4675 bohr
 

     total cpu time spent up to now is      293.8 secs

     total energy              =   -1958.00176429 Ry
     Harris-Foulkes estimate   =   -1996.40010572 Ry
     estimated scf accuracy    <     428.08274494 Ry

     iteration #  6     ecut=    36.75 Ry     beta=0.30
     Davidson diagonalization with overlap
     ethr =  1.00E-02,  avg # of iterations =  6.5

     negative rho (up, down):  1.363E+00 0.000E+00
 
     Adding external electric field

     Computed dipole along edir(3) : 
        Dipole               22.9355 Ry au,         58.2963 Debye
        Dipole field          0.0478 Ry au
 
        Potential amp.       -4.4462 Ry
        Total length         46.4675 bohr
 

     total cpu time spent up to now is      319.5 secs

     total energy              =   -1961.17507511 Ry
     Harris-Foulkes estimate   =   -1971.43663312 Ry
     estimated scf accuracy    <      60.47077447 Ry

     iteration #  7     ecut=    36.75 Ry     beta=0.30
     Davidson diagonalization with overlap
     ethr =  1.00E-02,  avg # of iterations =  2.9

     negative rho (up, down):  1.376E+00 0.000E+00
 
     Adding external electric field

     Computed dipole along edir(3) : 
        Dipole               15.3364 Ry au,         38.9811 Debye
        Dipole field          0.0320 Ry au
 
        Potential amp.       -2.9730 Ry
        Total length         46.4675 bohr
 

     total cpu time spent up to now is      337.5 secs

     total energy              =   -1953.03768666 Ry
     Harris-Foulkes estimate   =   -1962.55822236 Ry
     estimated scf accuracy    <      33.93013197 Ry

     iteration #  8     ecut=    36.75 Ry     beta=0.30
     Davidson diagonalization with overlap
     ethr =  1.00E-02,  avg # of iterations =  3.0

     negative rho (up, down):  1.423E+00 0.000E+00
 
     Adding external electric field

     Computed dipole along edir(3) : 
        Dipole                6.1141 Ry au,         15.5406 Debye
        Dipole field          0.0128 Ry au
 
        Potential amp.       -1.1853 Ry
        Total length         46.4675 bohr
 

     total cpu time spent up to now is      355.8 secs

     total energy              =   -1943.32402221 Ry
     Harris-Foulkes estimate   =   -1954.54819576 Ry
     estimated scf accuracy    <      42.26566031 Ry

     iteration #  9     ecut=    36.75 Ry     beta=0.30
     Davidson diagonalization with overlap
     ethr =  1.00E-02,  avg # of iterations =  5.0

     negative rho (up, down):  1.402E+00 0.000E+00
 
     Adding external electric field

     Computed dipole along edir(3) : 
        Dipole                7.0259 Ry au,         17.8580 Debye
        Dipole field          0.0147 Ry au
 
        Potential amp.       -1.3620 Ry
        Total length         46.4675 bohr
 

     total cpu time spent up to now is      380.6 secs

     total energy              =   -1954.48135442 Ry
     Harris-Foulkes estimate   =   -1958.03316172 Ry
     estimated scf accuracy    <     344.15834908 Ry

     iteration # 10     ecut=    36.75 Ry     beta=0.30
     Davidson diagonalization with overlap
     ethr =  1.00E-02,  avg # of iterations =  1.1

     negative rho (up, down):  1.399E+00 0.000E+00
 
     Adding external electric field

     Computed dipole along edir(3) : 
        Dipole                6.0233 Ry au,         15.3096 Debye
        Dipole field          0.0126 Ry au
 
        Potential amp.       -1.1676 Ry
        Total length         46.4675 bohr
 

     total cpu time spent up to now is      397.4 secs

     total energy              =   -1950.46707946 Ry
     Harris-Foulkes estimate   =   -1954.83353874 Ry
     estimated scf accuracy    <     249.20771448 Ry

     iteration # 11     ecut=    36.75 Ry     beta=0.30
     Davidson diagonalization with overlap
     ethr =  1.00E-02,  avg # of iterations =  1.4

     negative rho (up, down):  1.501E+00 0.000E+00
 
     Adding external electric field

     Computed dipole along edir(3) : 
        Dipole                3.6436 Ry au,          9.2611 Debye
        Dipole field          0.0076 Ry au
 
        Potential amp.       -0.7063 Ry
        Total length         46.4675 bohr
 

     total cpu time spent up to now is      414.1 secs

     total energy              =   -1953.05257143 Ry
     Harris-Foulkes estimate   =   -1951.23883524 Ry
     estimated scf accuracy    <     112.33172350 Ry

     iteration # 12     ecut=    36.75 Ry     beta=0.30
     Davidson diagonalization with overlap
     ethr =  1.00E-02,  avg # of iterations =  1.6

     negative rho (up, down):  1.542E+00 0.000E+00
 
     Adding external electric field

     Computed dipole along edir(3) : 
        Dipole                0.8057 Ry au,          2.0478 Debye
        Dipole field          0.0017 Ry au
 
        Potential amp.       -0.1562 Ry
        Total length         46.4675 bohr
 

     total cpu time spent up to now is      431.0 secs

     total energy              =   -1951.14244604 Ry
     Harris-Foulkes estimate   =   -1953.77216619 Ry
     estimated scf accuracy    <     232.11161865 Ry

     iteration # 13     ecut=    36.75 Ry     beta=0.30
     Davidson diagonalization with overlap
     ethr =  1.00E-02,  avg # of iterations =  4.2

     negative rho (up, down):  1.398E+00 0.000E+00
 
     Adding external electric field

     Computed dipole along edir(3) : 
        Dipole                3.3657 Ry au,          8.5548 Debye
        Dipole field          0.0070 Ry au
 
        Potential amp.       -0.6525 Ry
        Total length         46.4675 bohr
 

     total cpu time spent up to now is      450.1 secs

     total energy              =   -1944.57836769 Ry
     Harris-Foulkes estimate   =   -1952.17562704 Ry
     estimated scf accuracy    <     147.67793782 Ry

     iteration # 14     ecut=    36.75 Ry     beta=0.30
     Davidson diagonalization with overlap
     ethr =  1.00E-02,  avg # of iterations =  5.8

     negative rho (up, down):  1.396E+00 0.000E+00
 
     Adding external electric field

     Computed dipole along edir(3) : 
        Dipole                3.0043 Ry au,          7.6362 Debye
        Dipole field          0.0063 Ry au
 
        Potential amp.       -0.5824 Ry
        Total length         46.4675 bohr
 

     total cpu time spent up to now is      472.3 secs

     total energy              =   -1948.43728082 Ry
     Harris-Foulkes estimate   =   -1948.79558010 Ry
     estimated scf accuracy    <       2.93258935 Ry

     iteration # 15     ecut=    36.75 Ry     beta=0.30
     Davidson diagonalization with overlap
     ethr =  1.96E-03,  avg # of iterations =  7.5

     negative rho (up, down):  1.394E+00 0.000E+00
 
     Adding external electric field

     Computed dipole along edir(3) : 
        Dipole                2.6121 Ry au,          6.6393 Debye
        Dipole field          0.0054 Ry au
 
        Potential amp.       -0.5064 Ry
        Total length         46.4675 bohr
 

     total cpu time spent up to now is      495.6 secs

     total energy              =   -1948.56222907 Ry
     Harris-Foulkes estimate   =   -1948.93700325 Ry
     estimated scf accuracy    <      27.30872328 Ry

     iteration # 16     ecut=    36.75 Ry     beta=0.30
     Davidson diagonalization with overlap
     ethr =  1.96E-03,  avg # of iterations =  1.2

     negative rho (up, down):  1.392E+00 0.000E+00
 
     Adding external electric field

     Computed dipole along edir(3) : 
        Dipole                2.2081 Ry au,          5.6125 Debye
        Dipole field          0.0046 Ry au
 
        Potential amp.       -0.4281 Ry
        Total length         46.4675 bohr
 

     total cpu time spent up to now is      512.3 secs

     total energy              =   -1948.48877114 Ry
     Harris-Foulkes estimate   =   -1948.69138238 Ry
     estimated scf accuracy    <      11.25462947 Ry

     iteration # 17     ecut=    36.75 Ry     beta=0.30
     Davidson diagonalization with overlap
     ethr =  1.96E-03,  avg # of iterations =  1.0

     negative rho (up, down):  1.387E+00 0.000E+00
 
     Adding external electric field

     Computed dipole along edir(3) : 
        Dipole                1.4223 Ry au,          3.6151 Debye
        Dipole field          0.0030 Ry au
 
        Potential amp.       -0.2757 Ry
        Total length         46.4675 bohr
 

     total cpu time spent up to now is      528.8 secs

     total energy              =   -1948.36954427 Ry
     Harris-Foulkes estimate   =   -1948.52465258 Ry
     estimated scf accuracy    <       7.21860793 Ry

     iteration # 18     ecut=    36.75 Ry     beta=0.30
     Davidson diagonalization with overlap
     ethr =  1.96E-03,  avg # of iterations =  1.0

     negative rho (up, down):  1.383E+00 0.000E+00
 
     Adding external electric field

     Computed dipole along edir(3) : 
        Dipole                0.9700 Ry au,          2.4656 Debye
        Dipole field          0.0020 Ry au
 
        Potential amp.       -0.1880 Ry
        Total length         46.4675 bohr
 

     total cpu time spent up to now is      545.5 secs

     total energy              =   -1948.26140639 Ry
     Harris-Foulkes estimate   =   -1948.39004379 Ry
     estimated scf accuracy    <       4.26557025 Ry

     iteration # 19     ecut=    36.75 Ry     beta=0.30
     Davidson diagonalization with overlap
     ethr =  1.96E-03,  avg # of iterations =  1.6

     negative rho (up, down):  1.380E+00 0.000E+00
 
     Adding external electric field

     Computed dipole along edir(3) : 
        Dipole                1.2812 Ry au,          3.2565 Debye
        Dipole field          0.0027 Ry au
 
        Potential amp.       -0.2484 Ry
        Total length         46.4675 bohr
 

     total cpu time spent up to now is      562.3 secs

     total energy              =   -1948.28354547 Ry
     Harris-Foulkes estimate   =   -1948.30287362 Ry
     estimated scf accuracy    <       0.68375976 Ry

     iteration # 20     ecut=    36.75 Ry     beta=0.30
     Davidson diagonalization with overlap
     ethr =  4.56E-04,  avg # of iterations =  4.5

     negative rho (up, down):  1.378E+00 0.000E+00
 
     Adding external electric field

     Computed dipole along edir(3) : 
        Dipole                0.7799 Ry au,          1.9823 Debye
        Dipole field          0.0016 Ry au
 
        Potential amp.       -0.1512 Ry
        Total length         46.4675 bohr
 

     total cpu time spent up to now is      582.5 secs

     total energy              =   -1948.29133589 Ry
     Harris-Foulkes estimate   =   -1948.34031758 Ry
     estimated scf accuracy    <       0.62950858 Ry

     iteration # 21     ecut=    36.75 Ry     beta=0.30
     Davidson diagonalization with overlap
     ethr =  4.20E-04,  avg # of iterations =  2.2

     negative rho (up, down):  1.379E+00 0.000E+00
 
     Adding external electric field

     Computed dipole along edir(3) : 
        Dipole                0.6519 Ry au,          1.6571 Debye
        Dipole field          0.0014 Ry au
 
        Potential amp.       -0.1264 Ry
        Total length         46.4675 bohr
 

     total cpu time spent up to now is      600.1 secs

     total energy              =   -1948.28806548 Ry
     Harris-Foulkes estimate   =   -1948.31504710 Ry
     estimated scf accuracy    <       0.44779463 Ry

     iteration # 22     ecut=    36.75 Ry     beta=0.30
     Davidson diagonalization with overlap
     ethr =  2.99E-04,  avg # of iterations =  1.0

     negative rho (up, down):  1.386E+00 0.000E+00
 
     Adding external electric field

     Computed dipole along edir(3) : 
        Dipole                0.4143 Ry au,          1.0531 Debye
        Dipole field          0.0009 Ry au
 
        Potential amp.       -0.0803 Ry
        Total length         46.4675 bohr
 

     total cpu time spent up to now is      616.5 secs

     total energy              =   -1948.29674103 Ry
     Harris-Foulkes estimate   =   -1948.30389711 Ry
     estimated scf accuracy    <       0.25109374 Ry

     iteration # 23     ecut=    36.75 Ry     beta=0.30
     Davidson diagonalization with overlap
     ethr =  1.67E-04,  avg # of iterations =  1.0

     negative rho (up, down):  1.395E+00 0.000E+00
 
     Adding external electric field

     Computed dipole along edir(3) : 
        Dipole                0.0653 Ry au,          0.1661 Debye
        Dipole field          0.0001 Ry au
 
        Potential amp.       -0.0127 Ry
        Total length         46.4675 bohr
 

     total cpu time spent up to now is      633.2 secs

     total energy              =   -1948.27905571 Ry
     Harris-Foulkes estimate   =   -1948.29812118 Ry
     estimated scf accuracy    <       0.23525637 Ry

     iteration # 24     ecut=    36.75 Ry     beta=0.30
     Davidson diagonalization with overlap
     ethr =  1.57E-04,  avg # of iterations =  2.9

     negative rho (up, down):  1.399E+00 0.000E+00
 
     Adding external electric field

     Computed dipole along edir(3) : 
        Dipole               -0.0624 Ry au,         -0.1586 Debye
        Dipole field         -0.0001 Ry au
 
        Potential amp.        0.0121 Ry
        Total length         46.4675 bohr
 

     total cpu time spent up to now is      651.0 secs

     total energy              =   -1948.28291076 Ry
     Harris-Foulkes estimate   =   -1948.28614375 Ry
     estimated scf accuracy    <       0.02530345 Ry

     iteration # 25     ecut=    36.75 Ry     beta=0.30
     Davidson diagonalization with overlap
     ethr =  1.69E-05,  avg # of iterations =  7.8

     negative rho (up, down):  1.389E+00 0.000E+00
 
     Adding external electric field

     Computed dipole along edir(3) : 
        Dipole                0.1264 Ry au,          0.3214 Debye
        Dipole field          0.0003 Ry au
 
        Potential amp.       -0.0245 Ry
        Total length         46.4675 bohr
 

     total cpu time spent up to now is      674.9 secs

     total energy              =   -1948.28393123 Ry
     Harris-Foulkes estimate   =   -1948.28665968 Ry
     estimated scf accuracy    <       0.02521154 Ry

     iteration # 26     ecut=    36.75 Ry     beta=0.30
     Davidson diagonalization with overlap
     ethr =  1.68E-05,  avg # of iterations =  2.1

     negative rho (up, down):  1.385E+00 0.000E+00
 
     Adding external electric field

     Computed dipole along edir(3) : 
        Dipole                0.1378 Ry au,          0.3502 Debye
        Dipole field          0.0003 Ry au
 
        Potential amp.       -0.0267 Ry
        Total length         46.4675 bohr
 

     total cpu time spent up to now is      692.6 secs

     total energy              =   -1948.28537084 Ry
     Harris-Foulkes estimate   =   -1948.28570951 Ry
     estimated scf accuracy    <       0.00891375 Ry

     iteration # 27     ecut=    36.75 Ry     beta=0.30
     Davidson diagonalization with overlap
     ethr =  5.94E-06,  avg # of iterations =  1.9

     negative rho (up, down):  1.383E+00 0.000E+00
 
     Adding external electric field

     Computed dipole along edir(3) : 
        Dipole                0.1514 Ry au,          0.3847 Debye
        Dipole field          0.0003 Ry au
 
        Potential amp.       -0.0293 Ry
        Total length         46.4675 bohr
 

     total cpu time spent up to now is      709.8 secs

     total energy              =   -1948.28549172 Ry
     Harris-Foulkes estimate   =   -1948.28556764 Ry
     estimated scf accuracy    <       0.00093738 Ry

     iteration # 28     ecut=    36.75 Ry     beta=0.30
     Davidson diagonalization with overlap
     ethr =  6.25E-07,  avg # of iterations =  4.0

     negative rho (up, down):  1.382E+00 0.000E+00
 
     Adding external electric field

     Computed dipole along edir(3) : 
        Dipole                0.1606 Ry au,          0.4081 Debye
        Dipole field          0.0003 Ry au
 
        Potential amp.       -0.0311 Ry
        Total length         46.4675 bohr
 

     total cpu time spent up to now is      729.1 secs

     total energy              =   -1948.28554693 Ry
     Harris-Foulkes estimate   =   -1948.28555392 Ry
     estimated scf accuracy    <       0.00035058 Ry

     iteration # 29     ecut=    36.75 Ry     beta=0.30
     Davidson diagonalization with overlap
     ethr =  2.34E-07,  avg # of iterations =  3.0

     negative rho (up, down):  1.381E+00 0.000E+00
 
     Adding external electric field

     Computed dipole along edir(3) : 
        Dipole                0.1733 Ry au,          0.4405 Debye
        Dipole field          0.0004 Ry au
 
        Potential amp.       -0.0336 Ry
        Total length         46.4675 bohr
 

     total cpu time spent up to now is      747.4 secs

     total energy              =   -1948.28556713 Ry
     Harris-Foulkes estimate   =   -1948.28555993 Ry
     estimated scf accuracy    <       0.00005436 Ry

     iteration # 30     ecut=    36.75 Ry     beta=0.30
     Davidson diagonalization with overlap
     ethr =  3.62E-08,  avg # of iterations =  4.3

     negative rho (up, down):  1.381E+00 0.000E+00
 
     Adding external electric field

     Computed dipole along edir(3) : 
        Dipole                0.1750 Ry au,          0.4448 Debye
        Dipole field          0.0004 Ry au
 
        Potential amp.       -0.0339 Ry
        Total length         46.4675 bohr
 

     total cpu time spent up to now is      767.6 secs

     total energy              =   -1948.28557131 Ry
     Harris-Foulkes estimate   =   -1948.28557114 Ry
     estimated scf accuracy    <       0.00002145 Ry

     iteration # 31     ecut=    36.75 Ry     beta=0.30
     Davidson diagonalization with overlap
     ethr =  1.43E-08,  avg # of iterations =  3.4

     negative rho (up, down):  1.380E+00 0.000E+00

     negative rho (up, down):  1.380E+00 0.000E+00

     negative rho (up, down):  1.380E+00 0.000E+00

     negative rho (up, down):  1.380E+00 0.000E+00

     negative rho (up, down):  1.380E+00 0.000E+00

     negative rho (up, down):  1.380E+00 0.000E+00

     negative rho (up, down):  1.380E+00 0.000E+00

     negative rho (up, down):  1.380E+00 0.000E+00

     negative rho (up, down):  1.380E+00 0.000E+00

     negative rho (up, down):  1.380E+00 0.000E+00

     negative rho (up, down):  1.380E+00 0.000E+00

     negative rho (up, down):  1.380E+00 0.000E+00

     negative rho (up, down):  1.380E+00 0.000E+00

     negative rho (up, down):  1.380E+00 0.000E+00

     negative rho (up, down):  1.380E+00 0.000E+00

     negative rho (up, down):  1.380E+00 0.000E+00

     negative rho (up, down):  1.380E+00 0.000E+00

     negative rho (up, down):  1.380E+00 0.000E+00

     negative rho (up, down):  1.380E+00 0.000E+00

     negative rho (up, down):  1.380E+00 0.000E+00

     negative rho (up, down):  1.380E+00 0.000E+00

     negative rho (up, down):  1.380E+00 0.000E+00

     negative rho (up, down):  1.380E+00 0.000E+00

     negative rho (up, down):  1.380E+00 0.000E+00

     negative rho (up, down):  1.380E+00 0.000E+00

     negative rho (up, down):  1.380E+00 0.000E+00

     negative rho (up, down):  1.380E+00 0.000E+00

     negative rho (up, down):  1.380E+00 0.000E+00

     negative rho (up, down):  1.380E+00 0.000E+00

     negative rho (up, down):  1.380E+00 0.000E+00

     negative rho (up, down):  1.380E+00 0.000E+00

     negative rho (up, down):  1.380E+00 0.000E+00

     negative rho (up, down):  1.380E+00 0.000E+00

     negative rho (up, down):  1.380E+00 0.000E+00

     negative rho (up, down):  1.380E+00 0.000E+00
 
     Adding external electric field

     Computed dipole along edir(3) : 
        Dipole                0.1999 Ry au,          0.5081 Debye
        Dipole field          0.0004 Ry au
 
        Potential amp.       -0.0388 Ry
        Total length         46.4675 bohr
 

     total cpu time spent up to now is      807.9 secs

     End of self-consistent calculation

          k = 0.0000 0.0000 0.0000 ( 22729 PWs)   bands (ev):

   -61.1225 -61.0464 -61.0204 -61.0130 -61.0127 -61.0105 -60.9969 -60.9968
   -60.6147 -60.5870 -60.5868 -60.5295 -29.8338 -29.8337 -29.8017 -29.7904
   -29.7903 -29.7760 -29.7569 -29.6832 -29.6201 -29.6199 -29.6129 -29.5670
   -29.5341 -29.5340 -29.4063 -29.4063 -29.3880 -29.3840 -29.3839 -29.3803
   -29.3270 -29.2990 -29.2989 -29.2572 -29.2572 -29.2520 -29.2520 -29.0763
   -29.0675 -29.0674 -28.9976 -28.9762 -28.9646 -28.9645 -28.8419 -28.8418
   -12.9578  -5.1129  -4.4485  -3.2572  -2.1824  -1.6803  -1.6803  -1.3422
    -1.3421  -1.3036  -1.1575  -0.9864  -0.9864  -0.5615  -0.2315  -0.2314
    -0.0285  -0.0285   0.0434   0.7736   0.7736   0.9715   1.5925   1.7212
     1.9512   2.0140   2.0559   2.0559   2.0751   2.0751   2.3537   2.5032
     2.7019   2.7020   2.8587   2.8727   2.8728

          k = 0.0000 0.0301 0.0000 ( 22708 PWs)   bands (ev):

   -61.1221 -61.0441 -61.0192 -61.0148 -61.0129 -61.0109 -60.9983 -60.9969
   -60.6128 -60.5885 -60.5869 -60.5299 -29.8159 -29.8056 -29.7789 -29.7714
   -29.7645 -29.7570 -29.7408 -29.6770 -29.6151 -29.6131 -29.6075 -29.5702
   -29.5418 -29.5371 -29.4290 -29.4144 -29.4059 -29.4055 -29.3873 -29.3754
   -29.3104 -29.2962 -29.2923 -29.2860 -29.2758 -29.2657 -29.2588 -29.0720
   -29.0663 -29.0656 -28.9954 -28.9930 -28.9836 -28.9598 -28.8764 -28.8497
   -12.9558  -4.9683  -4.3361  -3.1102  -2.0146  -1.7753  -1.5932  -1.4878
    -1.2594  -1.2370  -1.0589  -0.8150  -0.8112  -0.4194  -0.1679  -0.1070
     0.0364   0.0572   0.1432   0.7746   0.7859   0.9905   1.5749   1.6510
     1.7891   1.8254   1.9001   1.9584   2.1345   2.1419   2.3160   2.4954
     2.5067   2.5183   2.5797   2.6577   2.7884

          k = 0.0000 0.0602 0.0000 ( 22648 PWs)   bands (ev):

   -61.1213 -61.0378 -61.0208 -61.0163 -61.0129 -61.0111 -61.0020 -60.9969
   -60.6079 -60.5927 -60.5869 -60.5307 -29.7736 -29.7475 -29.7389 -29.7253
   -29.7206 -29.6889 -29.6659 -29.6554 -29.6108 -29.5975 -29.5957 -29.5770
   -29.5563 -29.5459 -29.4867 -29.4570 -29.4564 -29.4538 -29.3987 -29.3844
   -29.3717 -29.3525 -29.2892 -29.2818 -29.2721 -29.2453 -29.2112 -29.0666
   -29.0638 -29.0633 -29.0402 -29.0308 -28.9912 -28.9672 -28.9395 -28.8709
   -12.9519  -4.6769  -3.9631  -2.7207  -2.3794  -1.6855  -1.4129  -1.3792
    -1.1503  -1.0430  -0.8129  -0.5615  -0.4722  -0.1807   0.1047   0.2613
     0.3016   0.3305   0.4151   0.8040   0.8613   1.0312   1.2672   1.4685
     1.5034   1.5152   1.5597   1.6339   1.8091   1.8287   1.9853   2.1246
     2.1324   2.1951   2.2784   2.4834   2.4955

          k = 0.0000-0.0903 0.0000 ( 22668 PWs)   bands (ev):

   -61.1209 -61.0300 -61.0286 -61.0141 -61.0129 -61.0112 -61.0046 -60.9969
   -60.6037 -60.5965 -60.5869 -60.5310 -29.7468 -29.7367 -29.7036 -29.6940
   -29.6805 -29.6467 -29.6367 -29.6020 -29.5899 -29.5867 -29.5839 -29.5667
   -29.5558 -29.5314 -29.5293 -29.5167 -29.4916 -29.4894 -29.4795 -29.4703
   -29.3588 -29.3215 -29.3205 -29.2948 -29.2474 -29.2174 -29.1084 -29.1029
   -29.0786 -29.0653 -29.0628 -29.0580 -29.0374 -28.9894 -28.9208 -28.8901
   -12.9500  -4.5491  -3.3367  -3.1845  -2.2554  -1.8565  -1.3194  -1.1805
    -0.9456  -0.9063  -0.6599  -0.4532  -0.3040  -0.2351   0.4801   0.5503
     0.6162   0.6291   0.7443   0.7696   1.0161   1.0309   1.1252   1.1560
     1.1774   1.2442   1.4338   1.4684   1.4793   1.5406   1.5704   1.7368
     1.7877   1.9577   2.0584   2.4885   2.5187

          k = 0.0261-0.0151 0.0000 ( 22708 PWs)   bands (ev):

   -61.1221 -61.0441 -61.0192 -61.0147 -61.0130 -61.0109 -60.9984 -60.9968
   -60.6128 -60.5885 -60.5869 -60.5299 -29.8159 -29.8055 -29.7789 -29.7714
   -29.7645 -29.7570 -29.7408 -29.6770 -29.6151 -29.6131 -29.6075 -29.5702
   -29.5418 -29.5370 -29.4290 -29.4143 -29.4059 -29.4055 -29.3873 -29.3754
   -29.3104 -29.2962 -29.2923 -29.2860 -29.2758 -29.2657 -29.2588 -29.0720
   -29.0663 -29.0656 -28.9954 -28.9930 -28.9836 -28.9598 -28.8764 -28.8497
   -12.9558  -4.9683  -4.3361  -3.1102  -2.0146  -1.7753  -1.5931  -1.4878
    -1.2594  -1.2370  -1.0589  -0.8150  -0.8112  -0.4194  -0.1679  -0.1070
     0.0364   0.0572   0.1432   0.7746   0.7859   0.9905   1.5749   1.6510
     1.7890   1.8254   1.9001   1.9584   2.1345   2.1419   2.3160   2.4956
     2.5067   2.5183   2.5796   2.6578   2.7886

          k = 0.0261 0.0151 0.0000 ( 22708 PWs)   bands (ev):

   -61.1221 -61.0441 -61.0192 -61.0148 -61.0128 -61.0110 -60.9984 -60.9968
   -60.6128 -60.5884 -60.5870 -60.5299 -29.8160 -29.8055 -29.7788 -29.7715
   -29.7644 -29.7570 -29.7408 -29.6770 -29.6152 -29.6130 -29.6075 -29.5702
   -29.5419 -29.5370 -29.4290 -29.4143 -29.4058 -29.4056 -29.3873 -29.3754
   -29.3105 -29.2962 -29.2923 -29.2859 -29.2759 -29.2657 -29.2588 -29.0720
   -29.0662 -29.0658 -28.9954 -28.9930 -28.9835 -28.9599 -28.8764 -28.8497
   -12.9558  -4.9683  -4.3361  -3.1102  -2.0146  -1.7753  -1.5932  -1.4878
    -1.2595  -1.2370  -1.0589  -0.8150  -0.8112  -0.4194  -0.1679  -0.1070
     0.0364   0.0572   0.1432   0.7746   0.7859   0.9905   1.5749   1.6510
     1.7890   1.8254   1.9001   1.9584   2.1345   2.1419   2.3160   2.4954
     2.5067   2.5183   2.5797   2.6577   2.7887

          k = 0.0261 0.0452 0.0000 ( 22675 PWs)   bands (ev):

   -61.1215 -61.0398 -61.0173 -61.0171 -61.0157 -61.0099 -61.0011 -60.9968
   -60.6094 -60.5911 -60.5872 -60.5305 -29.7849 -29.7552 -29.7485 -29.7463
   -29.7217 -29.7109 -29.6994 -29.6649 -29.6091 -29.6044 -29.5975 -29.5752
   -29.5565 -29.5403 -29.4853 -29.4713 -29.4049 -29.4026 -29.3876 -29.3868
   -29.3644 -29.3503 -29.2844 -29.2837 -29.2783 -29.2471 -29.2426 -29.0676
   -29.0641 -29.0634 -29.0484 -28.9925 -28.9750 -28.9685 -28.9355 -28.8668
   -12.9529  -4.7490  -4.0937  -2.8273  -1.9733  -1.8790  -1.6447  -1.4178
    -1.3253  -0.9379  -0.8262  -0.6103  -0.5346  -0.1882  -0.0501   0.1330
     0.2039   0.2412   0.3328   0.7942   0.8231   1.0210   1.4456   1.4838
     1.5787   1.5909   1.6474   1.7078   1.8952   2.0289   2.0878   2.2200
     2.2536   2.3099   2.3658   2.5065   2.5494

          k = 0.0261-0.1054 0.0000 ( 22643 PWs)   bands (ev):

   -61.1209 -61.0325 -61.0239 -61.0175 -61.0138 -61.0088 -61.0052 -60.9966
   -60.6041 -60.5956 -60.5874 -60.5310 -29.7381 -29.7369 -29.7001 -29.6850
   -29.6626 -29.6528 -29.6395 -29.6169 -29.6001 -29.5966 -29.5873 -29.5744
   -29.5721 -29.5564 -29.5436 -29.5353 -29.4811 -29.4710 -29.4180 -29.4157
   -29.3743 -29.3547 -29.3166 -29.3041 -29.2438 -29.2032 -29.1627 -29.1151
   -29.0645 -29.0619 -29.0615 -29.0471 -28.9942 -28.9872 -28.9407 -28.8957
   -12.9500  -4.5555  -3.5330  -2.7249  -2.2977  -1.9522  -1.6465  -1.2916
    -1.0020  -0.7803  -0.5573  -0.3490  -0.1860  -0.0662   0.3247   0.4365
     0.5333   0.5526   0.6398   0.8599   0.9413   1.0212   1.0522   1.1934
     1.2654   1.2967   1.3718   1.4053   1.5234   1.6238   1.6766   1.8030
     1.8454   1.8838   2.0716   2.2007   2.6304

          k = 0.0261-0.0753 0.0000 ( 22643 PWs)   bands (ev):

   -61.1209 -61.0325 -61.0239 -61.0175 -61.0138 -61.0088 -61.0052 -60.9966
   -60.6041 -60.5957 -60.5873 -60.5310 -29.7381 -29.7369 -29.7001 -29.6850
   -29.6626 -29.6528 -29.6395 -29.6169 -29.6000 -29.5967 -29.5873 -29.5744
   -29.5721 -29.5564 -29.5437 -29.5353 -29.4812 -29.4710 -29.4180 -29.4157
   -29.3743 -29.3546 -29.3166 -29.3041 -29.2438 -29.2032 -29.1627 -29.1153
   -29.0646 -29.0620 -29.0614 -29.0470 -28.9942 -28.9872 -28.9407 -28.8957
   -12.9500  -4.5555  -3.5330  -2.7249  -2.2977  -1.9522  -1.6465  -1.2916
    -1.0020  -0.7803  -0.5572  -0.3490  -0.1860  -0.0662   0.3247   0.4365
     0.5333   0.5526   0.6397   0.8599   0.9413   1.0212   1.0522   1.1934
     1.2654   1.2967   1.3718   1.4053   1.5234   1.6238   1.6766   1.8031
     1.8454   1.8838   2.0716   2.2007   2.6304

          k = 0.0261-0.0452 0.0000 ( 22675 PWs)   bands (ev):

   -61.1215 -61.0398 -61.0172 -61.0170 -61.0160 -61.0098 -61.0011 -60.9968
   -60.6094 -60.5913 -60.5870 -60.5305 -29.7848 -29.7552 -29.7485 -29.7463
   -29.7216 -29.7110 -29.6994 -29.6649 -29.6090 -29.6045 -29.5976 -29.5752
   -29.5565 -29.5403 -29.4853 -29.4713 -29.4049 -29.4026 -29.3876 -29.3869
   -29.3644 -29.3503 -29.2844 -29.2837 -29.2783 -29.2472 -29.2425 -29.0676
   -29.0642 -29.0633 -29.0485 -28.9925 -28.9750 -28.9685 -28.9355 -28.8668
   -12.9529  -4.7490  -4.0937  -2.8273  -1.9733  -1.8790  -1.6447  -1.4177
    -1.3253  -0.9379  -0.8262  -0.6103  -0.5346  -0.1882  -0.0501   0.1330
     0.2039   0.2411   0.3328   0.7942   0.8231   1.0210   1.4456   1.4838
     1.5788   1.5909   1.6473   1.7078   1.8952   2.0289   2.0878   2.2200
     2.2536   2.3099   2.3658   2.5065   2.5494

          k = 0.0521-0.0301 0.0000 ( 22648 PWs)   bands (ev):

   -61.1213 -61.0378 -61.0208 -61.0163 -61.0130 -61.0111 -61.0021 -60.9968
   -60.6079 -60.5927 -60.5869 -60.5307 -29.7737 -29.7475 -29.7388 -29.7252
   -29.7206 -29.6889 -29.6659 -29.6554 -29.6108 -29.5975 -29.5958 -29.5769
   -29.5564 -29.5458 -29.4867 -29.4571 -29.4564 -29.4537 -29.3987 -29.3845
   -29.3718 -29.3525 -29.2891 -29.2817 -29.2721 -29.2453 -29.2112 -29.0666
   -29.0638 -29.0633 -29.0402 -29.0308 -28.9912 -28.9672 -28.9395 -28.8709
   -12.9519  -4.6769  -3.9631  -2.7207  -2.3794  -1.6855  -1.4129  -1.3792
    -1.1503  -1.0430  -0.8129  -0.5615  -0.4722  -0.1807   0.1047   0.2613
     0.3016   0.3305   0.4151   0.8040   0.8613   1.0312   1.2672   1.4685
     1.5034   1.5152   1.5597   1.6339   1.8091   1.8287   1.9853   2.1246
     2.1324   2.1951   2.2784   2.4833   2.4955

          k = 0.0521 0.0000 0.0000 ( 22675 PWs)   bands (ev):

   -61.1215 -61.0398 -61.0172 -61.0171 -61.0158 -61.0099 -61.0012 -60.9967
   -60.6094 -60.5911 -60.5871 -60.5305 -29.7849 -29.7552 -29.7485 -29.7463
   -29.7216 -29.7109 -29.6994 -29.6649 -29.6091 -29.6044 -29.5976 -29.5751
   -29.5566 -29.5403 -29.4853 -29.4713 -29.4049 -29.4027 -29.3876 -29.3868
   -29.3644 -29.3503 -29.2844 -29.2837 -29.2783 -29.2471 -29.2426 -29.0676
   -29.0641 -29.0634 -29.0485 -28.9925 -28.9750 -28.9685 -28.9355 -28.8668
   -12.9529  -4.7490  -4.0937  -2.8273  -1.9733  -1.8790  -1.6447  -1.4178
    -1.3253  -0.9379  -0.8262  -0.6103  -0.5346  -0.1882  -0.0501   0.1330
     0.2039   0.2412   0.3328   0.7942   0.8231   1.0210   1.4456   1.4838
     1.5787   1.5909   1.6474   1.7078   1.8952   2.0289   2.0879   2.2200
     2.2536   2.3099   2.3658   2.5065   2.5494

          k = 0.0521 0.0301 0.0000 ( 22648 PWs)   bands (ev):

   -61.1213 -61.0378 -61.0208 -61.0163 -61.0127 -61.0113 -61.0021 -60.9968
   -60.6080 -60.5925 -60.5870 -60.5306 -29.7737 -29.7475 -29.7388 -29.7254
   -29.7205 -29.6889 -29.6659 -29.6554 -29.6109 -29.5973 -29.5958 -29.5769
   -29.5565 -29.5458 -29.4867 -29.4569 -29.4565 -29.4537 -29.3987 -29.3845
   -29.3718 -29.3525 -29.2891 -29.2817 -29.2722 -29.2452 -29.2112 -29.0665
   -29.0637 -29.0634 -29.0403 -29.0307 -28.9912 -28.9672 -28.9396 -28.8709
   -12.9519  -4.6769  -3.9631  -2.7207  -2.3794  -1.6855  -1.4129  -1.3792
    -1.1503  -1.0430  -0.8130  -0.5615  -0.4722  -0.1806   0.1047   0.2613
     0.3016   0.3306   0.4151   0.8040   0.8613   1.0312   1.2672   1.4685
     1.5034   1.5152   1.5597   1.6339   1.8091   1.8287   1.9853   2.1245
     2.1324   2.1951   2.2784   2.4833   2.4955

          k = 0.0521-0.1204 0.0000 ( 22643 PWs)   bands (ev):

   -61.1209 -61.0325 -61.0239 -61.0175 -61.0137 -61.0088 -61.0053 -60.9966
   -60.6042 -60.5955 -60.5874 -60.5310 -29.7381 -29.7369 -29.7001 -29.6849
   -29.6626 -29.6528 -29.6395 -29.6169 -29.6001 -29.5966 -29.5873 -29.5744
   -29.5721 -29.5564 -29.5437 -29.5353 -29.4811 -29.4710 -29.4180 -29.4157
   -29.3744 -29.3546 -29.3166 -29.3041 -29.2439 -29.2031 -29.1627 -29.1152
   -29.0645 -29.0620 -29.0615 -29.0470 -28.9942 -28.9872 -28.9408 -28.8956
   -12.9500  -4.5555  -3.5330  -2.7249  -2.2977  -1.9522  -1.6465  -1.2916
    -1.0019  -0.7803  -0.5573  -0.3490  -0.1860  -0.0662   0.3247   0.4365
     0.5333   0.5526   0.6398   0.8599   0.9413   1.0212   1.0522   1.1934
     1.2654   1.2966   1.3718   1.4053   1.5234   1.6238   1.6766   1.8031
     1.8454   1.8838   2.0716   2.2007   2.6304

          k = 0.0521-0.0903 0.0000 ( 22614 PWs)   bands (ev):

   -61.1207 -61.0259 -61.0256 -61.0235 -61.0099 -61.0095 -61.0077 -60.9964
   -60.5996 -60.5994 -60.5879 -60.5311 -29.7333 -29.6846 -29.6722 -29.6440
   -29.6393 -29.6313 -29.6264 -29.6255 -29.5988 -29.5933 -29.5759 -29.5719
   -29.5707 -29.5665 -29.5629 -29.5479 -29.5463 -29.5447 -29.3868 -29.3862
   -29.3653 -29.3650 -29.3645 -29.3309 -29.1934 -29.1921 -29.1395 -29.1250
   -29.1245 -29.0635 -29.0612 -29.0607 -28.9895 -28.9630 -28.9363 -28.9361
   -12.9490  -4.5065  -2.8633  -2.8394  -2.7144  -1.8483  -1.8091  -1.3664
    -0.9483  -0.7130  -0.0942  -0.0912   0.0106   0.0868   0.2475   0.2582
     0.6880   0.7155   0.8143   0.8183   0.9157   0.9794   1.0301   1.0560
     1.0632   1.0855   1.1828   1.4501   1.4661   1.4937   1.5763   1.6652
     1.6664   1.7750   1.8742   1.9730   2.6088

          k = 0.0521-0.0602 0.0000 ( 22643 PWs)   bands (ev):

   -61.1209 -61.0325 -61.0239 -61.0175 -61.0137 -61.0088 -61.0053 -60.9966
   -60.6041 -60.5957 -60.5873 -60.5310 -29.7381 -29.7369 -29.7001 -29.6849
   -29.6626 -29.6528 -29.6395 -29.6168 -29.6000 -29.5967 -29.5874 -29.5744
   -29.5721 -29.5564 -29.5437 -29.5353 -29.4811 -29.4710 -29.4180 -29.4157
   -29.3744 -29.3546 -29.3166 -29.3041 -29.2438 -29.2032 -29.1627 -29.1153
   -29.0646 -29.0620 -29.0614 -29.0470 -28.9942 -28.9872 -28.9407 -28.8957
   -12.9500  -4.5555  -3.5330  -2.7249  -2.2977  -1.9522  -1.6465  -1.2916
    -1.0020  -0.7803  -0.5572  -0.3490  -0.1860  -0.0662   0.3247   0.4365
     0.5333   0.5526   0.6397   0.8599   0.9413   1.0212   1.0522   1.1934
     1.2654   1.2967   1.3718   1.4053   1.5234   1.6238   1.6766   1.8031
     1.8454   1.8838   2.0716   2.2007   2.6304

          k =-0.0782 0.0452 0.0000 ( 22668 PWs)   bands (ev):

   -61.1209 -61.0301 -61.0285 -61.0139 -61.0130 -61.0111 -61.0049 -60.9968
   -60.6037 -60.5966 -60.5869 -60.5310 -29.7469 -29.7367 -29.7036 -29.6939
   -29.6804 -29.6467 -29.6368 -29.6020 -29.5900 -29.5868 -29.5838 -29.5667
   -29.5557 -29.5314 -29.5293 -29.5167 -29.4916 -29.4894 -29.4794 -29.4705
   -29.3589 -29.3216 -29.3205 -29.2947 -29.2474 -29.2174 -29.1084 -29.1030
   -29.0786 -29.0653 -29.0628 -29.0580 -29.0374 -28.9894 -28.9208 -28.8901
   -12.9500  -4.5491  -3.3367  -3.1845  -2.2554  -1.8565  -1.3194  -1.1805
    -0.9456  -0.9063  -0.6599  -0.4532  -0.3040  -0.2351   0.4801   0.5503
     0.6162   0.6291   0.7443   0.7696   1.0161   1.0308   1.1252   1.1560
     1.1774   1.2442   1.4338   1.4684   1.4793   1.5406   1.5704   1.7368
     1.7877   1.9577   2.0584   2.4884   2.5187

          k =-0.0782 0.0753 0.0000 ( 22643 PWs)   bands (ev):

   -61.1209 -61.0325 -61.0239 -61.0175 -61.0137 -61.0088 -61.0054 -60.9965
   -60.6041 -60.5957 -60.5873 -60.5310 -29.7381 -29.7369 -29.7001 -29.6849
   -29.6626 -29.6528 -29.6395 -29.6169 -29.6001 -29.5967 -29.5873 -29.5744
   -29.5721 -29.5564 -29.5436 -29.5353 -29.4812 -29.4710 -29.4180 -29.4157
   -29.3744 -29.3547 -29.3166 -29.3041 -29.2438 -29.2032 -29.1627 -29.1152
   -29.0646 -29.0619 -29.0615 -29.0471 -28.9942 -28.9872 -28.9407 -28.8957
   -12.9500  -4.5555  -3.5330  -2.7249  -2.2977  -1.9522  -1.6465  -1.2916
    -1.0020  -0.7803  -0.5573  -0.3490  -0.1860  -0.0662   0.3247   0.4365
     0.5334   0.5526   0.6398   0.8599   0.9413   1.0212   1.0522   1.1934
     1.2654   1.2966   1.3718   1.4053   1.5234   1.6238   1.6766   1.8031
     1.8454   1.8838   2.0716   2.2007   2.6304

          k =-0.0782 0.1054 0.0000 ( 22643 PWs)   bands (ev):

   -61.1209 -61.0325 -61.0239 -61.0175 -61.0137 -61.0088 -61.0053 -60.9966
   -60.6042 -60.5955 -60.5874 -60.5310 -29.7381 -29.7369 -29.7001 -29.6850
   -29.6626 -29.6528 -29.6395 -29.6169 -29.6001 -29.5966 -29.5873 -29.5744
   -29.5721 -29.5564 -29.5436 -29.5353 -29.4812 -29.4710 -29.4180 -29.4157
   -29.3744 -29.3546 -29.3166 -29.3041 -29.2439 -29.2031 -29.1627 -29.1152
   -29.0645 -29.0620 -29.0615 -29.0470 -28.9942 -28.9872 -28.9408 -28.8956
   -12.9500  -4.5555  -3.5330  -2.7249  -2.2977  -1.9522  -1.6465  -1.2916
    -1.0019  -0.7803  -0.5573  -0.3490  -0.1860  -0.0662   0.3247   0.4365
     0.5333   0.5526   0.6398   0.8599   0.9413   1.0212   1.0522   1.1934
     1.2654   1.2966   1.3718   1.4053   1.5234   1.6238   1.6765   1.8031
     1.8454   1.8838   2.0716   2.2007   2.6304

          k =-0.0782-0.0452 0.0000 ( 22668 PWs)   bands (ev):

   -61.1209 -61.0299 -61.0288 -61.0140 -61.0127 -61.0113 -61.0048 -60.9968
   -60.6039 -60.5963 -60.5870 -60.5310 -29.7469 -29.7367 -29.7035 -29.6941
   -29.6804 -29.6467 -29.6367 -29.6021 -29.5900 -29.5866 -29.5839 -29.5668
   -29.5557 -29.5315 -29.5292 -29.5167 -29.4917 -29.4893 -29.4794 -29.4705
   -29.3589 -29.3214 -29.3207 -29.2947 -29.2476 -29.2172 -29.1085 -29.1027
   -29.0787 -29.0652 -29.0629 -29.0581 -29.0374 -28.9894 -28.9210 -28.8899
   -12.9500  -4.5491  -3.3367  -3.1846  -2.2554  -1.8566  -1.3194  -1.1804
    -0.9456  -0.9063  -0.6599  -0.4532  -0.3039  -0.2351   0.4801   0.5503
     0.6162   0.6292   0.7443   0.7696   1.0162   1.0308   1.1253   1.1560
     1.1773   1.2442   1.4338   1.4684   1.4792   1.5406   1.5704   1.7368
     1.7877   1.9577   2.0584   2.4884   2.5187

     the Fermi energy is     1.5855 ev

!    total energy              =   -1948.28556911 Ry
     Harris-Foulkes estimate   =   -1948.28555336 Ry
     estimated scf accuracy    <       0.00000559 Ry

     The total energy is the sum of the following terms:

     one-electron contribution =   -8583.10216207 Ry
     hartree contribution      =    4277.71321577 Ry
     xc contribution           =    -933.94383534 Ry
     ewald contribution        =    3291.16189904 Ry
     electric field correction =       0.00008335 Ry
     smearing contrib. (-TS)   =      -0.11476985 Ry

     convergence has been achieved in  31 iterations
 
 BEEF-vdW xc energy contributions
           1 :   -844.281533800446     
           2 :    784.486414820299     
           3 :   -678.598134326366     
           4 :    548.583538383366     
           5 :   -417.104930859354     
           6 :    301.164611538066     
           7 :   -209.351206593377     
           8 :    142.787488107581     
           9 :   -98.2081903322139     
          10 :    70.9481683207925     
          11 :   -56.4963307790736     
          12 :    50.5716476367987     
          13 :   -48.7142790298071     
          14 :    46.3770325993150     
          15 :   -39.8459034800006     
          16 :    27.4706683215354     
          17 :   -10.3651544354765     
          18 :   -8.02310371380497     
          19 :    23.3743837483449     
          20 :   -32.2956853547480     
          21 :    33.5695121642947     
          22 :   -28.3377814716733     
          23 :    19.3042668378459     
          24 :   -9.53932403657609     
          25 :    1.52771935732721     
          26 :    3.20515098141459     
          27 :   -4.00971470256593     
          28 :   0.919264506490208     
          29 :    5.38801415990133     
          30 :   -13.5093979151454     
          31 :   -60.8560026201267     
          32 :   -43.7323690245209     

     Forces acting on atoms (Ry/au):


     negative rho (up, down):  1.380E+00 0.000E+00
     atom    1 type  1   force =    -0.00004650   -0.00002114    0.02300919
     atom    2 type  1   force =     0.00004191    0.00155677    0.02415575
     atom    3 type  1   force =     0.00136277   -0.00074397    0.02415749
     atom    4 type  1   force =    -0.00135540   -0.00079041    0.02412659
     atom    5 type  1   force =    -0.00134369    0.00079867   -0.00032372
     atom    6 type  1   force =     0.00134617    0.00075298   -0.00029842
     atom    7 type  1   force =    -0.00003535    0.00000788   -0.00545652
     atom    8 type  1   force =     0.00004432   -0.00155481   -0.00031731
     atom    9 type  1   force =     0.02009010    0.01162491    0.03374376
     atom   10 type  1   force =    -0.02010018    0.01157344    0.03375353
     atom   11 type  1   force =    -0.00005280   -0.02320516    0.03376420
     atom   12 type  1   force =     0.00005744    0.00000314   -0.03962419
     atom   13 type  2   force =    -0.00000745   -0.00000248   -0.10616815
     atom   14 type  3   force =    -0.00000134    0.00000018   -0.04452218

     Total force =     0.140915     Total SCF correction =     0.007383


     entering subroutine stress ...


     negative rho (up, down):  1.380E+00 0.000E+00
          total   stress  (Ry/bohr**3)                   (kbar)     P=  -29.81
  -0.00016941   0.00000000   0.00000000        -24.92      0.00      0.00
   0.00000000  -0.00016940  -0.00000000          0.00    -24.92     -0.00
   0.00000000  -0.00000000  -0.00026920          0.00     -0.00    -39.60


     BFGS Geometry Optimization

     number of scf cycles    =   1
     number of bfgs steps    =   0

     energy   new            =   -1948.2855691094 Ry

     new trust radius        =       0.1061681546 bohr
     new conv_thr            =       0.0000099958 Ry


ATOMIC_POSITIONS (crystal)
Hf1      0.166666667   0.166666667   0.396510335    0   0   0
Hf1      0.666666667   0.166666667   0.396510335    0   0   0
Hf1      0.166666667   0.666666667   0.396510335    0   0   0
Hf1      0.666666667   0.666666667   0.396510335    0   0   0
Hf1      0.833333333   0.333333333   0.500000000    0   0   0
Hf1      0.333333333   0.333333333   0.500000000    0   0   0
Hf1      0.833333333   0.833333333   0.500000000    0   0   0
Hf1      0.333333333   0.833333333   0.500000000    0   0   0
Hf1      0.001107360   0.001111072   0.604197691
Hf1      0.497783193   0.001106152   0.604197896
Hf1      0.001104567   0.497782125   0.604198120
Hf1      0.500004605   0.500000300   0.602658254
N1       0.166666168   0.166666430   0.664664003
H1       0.166666547   0.166666684   0.707591070



     Writing output data file calc.save
     Check: negative starting charge=   -1.301362
     NEW-OLD atomic charge density approx. for the potential

     Check: negative/imaginary core charge=   -0.000003    0.000000
     Check: negative starting charge=   -1.299583

     negative rho (up, down):  1.378E+00 0.000E+00
 
     Adding external electric field

     Computed dipole along edir(3) : 
        Dipole                0.3232 Ry au,          0.8214 Debye
        Dipole field          0.0007 Ry au
 
        Potential amp.       -0.0626 Ry
        Total length         46.4675 bohr
 

     total cpu time spent up to now is      850.5 secs

     Self-consistent Calculation

     iteration #  1     ecut=    36.75 Ry     beta=0.30
     Davidson diagonalization with overlap
     ethr =  1.00E-06,  avg # of iterations = 11.8

     negative rho (up, down):  1.378E+00 0.000E+00
 
     Adding external electric field

     Computed dipole along edir(3) : 
        Dipole               -2.9032 Ry au,         -7.3793 Debye
        Dipole field         -0.0061 Ry au
 
        Potential amp.        0.5628 Ry
        Total length         46.4675 bohr
 

     total cpu time spent up to now is      885.9 secs

     total energy              =   -1947.87959342 Ry
     Harris-Foulkes estimate   =   -1948.29697138 Ry
     estimated scf accuracy    <       0.86409505 Ry

     iteration #  2     ecut=    36.75 Ry     beta=0.30
     Davidson diagonalization with overlap
     ethr =  5.76E-04,  avg # of iterations = 10.8

     negative rho (up, down):  1.378E+00 0.000E+00
 
     Adding external electric field

     Computed dipole along edir(3) : 
        Dipole                0.0861 Ry au,          0.2189 Debye
        Dipole field          0.0002 Ry au
 
        Potential amp.       -0.0167 Ry
        Total length         46.4675 bohr
 

     total cpu time spent up to now is      917.2 secs

     total energy              =   -1944.78684243 Ry
     Harris-Foulkes estimate   =   -1953.08753882 Ry
     estimated scf accuracy    <     269.59946867 Ry

     iteration #  3     ecut=    36.75 Ry     beta=0.30
     Davidson diagonalization with overlap
     ethr =  5.76E-04,  avg # of iterations =  6.7

     negative rho (up, down):  1.378E+00 0.000E+00
 
     Adding external electric field

     Computed dipole along edir(3) : 
        Dipole                0.1400 Ry au,          0.3559 Debye
        Dipole field          0.0003 Ry au
 
        Potential amp.       -0.0271 Ry
        Total length         46.4675 bohr
 

     total cpu time spent up to now is      945.8 secs

     total energy              =   -1948.26311996 Ry
     Harris-Foulkes estimate   =   -1948.35480855 Ry
     estimated scf accuracy    <       1.25817263 Ry

     iteration #  4     ecut=    36.75 Ry     beta=0.30
     Davidson diagonalization with overlap
     ethr =  5.76E-04,  avg # of iterations =  2.8

     negative rho (up, down):  1.378E+00 0.000E+00
 
     Adding external electric field

     Computed dipole along edir(3) : 
        Dipole                0.1945 Ry au,          0.4943 Debye
        Dipole field          0.0004 Ry au
 
        Potential amp.       -0.0377 Ry
        Total length         46.4675 bohr
 

     total cpu time spent up to now is      963.5 secs

     total energy              =   -1948.29552079 Ry
     Harris-Foulkes estimate   =   -1948.30124084 Ry
     estimated scf accuracy    <       0.29354298 Ry

     iteration #  5     ecut=    36.75 Ry     beta=0.30
     Davidson diagonalization with overlap
     ethr =  1.96E-04,  avg # of iterations =  2.0

     negative rho (up, down):  1.378E+00 0.000E+00
 
     Adding external electric field

     Computed dipole along edir(3) : 
        Dipole                0.2252 Ry au,          0.5723 Debye
        Dipole field          0.0005 Ry au
 
        Potential amp.       -0.0436 Ry
        Total length         46.4675 bohr
 

     total cpu time spent up to now is      980.7 secs

     total energy              =   -1948.29834244 Ry
     Harris-Foulkes estimate   =   -1948.30056813 Ry
     estimated scf accuracy    <       0.04923663 Ry

     iteration #  6     ecut=    36.75 Ry     beta=0.30
     Davidson diagonalization with overlap
     ethr =  3.28E-05,  avg # of iterations =  6.5

     negative rho (up, down):  1.379E+00 0.000E+00
 
     Adding external electric field

     Computed dipole along edir(3) : 
        Dipole                0.2282 Ry au,          0.5801 Debye
        Dipole field          0.0005 Ry au
 
        Potential amp.       -0.0442 Ry
        Total length         46.4675 bohr
 

     total cpu time spent up to now is     1003.6 secs

     total energy              =   -1948.30321464 Ry
     Harris-Foulkes estimate   =   -1948.30373411 Ry
     estimated scf accuracy    <       0.01294565 Ry

     iteration #  7     ecut=    36.75 Ry     beta=0.30
     Davidson diagonalization with overlap
     ethr =  8.63E-06,  avg # of iterations =  1.5

     negative rho (up, down):  1.379E+00 0.000E+00
 
     Adding external electric field

     Computed dipole along edir(3) : 
        Dipole                0.2206 Ry au,          0.5607 Debye
        Dipole field          0.0005 Ry au
 
        Potential amp.       -0.0428 Ry
        Total length         46.4675 bohr
 

     total cpu time spent up to now is     1020.5 secs

     total energy              =   -1948.30286441 Ry
     Harris-Foulkes estimate   =   -1948.30338397 Ry
     estimated scf accuracy    <       0.01030851 Ry

     iteration #  8     ecut=    36.75 Ry     beta=0.30
     Davidson diagonalization with overlap
     ethr =  6.87E-06,  avg # of iterations =  1.0

     negative rho (up, down):  1.379E+00 0.000E+00
 
     Adding external electric field

     Computed dipole along edir(3) : 
        Dipole                0.2179 Ry au,          0.5538 Debye
        Dipole field          0.0005 Ry au
 
        Potential amp.       -0.0422 Ry
        Total length         46.4675 bohr
 

     total cpu time spent up to now is     1037.0 secs

     total energy              =   -1948.30286188 Ry
     Harris-Foulkes estimate   =   -1948.30303385 Ry
     estimated scf accuracy    <       0.00208139 Ry

     iteration #  9     ecut=    36.75 Ry     beta=0.30
     Davidson diagonalization with overlap
     ethr =  1.39E-06,  avg # of iterations =  5.2

     negative rho (up, down):  1.379E+00 0.000E+00
 
     Adding external electric field

     Computed dipole along edir(3) : 
        Dipole                0.2128 Ry au,          0.5409 Debye
        Dipole field          0.0004 Ry au
 
        Potential amp.       -0.0413 Ry
        Total length         46.4675 bohr
 

     total cpu time spent up to now is     1059.1 secs

     total energy              =   -1948.30310313 Ry
     Harris-Foulkes estimate   =   -1948.30312050 Ry
     estimated scf accuracy    <       0.00046727 Ry

     iteration # 10     ecut=    36.75 Ry     beta=0.30
     Davidson diagonalization with overlap
     ethr =  3.12E-07,  avg # of iterations =  1.4

     negative rho (up, down):  1.379E+00 0.000E+00
 
     Adding external electric field

     Computed dipole along edir(3) : 
        Dipole                0.2115 Ry au,          0.5376 Debye
        Dipole field          0.0004 Ry au
 
        Potential amp.       -0.0410 Ry
        Total length         46.4675 bohr
 

     total cpu time spent up to now is     1076.1 secs

     total energy              =   -1948.30310113 Ry
     Harris-Foulkes estimate   =   -1948.30311581 Ry
     estimated scf accuracy    <       0.00016471 Ry

     iteration # 11     ecut=    36.75 Ry     beta=0.30
     Davidson diagonalization with overlap
     ethr =  1.10E-07,  avg # of iterations =  3.0

     negative rho (up, down):  1.379E+00 0.000E+00
 
     Adding external electric field

     Computed dipole along edir(3) : 
        Dipole                0.2112 Ry au,          0.5368 Debye
        Dipole field          0.0004 Ry au
 
        Potential amp.       -0.0409 Ry
        Total length         46.4675 bohr
 

     total cpu time spent up to now is     1093.9 secs

     total energy              =   -1948.30310482 Ry
     Harris-Foulkes estimate   =   -1948.30310763 Ry
     estimated scf accuracy    <       0.00004588 Ry

     iteration # 12     ecut=    36.75 Ry     beta=0.30
     Davidson diagonalization with overlap
     ethr =  3.06E-08,  avg # of iterations =  3.8

     negative rho (up, down):  1.379E+00 0.000E+00

     negative rho (up, down):  1.379E+00 0.000E+00

     negative rho (up, down):  1.379E+00 0.000E+00

     negative rho (up, down):  1.379E+00 0.000E+00

     negative rho (up, down):  1.379E+00 0.000E+00

     negative rho (up, down):  1.379E+00 0.000E+00

     negative rho (up, down):  1.379E+00 0.000E+00

     negative rho (up, down):  1.379E+00 0.000E+00

     negative rho (up, down):  1.379E+00 0.000E+00

     negative rho (up, down):  1.379E+00 0.000E+00

     negative rho (up, down):  1.379E+00 0.000E+00

     negative rho (up, down):  1.379E+00 0.000E+00

     negative rho (up, down):  1.379E+00 0.000E+00

     negative rho (up, down):  1.379E+00 0.000E+00

     negative rho (up, down):  1.379E+00 0.000E+00

     negative rho (up, down):  1.379E+00 0.000E+00

     negative rho (up, down):  1.379E+00 0.000E+00

     negative rho (up, down):  1.379E+00 0.000E+00

     negative rho (up, down):  1.379E+00 0.000E+00

     negative rho (up, down):  1.379E+00 0.000E+00

     negative rho (up, down):  1.379E+00 0.000E+00

     negative rho (up, down):  1.379E+00 0.000E+00

     negative rho (up, down):  1.379E+00 0.000E+00

     negative rho (up, down):  1.379E+00 0.000E+00

     negative rho (up, down):  1.379E+00 0.000E+00

     negative rho (up, down):  1.379E+00 0.000E+00

     negative rho (up, down):  1.379E+00 0.000E+00

     negative rho (up, down):  1.379E+00 0.000E+00

     negative rho (up, down):  1.379E+00 0.000E+00

     negative rho (up, down):  1.379E+00 0.000E+00

     negative rho (up, down):  1.379E+00 0.000E+00

     negative rho (up, down):  1.379E+00 0.000E+00

     negative rho (up, down):  1.379E+00 0.000E+00

     negative rho (up, down):  1.379E+00 0.000E+00

     negative rho (up, down):  1.379E+00 0.000E+00
 
     Adding external electric field

     Computed dipole along edir(3) : 
        Dipole                0.2194 Ry au,          0.5577 Debye
        Dipole field          0.0005 Ry au
 
        Potential amp.       -0.0425 Ry
        Total length         46.4675 bohr
 

     total cpu time spent up to now is     1136.2 secs

     End of self-consistent calculation

          k = 0.0000 0.0000 0.0000 ( 22729 PWs)   bands (ev):

   -61.0428 -61.0087 -60.9803 -60.9754 -60.9754 -60.9720 -60.9582 -60.9582
   -60.5742 -60.5458 -60.5458 -60.5049 -29.7808 -29.7808 -29.7646 -29.7493
   -29.7492 -29.7392 -29.6999 -29.6320 -29.5814 -29.5813 -29.5752 -29.5253
   -29.4983 -29.4983 -29.3528 -29.3528 -29.3490 -29.3450 -29.3450 -29.3406
   -29.2832 -29.2656 -29.2656 -29.2190 -29.2190 -29.2091 -29.2091 -29.0340
   -29.0259 -29.0259 -28.9741 -28.9359 -28.9278 -28.9278 -28.8060 -28.8060
   -12.9800  -5.1169  -4.4797  -3.2369  -2.1432  -1.7701  -1.7701  -1.3196
    -1.3196  -1.2603  -1.1095  -0.9643  -0.9643  -0.5031  -0.2253  -0.2252
    -0.0069  -0.0069   0.1009   0.8146   0.8146   1.0407   1.6271   1.7698
     1.9641   2.0520   2.0947   2.0947   2.1092   2.1092   2.4038   2.5323
     2.7320   2.7320   2.8943   2.9151   2.9151

          k = 0.0000 0.0301 0.0000 ( 22708 PWs)   bands (ev):

   -61.0421 -61.0063 -60.9795 -60.9772 -60.9754 -60.9725 -60.9597 -60.9582
   -60.5722 -60.5473 -60.5458 -60.5053 -29.7624 -29.7543 -29.7395 -29.7304
   -29.7239 -29.7127 -29.6893 -29.6269 -29.5768 -29.5746 -29.5698 -29.5297
   -29.5058 -29.5012 -29.3744 -29.3697 -29.3673 -29.3646 -29.3423 -29.3358
   -29.2672 -29.2580 -29.2531 -29.2523 -29.2386 -29.2275 -29.2163 -29.0296
   -29.0248 -29.0242 -28.9718 -28.9534 -28.9469 -28.9222 -28.8409 -28.8140
   -12.9776  -4.9894  -4.3563  -3.0864  -1.9915  -1.8027  -1.6933  -1.4947
    -1.2376  -1.1982  -1.0169  -0.7998  -0.7976  -0.3697  -0.1617  -0.0952
     0.0710   0.0875   0.1986   0.8161   0.8277   1.0565   1.6073   1.6954
     1.8196   1.8569   1.9413   1.9987   2.1685   2.1702   2.3639   2.5287
     2.5379   2.5556   2.6164   2.6917   2.8359

          k = 0.0000 0.0602 0.0000 ( 22648 PWs)   bands (ev):

   -61.0407 -61.0001 -60.9831 -60.9773 -60.9754 -60.9729 -60.9632 -60.9582
   -60.5671 -60.5516 -60.5458 -60.5062 -29.7179 -29.7012 -29.6845 -29.6811
   -29.6742 -29.6465 -29.6226 -29.6121 -29.5723 -29.5593 -29.5570 -29.5401
   -29.5192 -29.5096 -29.4315 -29.4191 -29.4181 -29.4115 -29.3607 -29.3444
   -29.3211 -29.3137 -29.2511 -29.2412 -29.2302 -29.2110 -29.1741 -29.0239
   -29.0228 -29.0218 -29.0007 -28.9931 -28.9674 -28.9336 -28.9009 -28.8357
   -12.9726  -4.7464  -3.9460  -2.6996  -2.3478  -1.7147  -1.5362  -1.3527
    -1.1192  -1.0301  -0.8178  -0.5353  -0.4536  -0.1739   0.1487   0.2905
     0.3421   0.3734   0.4672   0.8439   0.9063   1.0878   1.3029   1.5088
     1.5309   1.5596   1.6023   1.6784   1.8444   1.8628   2.0231   2.1516
     2.1590   2.2433   2.3226   2.5362   2.5367

          k = 0.0000-0.0903 0.0000 ( 22668 PWs)   bands (ev):

   -61.0401 -60.9925 -60.9906 -60.9756 -60.9754 -60.9729 -60.9656 -60.9582
   -60.5626 -60.5557 -60.5458 -60.5066 -29.6888 -29.6674 -29.6612 -29.6534
   -29.6451 -29.6062 -29.5948 -29.5537 -29.5526 -29.5488 -29.5342 -29.5189
   -29.5189 -29.4931 -29.4915 -29.4837 -29.4529 -29.4519 -29.4397 -29.4285
   -29.3045 -29.2839 -29.2820 -29.2561 -29.2056 -29.1844 -29.0683 -29.0625
   -29.0374 -29.0241 -29.0215 -29.0175 -29.0081 -28.9656 -28.8796 -28.8573
   -12.9702  -4.6410  -3.3025  -3.1493  -2.2565  -1.8250  -1.4560  -1.2192
    -0.9115  -0.9024  -0.6315  -0.4285  -0.2706  -0.2445   0.5232   0.5923
     0.6546   0.6742   0.7858   0.8135   1.0622   1.0775   1.1653   1.1934
     1.2138   1.2880   1.4699   1.4998   1.5177   1.5820   1.6144   1.7665
     1.8418   1.9909   2.1227   2.5252   2.5585

          k = 0.0261-0.0151 0.0000 ( 22708 PWs)   bands (ev):

   -61.0421 -61.0063 -60.9795 -60.9772 -60.9754 -60.9725 -60.9597 -60.9582
   -60.5722 -60.5473 -60.5458 -60.5053 -29.7624 -29.7544 -29.7395 -29.7304
   -29.7240 -29.7127 -29.6893 -29.6269 -29.5768 -29.5746 -29.5698 -29.5297
   -29.5058 -29.5012 -29.3744 -29.3697 -29.3673 -29.3646 -29.3423 -29.3358
   -29.2672 -29.2580 -29.2531 -29.2523 -29.2386 -29.2275 -29.2163 -29.0296
   -29.0248 -29.0242 -28.9718 -28.9534 -28.9469 -28.9222 -28.8409 -28.8140
   -12.9776  -4.9894  -4.3563  -3.0864  -1.9915  -1.8027  -1.6933  -1.4947
    -1.2376  -1.1982  -1.0169  -0.7998  -0.7976  -0.3697  -0.1617  -0.0952
     0.0710   0.0875   0.1986   0.8161   0.8277   1.0565   1.6073   1.6954
     1.8196   1.8569   1.9413   1.9987   2.1685   2.1702   2.3639   2.5287
     2.5379   2.5556   2.6164   2.6917   2.8357

          k = 0.0261 0.0151 0.0000 ( 22708 PWs)   bands (ev):

   -61.0421 -61.0063 -60.9795 -60.9773 -60.9754 -60.9725 -60.9597 -60.9582
   -60.5722 -60.5473 -60.5458 -60.5053 -29.7624 -29.7543 -29.7395 -29.7304
   -29.7239 -29.7127 -29.6893 -29.6269 -29.5768 -29.5746 -29.5698 -29.5297
   -29.5059 -29.5012 -29.3744 -29.3697 -29.3673 -29.3646 -29.3423 -29.3358
   -29.2672 -29.2580 -29.2531 -29.2523 -29.2386 -29.2275 -29.2163 -29.0296
   -29.0248 -29.0242 -28.9718 -28.9534 -28.9469 -28.9222 -28.8409 -28.8140
   -12.9776  -4.9894  -4.3563  -3.0864  -1.9915  -1.8027  -1.6933  -1.4947
    -1.2376  -1.1982  -1.0169  -0.7998  -0.7976  -0.3697  -0.1616  -0.0952
     0.0710   0.0875   0.1986   0.8161   0.8277   1.0565   1.6073   1.6954
     1.8196   1.8569   1.9413   1.9987   2.1685   2.1702   2.3639   2.5287
     2.5379   2.5556   2.6164   2.6917   2.8361

          k = 0.0261 0.0452 0.0000 ( 22675 PWs)   bands (ev):

   -61.0411 -61.0021 -60.9797 -60.9779 -60.9779 -60.9718 -60.9625 -60.9580
   -60.5687 -60.5500 -60.5460 -60.5059 -29.7324 -29.7067 -29.7014 -29.6919
   -29.6777 -29.6694 -29.6593 -29.6180 -29.5710 -29.5660 -29.5594 -29.5370
   -29.5202 -29.5039 -29.4351 -29.4329 -29.3587 -29.3511 -29.3491 -29.3477
   -29.3263 -29.3105 -29.2457 -29.2444 -29.2355 -29.2109 -29.2071 -29.0250
   -29.0229 -29.0220 -29.0102 -28.9688 -28.9350 -28.9312 -28.9017 -28.8312
   -12.9739  -4.8052  -4.0873  -2.8023  -1.9889  -1.8596  -1.6220  -1.4983
    -1.3523  -0.9224  -0.7954  -0.6223  -0.5030  -0.1531  -0.0274   0.1599
     0.2448   0.2825   0.3841   0.8370   0.8636   1.0839   1.4841   1.5104
     1.6173   1.6304   1.6918   1.7492   1.9198   2.0695   2.1262   2.2512
     2.2836   2.3548   2.4088   2.5485   2.5906

          k = 0.0261-0.1054 0.0000 ( 22643 PWs)   bands (ev):

   -61.0401 -60.9948 -60.9862 -60.9797 -60.9752 -60.9709 -60.9664 -60.9578
   -60.5631 -60.5546 -60.5464 -60.5065 -29.6833 -29.6642 -29.6588 -29.6444
   -29.6218 -29.6075 -29.5990 -29.5702 -29.5620 -29.5576 -29.5480 -29.5375
   -29.5342 -29.5183 -29.5022 -29.4968 -29.4416 -29.4296 -29.3796 -29.3724
   -29.3235 -29.3164 -29.2786 -29.2640 -29.2036 -29.1679 -29.1242 -29.0773
   -29.0218 -29.0211 -29.0200 -29.0093 -28.9671 -28.9556 -28.9023 -28.8611
   -12.9702  -4.6455  -3.5007  -2.6965  -2.2838  -1.9419  -1.6487  -1.3768
    -1.0376  -0.7806  -0.5736  -0.3109  -0.1515  -0.0441   0.3660   0.4790
     0.5751   0.5893   0.6880   0.9022   0.9845   1.0637   1.0876   1.2307
     1.3027   1.3375   1.4203   1.4499   1.5538   1.6655   1.7195   1.8429
     1.8853   1.9292   2.1231   2.2386   2.6686

          k = 0.0261-0.0753 0.0000 ( 22643 PWs)   bands (ev):

   -61.0401 -60.9948 -60.9862 -60.9797 -60.9752 -60.9708 -60.9664 -60.9578
   -60.5631 -60.5546 -60.5464 -60.5065 -29.6833 -29.6642 -29.6588 -29.6444
   -29.6218 -29.6075 -29.5990 -29.5702 -29.5620 -29.5576 -29.5480 -29.5375
   -29.5342 -29.5183 -29.5022 -29.4968 -29.4416 -29.4296 -29.3796 -29.3724
   -29.3235 -29.3164 -29.2786 -29.2640 -29.2036 -29.1679 -29.1242 -29.0774
   -29.0218 -29.0211 -29.0200 -29.0093 -28.9671 -28.9556 -28.9023 -28.8611
   -12.9702  -4.6455  -3.5007  -2.6965  -2.2838  -1.9418  -1.6487  -1.3768
    -1.0376  -0.7806  -0.5736  -0.3109  -0.1515  -0.0441   0.3660   0.4790
     0.5751   0.5893   0.6880   0.9022   0.9845   1.0637   1.0876   1.2307
     1.3026   1.3375   1.4203   1.4499   1.5538   1.6655   1.7195   1.8429
     1.8853   1.9292   2.1231   2.2386   2.6686

          k = 0.0261-0.0452 0.0000 ( 22675 PWs)   bands (ev):

   -61.0411 -61.0021 -60.9797 -60.9779 -60.9779 -60.9718 -60.9624 -60.9580
   -60.5687 -60.5500 -60.5460 -60.5059 -29.7324 -29.7067 -29.7015 -29.6919
   -29.6777 -29.6694 -29.6593 -29.6180 -29.5710 -29.5660 -29.5594 -29.5370
   -29.5202 -29.5039 -29.4351 -29.4329 -29.3587 -29.3511 -29.3491 -29.3477
   -29.3263 -29.3105 -29.2457 -29.2444 -29.2355 -29.2109 -29.2071 -29.0250
   -29.0229 -29.0220 -29.0102 -28.9688 -28.9350 -28.9312 -28.9017 -28.8312
   -12.9739  -4.8052  -4.0873  -2.8023  -1.9889  -1.8596  -1.6220  -1.4983
    -1.3523  -0.9224  -0.7954  -0.6223  -0.5030  -0.1531  -0.0275   0.1599
     0.2448   0.2825   0.3841   0.8370   0.8636   1.0839   1.4841   1.5104
     1.6173   1.6304   1.6918   1.7492   1.9198   2.0695   2.1262   2.2512
     2.2837   2.3548   2.4088   2.5485   2.5906

          k = 0.0521-0.0301 0.0000 ( 22648 PWs)   bands (ev):

   -61.0407 -61.0001 -60.9831 -60.9773 -60.9754 -60.9729 -60.9632 -60.9582
   -60.5671 -60.5516 -60.5458 -60.5062 -29.7179 -29.7012 -29.6845 -29.6811
   -29.6742 -29.6465 -29.6226 -29.6121 -29.5723 -29.5593 -29.5570 -29.5401
   -29.5192 -29.5096 -29.4315 -29.4191 -29.4181 -29.4115 -29.3607 -29.3443
   -29.3211 -29.3137 -29.2511 -29.2412 -29.2302 -29.2110 -29.1741 -29.0239
   -29.0228 -29.0218 -29.0007 -28.9931 -28.9674 -28.9336 -28.9009 -28.8357
   -12.9726  -4.7464  -3.9460  -2.6996  -2.3478  -1.7147  -1.5362  -1.3527
    -1.1192  -1.0301  -0.8178  -0.5353  -0.4536  -0.1739   0.1487   0.2905
     0.3421   0.3734   0.4672   0.8439   0.9063   1.0878   1.3029   1.5088
     1.5309   1.5596   1.6023   1.6784   1.8444   1.8628   2.0231   2.1516
     2.1590   2.2433   2.3226   2.5362   2.5367

          k = 0.0521 0.0000 0.0000 ( 22675 PWs)   bands (ev):

   -61.0411 -61.0021 -60.9797 -60.9779 -60.9779 -60.9718 -60.9624 -60.9580
   -60.5687 -60.5500 -60.5460 -60.5059 -29.7324 -29.7067 -29.7015 -29.6919
   -29.6777 -29.6694 -29.6593 -29.6180 -29.5710 -29.5660 -29.5594 -29.5370
   -29.5202 -29.5039 -29.4351 -29.4329 -29.3587 -29.3511 -29.3491 -29.3477
   -29.3263 -29.3105 -29.2457 -29.2444 -29.2355 -29.2109 -29.2071 -29.0250
   -29.0229 -29.0220 -29.0102 -28.9688 -28.9350 -28.9312 -28.9017 -28.8312
   -12.9739  -4.8052  -4.0873  -2.8023  -1.9889  -1.8596  -1.6220  -1.4983
    -1.3523  -0.9224  -0.7954  -0.6223  -0.5030  -0.1531  -0.0274   0.1599
     0.2448   0.2825   0.3841   0.8370   0.8636   1.0839   1.4841   1.5104
     1.6173   1.6304   1.6918   1.7492   1.9198   2.0695   2.1262   2.2512
     2.2836   2.3548   2.4088   2.5485   2.5906

          k = 0.0521 0.0301 0.0000 ( 22648 PWs)   bands (ev):

   -61.0407 -61.0001 -60.9831 -60.9773 -60.9754 -60.9729 -60.9632 -60.9582
   -60.5671 -60.5516 -60.5458 -60.5062 -29.7179 -29.7012 -29.6845 -29.6811
   -29.6742 -29.6465 -29.6226 -29.6121 -29.5723 -29.5593 -29.5570 -29.5401
   -29.5192 -29.5096 -29.4315 -29.4191 -29.4182 -29.4115 -29.3607 -29.3443
   -29.3211 -29.3137 -29.2511 -29.2412 -29.2302 -29.2110 -29.1741 -29.0239
   -29.0228 -29.0218 -29.0007 -28.9931 -28.9674 -28.9336 -28.9009 -28.8357
   -12.9726  -4.7464  -3.9460  -2.6996  -2.3478  -1.7147  -1.5362  -1.3527
    -1.1192  -1.0301  -0.8178  -0.5353  -0.4536  -0.1739   0.1488   0.2905
     0.3421   0.3734   0.4672   0.8439   0.9063   1.0878   1.3029   1.5087
     1.5309   1.5596   1.6023   1.6784   1.8443   1.8628   2.0231   2.1516
     2.1589   2.2433   2.3226   2.5362   2.5367

          k = 0.0521-0.1204 0.0000 ( 22643 PWs)   bands (ev):

   -61.0401 -60.9948 -60.9862 -60.9797 -60.9752 -60.9709 -60.9664 -60.9578
   -60.5631 -60.5546 -60.5464 -60.5065 -29.6833 -29.6642 -29.6588 -29.6444
   -29.6218 -29.6075 -29.5990 -29.5702 -29.5620 -29.5576 -29.5480 -29.5375
   -29.5342 -29.5183 -29.5022 -29.4968 -29.4416 -29.4296 -29.3796 -29.3724
   -29.3235 -29.3164 -29.2786 -29.2640 -29.2036 -29.1679 -29.1242 -29.0773
   -29.0218 -29.0211 -29.0200 -29.0093 -28.9671 -28.9556 -28.9023 -28.8611
   -12.9702  -4.6455  -3.5007  -2.6965  -2.2838  -1.9419  -1.6487  -1.3769
    -1.0376  -0.7806  -0.5736  -0.3109  -0.1515  -0.0441   0.3660   0.4790
     0.5751   0.5893   0.6880   0.9022   0.9845   1.0637   1.0877   1.2307
     1.3026   1.3375   1.4203   1.4498   1.5538   1.6655   1.7195   1.8429
     1.8853   1.9292   2.1231   2.2386   2.6686

          k = 0.0521-0.0903 0.0000 ( 22614 PWs)   bands (ev):

   -61.0397 -60.9883 -60.9882 -60.9852 -60.9725 -60.9698 -60.9698 -60.9575
   -60.5584 -60.5584 -60.5471 -60.5067 -29.6570 -29.6323 -29.6136 -29.6058
   -29.5994 -29.5933 -29.5858 -29.5850 -29.5617 -29.5490 -29.5371 -29.5321
   -29.5316 -29.5284 -29.5243 -29.5168 -29.5081 -29.5020 -29.3391 -29.3367
   -29.3277 -29.3268 -29.3262 -29.2925 -29.1535 -29.1527 -29.1000 -29.0906
   -29.0895 -29.0205 -29.0198 -29.0196 -28.9655 -28.9219 -28.9023 -28.9023
   -12.9690  -4.6027  -2.8401  -2.8038  -2.6756  -1.8796  -1.8216  -1.3270
[...]
   -60.3476 -60.3225 -60.3211 -60.2929 -29.6551 -29.6544 -29.6406 -29.5730
   -29.5275 -29.5125 -29.5036 -29.4822 -29.4754 -29.4740 -29.4117 -29.3549
   -29.3251 -29.3218 -29.2836 -29.2819 -29.2546 -29.1730 -29.1441 -29.1266
   -29.1173 -29.0864 -29.0310 -29.0294 -29.0138 -28.9943 -28.9616 -28.8025
   -28.8020 -28.7844 -28.7630 -28.7408 -28.7368 -28.7123 -28.6340 -28.6074
   -14.1485  -5.6679  -4.4425  -3.0612  -2.6269  -2.6057  -1.7937  -1.5144
    -1.2312  -1.1774  -0.9264  -0.8070  -0.7884  -0.2357  -0.1476  -0.1000
     0.1084   0.1206   0.3583   0.8744   0.8836   1.1970   1.6543   1.7983
     1.9253   1.9610   1.9905   2.1045   2.3089   2.3144   2.6214   2.6930
     2.7062   2.7573   2.8051   2.8597   2.8670

          k = 0.0261 0.0452 0.0000 ( 22675 PWs)   bands (ev):

   -60.9203 -60.8972 -60.8969 -60.8907 -60.7035 -60.6802 -60.6778 -60.6720
   -60.3439 -60.3251 -60.3214 -60.2936 -29.6295 -29.5950 -29.5945 -29.5561
   -29.4936 -29.4857 -29.4822 -29.4664 -29.4556 -29.4449 -29.4051 -29.3597
   -29.3489 -29.3306 -29.3129 -29.2652 -29.2633 -29.2397 -29.1923 -29.1621
   -29.1115 -29.0948 -29.0749 -29.0135 -28.9878 -28.9863 -28.9738 -28.8027
   -28.7992 -28.7928 -28.7788 -28.7575 -28.7220 -28.7216 -28.6939 -28.6245
   -14.1398  -5.5703  -4.1121  -2.9387  -2.5825  -2.4127  -1.7094  -1.6144
    -1.3455  -0.8456  -0.8014  -0.6824  -0.4696  -0.0702   0.0225   0.1769
     0.2995   0.3273   0.4929   0.8956   0.9100   1.1657   1.4801   1.6417
     1.6817   1.7257   1.7400   1.8349   1.9771   2.1293   2.2380   2.3231
     2.4150   2.4679   2.5221   2.7250   2.8145

          k = 0.0261-0.1054 0.0000 ( 22643 PWs)   bands (ev):

   -60.9129 -60.9044 -60.8982 -60.8896 -60.6959 -60.6868 -60.6800 -60.6709
   -60.3381 -60.3298 -60.3219 -60.2943 -29.5793 -29.5469 -29.5286 -29.5091
   -29.4781 -29.4769 -29.4574 -29.4451 -29.4212 -29.4071 -29.3984 -29.3708
   -29.3478 -29.3398 -29.3267 -29.3087 -29.2900 -29.2696 -29.2322 -29.1978
   -29.1945 -29.1375 -29.0696 -29.0193 -28.9740 -28.9458 -28.9059 -28.8617
   -28.8050 -28.7959 -28.7914 -28.7690 -28.7538 -28.7440 -28.6924 -28.6544
   -14.1311  -5.4716  -3.5397  -2.9326  -2.5614  -2.3323  -1.8694  -1.6192
    -1.1587  -0.7214  -0.5779  -0.2965  -0.0808  -0.0270   0.4275   0.4880
     0.5965   0.6419   0.7485   0.9156   1.0035   1.0948   1.1474   1.2869
     1.3642   1.4121   1.4867   1.5503   1.6062   1.7547   1.8167   1.9288
     2.0105   2.0592   2.1755   2.3527   2.8127

          k = 0.0261-0.0753 0.0000 ( 22643 PWs)   bands (ev):

   -60.9129 -60.9044 -60.8982 -60.8896 -60.6959 -60.6868 -60.6801 -60.6709
   -60.3381 -60.3298 -60.3219 -60.2943 -29.5793 -29.5469 -29.5286 -29.5091
   -29.4781 -29.4769 -29.4574 -29.4451 -29.4212 -29.4071 -29.3983 -29.3708
   -29.3478 -29.3398 -29.3268 -29.3087 -29.2900 -29.2695 -29.2322 -29.1978
   -29.1945 -29.1375 -29.0696 -29.0193 -28.9740 -28.9458 -28.9059 -28.8617
   -28.8050 -28.7959 -28.7914 -28.7690 -28.7538 -28.7440 -28.6924 -28.6545
   -14.1311  -5.4716  -3.5396  -2.9326  -2.5614  -2.3324  -1.8694  -1.6193
    -1.1588  -0.7214  -0.5778  -0.2965  -0.0808  -0.0270   0.4275   0.4880
     0.5966   0.6419   0.7484   0.9155   1.0036   1.0947   1.1473   1.2870
     1.3643   1.4120   1.4867   1.5503   1.6061   1.7545   1.8167   1.9287
     2.0105   2.0593   2.1754   2.3527   2.8128

          k = 0.0261-0.0452 0.0000 ( 22675 PWs)   bands (ev):

   -60.9203 -60.8972 -60.8969 -60.8907 -60.7035 -60.6801 -60.6780 -60.6720
   -60.3439 -60.3252 -60.3213 -60.2936 -29.6295 -29.5950 -29.5945 -29.5561
   -29.4936 -29.4857 -29.4822 -29.4664 -29.4556 -29.4449 -29.4051 -29.3597
   -29.3489 -29.3307 -29.3129 -29.2652 -29.2633 -29.2397 -29.1922 -29.1621
   -29.1116 -29.0948 -29.0749 -29.0136 -28.9878 -28.9863 -28.9738 -28.8028
   -28.7991 -28.7929 -28.7788 -28.7575 -28.7220 -28.7216 -28.6939 -28.6245
   -14.1398  -5.5704  -4.1121  -2.9386  -2.5825  -2.4126  -1.7094  -1.6144
    -1.3455  -0.8456  -0.8014  -0.6824  -0.4697  -0.0701   0.0226   0.1768
     0.2995   0.3273   0.4928   0.8955   0.9100   1.1657   1.4801   1.6417
     1.6817   1.7257   1.7400   1.8349   1.9771   2.1292   2.2380   2.3231
     2.4149   2.4678   2.5219   2.7252   2.8145

          k = 0.0521-0.0301 0.0000 ( 22648 PWs)   bands (ev):

   -60.9183 -60.9013 -60.8929 -60.8926 -60.7014 -60.6836 -60.6753 -60.6733
   -60.3423 -60.3269 -60.3210 -60.2939 -29.6078 -29.6073 -29.5498 -29.5482
   -29.4899 -29.4766 -29.4707 -29.4660 -29.4625 -29.4055 -29.4018 -29.3590
   -29.3411 -29.3406 -29.3190 -29.3088 -29.2726 -29.2313 -29.1797 -29.1771
   -29.1675 -29.1122 -29.0641 -29.0042 -28.9905 -28.9781 -28.9537 -28.8005
   -28.7986 -28.7869 -28.7868 -28.7704 -28.7549 -28.7238 -28.6909 -28.6290
   -14.1369  -5.5373  -3.9588  -2.9547  -2.4973  -2.3837  -2.0300  -1.2823
    -1.0552  -1.0196  -0.8556  -0.4867  -0.4583  -0.1255   0.2235   0.2933
     0.3856   0.4315   0.5605   0.9034   0.9559   1.1318   1.3598   1.5438
     1.5845   1.6224   1.6876   1.7792   1.8788   1.9493   2.1053   2.2468
     2.2647   2.3769   2.4358   2.6827   2.7057

          k = 0.0521 0.0000 0.0000 ( 22675 PWs)   bands (ev):

   -60.9203 -60.8972 -60.8969 -60.8907 -60.7035 -60.6802 -60.6778 -60.6720
   -60.3439 -60.3251 -60.3214 -60.2936 -29.6295 -29.5950 -29.5945 -29.5561
   -29.4936 -29.4857 -29.4822 -29.4664 -29.4556 -29.4449 -29.4051 -29.3597
   -29.3489 -29.3306 -29.3129 -29.2652 -29.2633 -29.2397 -29.1923 -29.1621
   -29.1115 -29.0948 -29.0749 -29.0135 -28.9878 -28.9863 -28.9738 -28.8027
   -28.7991 -28.7928 -28.7788 -28.7575 -28.7220 -28.7216 -28.6939 -28.6245
   -14.1398  -5.5703  -4.1121  -2.9386  -2.5825  -2.4127  -1.7094  -1.6144
    -1.3455  -0.8456  -0.8014  -0.6824  -0.4696  -0.0702   0.0225   0.1769
     0.2995   0.3273   0.4929   0.8956   0.9100   1.1657   1.4801   1.6417
     1.6817   1.7257   1.7400   1.8349   1.9771   2.1293   2.2380   2.3231
     2.4150   2.4679   2.5221   2.7251   2.8145

          k = 0.0521 0.0301 0.0000 ( 22648 PWs)   bands (ev):

   -60.9183 -60.9013 -60.8929 -60.8926 -60.7014 -60.6837 -60.6751 -60.6734
   -60.3423 -60.3268 -60.3211 -60.2939 -29.6078 -29.6073 -29.5498 -29.5482
   -29.4899 -29.4766 -29.4707 -29.4660 -29.4624 -29.4054 -29.4019 -29.3590
   -29.3411 -29.3406 -29.3189 -29.3089 -29.2726 -29.2313 -29.1798 -29.1770
   -29.1675 -29.1122 -29.0641 -29.0042 -28.9905 -28.9781 -28.9537 -28.8004
   -28.7987 -28.7869 -28.7868 -28.7703 -28.7549 -28.7238 -28.6910 -28.6289
   -14.1368  -5.5372  -3.9589  -2.9549  -2.4973  -2.3837  -2.0300  -1.2823
    -1.0552  -1.0196  -0.8556  -0.4866  -0.4583  -0.1256   0.2235   0.2934
     0.3855   0.4316   0.5606   0.9033   0.9559   1.1318   1.3597   1.5438
     1.5845   1.6224   1.6877   1.7793   1.8788   1.9494   2.1053   2.2469
     2.2648   2.3769   2.4358   2.6825   2.7058

          k = 0.0521-0.1204 0.0000 ( 22643 PWs)   bands (ev):

   -60.9129 -60.9044 -60.8982 -60.8896 -60.6958 -60.6868 -60.6800 -60.6709
   -60.3382 -60.3297 -60.3220 -60.2943 -29.5793 -29.5469 -29.5286 -29.5091
   -29.4781 -29.4769 -29.4574 -29.4451 -29.4212 -29.4071 -29.3983 -29.3709
   -29.3478 -29.3397 -29.3267 -29.3087 -29.2900 -29.2696 -29.2322 -29.1978
   -29.1945 -29.1375 -29.0695 -29.0194 -28.9740 -28.9458 -28.9059 -28.8617
   -28.8050 -28.7960 -28.7913 -28.7690 -28.7538 -28.7440 -28.6924 -28.6544
   -14.1311  -5.4715  -3.5397  -2.9327  -2.5613  -2.3323  -1.8695  -1.6192
    -1.1587  -0.7214  -0.5778  -0.2965  -0.0808  -0.0271   0.4275   0.4879
     0.5965   0.6419   0.7486   0.9156   1.0036   1.0946   1.1472   1.2870
     1.3642   1.4121   1.4867   1.5504   1.6062   1.7547   1.8167   1.9288
     2.0105   2.0593   2.1754   2.3526   2.8124

          k = 0.0521-0.0903 0.0000 ( 22614 PWs)   bands (ev):

   -60.9057 -60.9057 -60.9053 -60.8884 -60.6899 -60.6871 -60.6868 -60.6697
   -60.3336 -60.3331 -60.3230 -60.2944 -29.5211 -29.5094 -29.5068 -29.5065
   -29.5044 -29.4545 -29.4518 -29.4513 -29.4499 -29.3859 -29.3835 -29.3726
   -29.3662 -29.3351 -29.3105 -29.3041 -29.2984 -29.2808 -29.2428 -29.2405
   -29.2402 -29.0975 -29.0854 -29.0530 -28.9456 -28.9146 -28.8829 -28.8778
   -28.8732 -28.7956 -28.7886 -28.7710 -28.7513 -28.7102 -28.6963 -28.6943
   -14.1282  -5.4389  -3.1913  -2.8699  -2.5973  -2.3401  -2.2060  -1.3564
    -1.1610  -1.0316  -0.0068   0.0033   0.1189   0.1527   0.2424   0.3802
     0.7022   0.8178   0.8665   0.8859   0.9322   1.0560   1.0935   1.1536
     1.1875   1.2404   1.2974   1.5882   1.6319   1.6429   1.7703   1.7838
     1.8678   1.8833   1.9145   2.1088   2.8063

          k = 0.0521-0.0602 0.0000 ( 22643 PWs)   bands (ev):

   -60.9129 -60.9044 -60.8982 -60.8896 -60.6959 -60.6868 -60.6801 -60.6709
   -60.3381 -60.3298 -60.3219 -60.2943 -29.5793 -29.5469 -29.5286 -29.5091
   -29.4781 -29.4769 -29.4574 -29.4451 -29.4212 -29.4071 -29.3983 -29.3708
   -29.3478 -29.3398 -29.3268 -29.3087 -29.2900 -29.2695 -29.2322 -29.1978
   -29.1945 -29.1375 -29.0696 -29.0193 -28.9740 -28.9458 -28.9059 -28.8617
   -28.8050 -28.7959 -28.7914 -28.7690 -28.7538 -28.7440 -28.6924 -28.6545
   -14.1311  -5.4716  -3.5396  -2.9326  -2.5614  -2.3323  -1.8694  -1.6193
    -1.1587  -0.7214  -0.5778  -0.2965  -0.0808  -0.0270   0.4275   0.4880
     0.5966   0.6419   0.7484   0.9155   1.0036   1.0947   1.1473   1.2870
     1.3643   1.4120   1.4867   1.5503   1.6061   1.7545   1.8167   1.9287
     2.0105   2.0593   2.1754   2.3527   2.8128

          k =-0.0782 0.0452 0.0000 ( 22668 PWs)   bands (ev):

   -60.9100 -60.9097 -60.8929 -60.8926 -60.6935 -60.6914 -60.6754 -60.6733
   -60.3374 -60.3313 -60.3210 -60.2944 -29.5755 -29.5752 -29.5205 -29.5173
   -29.4640 -29.4633 -29.4385 -29.4367 -29.4231 -29.4163 -29.3856 -29.3708
   -29.3706 -29.3629 -29.3256 -29.3077 -29.2682 -29.2501 -29.2154 -29.2092
   -29.2001 -29.1990 -29.0435 -29.0121 -28.9686 -28.9658 -28.8548 -28.8497
   -28.8212 -28.8149 -28.7944 -28.7868 -28.7677 -28.7514 -28.6681 -28.6521
   -14.1311  -5.4710  -3.4403  -3.1043  -2.5814  -2.4418  -1.7723  -1.4503
    -0.8928  -0.8731  -0.5555  -0.3068  -0.2694  -0.2574   0.5262   0.6353
     0.6615   0.7226   0.8412   0.8717   1.0721   1.1175   1.1986   1.2439
     1.3037   1.3297   1.4771   1.5367   1.6063   1.7017   1.7176   1.8900
     2.0046   2.1268   2.1666   2.6389   2.6756

          k =-0.0782 0.0753 0.0000 ( 22643 PWs)   bands (ev):

   -60.9129 -60.9044 -60.8982 -60.8896 -60.6959 -60.6868 -60.6800 -60.6709
   -60.3381 -60.3298 -60.3219 -60.2943 -29.5793 -29.5469 -29.5286 -29.5091
   -29.4781 -29.4769 -29.4574 -29.4451 -29.4212 -29.4071 -29.3984 -29.3708
   -29.3478 -29.3398 -29.3267 -29.3087 -29.2900 -29.2696 -29.2322 -29.1978
   -29.1945 -29.1375 -29.0696 -29.0193 -28.9740 -28.9458 -28.9059 -28.8617
   -28.8050 -28.7959 -28.7914 -28.7690 -28.7538 -28.7440 -28.6924 -28.6544
   -14.1311  -5.4716  -3.5397  -2.9326  -2.5614  -2.3323  -1.8694  -1.6192
    -1.1587  -0.7214  -0.5779  -0.2965  -0.0808  -0.0270   0.4275   0.4880
     0.5965   0.6419   0.7485   0.9156   1.0035   1.0948   1.1474   1.2869
     1.3642   1.4121   1.4867   1.5502   1.6062   1.7547   1.8167   1.9288
     2.0105   2.0592   2.1755   2.3527   2.8127

          k =-0.0782 0.1054 0.0000 ( 22643 PWs)   bands (ev):

   -60.9129 -60.9044 -60.8982 -60.8896 -60.6958 -60.6868 -60.6800 -60.6709
   -60.3382 -60.3297 -60.3220 -60.2943 -29.5793 -29.5469 -29.5286 -29.5091
   -29.4781 -29.4769 -29.4574 -29.4451 -29.4212 -29.4071 -29.3983 -29.3709
   -29.3478 -29.3397 -29.3267 -29.3087 -29.2900 -29.2696 -29.2322 -29.1978
   -29.1945 -29.1375 -29.0695 -29.0194 -28.9740 -28.9458 -28.9059 -28.8617
   -28.8050 -28.7960 -28.7913 -28.7690 -28.7538 -28.7440 -28.6924 -28.6544
   -14.1311  -5.4715  -3.5397  -2.9327  -2.5613  -2.3323  -1.8695  -1.6192
    -1.1587  -0.7214  -0.5778  -0.2965  -0.0808  -0.0271   0.4275   0.4879
     0.5965   0.6419   0.7486   0.9156   1.0036   1.0946   1.1472   1.2870
     1.3642   1.4121   1.4867   1.5504   1.6062   1.7547   1.8167   1.9288
     2.0105   2.0593   2.1754   2.3526   2.8124

          k =-0.0782-0.0452 0.0000 ( 22668 PWs)   bands (ev):

   -60.9100 -60.9097 -60.8929 -60.8926 -60.6934 -60.6916 -60.6752 -60.6734
   -60.3375 -60.3311 -60.3211 -60.2943 -29.5755 -29.5752 -29.5205 -29.5173
   -29.4640 -29.4633 -29.4386 -29.4365 -29.4231 -29.4163 -29.3856 -29.3708
   -29.3705 -29.3630 -29.3255 -29.3078 -29.2681 -29.2503 -29.2155 -29.2091
   -29.2001 -29.1990 -29.0433 -29.0122 -28.9687 -28.9657 -28.8549 -28.8496
   -28.8213 -28.8149 -28.7945 -28.7867 -28.7676 -28.7515 -28.6682 -28.6520
   -14.1311  -5.4709  -3.4406  -3.1043  -2.5814  -2.4418  -1.7723  -1.4504
    -0.8928  -0.8731  -0.5555  -0.3070  -0.2696  -0.2573   0.5262   0.6352
     0.6617   0.7225   0.8412   0.8718   1.0720   1.1173   1.1984   1.2438
     1.3037   1.3299   1.4770   1.5369   1.6063   1.7018   1.7177   1.8904
     2.0049   2.1270   2.1660   2.6388   2.6756

     the Fermi energy is     1.7058 ev

!    total energy              =   -1948.38373526 Ry
     Harris-Foulkes estimate   =   -1948.38373497 Ry
     estimated scf accuracy    <          4.4E-09 Ry

     The total energy is the sum of the following terms:

     one-electron contribution =   -8867.50027570 Ry
     hartree contribution      =    4420.78853044 Ry
     xc contribution           =    -934.48885719 Ry
     ewald contribution        =    3432.92663879 Ry
     electric field correction =       0.00016842 Ry
     smearing contrib. (-TS)   =      -0.10994001 Ry

     convergence has been achieved in  13 iterations
 
 BEEF-vdW xc energy contributions
           1 :   -844.829239389690     
           2 :    785.192453845037     
           3 :   -679.449768482504     
           4 :    549.385204684395     
           5 :   -417.615146679889     
           6 :    301.261305903707     
           7 :   -209.110475459436     
           8 :    142.425816502595     
           9 :   -97.9383480875716     
          10 :    70.8559748808976     
          11 :   -56.5189335970304     
          12 :    50.5789510613827     
          13 :   -48.6235089733153     
          14 :    46.2145844102478     
          15 :   -39.7191800075890     
          16 :    27.4789609604926     
          17 :   -10.5174635338062     
          18 :   -7.82407616967464     
          19 :    23.2711049490009     
          20 :   -32.3811658924777     
          21 :    33.8244730952932     
          22 :   -28.6427575839134     
          23 :    19.5174120207520     
          24 :   -9.58573682650069     
          25 :    1.43898552750113     
          26 :    3.32689652907345     
          27 :   -4.07308181827943     
          28 :   0.907977526883542     
          29 :    5.41479507718134     
          30 :   -13.4784035804252     
          31 :   -60.8925284621334     
          32 :   -43.7969699737349     

     Forces acting on atoms (Ry/au):


     negative rho (up, down):  1.378E+00 0.000E+00
     atom    1 type  1   force =    -0.00001463   -0.00000849    0.01583914
     atom    2 type  1   force =     0.00000603    0.00116910    0.02020728
     atom    3 type  1   force =     0.00101540   -0.00057949    0.02020732
     atom    4 type  1   force =    -0.00102788   -0.00059357    0.02017808
     atom    5 type  1   force =     0.00541963   -0.00312037   -0.01786677
     atom    6 type  1   force =    -0.00543504   -0.00313676   -0.01788053
     atom    7 type  1   force =     0.00000099   -0.00000094   -0.02274081
     atom    8 type  1   force =     0.00000627    0.00625556   -0.01787324
     atom    9 type  1   force =    -0.00023237   -0.00012713   -0.00012240
     atom   10 type  1   force =     0.00022381   -0.00019817   -0.00002388
     atom   11 type  1   force =    -0.00006625    0.00029183   -0.00002476
     atom   12 type  1   force =     0.00005522    0.00002238    0.00017841
     atom   13 type  2   force =     0.00005330    0.00002875   -0.00032697
     atom   14 type  3   force =    -0.00000450   -0.00000271    0.00024913

     Total force =     0.000688     Total SCF correction =     0.000243
     SCF correction compared to forces is large: reduce conv_thr to get better values


     entering subroutine stress ...


     negative rho (up, down):  1.378E+00 0.000E+00
          total   stress  (Ry/bohr**3)                   (kbar)     P=  -13.83
  -0.00009718  -0.00000000   0.00000000        -14.30     -0.00      0.00
  -0.00000000  -0.00009718   0.00000000         -0.00    -14.30      0.00
   0.00000000   0.00000000  -0.00008762          0.00      0.00    -12.89


     bfgs converged in  14 scf cycles and  13 bfgs steps
     (criteria: energy <  1.0E+00, force <  1.9E-03)

     End of BFGS Geometry Optimization

     Final energy   =   -1948.3837352555 Ry
Begin final coordinates

ATOMIC_POSITIONS (crystal)
Hf1      0.166666667   0.166666667   0.396510335    0   0   0
Hf1      0.666666667   0.166666667   0.396510335    0   0   0
Hf1      0.166666667   0.666666667   0.396510335    0   0   0
Hf1      0.666666667   0.666666667   0.396510335    0   0   0
Hf1      0.833333333   0.333333333   0.500000000    0   0   0
Hf1      0.333333333   0.333333333   0.500000000    0   0   0
Hf1      0.833333333   0.833333333   0.500000000    0   0   0
Hf1      0.333333333   0.833333333   0.500000000    0   0   0
Hf1     -0.000408801  -0.000413890   0.599266694
Hf1      0.500844044  -0.000377252   0.599266328
Hf1     -0.000374944   0.500845443   0.599266833
Hf1      0.499981893   0.499992927   0.593541601
N1       0.166651937   0.166654475   0.643286184
H1       0.166657980   0.166657930   0.684032294
End final coordinates



     Writing output data file calc.save
 
     init_run     :      9.17s CPU     12.27s WALL (       1 calls)
     electrons    :   4229.74s CPU   5456.66s WALL (      14 calls)
     update_pot   :     21.35s CPU     24.45s WALL (      13 calls)
     forces       :    129.30s CPU    137.15s WALL (      14 calls)
     stress       :    376.93s CPU    398.28s WALL (      14 calls)

     Called by init_run:
     wfcinit      :      5.78s CPU      8.31s WALL (       1 calls)
     potinit      :      0.83s CPU      1.02s WALL (       1 calls)

     Called by electrons:
     c_bands      :   2819.64s CPU   3704.41s WALL (     233 calls)
     sum_band     :    681.32s CPU    838.39s WALL (     233 calls)
     v_of_rho     :    128.17s CPU    171.77s WALL (     247 calls)
     newd         :    399.85s CPU    462.45s WALL (     247 calls)
     mix_rho      :      4.50s CPU      6.08s WALL (     233 calls)
     vdW_energy   :     78.45s CPU    101.52s WALL (     751 calls)
     vdW_ffts     :    122.00s CPU    168.49s WALL (    1530 calls)
     vdW_v        :     50.06s CPU     60.03s WALL (     751 calls)

     Called by c_bands:
     init_us_2    :     31.46s CPU     36.91s WALL (    9900 calls)
     cegterg      :   2564.93s CPU   3439.69s WALL (    4679 calls)

     Called by *egterg:
     h_psi        :   1533.88s CPU   2267.84s WALL (   25976 calls)
     s_psi        :    166.22s CPU    174.28s WALL (   25976 calls)
     g_psi        :     12.91s CPU     13.25s WALL (   21277 calls)
     cdiaghg      :    451.29s CPU    462.66s WALL (   25696 calls)

     Called by h_psi:
     add_vuspsi   :    168.11s CPU    176.34s WALL (   25976 calls)

     General routines
     calbec       :    220.94s CPU    226.61s WALL (   31196 calls)
     fft          :    188.70s CPU    259.46s WALL (   45757 calls)
     ffts         :      0.41s CPU      0.69s WALL (     480 calls)
     fftw         :   1112.93s CPU   1962.65s WALL ( 2540930 calls)
     interpolate  :      2.43s CPU      4.32s WALL (     480 calls)
     davcio       :      0.00s CPU      0.06s WALL (      20 calls)
 
     Parallel routines
     fft_scatter  :    750.65s CPU   1260.12s WALL ( 2587167 calls)
 
     PWSCF        :     1h19m CPU        1h41m WALL

 
   This run was terminated on:   3:57: 6  18Apr2018            

=------------------------------------------------------------------------------=
   JOB DONE.
=------------------------------------------------------------------------------=
