  python dir          : /u/if/mamunm/src/espresso
  espresso dir        : /nfs/slac/g/suncatfs/sw/espv18/espresso-dynpy-beef/bin
  pseudo dir          : /u/if/mamunm/psp/gbrv1.5pbe
  ase-espresso py git : GITVERSION



     Program PWSCF v.5.1rc2 (svn rev. 11289) starts on  2May2018 at 17:15:27 

     This program is part of the open-source Quantum ESPRESSO suite
     for quantum simulation of materials; please cite
         "P. Giannozzi et al., J. Phys.:Condens. Matter 21 395502 (2009);
          URL http://www.quantum-espresso.org", 
     in publications or presentations arising from this work. More details at
     http://www.quantum-espresso.org/quote

     Parallel version (MPI), running on    32 processors
     K-points division:     npool     =       4
     R & G space division:  proc/nbgrp/npool/nimage =       8
     Reading input from pw.inp
     Message from routine read_cards :
     DEPRECATED: no units specified in CELL_PARAMETERS card

     Current dimensions of program PWSCF are:
     Max number of different atomic species (ntypx) = 10
     Max number of k-points (npk) =  40000
     Max angular momentum in pseudopotentials (lmaxx) =  3
     Presently stress not available with electric field


     **************************************************************************
     Initializing libbeef V0.1.1 with the BEEF-vdW functional.
     Citation: Wellendorff et al., PRB 85, 235149 (2012).
     **************************************************************************


     IMPORTANT: XC functional enforced from input :
     Exchange-correlation      = BEEF-VDW ( 1  4 27 13 2)
     Any further DFT definition will be discarded
     Please, verify this is what you really want


     Subspace diagonalization in iterative solution of the eigenvalue problem:
     a serial algorithm will be used

 
     Parallelization info
     --------------------
     sticks:   dense  smooth     PW     G-vecs:    dense   smooth      PW
     Min         339     133     39                63987    16111    2561
     Max         340     134     40                64016    16172    2582
     Sum        2713    1069    313               511963   129143   20533
 


     bravais-lattice index     =            0
     lattice parameter (alat)  =       1.8897  a.u.
     unit-cell volume          =    4301.6107 (a.u.)^3
     number of atoms/cell      =           13
     number of atomic types    =            2
     number of electrons       =       186.00
     number of Kohn-Sham states=          103
     kinetic-energy cutoff     =      36.7493  Ry
     charge density cutoff     =     367.4932  Ry
     convergence threshold     =      1.0E-05
     mixing beta               =       0.3000
     number of iterations used =           10  plain     mixing
     Exchange-correlation      = BEEF-VDW ( 1  4 27 13 2)
     nstep                     =           50


     celldm(1)=   1.889726  celldm(2)=   0.000000  celldm(3)=   0.000000
     celldm(4)=   0.000000  celldm(5)=   0.000000  celldm(6)=   0.000000

     crystal axes: (cart. coord. in units of alat)
               a(1) = (   5.483647   0.000000   0.000000 )  
               a(2) = (   2.741823   4.748977   0.000000 )  
               a(3) = (   0.000000   0.000000  24.477379 )  

     reciprocal axes: (cart. coord. in units 2 pi/alat)
               b(1) = (  0.182360 -0.105286  0.000000 )  
               b(2) = (  0.000000  0.210572  0.000000 )  
               b(3) = (  0.000000  0.000000  0.040854 )  


     PseudoPot. # 1 for Tc read from file:
     /u/if/mamunm/psp/gbrv1.5pbe/Tc.UPF
     MD5 check sum: 9eb49e5b028550b2339a02317eb7b844
     Pseudo is Ultrasoft + core correction, Zval = 15.0
     Generated by new atomic code, or converted to UPF format
     Using radial grid of  965 points,  6 beta functions with: 
                l(1) =   0
                l(2) =   0
                l(3) =   1
                l(4) =   1
                l(5) =   2
                l(6) =   2
     Q(r) pseudized with  8 coefficients,  rinner =    1.300   1.300   1.300
                                                       1.300   1.300

     PseudoPot. # 2 for O  read from file:
     /u/if/mamunm/psp/gbrv1.5pbe/O.UPF
     MD5 check sum: 734c27235a0248c51dbae37a1fbe46ec
     Pseudo is Ultrasoft + core correction, Zval =  6.0
     Generated by new atomic code, or converted to UPF format
     Using radial grid of  737 points,  5 beta functions with: 
                l(1) =   0
                l(2) =   0
                l(3) =   1
                l(4) =   1
                l(5) =   2
     Q(r) pseudized with  8 coefficients,  rinner =    0.900   0.900   0.900
                                                       0.900   0.900

     vdW kernel table read from file vdW_kernel_table
     MD5 check sum: 095c7af220d748ca6e76c0b4c6cfb241

     atomic species   valence    mass     pseudopotential
        Tc1           15.00    97.90721     Tc( 1.00)
        O1             6.00    15.99900     O ( 1.00)

     No symmetry found



   Cartesian axes

     site n.     atom                  positions (alat units)
         1           Tc1 tau(   1) = (   1.3709117   0.7914962  10.0000000  )
         2           Tc1 tau(   2) = (   4.1127351   0.7914962  10.0000000  )
         3           Tc1 tau(   3) = (   2.7418234   3.1659850  10.0000000  )
         4           Tc1 tau(   4) = (   5.4836469   3.1659850  10.0000000  )
         5           Tc1 tau(   5) = (   5.4836469   1.5829925  12.2386895  )
         6           Tc1 tau(   6) = (   2.7418234   1.5829925  12.2386895  )
         7           Tc1 tau(   7) = (   6.8545586   3.9574812  12.2386895  )
         8           Tc1 tau(   8) = (   4.1127351   3.9574812  12.2386895  )
         9           Tc1 tau(   9) = (   0.0000000   0.0000000  14.4773789  )
        10           Tc1 tau(  10) = (   2.7418234   0.0000000  14.4773789  )
        11           Tc1 tau(  11) = (   1.3709117   2.3744887  14.4773789  )
        12           Tc1 tau(  12) = (   4.1127351   2.3744887  14.4773789  )
        13           O1  tau(  13) = (   2.7418234   1.5829925  15.8618789  )

     number of k points=    20  Fermi-Dirac smearing, width (Ry)=  0.0110
                       cart. coord. in units 2pi/alat
        k(    1) = (   0.0000000   0.0000000   0.0000000), wk =   0.0555556
        k(    2) = (   0.0000000   0.0350953   0.0000000), wk =   0.1111111
        k(    3) = (   0.0000000   0.0701905   0.0000000), wk =   0.1111111
        k(    4) = (   0.0000000  -0.1052858   0.0000000), wk =   0.0555556
        k(    5) = (   0.0303934  -0.0175476   0.0000000), wk =   0.1111111
        k(    6) = (   0.0303934   0.0175476   0.0000000), wk =   0.1111111
        k(    7) = (   0.0303934   0.0526429   0.0000000), wk =   0.1111111
        k(    8) = (   0.0303934  -0.1228335   0.0000000), wk =   0.1111111
        k(    9) = (   0.0303934  -0.0877382   0.0000000), wk =   0.1111111
        k(   10) = (   0.0303934  -0.0526429   0.0000000), wk =   0.1111111
        k(   11) = (   0.0607868  -0.0350953   0.0000000), wk =   0.1111111
        k(   12) = (   0.0607868   0.0000000   0.0000000), wk =   0.1111111
        k(   13) = (   0.0607868   0.0350953   0.0000000), wk =   0.1111111
        k(   14) = (   0.0607868  -0.1403811   0.0000000), wk =   0.1111111
        k(   15) = (   0.0607868  -0.1052858   0.0000000), wk =   0.1111111
        k(   16) = (   0.0607868  -0.0701905   0.0000000), wk =   0.1111111
        k(   17) = (  -0.0911802   0.0526429   0.0000000), wk =   0.0555556
        k(   18) = (  -0.0911802   0.0877382   0.0000000), wk =   0.1111111
        k(   19) = (  -0.0911802   0.1228335   0.0000000), wk =   0.1111111
        k(   20) = (  -0.0911802  -0.0526429   0.0000000), wk =   0.0555556

     Dense  grid:   511963 G-vectors     FFT dimensions: (  64,  64, 288)

     Smooth grid:   129143 G-vectors     FFT dimensions: (  40,  40, 180)

     Largest allocated arrays     est. size (Mb)     dimensions
        Kohn-Sham Wavefunctions         3.21 Mb     (    2045,  103)
        NL pseudopotentials             7.15 Mb     (    2045,  229)
        Each V/rho on FFT grid          2.25 Mb     (  147456)
        Each G-vector array             0.49 Mb     (   63995)
        G-vector shells                 0.13 Mb     (   17029)
     Largest temporary arrays     est. size (Mb)     dimensions
        Auxiliary wavefunctions        12.86 Mb     (    2045,  412)
        Each subspace H/S matrix        2.59 Mb     (     412,  412)
        Each <psi_i|beta_j> matrix      0.36 Mb     (     229,  103)
        Arrays for rho mixing          22.50 Mb     (  147456,   10)

     Check: negative/imaginary core charge=   -0.000022    0.000000

     Initial potential from superposition of free atoms
     Check: negative starting charge=   -1.505105

     starting charge  173.99967, renormalised to  186.00000

     negative rho (up, down):  1.609E+00 0.000E+00


     ************************************************************************
     *
     * You are using vdW-DF for exchange-correlation in this calculation.
     * Please cite the following three references that made this development
     * possible:
     *
     *   M. Dion, H. Rydberg, E. Schroder, D. C. Langreth, and
     *   B. I. Lundqvist, Phys. Rev. Lett. 92, 246401 (2004).
     *
     *   T. Thonhauser, V. R. Cooper, S. Li, A. Puzder, P. Hyldgaard, and
     *   D. C. Langreth, Phys. Rev. B 76, 125112 (2007).
     *
     *   G. Roman-Perez and J. M. Soler, Phys. Rev. Lett. 103, 096102 (2009).
     *
     *
     * If you are using vdW-DF2, please also cite:
     *
     *   K. Lee, E. D. Murray, L. Kong, B. I. Lundqvist, and
     *   D. C. Langreth, Phys. Rev. B 82, 081101(R) (2010).
     *
     *
     * If you are calculating the stress with vdW-DF, please also cite:
     *
     *   R. Sabatini, E. Kucukbenli, B. Kolb, T. Thonhauser, and
     *   S. de Gironcoli, J. Phys.: Condens. Matter 24, 424209 (2012).
     *
     ************************************************************************

     Carrying out vdW-DF run using the following parameters:

     Nqs =      20    Nr_points =    1024   r_max =   100.000
     q_mesh =
               0.00001000     0.04494208     0.09755937     0.15916263
               0.23128650     0.31572767     0.41458969     0.53033537
               0.66584808     0.82450364     1.01025438     1.22772762
               1.48234092     1.78043706     2.12944203     2.53805004
               3.01644009     3.57652955     4.23227104     5.00000000

     Gradients computed in reciprocal space

     ************************************************************************


 
     Adding external electric field

     Computed dipole along edir(3) : 
        Dipole               -2.8332 Ry au,         -7.2014 Debye
        Dipole field         -0.0083 Ry au
 
        Potential amp.        0.7466 Ry
        Total length         45.0992 bohr
 
     Starting wfc are  160 randomized atomic wfcs

     total cpu time spent up to now is       10.6 secs

     per-process dynamical memory:    74.9 Mb

     Self-consistent Calculation

     iteration #  1     ecut=    36.75 Ry     beta=0.30
     Davidson diagonalization with overlap
     ethr =  1.00E-02,  avg # of iterations =  8.9

     negative rho (up, down):  1.603E+00 0.000E+00
 
     Adding external electric field

     Computed dipole along edir(3) : 
        Dipole               68.5966 Ry au,        174.3552 Debye
        Dipole field          0.2004 Ry au
 
        Potential amp.      -18.0751 Ry
        Total length         45.0992 bohr
 

     total cpu time spent up to now is       31.6 secs

     total energy              =   -1908.48486219 Ry
     Harris-Foulkes estimate   =   -2131.86561060 Ry
     estimated scf accuracy    <     471.01669914 Ry

     iteration #  2     ecut=    36.75 Ry     beta=0.30
     Davidson diagonalization with overlap
     ethr =  1.00E-02,  avg # of iterations = 18.7

     negative rho (up, down):  1.571E+00 0.000E+00
 
     Adding external electric field

     Computed dipole along edir(3) : 
        Dipole               12.1133 Ry au,         30.7889 Debye
        Dipole field          0.0354 Ry au
 
        Potential amp.       -3.1918 Ry
        Total length         45.0992 bohr
 

     total cpu time spent up to now is       84.3 secs

     total energy              =   -1807.10345738 Ry
     Harris-Foulkes estimate   =   -3009.04365593 Ry
     estimated scf accuracy    <   19295.44344621 Ry

     iteration #  3     ecut=    36.75 Ry     beta=0.30
     Davidson diagonalization with overlap
     ethr =  1.00E-02,  avg # of iterations = 11.0

     negative rho (up, down):  1.557E+00 0.000E+00
 
     Adding external electric field

     Computed dipole along edir(3) : 
        Dipole               13.4684 Ry au,         34.2333 Debye
        Dipole field          0.0393 Ry au
 
        Potential amp.       -3.5489 Ry
        Total length         45.0992 bohr
 

     total cpu time spent up to now is      121.2 secs

     total energy              =   -2063.06329594 Ry
     Harris-Foulkes estimate   =   -2314.29087358 Ry
     estimated scf accuracy    <    3082.77800752 Ry

     iteration #  4     ecut=    36.75 Ry     beta=0.30
     Davidson diagonalization with overlap
     ethr =  1.00E-02,  avg # of iterations =  7.4

     negative rho (up, down):  1.596E+00 0.000E+00
 
     Adding external electric field

     Computed dipole along edir(3) : 
        Dipole                9.1833 Ry au,         23.3416 Debye
        Dipole field          0.0268 Ry au
 
        Potential amp.       -2.4198 Ry
        Total length         45.0992 bohr
 

     total cpu time spent up to now is      146.6 secs

     total energy              =   -2118.99409268 Ry
     Harris-Foulkes estimate   =   -2154.12187598 Ry
     estimated scf accuracy    <     487.63420765 Ry

     iteration #  5     ecut=    36.75 Ry     beta=0.30
     Davidson diagonalization with overlap
     ethr =  1.00E-02,  avg # of iterations =  6.7

     negative rho (up, down):  1.587E+00 0.000E+00
 
     Adding external electric field

     Computed dipole along edir(3) : 
        Dipole                9.3305 Ry au,         23.7156 Debye
        Dipole field          0.0273 Ry au
 
        Potential amp.       -2.4586 Ry
        Total length         45.0992 bohr
 

     total cpu time spent up to now is      173.0 secs

     total energy              =   -2137.23409683 Ry
     Harris-Foulkes estimate   =   -2147.46675840 Ry
     estimated scf accuracy    <     150.18067374 Ry

     iteration #  6     ecut=    36.75 Ry     beta=0.30
     Davidson diagonalization with overlap
     ethr =  1.00E-02,  avg # of iterations =  3.6

     negative rho (up, down):  1.580E+00 0.000E+00
 
     Adding external electric field

     Computed dipole along edir(3) : 
        Dipole                8.6196 Ry au,         21.9089 Debye
        Dipole field          0.0252 Ry au
 
        Potential amp.       -2.2713 Ry
        Total length         45.0992 bohr
 

     total cpu time spent up to now is      190.0 secs

     total energy              =   -2137.57867587 Ry
     Harris-Foulkes estimate   =   -2140.44415864 Ry
     estimated scf accuracy    <     104.55706512 Ry

     iteration #  7     ecut=    36.75 Ry     beta=0.30
     Davidson diagonalization with overlap
     ethr =  1.00E-02,  avg # of iterations =  1.2

     negative rho (up, down):  1.576E+00 0.000E+00
 
     Adding external electric field

     Computed dipole along edir(3) : 
        Dipole                9.2022 Ry au,         23.3898 Debye
        Dipole field          0.0269 Ry au
 
        Potential amp.       -2.4248 Ry
        Total length         45.0992 bohr
 

     total cpu time spent up to now is      204.7 secs

     total energy              =   -2138.98250596 Ry
     Harris-Foulkes estimate   =   -2138.55356750 Ry
     estimated scf accuracy    <      10.31518918 Ry

     iteration #  8     ecut=    36.75 Ry     beta=0.30
     Davidson diagonalization with overlap
     ethr =  5.55E-03,  avg # of iterations =  3.2

     negative rho (up, down):  1.605E+00 0.000E+00
 
     Adding external electric field

     Computed dipole along edir(3) : 
        Dipole                4.0034 Ry au,         10.1757 Debye
        Dipole field          0.0117 Ry au
 
        Potential amp.       -1.0549 Ry
        Total length         45.0992 bohr
 

     total cpu time spent up to now is      220.7 secs

     total energy              =   -2135.80135370 Ry
     Harris-Foulkes estimate   =   -2139.30599930 Ry
     estimated scf accuracy    <       7.57157595 Ry

     iteration #  9     ecut=    36.75 Ry     beta=0.30
     Davidson diagonalization with overlap
     ethr =  4.07E-03,  avg # of iterations =  2.8

     negative rho (up, down):  1.604E+00 0.000E+00
 
     Adding external electric field

     Computed dipole along edir(3) : 
        Dipole                3.5681 Ry au,          9.0692 Debye
        Dipole field          0.0104 Ry au
 
        Potential amp.       -0.9402 Ry
        Total length         45.0992 bohr
 

     total cpu time spent up to now is      237.5 secs

     total energy              =   -2136.30784835 Ry
     Harris-Foulkes estimate   =   -2136.63815162 Ry
     estimated scf accuracy    <       8.86043929 Ry

     iteration # 10     ecut=    36.75 Ry     beta=0.30
     Davidson diagonalization with overlap
     ethr =  4.07E-03,  avg # of iterations =  1.0

     negative rho (up, down):  1.602E+00 0.000E+00
 
     Adding external electric field

     Computed dipole along edir(3) : 
        Dipole                2.8233 Ry au,          7.1762 Debye
        Dipole field          0.0082 Ry au
 
        Potential amp.       -0.7439 Ry
        Total length         45.0992 bohr
 

     total cpu time spent up to now is      252.2 secs

     total energy              =   -2136.31455046 Ry
     Harris-Foulkes estimate   =   -2136.43641953 Ry
     estimated scf accuracy    <       2.90840402 Ry

     iteration # 11     ecut=    36.75 Ry     beta=0.30
     Davidson diagonalization with overlap
     ethr =  1.56E-03,  avg # of iterations =  1.6

     negative rho (up, down):  1.601E+00 0.000E+00
 
     Adding external electric field

     Computed dipole along edir(3) : 
        Dipole                1.8483 Ry au,          4.6978 Debye
        Dipole field          0.0054 Ry au
 
        Potential amp.       -0.4870 Ry
        Total length         45.0992 bohr
 

     total cpu time spent up to now is      267.8 secs

     total energy              =   -2136.09841989 Ry
     Harris-Foulkes estimate   =   -2136.36456135 Ry
     estimated scf accuracy    <       5.76020850 Ry

     iteration # 12     ecut=    36.75 Ry     beta=0.30
     Davidson diagonalization with overlap
     ethr =  1.56E-03,  avg # of iterations =  1.2

     negative rho (up, down):  1.599E+00 0.000E+00
 
     Adding external electric field

     Computed dipole along edir(3) : 
        Dipole               -0.6964 Ry au,         -1.7700 Debye
        Dipole field         -0.0020 Ry au
 
        Potential amp.        0.1835 Ry
        Total length         45.0992 bohr
 

     total cpu time spent up to now is      283.0 secs

     total energy              =   -2135.82150799 Ry
     Harris-Foulkes estimate   =   -2136.14973331 Ry
     estimated scf accuracy    <       1.59681670 Ry

     iteration # 13     ecut=    36.75 Ry     beta=0.30
     Davidson diagonalization with overlap
     ethr =  8.59E-04,  avg # of iterations =  6.5

     negative rho (up, down):  1.598E+00 0.000E+00
 
     Adding external electric field

     Computed dipole along edir(3) : 
        Dipole               -0.2257 Ry au,         -0.5738 Debye
        Dipole field         -0.0007 Ry au
 
        Potential amp.        0.0595 Ry
        Total length         45.0992 bohr
 

     total cpu time spent up to now is      302.9 secs

     total energy              =   -2135.93794865 Ry
     Harris-Foulkes estimate   =   -2136.10653208 Ry
     estimated scf accuracy    <       4.63405385 Ry

     iteration # 14     ecut=    36.75 Ry     beta=0.30
     Davidson diagonalization with overlap
     ethr =  8.59E-04,  avg # of iterations =  1.6

     negative rho (up, down):  1.595E+00 0.000E+00
 
     Adding external electric field

     Computed dipole along edir(3) : 
        Dipole                0.1664 Ry au,          0.4230 Debye
        Dipole field          0.0005 Ry au
 
        Potential amp.       -0.0439 Ry
        Total length         45.0992 bohr
 

     total cpu time spent up to now is      318.6 secs

     total energy              =   -2135.97474975 Ry
     Harris-Foulkes estimate   =   -2136.00243152 Ry
     estimated scf accuracy    <       0.14104165 Ry

     iteration # 15     ecut=    36.75 Ry     beta=0.30
     Davidson diagonalization with overlap
     ethr =  7.58E-05,  avg # of iterations =  5.8

     negative rho (up, down):  1.593E+00 0.000E+00
 
     Adding external electric field

     Computed dipole along edir(3) : 
        Dipole               -0.2438 Ry au,         -0.6197 Debye
        Dipole field         -0.0007 Ry au
 
        Potential amp.        0.0642 Ry
        Total length         45.0992 bohr
 

     total cpu time spent up to now is      339.5 secs

     total energy              =   -2135.99840629 Ry
     Harris-Foulkes estimate   =   -2136.00893403 Ry
     estimated scf accuracy    <       0.03102676 Ry

     iteration # 16     ecut=    36.75 Ry     beta=0.30
     Davidson diagonalization with overlap
     ethr =  1.67E-05,  avg # of iterations =  3.6

     negative rho (up, down):  1.592E+00 0.000E+00
 
     Adding external electric field

     Computed dipole along edir(3) : 
        Dipole               -0.2012 Ry au,         -0.5114 Debye
        Dipole field         -0.0006 Ry au
 
        Potential amp.        0.0530 Ry
        Total length         45.0992 bohr
 

     total cpu time spent up to now is      357.4 secs

     total energy              =   -2136.00224741 Ry
     Harris-Foulkes estimate   =   -2136.00490192 Ry
     estimated scf accuracy    <       0.03566719 Ry

     iteration # 17     ecut=    36.75 Ry     beta=0.30
     Davidson diagonalization with overlap
     ethr =  1.67E-05,  avg # of iterations =  1.1

     negative rho (up, down):  1.591E+00 0.000E+00
 
     Adding external electric field

     Computed dipole along edir(3) : 
        Dipole               -0.1837 Ry au,         -0.4668 Debye
        Dipole field         -0.0005 Ry au
 
        Potential amp.        0.0484 Ry
        Total length         45.0992 bohr
 

     total cpu time spent up to now is      372.7 secs

     total energy              =   -2136.00253248 Ry
     Harris-Foulkes estimate   =   -2136.00340310 Ry
     estimated scf accuracy    <       0.02521837 Ry

     iteration # 18     ecut=    36.75 Ry     beta=0.30
     Davidson diagonalization with overlap
     ethr =  1.36E-05,  avg # of iterations =  1.1

     negative rho (up, down):  1.591E+00 0.000E+00
 
     Adding external electric field

     Computed dipole along edir(3) : 
        Dipole               -0.0945 Ry au,         -0.2401 Debye
        Dipole field         -0.0003 Ry au
 
        Potential amp.        0.0249 Ry
        Total length         45.0992 bohr
 

     total cpu time spent up to now is      387.8 secs

     total energy              =   -2136.00272493 Ry
     Harris-Foulkes estimate   =   -2136.00310890 Ry
     estimated scf accuracy    <       0.00483049 Ry

     iteration # 19     ecut=    36.75 Ry     beta=0.30
     Davidson diagonalization with overlap
     ethr =  2.60E-06,  avg # of iterations =  5.0

     negative rho (up, down):  1.591E+00 0.000E+00
 
     Adding external electric field

     Computed dipole along edir(3) : 
        Dipole               -0.1326 Ry au,         -0.3370 Debye
        Dipole field         -0.0004 Ry au
 
        Potential amp.        0.0349 Ry
        Total length         45.0992 bohr
 

     total cpu time spent up to now is      405.6 secs

     total energy              =   -2136.00280807 Ry
     Harris-Foulkes estimate   =   -2136.00319059 Ry
     estimated scf accuracy    <       0.00455438 Ry

     iteration # 20     ecut=    36.75 Ry     beta=0.30
     Davidson diagonalization with overlap
     ethr =  2.45E-06,  avg # of iterations =  2.1

     negative rho (up, down):  1.591E+00 0.000E+00
 
     Adding external electric field

     Computed dipole along edir(3) : 
        Dipole               -0.1446 Ry au,         -0.3675 Debye
        Dipole field         -0.0004 Ry au
 
        Potential amp.        0.0381 Ry
        Total length         45.0992 bohr
 

     total cpu time spent up to now is      422.2 secs

     total energy              =   -2136.00292228 Ry
     Harris-Foulkes estimate   =   -2136.00296996 Ry
     estimated scf accuracy    <       0.00030390 Ry

     iteration # 21     ecut=    36.75 Ry     beta=0.30
     Davidson diagonalization with overlap
     ethr =  1.63E-07,  avg # of iterations =  4.2

     negative rho (up, down):  1.591E+00 0.000E+00
 
     Adding external electric field

     Computed dipole along edir(3) : 
        Dipole               -0.1501 Ry au,         -0.3814 Debye
        Dipole field         -0.0004 Ry au
 
        Potential amp.        0.0395 Ry
        Total length         45.0992 bohr
 

     total cpu time spent up to now is      440.4 secs

     total energy              =   -2136.00295126 Ry
     Harris-Foulkes estimate   =   -2136.00297706 Ry
     estimated scf accuracy    <       0.00031367 Ry

     iteration # 22     ecut=    36.75 Ry     beta=0.30
     Davidson diagonalization with overlap
     ethr =  1.63E-07,  avg # of iterations =  3.0

     negative rho (up, down):  1.591E+00 0.000E+00
 
     Adding external electric field

     Computed dipole along edir(3) : 
        Dipole               -0.1415 Ry au,         -0.3596 Debye
        Dipole field         -0.0004 Ry au
 
        Potential amp.        0.0373 Ry
        Total length         45.0992 bohr
 

     total cpu time spent up to now is      456.7 secs

     total energy              =   -2136.00295568 Ry
     Harris-Foulkes estimate   =   -2136.00298115 Ry
     estimated scf accuracy    <       0.00047023 Ry

     iteration # 23     ecut=    36.75 Ry     beta=0.30
     Davidson diagonalization with overlap
     ethr =  1.63E-07,  avg # of iterations =  1.1

     negative rho (up, down):  1.591E+00 0.000E+00
 
     Adding external electric field

     Computed dipole along edir(3) : 
        Dipole               -0.1384 Ry au,         -0.3517 Debye
        Dipole field         -0.0004 Ry au
 
        Potential amp.        0.0365 Ry
        Total length         45.0992 bohr
 

     total cpu time spent up to now is      471.9 secs

     total energy              =   -2136.00296308 Ry
     Harris-Foulkes estimate   =   -2136.00296846 Ry
     estimated scf accuracy    <       0.00001671 Ry

     iteration # 24     ecut=    36.75 Ry     beta=0.30
     Davidson diagonalization with overlap
     ethr =  8.99E-09,  avg # of iterations =  5.0

     negative rho (up, down):  1.591E+00 0.000E+00
 
     Adding external electric field

     Computed dipole along edir(3) : 
        Dipole               -0.1379 Ry au,         -0.3506 Debye
        Dipole field         -0.0004 Ry au
 
        Potential amp.        0.0363 Ry
        Total length         45.0992 bohr
 

     total cpu time spent up to now is      491.9 secs

     total energy              =   -2136.00296632 Ry
     Harris-Foulkes estimate   =   -2136.00296850 Ry
     estimated scf accuracy    <       0.00003148 Ry

     iteration # 25     ecut=    36.75 Ry     beta=0.30
     Davidson diagonalization with overlap
     ethr =  8.99E-09,  avg # of iterations =  1.0

     negative rho (up, down):  1.591E+00 0.000E+00
 
     Adding external electric field

     Computed dipole along edir(3) : 
        Dipole               -0.1382 Ry au,         -0.3512 Debye
        Dipole field         -0.0004 Ry au
 
        Potential amp.        0.0364 Ry
        Total length         45.0992 bohr
 

     total cpu time spent up to now is      507.0 secs

     total energy              =   -2136.00296632 Ry
     Harris-Foulkes estimate   =   -2136.00296689 Ry
     estimated scf accuracy    <       0.00001923 Ry

     iteration # 26     ecut=    36.75 Ry     beta=0.30
     Davidson diagonalization with overlap
     ethr =  8.99E-09,  avg # of iterations =  1.4

     negative rho (up, down):  1.591E+00 0.000E+00

     negative rho (up, down):  1.591E+00 0.000E+00

     negative rho (up, down):  1.591E+00 0.000E+00

     negative rho (up, down):  1.591E+00 0.000E+00

     negative rho (up, down):  1.591E+00 0.000E+00

     negative rho (up, down):  1.591E+00 0.000E+00

     negative rho (up, down):  1.591E+00 0.000E+00

     negative rho (up, down):  1.591E+00 0.000E+00

     negative rho (up, down):  1.591E+00 0.000E+00

     negative rho (up, down):  1.591E+00 0.000E+00

     negative rho (up, down):  1.591E+00 0.000E+00

     negative rho (up, down):  1.591E+00 0.000E+00

     negative rho (up, down):  1.591E+00 0.000E+00

     negative rho (up, down):  1.591E+00 0.000E+00

     negative rho (up, down):  1.591E+00 0.000E+00

     negative rho (up, down):  1.591E+00 0.000E+00

     negative rho (up, down):  1.591E+00 0.000E+00

     negative rho (up, down):  1.591E+00 0.000E+00

     negative rho (up, down):  1.591E+00 0.000E+00

     negative rho (up, down):  1.591E+00 0.000E+00

     negative rho (up, down):  1.591E+00 0.000E+00

     negative rho (up, down):  1.591E+00 0.000E+00

     negative rho (up, down):  1.591E+00 0.000E+00

     negative rho (up, down):  1.591E+00 0.000E+00

     negative rho (up, down):  1.591E+00 0.000E+00

     negative rho (up, down):  1.591E+00 0.000E+00

     negative rho (up, down):  1.591E+00 0.000E+00

     negative rho (up, down):  1.591E+00 0.000E+00

     negative rho (up, down):  1.591E+00 0.000E+00

     negative rho (up, down):  1.591E+00 0.000E+00

     negative rho (up, down):  1.591E+00 0.000E+00

     negative rho (up, down):  1.591E+00 0.000E+00

     negative rho (up, down):  1.591E+00 0.000E+00

     negative rho (up, down):  1.591E+00 0.000E+00

     negative rho (up, down):  1.591E+00 0.000E+00
 
     Adding external electric field

     Computed dipole along edir(3) : 
        Dipole               -0.1504 Ry au,         -0.3822 Debye
        Dipole field         -0.0004 Ry au
 
        Potential amp.        0.0396 Ry
        Total length         45.0992 bohr
 

     total cpu time spent up to now is      563.8 secs

     End of self-consistent calculation

          k = 0.0000 0.0000 0.0000 ( 16073 PWs)   bands (ev):

   -65.0135 -64.9211 -64.8621 -64.8616 -64.8412 -64.7979 -64.7978 -64.7231
   -64.6053 -64.6024 -64.6022 -64.5960 -37.5227 -37.4236 -37.4236 -37.3663
   -37.3323 -37.3011 -37.3010 -37.1546 -37.1277 -37.1276 -36.8956 -36.8659
   -36.8656 -36.7814 -36.7486 -36.7486 -36.6970 -36.6957 -36.6956 -36.6587
   -36.5937 -36.5935 -36.5587 -36.5421 -36.5421 -36.5364 -36.4630 -36.4444
   -36.4444 -36.3889 -36.3880 -36.3879 -36.3142 -36.3141 -36.1903 -36.1903
   -16.2465  -4.1944  -3.4722  -3.0573  -3.0573  -2.9130  -2.9130  -2.8976
    -2.7827  -2.5607  -2.3966  -2.3966  -2.3372  -2.1883  -2.0559  -2.0559
    -1.6504  -1.6504  -1.1792  -0.5719  -0.5719  -0.3483   0.0989   0.0990
     0.3220   0.5307   0.6383   0.6383   0.8850   0.8850   0.9966   1.0693
     1.0694   1.1515   1.1779   1.1779   1.5904   1.7889   1.7890   2.3696
     2.5953   2.6639   2.6639   2.8669   2.8670   3.0897   3.0897   3.1938
     3.4734   3.4735   3.8007   4.1213   4.1919   4.1920   4.3189

          k = 0.0000 0.0351 0.0000 ( 16137 PWs)   bands (ev):

   -65.0038 -64.9146 -64.8712 -64.8618 -64.8418 -64.8036 -64.7978 -64.7150
   -64.6097 -64.6060 -64.6024 -64.5973 -37.4840 -37.3922 -37.3772 -37.3272
   -37.3131 -37.2707 -37.2681 -37.1253 -37.0981 -37.0844 -36.9047 -36.8811
   -36.8794 -36.7883 -36.7750 -36.7502 -36.7204 -36.7041 -36.6774 -36.6527
   -36.6202 -36.6156 -36.5695 -36.5377 -36.5337 -36.5320 -36.4938 -36.4729
   -36.4597 -36.4199 -36.4177 -36.3757 -36.3605 -36.3251 -36.2479 -36.2037
   -16.2416  -3.9651  -3.3349  -2.9988  -2.9400  -2.7682  -2.7061  -2.6840
    -2.5413  -2.3873  -2.2557  -2.2404  -2.2004  -2.0440  -1.8957  -1.8683
    -1.5707  -1.5284  -1.0714  -0.5456  -0.5113  -0.3070   0.1681   0.1774
     0.1982   0.3160   0.4678   0.7565   0.7808   0.8546   0.9032   1.0173
     1.0299   1.1288   1.1527   1.3553   1.4691   1.6210   1.6608   1.9556
     2.3836   2.4150   2.5703   2.5950   2.6694   2.7687   2.9799   3.0604
     3.1828   3.4591   3.5324   3.6592   3.8977   3.9816   4.0894

          k = 0.0000 0.0702 0.0000 ( 16149 PWs)   bands (ev):

   -64.9782 -64.9028 -64.8902 -64.8619 -64.8473 -64.8151 -64.7978 -64.6928
   -64.6315 -64.6086 -64.6024 -64.5978 -37.3919 -37.3151 -37.2822 -37.2643
   -37.2105 -37.1965 -37.1954 -37.0667 -37.0309 -37.0009 -36.9273 -36.9229
   -36.8853 -36.8480 -36.7803 -36.7778 -36.7298 -36.7273 -36.6867 -36.6818
   -36.6493 -36.6439 -36.5962 -36.5609 -36.5589 -36.5369 -36.5322 -36.4995
   -36.4988 -36.4801 -36.4741 -36.4585 -36.3833 -36.3548 -36.3353 -36.2401
   -16.2320  -3.4361  -3.0295  -2.8068  -2.6971  -2.4436  -2.2259  -2.2126
    -2.0899  -1.9207  -1.8384  -1.8023  -1.7556  -1.6916  -1.5834  -1.4952
    -1.2810  -1.0638  -0.7079  -0.4877  -0.4663  -0.3567  -0.2685  -0.0528
     0.2562   0.2811   0.2837   0.3645   0.5736   0.6666   0.7802   0.9625
     0.9690   1.0968   1.2612   1.3105   1.3426   1.4272   1.4946   1.7663
     1.8153   1.8647   1.9681   2.0208   2.0646   2.2190   2.3462   2.3826
     2.6661   2.8379   3.1002   3.2491   3.3240   3.3450   3.4919

          k = 0.0000-0.1053 0.0000 ( 16164 PWs)   bands (ev):

   -64.9543 -64.9215 -64.8800 -64.8619 -64.8568 -64.8202 -64.7978 -64.6645
   -64.6600 -64.6098 -64.6024 -64.5979 -37.3274 -37.2630 -37.2419 -37.2200
   -37.1938 -37.1440 -37.0533 -37.0307 -37.0125 -36.9989 -36.9528 -36.9508
   -36.9299 -36.8397 -36.7961 -36.7531 -36.7502 -36.7356 -36.7057 -36.6930
   -36.6410 -36.6230 -36.6201 -36.6158 -36.5933 -36.5764 -36.5726 -36.5545
   -36.5200 -36.4990 -36.4945 -36.4618 -36.4480 -36.3667 -36.2919 -36.2866
   -16.2273  -3.2130  -2.6898  -2.6054  -2.5726  -2.4037  -1.9381  -1.8896
    -1.8872  -1.6947  -1.6005  -1.4987  -1.4024  -1.2277  -1.1889  -1.1715
    -1.0121  -0.9708  -0.8665  -0.5211  -0.3666  -0.2941  -0.2031  -0.2014
    -0.0997   0.0320   0.2644   0.3223   0.6292   0.7152   0.8435   0.8524
     0.8571   0.9346   0.9726   1.0350   1.0453   1.1303   1.2281   1.2905
     1.4499   1.4538   1.4888   2.1501   2.1855   2.2010   2.2049   2.3542
     2.4639   2.6454   2.7394   2.8133   2.8885   3.0135   3.0877

          k = 0.0304-0.0175 0.0000 ( 16137 PWs)   bands (ev):

   -65.0038 -64.9146 -64.8709 -64.8621 -64.8417 -64.8036 -64.7979 -64.7150
   -64.6097 -64.6060 -64.6022 -64.5974 -37.4840 -37.3922 -37.3772 -37.3272
   -37.3131 -37.2705 -37.2681 -37.1252 -37.0981 -37.0844 -36.9047 -36.8810
   -36.8796 -36.7883 -36.7749 -36.7503 -36.7205 -36.7041 -36.6774 -36.6526
   -36.6201 -36.6156 -36.5696 -36.5377 -36.5336 -36.5320 -36.4938 -36.4729
   -36.4597 -36.4198 -36.4178 -36.3757 -36.3606 -36.3249 -36.2480 -36.2037
   -16.2416  -3.9651  -3.3349  -2.9988  -2.9399  -2.7682  -2.7061  -2.6840
    -2.5413  -2.3873  -2.2557  -2.2404  -2.2004  -2.0440  -1.8957  -1.8683
    -1.5707  -1.5284  -1.0714  -0.5456  -0.5113  -0.3070   0.1681   0.1774
     0.1982   0.3160   0.4679   0.7566   0.7808   0.8546   0.9033   1.0173
     1.0299   1.1288   1.1526   1.3553   1.4690   1.6210   1.6608   1.9557
     2.3835   2.4151   2.5703   2.5949   2.6693   2.7688   2.9799   3.0604
     3.1828   3.4591   3.5323   3.6592   3.8977   3.9816   4.0893

          k = 0.0304 0.0175 0.0000 ( 16137 PWs)   bands (ev):

   -65.0038 -64.9146 -64.8711 -64.8619 -64.8417 -64.8036 -64.7978 -64.7150
   -64.6097 -64.6060 -64.6022 -64.5974 -37.4840 -37.3922 -37.3772 -37.3272
   -37.3131 -37.2706 -37.2681 -37.1252 -37.0981 -37.0843 -36.9047 -36.8811
   -36.8794 -36.7883 -36.7750 -36.7502 -36.7205 -36.7041 -36.6774 -36.6527
   -36.6202 -36.6156 -36.5695 -36.5377 -36.5336 -36.5320 -36.4938 -36.4729
   -36.4597 -36.4198 -36.4178 -36.3757 -36.3606 -36.3250 -36.2480 -36.2037
   -16.2416  -3.9651  -3.3349  -2.9988  -2.9400  -2.7682  -2.7061  -2.6840
    -2.5413  -2.3873  -2.2557  -2.2404  -2.2004  -2.0440  -1.8957  -1.8684
    -1.5707  -1.5284  -1.0714  -0.5456  -0.5112  -0.3070   0.1681   0.1774
     0.1982   0.3160   0.4678   0.7565   0.7808   0.8545   0.9033   1.0173
     1.0300   1.1287   1.1526   1.3553   1.4691   1.6210   1.6607   1.9556
     2.3836   2.4151   2.5703   2.5949   2.6694   2.7687   2.9799   3.0604
     3.1828   3.4591   3.5324   3.6592   3.8977   3.9816   4.0892

          k = 0.0304 0.0526 0.0000 ( 16202 PWs)   bands (ev):

   -64.9861 -64.9036 -64.8850 -64.8648 -64.8434 -64.8140 -64.7966 -64.6999
   -64.6182 -64.6140 -64.6078 -64.5926 -37.4176 -37.3374 -37.2936 -37.2789
   -37.2548 -37.2206 -37.2138 -37.0839 -37.0421 -37.0221 -36.9259 -36.9039
   -36.8923 -36.8423 -36.7962 -36.7517 -36.7329 -36.6988 -36.6959 -36.6684
   -36.6353 -36.6125 -36.6044 -36.5703 -36.5518 -36.5331 -36.5121 -36.5065
   -36.5035 -36.4743 -36.4271 -36.3913 -36.3895 -36.3520 -36.3396 -36.2326
   -16.2344  -3.5700  -3.1000  -2.8907  -2.7597  -2.4639  -2.4121  -2.3213
    -2.1296  -2.0834  -2.0115  -1.9482  -1.8971  -1.7933  -1.6511  -1.5732
    -1.3626  -1.2594  -0.8320  -0.5082  -0.4349  -0.2993  -0.1857   0.0908
     0.2050   0.2884   0.3066   0.3580   0.6452   0.7961   0.8706   0.9410
     0.9598   1.1759   1.2135   1.2276   1.2987   1.4873   1.6537   1.7893
     1.9426   2.0031   2.0853   2.2308   2.3672   2.4153   2.4856   2.6092
     2.6462   2.9253   3.0344   3.3693   3.4283   3.6235   3.7199

          k = 0.0304-0.1228 0.0000 ( 16203 PWs)   bands (ev):

   -64.9577 -64.9131 -64.8825 -64.8704 -64.8480 -64.8261 -64.7948 -64.6736
   -64.6427 -64.6200 -64.6096 -64.5886 -37.3232 -37.2563 -37.2279 -37.2148
   -37.1781 -37.1497 -37.1136 -37.0504 -37.0301 -36.9791 -36.9486 -36.9401
   -36.8830 -36.8669 -36.8114 -36.7737 -36.7573 -36.7156 -36.7018 -36.6842
   -36.6677 -36.6508 -36.6107 -36.5997 -36.5874 -36.5769 -36.5512 -36.5421
   -36.5195 -36.5003 -36.4752 -36.4393 -36.4245 -36.3825 -36.3408 -36.2836
   -16.2272  -3.1639  -2.7270  -2.6424  -2.5894  -2.2182  -1.9277  -1.9002
    -1.8038  -1.6972  -1.5324  -1.5156  -1.4447  -1.3982  -1.2400  -1.1529
    -1.0325  -0.8975  -0.7216  -0.5864  -0.4480  -0.4092  -0.2792  -0.1053
    -0.0250   0.0430   0.1241   0.2191   0.4656   0.5611   0.6177   0.6799
     0.7633   0.8495   0.9132   0.9802   1.0727   1.2447   1.3754   1.4502
     1.5297   1.6303   1.6634   1.7326   2.1553   2.2420   2.3210   2.3832
     2.5556   2.6520   2.6983   2.8729   3.0763   3.2442   3.3392

          k = 0.0304-0.0877 0.0000 ( 16203 PWs)   bands (ev):

   -64.9578 -64.9130 -64.8826 -64.8703 -64.8480 -64.8261 -64.7948 -64.6736
   -64.6427 -64.6200 -64.6096 -64.5886 -37.3232 -37.2564 -37.2279 -37.2148
   -37.1782 -37.1497 -37.1136 -37.0503 -37.0301 -36.9791 -36.9486 -36.9402
   -36.8829 -36.8667 -36.8115 -36.7737 -36.7574 -36.7156 -36.7018 -36.6842
   -36.6677 -36.6508 -36.6107 -36.5997 -36.5874 -36.5768 -36.5512 -36.5421
   -36.5195 -36.5003 -36.4752 -36.4393 -36.4245 -36.3825 -36.3408 -36.2836
   -16.2272  -3.1639  -2.7270  -2.6424  -2.5894  -2.2182  -1.9277  -1.9002
    -1.8038  -1.6972  -1.5324  -1.5156  -1.4447  -1.3982  -1.2400  -1.1529
    -1.0325  -0.8975  -0.7216  -0.5864  -0.4480  -0.4092  -0.2792  -0.1053
    -0.0250   0.0430   0.1241   0.2191   0.4656   0.5611   0.6177   0.6799
     0.7633   0.8495   0.9132   0.9802   1.0727   1.2447   1.3754   1.4501
     1.5297   1.6303   1.6634   1.7326   2.1552   2.2420   2.3211   2.3832
     2.5557   2.6520   2.6983   2.8729   3.0763   3.2442   3.3392

          k = 0.0304-0.0526 0.0000 ( 16202 PWs)   bands (ev):

   -64.9861 -64.9036 -64.8848 -64.8650 -64.8434 -64.8140 -64.7966 -64.6999
   -64.6182 -64.6140 -64.6078 -64.5926 -37.4176 -37.3375 -37.2936 -37.2789
   -37.2548 -37.2207 -37.2137 -37.0839 -37.0420 -37.0221 -36.9258 -36.9041
   -36.8922 -36.8423 -36.7962 -36.7517 -36.7330 -36.6988 -36.6959 -36.6684
   -36.6353 -36.6126 -36.6046 -36.5703 -36.5518 -36.5331 -36.5121 -36.5065
   -36.5035 -36.4743 -36.4271 -36.3913 -36.3895 -36.3519 -36.3395 -36.2326
   -16.2344  -3.5700  -3.1000  -2.8907  -2.7597  -2.4640  -2.4121  -2.3213
    -2.1296  -2.0834  -2.0115  -1.9482  -1.8971  -1.7933  -1.6512  -1.5732
    -1.3626  -1.2594  -0.8320  -0.5081  -0.4349  -0.2993  -0.1857   0.0908
     0.2050   0.2884   0.3066   0.3580   0.6452   0.7961   0.8706   0.9409
     0.9598   1.1759   1.2135   1.2276   1.2987   1.4873   1.6537   1.7893
     1.9425   2.0031   2.0853   2.2308   2.3672   2.4152   2.4856   2.6092
     2.6463   2.9253   3.0344   3.3693   3.4283   3.6236   3.7199

          k = 0.0608-0.0351 0.0000 ( 16149 PWs)   bands (ev):

   -64.9782 -64.9028 -64.8899 -64.8622 -64.8472 -64.8151 -64.7978 -64.6928
   -64.6316 -64.6086 -64.6022 -64.5979 -37.3921 -37.3151 -37.2822 -37.2643
   -37.2105 -37.1964 -37.1954 -37.0667 -37.0309 -37.0008 -36.9275 -36.9228
   -36.8853 -36.8479 -36.7802 -36.7780 -36.7300 -36.7272 -36.6866 -36.6818
   -36.6493 -36.6440 -36.5962 -36.5610 -36.5590 -36.5369 -36.5322 -36.4995
   -36.4988 -36.4801 -36.4741 -36.4586 -36.3833 -36.3546 -36.3353 -36.2401
   -16.2320  -3.4361  -3.0295  -2.8068  -2.6971  -2.4436  -2.2259  -2.2126
    -2.0899  -1.9207  -1.8384  -1.8023  -1.7556  -1.6916  -1.5834  -1.4951
    -1.2810  -1.0638  -0.7079  -0.4877  -0.4663  -0.3567  -0.2685  -0.0528
     0.2562   0.2811   0.2837   0.3645   0.5736   0.6666   0.7802   0.9625
     0.9690   1.0968   1.2612   1.3105   1.3426   1.4272   1.4946   1.7663
     1.8153   1.8647   1.9682   2.0208   2.0646   2.2190   2.3461   2.3826
     2.6662   2.8379   3.1002   3.2491   3.3239   3.3450   3.4919

          k = 0.0608 0.0000 0.0000 ( 16202 PWs)   bands (ev):

   -64.9861 -64.9036 -64.8848 -64.8651 -64.8434 -64.8140 -64.7966 -64.6999
   -64.6183 -64.6139 -64.6078 -64.5926 -37.4176 -37.3375 -37.2936 -37.2789
   -37.2548 -37.2206 -37.2137 -37.0839 -37.0420 -37.0221 -36.9258 -36.9041
   -36.8922 -36.8422 -36.7962 -36.7517 -36.7330 -36.6988 -36.6959 -36.6683
   -36.6353 -36.6125 -36.6046 -36.5703 -36.5518 -36.5332 -36.5120 -36.5065
   -36.5035 -36.4743 -36.4271 -36.3913 -36.3894 -36.3519 -36.3395 -36.2326
   -16.2344  -3.5700  -3.1000  -2.8907  -2.7597  -2.4640  -2.4121  -2.3213
    -2.1296  -2.0834  -2.0115  -1.9482  -1.8971  -1.7934  -1.6511  -1.5732
    -1.3626  -1.2594  -0.8320  -0.5082  -0.4349  -0.2993  -0.1857   0.0908
     0.2050   0.2884   0.3066   0.3580   0.6453   0.7961   0.8706   0.9409
     0.9597   1.1759   1.2135   1.2276   1.2987   1.4873   1.6537   1.7893
     1.9425   2.0031   2.0853   2.2308   2.3672   2.4153   2.4856   2.6092
     2.6463   2.9253   3.0344   3.3692   3.4284   3.6236   3.7199

          k = 0.0608 0.0351 0.0000 ( 16149 PWs)   bands (ev):

   -64.9782 -64.9028 -64.8901 -64.8620 -64.8472 -64.8151 -64.7978 -64.6928
   -64.6316 -64.6086 -64.6022 -64.5979 -37.3920 -37.3151 -37.2822 -37.2643
   -37.2105 -37.1965 -37.1954 -37.0667 -37.0310 -37.0008 -36.9274 -36.9228
   -36.8853 -36.8479 -36.7803 -36.7779 -36.7299 -36.7272 -36.6866 -36.6818
   -36.6493 -36.6439 -36.5962 -36.5610 -36.5589 -36.5369 -36.5322 -36.4995
   -36.4988 -36.4801 -36.4741 -36.4585 -36.3833 -36.3547 -36.3353 -36.2400
   -16.2320  -3.4361  -3.0295  -2.8068  -2.6971  -2.4436  -2.2259  -2.2126
    -2.0899  -1.9207  -1.8384  -1.8023  -1.7555  -1.6916  -1.5834  -1.4951
    -1.2810  -1.0638  -0.7079  -0.4877  -0.4663  -0.3567  -0.2685  -0.0528
     0.2562   0.2811   0.2837   0.3645   0.5736   0.6666   0.7802   0.9625
     0.9690   1.0968   1.2612   1.3105   1.3426   1.4272   1.4946   1.7663
     1.8153   1.8647   1.9681   2.0208   2.0646   2.2190   2.3462   2.3826
     2.6661   2.8379   3.1002   3.2491   3.3240   3.3450   3.4919

          k = 0.0608-0.1404 0.0000 ( 16203 PWs)   bands (ev):

   -64.9577 -64.9130 -64.8825 -64.8705 -64.8480 -64.8260 -64.7948 -64.6736
   -64.6428 -64.6199 -64.6096 -64.5886 -37.3232 -37.2563 -37.2279 -37.2148
   -37.1781 -37.1497 -37.1136 -37.0504 -37.0300 -36.9791 -36.9486 -36.9401
   -36.8830 -36.8669 -36.8115 -36.7737 -36.7573 -36.7156 -36.7018 -36.6842
   -36.6677 -36.6508 -36.6106 -36.5997 -36.5874 -36.5769 -36.5513 -36.5421
   -36.5195 -36.5003 -36.4752 -36.4393 -36.4244 -36.3825 -36.3408 -36.2836
   -16.2272  -3.1639  -2.7270  -2.6424  -2.5894  -2.2182  -1.9277  -1.9002
    -1.8038  -1.6972  -1.5324  -1.5156  -1.4447  -1.3982  -1.2400  -1.1529
    -1.0325  -0.8975  -0.7216  -0.5864  -0.4480  -0.4092  -0.2792  -0.1053
    -0.0250   0.0430   0.1241   0.2191   0.4656   0.5611   0.6177   0.6800
     0.7633   0.8495   0.9131   0.9802   1.0727   1.2447   1.3753   1.4501
     1.5297   1.6303   1.6634   1.7326   2.1553   2.2420   2.3211   2.3832
     2.5556   2.6520   2.6983   2.8729   3.0763   3.2442   3.3392

          k = 0.0608-0.1053 0.0000 ( 16272 PWs)   bands (ev):

   -64.9398 -64.9239 -64.8803 -64.8746 -64.8408 -64.8406 -64.7922 -64.6492
   -64.6488 -64.6424 -64.6102 -64.5846 -37.2437 -37.2282 -37.1949 -37.1786
   -37.1592 -37.1435 -37.0717 -37.0679 -37.0463 -37.0024 -36.9728 -36.9070
   -36.8568 -36.8538 -36.8342 -36.7768 -36.7722 -36.7611 -36.7186 -36.6899
   -36.6845 -36.6594 -36.6104 -36.5935 -36.5845 -36.5843 -36.5786 -36.5697
   -36.5286 -36.4970 -36.4648 -36.4454 -36.4263 -36.3585 -36.3558 -36.3546
   -16.2249  -3.0037  -2.6568  -2.6158  -2.1230  -2.1105  -1.9581  -1.5323
    -1.5107  -1.5082  -1.4751  -1.2713  -1.1436  -1.0792  -1.0492  -1.0181
    -1.0018  -0.9816  -0.9577  -0.5144  -0.5035  -0.2342  -0.2058  -0.0922
    -0.0854  -0.0553  -0.0514   0.0392   0.1288   0.1873   0.1924   0.4096
     0.4119   0.4449   0.8532   0.8864   1.0915   1.1235   1.1995   1.2313
     1.3855   1.5087   1.5471   1.9535   1.9589   2.0361   2.4964   2.5682
     2.5761   2.7318   2.8524   2.9569   3.0064   3.3531   3.6792

          k = 0.0608-0.0702 0.0000 ( 16203 PWs)   bands (ev):

   -64.9578 -64.9128 -64.8825 -64.8706 -64.8479 -64.8261 -64.7948 -64.6736
   -64.6428 -64.6199 -64.6095 -64.5886 -37.3234 -37.2564 -37.2279 -37.2147
   -37.1781 -37.1496 -37.1136 -37.0503 -37.0300 -36.9791 -36.9484 -36.9401
   -36.8830 -36.8669 -36.8115 -36.7737 -36.7574 -36.7157 -36.7018 -36.6842
   -36.6677 -36.6508 -36.6106 -36.5997 -36.5874 -36.5769 -36.5513 -36.5421
   -36.5195 -36.5003 -36.4752 -36.4393 -36.4244 -36.3823 -36.3408 -36.2836
   -16.2272  -3.1639  -2.7270  -2.6424  -2.5894  -2.2182  -1.9277  -1.9002
    -1.8037  -1.6972  -1.5324  -1.5156  -1.4447  -1.3982  -1.2400  -1.1529
    -1.0325  -0.8975  -0.7216  -0.5864  -0.4480  -0.4092  -0.2792  -0.1053
    -0.0250   0.0430   0.1242   0.2191   0.4656   0.5611   0.6177   0.6800
     0.7633   0.8495   0.9131   0.9802   1.0727   1.2447   1.3753   1.4501
     1.5297   1.6303   1.6634   1.7326   2.1552   2.2420   2.3211   2.3832
     2.5556   2.6520   2.6983   2.8729   3.0763   3.2442   3.3392

          k =-0.0912 0.0526 0.0000 ( 16164 PWs)   bands (ev):

   -64.9545 -64.9211 -64.8800 -64.8623 -64.8566 -64.8202 -64.7978 -64.6643
   -64.6601 -64.6098 -64.6022 -64.5980 -37.3277 -37.2630 -37.2418 -37.2200
   -37.1937 -37.1438 -37.0533 -37.0306 -37.0125 -36.9989 -36.9524 -36.9508
   -36.9298 -36.8399 -36.7963 -36.7533 -36.7502 -36.7355 -36.7057 -36.6930
   -36.6409 -36.6229 -36.6201 -36.6160 -36.5933 -36.5763 -36.5727 -36.5545
   -36.5200 -36.4990 -36.4946 -36.4618 -36.4480 -36.3665 -36.2918 -36.2867
   -16.2273  -3.2130  -2.6898  -2.6054  -2.5726  -2.4037  -1.9381  -1.8895
    -1.8873  -1.6947  -1.6004  -1.4987  -1.4024  -1.2277  -1.1889  -1.1715
    -1.0121  -0.9709  -0.8664  -0.5211  -0.3666  -0.2941  -0.2031  -0.2014
    -0.0997   0.0320   0.2645   0.3223   0.6292   0.7152   0.8435   0.8524
     0.8570   0.9346   0.9726   1.0349   1.0453   1.1303   1.2281   1.2905
     1.4499   1.4538   1.4888   2.1501   2.1855   2.2009   2.2049   2.3542
     2.4639   2.6453   2.7394   2.8132   2.8886   3.0134   3.0878

          k =-0.0912 0.0877 0.0000 ( 16203 PWs)   bands (ev):

   -64.9578 -64.9128 -64.8826 -64.8705 -64.8479 -64.8261 -64.7948 -64.6736
   -64.6428 -64.6199 -64.6095 -64.5887 -37.3234 -37.2564 -37.2279 -37.2147
   -37.1781 -37.1496 -37.1136 -37.0503 -37.0300 -36.9790 -36.9485 -36.9401
   -36.8830 -36.8668 -36.8115 -36.7738 -36.7574 -36.7157 -36.7018 -36.6842
   -36.6677 -36.6508 -36.6106 -36.5997 -36.5874 -36.5768 -36.5513 -36.5421
   -36.5195 -36.5003 -36.4752 -36.4393 -36.4245 -36.3823 -36.3408 -36.2836
   -16.2272  -3.1639  -2.7270  -2.6424  -2.5894  -2.2182  -1.9277  -1.9002
    -1.8038  -1.6972  -1.5324  -1.5156  -1.4447  -1.3982  -1.2400  -1.1529
    -1.0325  -0.8975  -0.7216  -0.5864  -0.4480  -0.4092  -0.2792  -0.1053
    -0.0250   0.0430   0.1242   0.2191   0.4656   0.5611   0.6177   0.6800
     0.7633   0.8495   0.9131   0.9802   1.0726   1.2447   1.3754   1.4501
     1.5296   1.6303   1.6634   1.7326   2.1553   2.2420   2.3210   2.3832
     2.5556   2.6520   2.6983   2.8729   3.0763   3.2442   3.3392

          k =-0.0912 0.1228 0.0000 ( 16203 PWs)   bands (ev):

   -64.9578 -64.9129 -64.8826 -64.8704 -64.8480 -64.8260 -64.7948 -64.6736
   -64.6428 -64.6199 -64.6096 -64.5887 -37.3233 -37.2564 -37.2279 -37.2147
   -37.1782 -37.1497 -37.1136 -37.0503 -37.0300 -36.9791 -36.9486 -36.9401
   -36.8829 -36.8667 -36.8115 -36.7737 -36.7574 -36.7156 -36.7018 -36.6842
   -36.6677 -36.6508 -36.6106 -36.5997 -36.5874 -36.5768 -36.5513 -36.5421
   -36.5195 -36.5003 -36.4752 -36.4393 -36.4245 -36.3825 -36.3408 -36.2836
   -16.2272  -3.1639  -2.7271  -2.6424  -2.5894  -2.2182  -1.9277  -1.9002
    -1.8038  -1.6972  -1.5324  -1.5156  -1.4447  -1.3982  -1.2400  -1.1529
    -1.0325  -0.8975  -0.7216  -0.5864  -0.4480  -0.4092  -0.2792  -0.1053
    -0.0250   0.0430   0.1242   0.2191   0.4656   0.5611   0.6177   0.6800
     0.7633   0.8495   0.9132   0.9802   1.0726   1.2447   1.3754   1.4501
     1.5297   1.6303   1.6634   1.7326   2.1552   2.2420   2.3211   2.3832
     2.5557   2.6520   2.6983   2.8729   3.0763   3.2442   3.3392

          k =-0.0912-0.0526 0.0000 ( 16164 PWs)   bands (ev):

   -64.9544 -64.9214 -64.8800 -64.8620 -64.8568 -64.8202 -64.7978 -64.6643
   -64.6601 -64.6098 -64.6022 -64.5980 -37.3275 -37.2630 -37.2419 -37.2199
   -37.1938 -37.1439 -37.0533 -37.0307 -37.0125 -36.9989 -36.9527 -36.9508
   -36.9298 -36.8398 -36.7961 -36.7531 -36.7502 -36.7356 -36.7057 -36.6930
   -36.6410 -36.6229 -36.6201 -36.6159 -36.5933 -36.5763 -36.5727 -36.5545
   -36.5200 -36.4990 -36.4945 -36.4617 -36.4480 -36.3667 -36.2918 -36.2867
   -16.2273  -3.2130  -2.6898  -2.6054  -2.5726  -2.4037  -1.9381  -1.8895
    -1.8873  -1.6947  -1.6005  -1.4986  -1.4024  -1.2277  -1.1890  -1.1715
    -1.0121  -0.9708  -0.8664  -0.5211  -0.3666  -0.2941  -0.2031  -0.2014
    -0.0997   0.0320   0.2644   0.3223   0.6292   0.7152   0.8435   0.8524
     0.8571   0.9346   0.9726   1.0350   1.0453   1.1303   1.2281   1.2905
     1.4498   1.4538   1.4888   2.1501   2.1855   2.2009   2.2049   2.3542
     2.4639   2.6454   2.7394   2.8133   2.8885   3.0134   3.0878

     the Fermi energy is     2.3112 ev

!    total energy              =   -2136.00296350 Ry
     Harris-Foulkes estimate   =   -2136.00295651 Ry
     estimated scf accuracy    <       0.00000360 Ry

     The total energy is the sum of the following terms:

     one-electron contribution =  -19234.94641132 Ry
     hartree contribution      =    9618.13210660 Ry
     xc contribution           =    -404.48347029 Ry
     ewald contribution        =    7885.38274869 Ry
     electric field correction =       0.00006604 Ry
     smearing contrib. (-TS)   =      -0.08800322 Ry

     convergence has been achieved in  26 iterations
 
 BEEF-vdW xc energy contributions
           1 :   -354.280954939932     
           2 :    325.510751842522     
           3 :   -274.438419023329     
           4 :    211.421184568881     
           5 :   -147.419289268414     
           6 :    90.9842637154578     
           7 :   -46.6278852049160     
           8 :    14.7476563603168     
           9 :    7.07882929862319     
          10 :   -22.2161371868544     
          11 :    33.2851060821188     
          12 :   -41.3118252411539     
          13 :    45.8103277751842     
          14 :   -45.5923814138350     
          15 :    39.8065438106601     
          16 :   -28.7506539410100     
          17 :    14.1141042583071     
          18 :    1.40004417260661     
          19 :   -14.8872540379842     
          20 :    24.1075573088092     
          21 :   -28.0616136081007     
          22 :    27.0675751603681     
          23 :   -22.3798081861339     
          24 :    15.5661536578531     
          25 :   -7.95130508835587     
          26 :   0.348252291444282     
          27 :    6.86820022155109     
          28 :   -13.4750849887502     
          29 :    19.1103433664491     
          30 :   -23.1583929326210     
          31 :   -33.7798959931600     
          32 :   -24.7464493901023     

     Forces acting on atoms (Ry/au):


     negative rho (up, down):  1.591E+00 0.000E+00
     atom    1 type  1   force =    -0.00024401   -0.00015057    0.02770035
     atom    2 type  1   force =     0.00024586   -0.00015016    0.02771972
     atom    3 type  1   force =     0.00000030    0.00028832    0.02770689
     atom    4 type  1   force =     0.00000299    0.00000507    0.02818028
     atom    5 type  1   force =    -0.00000981   -0.00700169   -0.00407563
     atom    6 type  1   force =     0.00000800   -0.00003891    0.00225183
     atom    7 type  1   force =     0.00602444    0.00352551   -0.00406145
     atom    8 type  1   force =    -0.00602465    0.00352375   -0.00406501
     atom    9 type  1   force =     0.00000313    0.00000153   -0.04601670
     atom   10 type  1   force =     0.00000008   -0.02586647    0.01024228
     atom   11 type  1   force =    -0.02238392    0.01292255    0.01024136
     atom   12 type  1   force =     0.02239612    0.01293512    0.01025641
     atom   13 type  2   force =    -0.00001854    0.00000595   -0.08608032

     Total force =     0.108850     Total SCF correction =     0.003130


     entering subroutine stress ...


     negative rho (up, down):  1.591E+00 0.000E+00
          total   stress  (Ry/bohr**3)                   (kbar)     P=  -35.04
  -0.00021920  -0.00000000   0.00000001        -32.25     -0.00      0.00
  -0.00000000  -0.00021925  -0.00000001         -0.00    -32.25     -0.00
   0.00000001  -0.00000001  -0.00027619          0.00     -0.00    -40.63


     BFGS Geometry Optimization

     number of scf cycles    =   1
     number of bfgs steps    =   0

     energy   new            =   -2136.0029634993 Ry

     new trust radius        =       0.0860803218 bohr
     new conv_thr            =       0.0000099958 Ry


ATOMIC_POSITIONS (crystal)
Tc1      0.166666667   0.166666667   0.408540475    0   0   0
Tc1      0.666666667   0.166666667   0.408540475    0   0   0
Tc1      0.166666667   0.666666667   0.408540475    0   0   0
Tc1      0.666666667   0.666666667   0.408540475    0   0   0
Tc1      0.833333333   0.333333333   0.500000000    0   0   0
Tc1      0.333333333   0.333333333   0.500000000    0   0   0
Tc1      0.833333333   0.833333333   0.500000000    0   0   0
Tc1      0.333333333   0.833333333   0.500000000    0   0   0
Tc1      0.000000217   0.000000171   0.590464689
Tc1      0.501441154  -0.002882294   0.591680953
Tc1     -0.002880048   0.501439956   0.591680933
Tc1      0.501440569   0.501441357   0.591681259
O1       0.333331213   0.333333996   0.646160981



     Writing output data file calc.save
     Check: negative starting charge=   -1.505105
     NEW-OLD atomic charge density approx. for the potential

     Check: negative/imaginary core charge=   -0.000022    0.000000
     Check: negative starting charge=   -1.507782

     negative rho (up, down):  1.593E+00 0.000E+00
 
     Adding external electric field

     Computed dipole along edir(3) : 
        Dipole               -0.1656 Ry au,         -0.4210 Debye
        Dipole field         -0.0005 Ry au
 
        Potential amp.        0.0436 Ry
        Total length         45.0992 bohr
 

     total cpu time spent up to now is      622.0 secs

     per-process dynamical memory:   101.8 Mb

     Self-consistent Calculation

     iteration #  1     ecut=    36.75 Ry     beta=0.30
     Davidson diagonalization with overlap
     ethr =  1.00E-06,  avg # of iterations =  8.7

     negative rho (up, down):  1.593E+00 0.000E+00
 
     Adding external electric field

     Computed dipole along edir(3) : 
        Dipole                0.4443 Ry au,          1.1292 Debye
        Dipole field          0.0013 Ry au
 
        Potential amp.       -0.1171 Ry
        Total length         45.0992 bohr
 

     total cpu time spent up to now is      652.1 secs

     total energy              =   -2135.98873524 Ry
     Harris-Foulkes estimate   =   -2136.01426778 Ry
     estimated scf accuracy    <       0.05201041 Ry

     iteration #  2     ecut=    36.75 Ry     beta=0.30
     Davidson diagonalization with overlap
     ethr =  2.80E-05,  avg # of iterations =  6.5

     negative rho (up, down):  1.593E+00 0.000E+00
 
     Adding external electric field

     Computed dipole along edir(3) : 
        Dipole               -0.1218 Ry au,         -0.3095 Debye
        Dipole field         -0.0004 Ry au
 
        Potential amp.        0.0321 Ry
        Total length         45.0992 bohr
 

     total cpu time spent up to now is      675.2 secs

     total energy              =   -2135.66998689 Ry
     Harris-Foulkes estimate   =   -2136.35732991 Ry
     estimated scf accuracy    <      30.03069501 Ry

     iteration #  3     ecut=    36.75 Ry     beta=0.30
     Davidson diagonalization with overlap
     ethr =  2.80E-05,  avg # of iterations =  6.2

     negative rho (up, down):  1.593E+00 0.000E+00
 
     Adding external electric field

     Computed dipole along edir(3) : 
        Dipole               -0.1194 Ry au,         -0.3036 Debye
        Dipole field         -0.0003 Ry au
 
        Potential amp.        0.0315 Ry
        Total length         45.0992 bohr
 

     total cpu time spent up to now is      697.8 secs

     total energy              =   -2136.01197475 Ry
     Harris-Foulkes estimate   =   -2136.01487179 Ry
     estimated scf accuracy    <       0.02241052 Ry

     iteration #  4     ecut=    36.75 Ry     beta=0.30
     Davidson diagonalization with overlap
     ethr =  1.20E-05,  avg # of iterations =  2.5

     negative rho (up, down):  1.593E+00 0.000E+00
 
     Adding external electric field

     Computed dipole along edir(3) : 
        Dipole               -0.1192 Ry au,         -0.3031 Debye
        Dipole field         -0.0003 Ry au
 
        Potential amp.        0.0314 Ry
        Total length         45.0992 bohr
 

     total cpu time spent up to now is      714.0 secs

     total energy              =   -2136.01300873 Ry
     Harris-Foulkes estimate   =   -2136.01338034 Ry
     estimated scf accuracy    <       0.00194165 Ry

     iteration #  5     ecut=    36.75 Ry     beta=0.30
     Davidson diagonalization with overlap
     ethr =  1.04E-06,  avg # of iterations =  6.2

     negative rho (up, down):  1.593E+00 0.000E+00
 
     Adding external electric field

     Computed dipole along edir(3) : 
        Dipole               -0.1188 Ry au,         -0.3019 Debye
        Dipole field         -0.0003 Ry au
 
        Potential amp.        0.0313 Ry
        Total length         45.0992 bohr
 

     total cpu time spent up to now is      735.5 secs

     total energy              =   -2136.01344015 Ry
     Harris-Foulkes estimate   =   -2136.01366320 Ry
     estimated scf accuracy    <       0.00180087 Ry

     iteration #  6     ecut=    36.75 Ry     beta=0.30
     Davidson diagonalization with overlap
     ethr =  9.68E-07,  avg # of iterations =  2.6

     negative rho (up, down):  1.593E+00 0.000E+00
 
     Adding external electric field

     Computed dipole along edir(3) : 
        Dipole               -0.1166 Ry au,         -0.2964 Debye
        Dipole field         -0.0003 Ry au
 
        Potential amp.        0.0307 Ry
        Total length         45.0992 bohr
 

     total cpu time spent up to now is      751.8 secs

     total energy              =   -2136.01350687 Ry
     Harris-Foulkes estimate   =   -2136.01355936 Ry
     estimated scf accuracy    <       0.00041870 Ry

     iteration #  7     ecut=    36.75 Ry     beta=0.30
     Davidson diagonalization with overlap
     ethr =  2.25E-07,  avg # of iterations =  3.8

     negative rho (up, down):  1.593E+00 0.000E+00
 
     Adding external electric field

     Computed dipole along edir(3) : 
        Dipole               -0.1148 Ry au,         -0.2917 Debye
        Dipole field         -0.0003 Ry au
 
        Potential amp.        0.0302 Ry
        Total length         45.0992 bohr
 

     total cpu time spent up to now is      769.0 secs

     total energy              =   -2136.01352734 Ry
     Harris-Foulkes estimate   =   -2136.01355477 Ry
     estimated scf accuracy    <       0.00022879 Ry

     iteration #  8     ecut=    36.75 Ry     beta=0.30
     Davidson diagonalization with overlap
     ethr =  1.23E-07,  avg # of iterations =  2.1

     negative rho (up, down):  1.593E+00 0.000E+00
 
     Adding external electric field

     Computed dipole along edir(3) : 
        Dipole               -0.1152 Ry au,         -0.2927 Debye
        Dipole field         -0.0003 Ry au
 
        Potential amp.        0.0303 Ry
        Total length         45.0992 bohr
 

     total cpu time spent up to now is      784.8 secs

     total energy              =   -2136.01353615 Ry
     Harris-Foulkes estimate   =   -2136.01354094 Ry
     estimated scf accuracy    <       0.00003894 Ry

     iteration #  9     ecut=    36.75 Ry     beta=0.30
     Davidson diagonalization with overlap
     ethr =  2.09E-08,  avg # of iterations =  4.6

     negative rho (up, down):  1.593E+00 0.000E+00
 
     Adding external electric field

     Computed dipole along edir(3) : 
        Dipole               -0.1155 Ry au,         -0.2935 Debye
        Dipole field         -0.0003 Ry au
 
        Potential amp.        0.0304 Ry
        Total length         45.0992 bohr
 

     total cpu time spent up to now is      805.0 secs

     total energy              =   -2136.01354097 Ry
     Harris-Foulkes estimate   =   -2136.01355251 Ry
     estimated scf accuracy    <       0.00014528 Ry

     iteration # 10     ecut=    36.75 Ry     beta=0.30
     Davidson diagonalization with overlap
     ethr =  2.09E-08,  avg # of iterations =  3.6

     negative rho (up, down):  1.593E+00 0.000E+00
 
     Adding external electric field

     Computed dipole along edir(3) : 
        Dipole               -0.1158 Ry au,         -0.2944 Debye
        Dipole field         -0.0003 Ry au
 
        Potential amp.        0.0305 Ry
        Total length         45.0992 bohr
 

     total cpu time spent up to now is      821.6 secs

     total energy              =   -2136.01354195 Ry
     Harris-Foulkes estimate   =   -2136.01354500 Ry
     estimated scf accuracy    <       0.00002299 Ry

     iteration # 11     ecut=    36.75 Ry     beta=0.30
     Davidson diagonalization with overlap
     ethr =  1.24E-08,  avg # of iterations =  3.8

     negative rho (up, down):  1.593E+00 0.000E+00

     negative rho (up, down):  1.593E+00 0.000E+00

     negative rho (up, down):  1.593E+00 0.000E+00

     negative rho (up, down):  1.593E+00 0.000E+00

     negative rho (up, down):  1.593E+00 0.000E+00

     negative rho (up, down):  1.593E+00 0.000E+00

     negative rho (up, down):  1.593E+00 0.000E+00

     negative rho (up, down):  1.593E+00 0.000E+00

     negative rho (up, down):  1.593E+00 0.000E+00

     negative rho (up, down):  1.593E+00 0.000E+00

     negative rho (up, down):  1.593E+00 0.000E+00

     negative rho (up, down):  1.593E+00 0.000E+00

     negative rho (up, down):  1.593E+00 0.000E+00

     negative rho (up, down):  1.593E+00 0.000E+00

     negative rho (up, down):  1.593E+00 0.000E+00

     negative rho (up, down):  1.593E+00 0.000E+00

     negative rho (up, down):  1.593E+00 0.000E+00

     negative rho (up, down):  1.593E+00 0.000E+00

     negative rho (up, down):  1.593E+00 0.000E+00

     negative rho (up, down):  1.593E+00 0.000E+00

     negative rho (up, down):  1.593E+00 0.000E+00

     negative rho (up, down):  1.593E+00 0.000E+00

     negative rho (up, down):  1.593E+00 0.000E+00

     negative rho (up, down):  1.593E+00 0.000E+00

     negative rho (up, down):  1.593E+00 0.000E+00

     negative rho (up, down):  1.593E+00 0.000E+00

     negative rho (up, down):  1.593E+00 0.000E+00

     negative rho (up, down):  1.593E+00 0.000E+00

     negative rho (up, down):  1.593E+00 0.000E+00

     negative rho (up, down):  1.593E+00 0.000E+00

     negative rho (up, down):  1.593E+00 0.000E+00

     negative rho (up, down):  1.593E+00 0.000E+00

     negative rho (up, down):  1.593E+00 0.000E+00

     negative rho (up, down):  1.593E+00 0.000E+00

     negative rho (up, down):  1.593E+00 0.000E+00
 
     Adding external electric field

     Computed dipole along edir(3) : 
        Dipole               -0.1155 Ry au,         -0.2936 Debye
        Dipole field         -0.0003 Ry au
 
        Potential amp.        0.0304 Ry
        Total length         45.0992 bohr
 

     total cpu time spent up to now is      880.4 secs

     End of self-consistent calculation

          k = 0.0000 0.0000 0.0000 ( 16073 PWs)   bands (ev):

   -64.9838 -64.8930 -64.8326 -64.8323 -64.8123 -64.7690 -64.7689 -64.6924
   -64.5708 -64.5696 -64.5692 -64.5682 -37.5042 -37.3927 -37.3927 -37.3449
   -37.2986 -37.2745 -37.2744 -37.1241 -37.0974 -37.0973 -36.8645 -36.8390
   -36.8388 -36.7545 -36.7217 -36.7217 -36.6670 -36.6635 -36.6635 -36.6317
   -36.5659 -36.5658 -36.5293 -36.5097 -36.5096 -36.5074 -36.4267 -36.4160
   -36.4160 -36.3581 -36.3580 -36.3571 -36.2808 -36.2808 -36.1595 -36.1595
   -16.3925  -4.1670  -3.5081  -3.1598  -3.1598  -2.8891  -2.8891  -2.8834
    -2.7533  -2.5364  -2.3704  -2.3703  -2.3268  -2.1482  -2.0406  -2.0405
    -1.6637  -1.6636  -1.1103  -0.5524  -0.5524  -0.3385   0.1147   0.1147
     0.3555   0.5701   0.6670   0.6670   0.9206   0.9206   1.0295   1.0943
     1.0943   1.2151   1.2185   1.2185   1.6254   1.8033   1.8034   2.3940
     2.6259   2.6907   2.6907   2.8886   2.8887   3.1490   3.1490   3.2114
     3.5204   3.5204   3.8049   4.1581   4.2009   4.2010   4.3461

          k = 0.0000 0.0351 0.0000 ( 16137 PWs)   bands (ev):

   -64.9741 -64.8866 -64.8413 -64.8326 -64.8130 -64.7747 -64.7690 -64.6843
   -64.5781 -64.5710 -64.5693 -64.5689 -37.4651 -37.3611 -37.3467 -37.3060
   -37.2783 -37.2445 -37.2419 -37.0951 -37.0677 -37.0540 -36.8742 -36.8526
   -36.8520 -36.7623 -36.7496 -36.7214 -36.6928 -36.6732 -36.6459 -36.6251
   -36.5900 -36.5857 -36.5410 -36.5081 -36.5045 -36.5006 -36.4633 -36.4379
   -36.4312 -36.3884 -36.3872 -36.3452 -36.3267 -36.2914 -36.2172 -36.1729
   -16.3869  -3.9430  -3.3779  -3.1046  -3.0525  -2.7471  -2.6822  -2.6674
    -2.5130  -2.3608  -2.2303  -2.2123  -2.1888  -2.0060  -1.8793  -1.8622
    -1.5728  -1.5249  -1.0041  -0.5288  -0.4904  -0.2969   0.1904   0.1998
     0.2266   0.3533   0.5018   0.7904   0.8067   0.8816   0.9359   1.0383
     1.0647   1.1560   1.2011   1.3863   1.5077   1.6449   1.6796   1.9837
     2.4112   2.4353   2.6017   2.6224   2.6926   2.7859   3.0424   3.1092
     3.2069   3.4903   3.5746   3.6891   3.9430   4.0068   4.1145

          k = 0.0000 0.0702 0.0000 ( 16149 PWs)   bands (ev):

   -64.9483 -64.8760 -64.8591 -64.8327 -64.8187 -64.7863 -64.7690 -64.6620
   -64.6007 -64.5727 -64.5695 -64.5693 -37.3722 -37.2835 -37.2555 -37.2300
   -37.1841 -37.1720 -37.1691 -37.0375 -36.9992 -36.9713 -36.8990 -36.8945
   -36.8572 -36.8216 -36.7548 -36.7498 -36.7019 -36.6998 -36.6562 -36.6516
   -36.6208 -36.6132 -36.5647 -36.5323 -36.5302 -36.5065 -36.5011 -36.4710
   -36.4678 -36.4487 -36.4392 -36.4242 -36.3512 -36.3220 -36.3032 -36.2093
   -16.3756  -3.4708  -3.0657  -2.8926  -2.8329  -2.4311  -2.1987  -2.1873
    -2.0712  -1.8959  -1.8131  -1.7776  -1.7281  -1.6590  -1.5791  -1.4768
    -1.2516  -1.0398  -0.6558  -0.4726  -0.4394  -0.3319  -0.2435  -0.0194
     0.2760   0.3067   0.3080   0.3910   0.6001   0.6757   0.8133   0.9869
     0.9980   1.1282   1.2863   1.3278   1.3671   1.4571   1.5232   1.7847
     1.8447   1.8902   2.0003   2.0559   2.0984   2.2440   2.3725   2.4268
     2.6848   2.8973   3.1422   3.2791   3.3473   3.3869   3.5286

          k = 0.0000-0.1053 0.0000 ( 16164 PWs)   bands (ev):

   -64.9237 -64.8938 -64.8501 -64.8328 -64.8285 -64.7915 -64.7689 -64.6315
   -64.6314 -64.5738 -64.5696 -64.5693 -37.3075 -37.2310 -37.2139 -37.1840
   -37.1699 -37.1217 -37.0224 -37.0003 -36.9774 -36.9731 -36.9301 -36.9238
   -36.9032 -36.8169 -36.7681 -36.7242 -36.7225 -36.7031 -36.6766 -36.6644
   -36.6117 -36.5953 -36.5884 -36.5847 -36.5581 -36.5441 -36.5424 -36.5272
   -36.4919 -36.4679 -36.4639 -36.4301 -36.4107 -36.3322 -36.2595 -36.2573
   -16.3700  -3.3219  -2.7569  -2.7213  -2.5834  -2.4118  -1.9216  -1.8616
    -1.8574  -1.6457  -1.5859  -1.4801  -1.3720  -1.2137  -1.1653  -1.1440
    -0.9826  -0.9369  -0.8519  -0.4770  -0.3331  -0.2644  -0.1794  -0.1766
    -0.0667   0.0422   0.2863   0.3454   0.6377   0.6937   0.8732   0.8864
     0.8883   0.9693   0.9874   1.0559   1.0778   1.1610   1.2459   1.3312
     1.4529   1.5209   1.5410   2.1481   2.2212   2.2257   2.2433   2.4003
     2.4983   2.6674   2.7916   2.8080   2.9308   3.0366   3.1637

          k = 0.0304-0.0175 0.0000 ( 16137 PWs)   bands (ev):

   -64.9741 -64.8865 -64.8415 -64.8324 -64.8130 -64.7748 -64.7690 -64.6843
   -64.5781 -64.5709 -64.5694 -64.5688 -37.4651 -37.3611 -37.3467 -37.3060
   -37.2783 -37.2446 -37.2419 -37.0951 -37.0676 -37.0541 -36.8742 -36.8527
   -36.8519 -36.7623 -36.7497 -36.7213 -36.6928 -36.6732 -36.6459 -36.6252
   -36.5901 -36.5856 -36.5410 -36.5080 -36.5045 -36.5007 -36.4633 -36.4379
   -36.4312 -36.3885 -36.3871 -36.3452 -36.3266 -36.2915 -36.2171 -36.1729
   -16.3869  -3.9430  -3.3779  -3.1046  -3.0525  -2.7471  -2.6822  -2.6674
    -2.5130  -2.3608  -2.2303  -2.2123  -2.1888  -2.0060  -1.8793  -1.8621
    -1.5729  -1.5248  -1.0041  -0.5288  -0.4904  -0.2969   0.1904   0.1998
     0.2266   0.3533   0.5018   0.7904   0.8067   0.8816   0.9359   1.0383
     1.0647   1.1560   1.2011   1.3863   1.5077   1.6449   1.6796   1.9837
     2.4112   2.4353   2.6017   2.6224   2.6926   2.7858   3.0425   3.1092
     3.2069   3.4903   3.5746   3.6891   3.9430   4.0068   4.1157

          k = 0.0304 0.0175 0.0000 ( 16137 PWs)   bands (ev):

   -64.9741 -64.8866 -64.8413 -64.8325 -64.8130 -64.7748 -64.7689 -64.6843
   -64.5781 -64.5709 -64.5696 -64.5688 -37.4651 -37.3611 -37.3467 -37.3060
   -37.2783 -37.2445 -37.2419 -37.0951 -37.0676 -37.0541 -36.8741 -36.8526
   -36.8520 -36.7623 -36.7496 -36.7213 -36.6928 -36.6732 -36.6459 -36.6251
   -36.5900 -36.5857 -36.5410 -36.5079 -36.5045 -36.5007 -36.4633 -36.4379
   -36.4312 -36.3886 -36.3871 -36.3452 -36.3266 -36.2914 -36.2171 -36.1729
   -16.3869  -3.9430  -3.3779  -3.1046  -3.0525  -2.7471  -2.6822  -2.6674
    -2.5130  -2.3608  -2.2303  -2.2123  -2.1888  -2.0060  -1.8794  -1.8621
    -1.5729  -1.5248  -1.0041  -0.5288  -0.4904  -0.2970   0.1904   0.1998
     0.2266   0.3533   0.5018   0.7904   0.8067   0.8817   0.9359   1.0383
     1.0647   1.1560   1.2011   1.3863   1.5077   1.6448   1.6796   1.9837
     2.4112   2.4352   2.6017   2.6224   2.6927   2.7858   3.0425   3.1093
     3.2069   3.4904   3.5746   3.6891   3.9431   4.0069   4.1169

          k = 0.0304 0.0526 0.0000 ( 16202 PWs)   bands (ev):

   -64.9563 -64.8764 -64.8542 -64.8358 -64.8147 -64.7853 -64.7677 -64.6691
   -64.5854 -64.5850 -64.5716 -64.5624 -37.3979 -37.3074 -37.2625 -37.2470
   -37.2290 -37.1957 -37.1881 -37.0544 -37.0105 -36.9927 -36.8976 -36.8752
   -36.8624 -36.8159 -36.7690 -36.7268 -36.7052 -36.6726 -36.6643 -36.6369
   -36.6049 -36.5833 -36.5754 -36.5409 -36.5215 -36.5055 -36.4816 -36.4757
   -36.4712 -36.4406 -36.3923 -36.3606 -36.3584 -36.3186 -36.3078 -36.2019
   -16.3784  -3.5748  -3.1469  -3.0014  -2.8779  -2.4402  -2.3955  -2.2963
    -2.1070  -2.0543  -1.9914  -1.9317  -1.8668  -1.7622  -1.6391  -1.5613
    -1.3445  -1.2341  -0.7724  -0.4928  -0.4096  -0.2861  -0.1578   0.1257
     0.2350   0.3201   0.3303   0.3838   0.6510   0.8164   0.9064   0.9698
     0.9995   1.1965   1.2513   1.2549   1.3128   1.5137   1.6807   1.8194
     1.9710   2.0276   2.1132   2.2579   2.3946   2.4424   2.5101   2.6293
     2.6985   2.9790   3.0822   3.3917   3.4621   3.6668   3.7652

          k = 0.0304-0.1228 0.0000 ( 16203 PWs)   bands (ev):

   -64.9274 -64.8853 -64.8526 -64.8414 -64.8194 -64.7975 -64.7658 -64.6427
   -64.6120 -64.5894 -64.5733 -64.5582 -37.3030 -37.2261 -37.1941 -37.1843
   -37.1530 -37.1257 -37.0857 -37.0220 -37.0000 -36.9530 -36.9187 -36.9142
   -36.8556 -36.8383 -36.7837 -36.7440 -36.7294 -36.6879 -36.6742 -36.6543
   -36.6384 -36.6206 -36.5783 -36.5706 -36.5560 -36.5462 -36.5239 -36.5109
   -36.4897 -36.4684 -36.4417 -36.4056 -36.3917 -36.3480 -36.3098 -36.2529
   -16.3700  -3.2698  -2.8193  -2.7358  -2.6229  -2.2005  -1.8995  -1.8707
    -1.7849  -1.6742  -1.5097  -1.4825  -1.4224  -1.3727  -1.2113  -1.1281
    -1.0044  -0.8774  -0.6950  -0.5490  -0.4223  -0.3809  -0.2369  -0.0873
    -0.0009   0.0632   0.1359   0.2492   0.4968   0.5623   0.6426   0.6967
     0.7850   0.8740   0.9437   1.0060   1.1005   1.2641   1.4057   1.4845
     1.5474   1.6559   1.7122   1.7771   2.1877   2.2633   2.3509   2.4161
     2.5968   2.6780   2.7292   2.9076   3.1168   3.2868   3.3733

          k = 0.0304-0.0877 0.0000 ( 16203 PWs)   bands (ev):

   -64.9274 -64.8853 -64.8526 -64.8414 -64.8194 -64.7975 -64.7658 -64.6427
   -64.6120 -64.5894 -64.5733 -64.5582 -37.3030 -37.2261 -37.1941 -37.1844
   -37.1530 -37.1257 -37.0857 -37.0221 -37.0000 -36.9529 -36.9187 -36.9142
   -36.8557 -36.8384 -36.7837 -36.7440 -36.7294 -36.6879 -36.6741 -36.6543
   -36.6384 -36.6206 -36.5783 -36.5706 -36.5560 -36.5462 -36.5239 -36.5109
   -36.4897 -36.4684 -36.4416 -36.4056 -36.3917 -36.3480 -36.3098 -36.2529
   -16.3700  -3.2698  -2.8193  -2.7358  -2.6229  -2.2005  -1.8995  -1.8707
    -1.7849  -1.6742  -1.5097  -1.4825  -1.4224  -1.3727  -1.2113  -1.1281
    -1.0044  -0.8774  -0.6950  -0.5490  -0.4223  -0.3809  -0.2369  -0.0873
    -0.0009   0.0632   0.1359   0.2492   0.4968   0.5623   0.6426   0.6967
     0.7850   0.8740   0.9437   1.0061   1.1005   1.2641   1.4057   1.4845
     1.5474   1.6559   1.7122   1.7771   2.1878   2.2634   2.3509   2.4161
     2.5968   2.6780   2.7292   2.9076   3.1168   3.2868   3.3733

          k = 0.0304-0.0526 0.0000 ( 16202 PWs)   bands (ev):

   -64.9563 -64.8764 -64.8543 -64.8357 -64.8147 -64.7853 -64.7677 -64.6691
   -64.5855 -64.5850 -64.5716 -64.5624 -37.3979 -37.3073 -37.2625 -37.2470
   -37.2289 -37.1957 -37.1881 -37.0543 -37.0106 -36.9927 -36.8976 -36.8751
   -36.8624 -36.8159 -36.7690 -36.7267 -36.7052 -36.6726 -36.6643 -36.6368
   -36.6049 -36.5832 -36.5753 -36.5409 -36.5215 -36.5055 -36.4816 -36.4757
   -36.4712 -36.4406 -36.3923 -36.3606 -36.3584 -36.3186 -36.3078 -36.2019
   -16.3784  -3.5748  -3.1469  -3.0014  -2.8779  -2.4402  -2.3955  -2.2963
    -2.1070  -2.0543  -1.9914  -1.9317  -1.8668  -1.7622  -1.6391  -1.5613
    -1.3445  -1.2341  -0.7723  -0.4928  -0.4096  -0.2860  -0.1578   0.1257
     0.2350   0.3201   0.3303   0.3838   0.6509   0.8164   0.9064   0.9698
     0.9995   1.1965   1.2513   1.2549   1.3128   1.5137   1.6807   1.8194
     1.9710   2.0276   2.1132   2.2579   2.3945   2.4425   2.5101   2.6293
     2.6985   2.9790   3.0822   3.3917   3.4621   3.6668   3.7652

          k = 0.0608-0.0351 0.0000 ( 16149 PWs)   bands (ev):

   -64.9482 -64.8760 -64.8592 -64.8325 -64.8188 -64.7864 -64.7689 -64.6620
   -64.6007 -64.5727 -64.5695 -64.5693 -37.3721 -37.2835 -37.2555 -37.2300
   -37.1841 -37.1721 -37.1691 -37.0376 -36.9991 -36.9713 -36.8990 -36.8946
   -36.8572 -36.8217 -36.7549 -36.7497 -36.7018 -36.6998 -36.6564 -36.6516
   -36.6208 -36.6132 -36.5647 -36.5322 -36.5302 -36.5065 -36.5010 -36.4710
   -36.4678 -36.4488 -36.4391 -36.4242 -36.3512 -36.3220 -36.3033 -36.2093
   -16.3756  -3.4708  -3.0657  -2.8926  -2.8329  -2.4311  -2.1987  -2.1873
    -2.0712  -1.8959  -1.8131  -1.7776  -1.7281  -1.6590  -1.5791  -1.4769
    -1.2516  -1.0398  -0.6558  -0.4726  -0.4395  -0.3319  -0.2435  -0.0193
     0.2760   0.3067   0.3080   0.3910   0.6002   0.6757   0.8133   0.9869
     0.9980   1.1283   1.2863   1.3278   1.3671   1.4571   1.5232   1.7847
     1.8447   1.8902   2.0002   2.0559   2.0984   2.2440   2.3725   2.4268
     2.6848   2.8973   3.1422   3.2791   3.3473   3.3869   3.5286

          k = 0.0608 0.0000 0.0000 ( 16202 PWs)   bands (ev):

   -64.9562 -64.8764 -64.8544 -64.8356 -64.8147 -64.7853 -64.7676 -64.6691
   -64.5854 -64.5851 -64.5716 -64.5624 -37.3979 -37.3073 -37.2625 -37.2470
   -37.2290 -37.1957 -37.1881 -37.0544 -37.0105 -36.9927 -36.8976 -36.8751
   -36.8625 -36.8160 -36.7690 -36.7267 -36.7052 -36.6726 -36.6643 -36.6369
   -36.6048 -36.5833 -36.5753 -36.5409 -36.5214 -36.5054 -36.4817 -36.4757
   -36.4712 -36.4406 -36.3923 -36.3606 -36.3584 -36.3186 -36.3078 -36.2019
   -16.3784  -3.5748  -3.1469  -3.0014  -2.8779  -2.4402  -2.3955  -2.2963
    -2.1070  -2.0543  -1.9914  -1.9317  -1.8668  -1.7622  -1.6391  -1.5613
    -1.3445  -1.2341  -0.7724  -0.4928  -0.4096  -0.2861  -0.1578   0.1257
     0.2350   0.3200   0.3303   0.3838   0.6509   0.8163   0.9065   0.9698
     0.9995   1.1964   1.2513   1.2549   1.3128   1.5137   1.6807   1.8194
     1.9710   2.0276   2.1132   2.2580   2.3946   2.4425   2.5101   2.6293
     2.6984   2.9790   3.0822   3.3918   3.4620   3.6668   3.7652

          k = 0.0608 0.0351 0.0000 ( 16149 PWs)   bands (ev):

   -64.9483 -64.8760 -64.8591 -64.8326 -64.8187 -64.7864 -64.7689 -64.6620
   -64.6007 -64.5727 -64.5696 -64.5692 -37.3722 -37.2836 -37.2555 -37.2299
   -37.1841 -37.1720 -37.1691 -37.0376 -36.9991 -36.9713 -36.8990 -36.8945
   -36.8572 -36.8217 -36.7548 -36.7498 -36.7019 -36.6999 -36.6563 -36.6516
   -36.6208 -36.6132 -36.5647 -36.5322 -36.5302 -36.5066 -36.5010 -36.4710
   -36.4678 -36.4488 -36.4391 -36.4242 -36.3512 -36.3220 -36.3033 -36.2093
   -16.3756  -3.4708  -3.0657  -2.8926  -2.8329  -2.4311  -2.1987  -2.1873
    -2.0712  -1.8959  -1.8131  -1.7775  -1.7281  -1.6590  -1.5791  -1.4769
    -1.2516  -1.0398  -0.6558  -0.4725  -0.4395  -0.3319  -0.2435  -0.0194
     0.2760   0.3067   0.3080   0.3910   0.6001   0.6757   0.8133   0.9869
     0.9980   1.1283   1.2863   1.3278   1.3671   1.4571   1.5232   1.7847
     1.8447   1.8902   2.0002   2.0559   2.0984   2.2440   2.3724   2.4269
     2.6848   2.8973   3.1422   3.2791   3.3473   3.3870   3.5286

          k = 0.0608-0.1404 0.0000 ( 16203 PWs)   bands (ev):

   -64.9274 -64.8853 -64.8527 -64.8413 -64.8194 -64.7975 -64.7658 -64.6427
   -64.6120 -64.5894 -64.5733 -64.5582 -37.3030 -37.2261 -37.1941 -37.1844
   -37.1530 -37.1257 -37.0857 -37.0220 -37.0001 -36.9530 -36.9186 -36.9142
   -36.8556 -36.8383 -36.7837 -36.7440 -36.7294 -36.6879 -36.6741 -36.6543
   -36.6384 -36.6207 -36.5783 -36.5706 -36.5559 -36.5463 -36.5238 -36.5109
   -36.4897 -36.4684 -36.4417 -36.4055 -36.3918 -36.3480 -36.3098 -36.2529
   -16.3700  -3.2698  -2.8193  -2.7358  -2.6229  -2.2005  -1.8995  -1.8707
    -1.7849  -1.6742  -1.5097  -1.4826  -1.4224  -1.3727  -1.2113  -1.1281
    -1.0044  -0.8774  -0.6950  -0.5490  -0.4223  -0.3809  -0.2369  -0.0873
[...]
   -37.1393 -37.1317 -37.1165 -36.9534 -36.9013 -36.8713 -36.8143 -36.8134
   -36.7741 -36.7330 -36.6611 -36.6577 -36.6049 -36.5960 -36.5423 -36.5394
   -36.5171 -36.5112 -36.4778 -36.4391 -36.4344 -36.4071 -36.4027 -36.3825
   -36.3648 -36.3447 -36.3088 -36.2905 -36.2280 -36.2262 -36.1754 -36.1243
   -16.7426  -3.7491  -3.2485  -3.2087  -3.0780  -2.4617  -2.2253  -2.2203
    -2.0884  -1.8925  -1.8077  -1.7573  -1.7199  -1.6320  -1.6003  -1.4302
    -1.1791  -1.0019  -0.5649  -0.4267  -0.3994  -0.2931  -0.2073   0.0360
     0.2706   0.2994   0.4029   0.5104   0.6852   0.7122   0.9310   0.9930
     1.0955   1.1893   1.2189   1.3194   1.3638   1.4683   1.6405   1.8541
     1.9305   1.9926   2.0883   2.1987   2.2047   2.3564   2.4577   2.5511
     2.7171   3.0322   3.2552   3.3905   3.4574   3.5511   3.6326

          k = 0.0608 0.0000 0.0000 ( 16202 PWs)   bands (ev):

   -64.8675 -64.7724 -64.7423 -64.7307 -64.7111 -64.6834 -64.6699 -64.5872
   -64.5079 -64.4993 -64.4793 -64.4244 -37.3816 -37.2487 -37.2068 -37.2022
   -37.1706 -37.1537 -37.1447 -36.9682 -36.9100 -36.8969 -36.8131 -36.7798
   -36.7633 -36.7405 -36.6693 -36.6439 -36.6080 -36.5807 -36.5632 -36.5314
   -36.4962 -36.4820 -36.4631 -36.4516 -36.4259 -36.4075 -36.3868 -36.3757
   -36.3629 -36.3063 -36.2768 -36.2665 -36.2536 -36.2060 -36.1762 -36.1178
   -16.7471  -3.7550  -3.3537  -3.2900  -3.2021  -2.4716  -2.4400  -2.3331
    -2.1218  -2.0209  -1.9874  -1.9371  -1.8605  -1.7301  -1.6303  -1.5231
    -1.2979  -1.1778  -0.6143  -0.4535  -0.3576  -0.2860  -0.1365   0.1688
     0.3344   0.3862   0.4328   0.4559   0.6439   0.8328   0.9819   1.0173
     1.0707   1.2029   1.2506   1.2883   1.3631   1.5487   1.7450   1.9102
     2.0457   2.1292   2.2067   2.3790   2.4789   2.5387   2.5963   2.6901
     2.8269   3.0939   3.2438   3.4676   3.6011   3.7979   3.9184

          k = 0.0608 0.0351 0.0000 ( 16149 PWs)   bands (ev):

   -64.8587 -64.7783 -64.7449 -64.7217 -64.7162 -64.6879 -64.6696 -64.5803
   -64.5194 -64.4906 -64.4836 -64.4248 -37.3559 -37.2188 -37.2111 -37.1769
   -37.1393 -37.1317 -37.1165 -36.9534 -36.9013 -36.8713 -36.8143 -36.8134
   -36.7741 -36.7330 -36.6611 -36.6577 -36.6050 -36.5960 -36.5423 -36.5394
   -36.5171 -36.5112 -36.4778 -36.4391 -36.4344 -36.4070 -36.4027 -36.3825
   -36.3648 -36.3447 -36.3088 -36.2905 -36.2280 -36.2262 -36.1754 -36.1243
   -16.7426  -3.7491  -3.2485  -3.2087  -3.0780  -2.4617  -2.2253  -2.2203
    -2.0884  -1.8925  -1.8078  -1.7573  -1.7200  -1.6320  -1.6003  -1.4302
    -1.1791  -1.0019  -0.5649  -0.4267  -0.3994  -0.2931  -0.2073   0.0360
     0.2706   0.2994   0.4029   0.5104   0.6852   0.7122   0.9310   0.9930
     1.0955   1.1893   1.2189   1.3194   1.3637   1.4683   1.6405   1.8541
     1.9305   1.9926   2.0883   2.1987   2.2047   2.3564   2.4577   2.5511
     2.7171   3.0322   3.2552   3.3905   3.4574   3.5510   3.6326

          k = 0.0608-0.1404 0.0000 ( 16203 PWs)   bands (ev):

   -64.8355 -64.7909 -64.7474 -64.7293 -64.7091 -64.6946 -64.6700 -64.5615
   -64.5302 -64.5069 -64.4756 -64.4256 -37.2904 -37.1690 -37.1497 -37.1353
   -37.1031 -37.0834 -37.0274 -36.9662 -36.9068 -36.8713 -36.8463 -36.8181
   -36.7698 -36.7257 -36.6828 -36.6491 -36.6261 -36.5842 -36.5654 -36.5463
   -36.5307 -36.5206 -36.4883 -36.4794 -36.4634 -36.4468 -36.4268 -36.4111
   -36.3904 -36.3588 -36.3210 -36.2829 -36.2503 -36.2250 -36.2023 -36.1670
   -16.7336  -3.6806  -3.2029  -3.0303  -2.6099  -2.1960  -1.9148  -1.8879
    -1.8150  -1.6749  -1.5331  -1.4510  -1.4260  -1.3643  -1.1642  -1.1215
    -0.9909  -0.8593  -0.6976  -0.5221  -0.3803  -0.3397  -0.1577  -0.0925
     0.0280   0.0718   0.1933   0.3473   0.5223   0.5798   0.6928   0.7763
     0.8490   0.9415   1.0407   1.0910   1.1820   1.3268   1.4984   1.5541
     1.5838   1.6882   1.8215   1.9449   2.2398   2.3826   2.4495   2.5042
     2.7282   2.7465   2.8502   2.9810   3.2677   3.4110   3.5030

          k = 0.0608-0.1053 0.0000 ( 16272 PWs)   bands (ev):

   -64.8129 -64.8031 -64.7603 -64.7228 -64.7110 -64.6964 -64.6703 -64.5421
   -64.5304 -64.5302 -64.4716 -64.4260 -37.2400 -37.1399 -37.1109 -37.0829
   -37.0741 -37.0707 -36.9840 -36.9732 -36.9645 -36.9336 -36.8445 -36.7691
   -36.7327 -36.7203 -36.6903 -36.6695 -36.6330 -36.6295 -36.5954 -36.5571
   -36.5393 -36.5125 -36.5005 -36.4765 -36.4624 -36.4521 -36.4472 -36.4361
   -36.4059 -36.3542 -36.2864 -36.2699 -36.2558 -36.2378 -36.2252 -36.2221
   -16.7290  -3.6241  -3.1852  -2.9765  -2.0602  -2.0015  -1.9523  -1.5655
    -1.4958  -1.4493  -1.4104  -1.2720  -1.1583  -1.1504  -1.0431  -1.0087
    -0.9998  -0.9631  -0.8093  -0.5141  -0.4575  -0.2353  -0.1231  -0.0981
     0.0276   0.0729   0.0975   0.1125   0.1972   0.2851   0.2882   0.3847
     0.5187   0.5903   0.9695   0.9987   1.0451   1.3064   1.3086   1.4138
     1.5094   1.6715   1.7695   2.0623   2.0946   2.1261   2.6092   2.7076
     2.7570   2.8024   2.9883   3.1130   3.1526   3.5390   3.8476

          k = 0.0608-0.0702 0.0000 ( 16203 PWs)   bands (ev):

   -64.8355 -64.7909 -64.7474 -64.7293 -64.7091 -64.6946 -64.6701 -64.5615
   -64.5302 -64.5069 -64.4756 -64.4256 -37.2905 -37.1690 -37.1497 -37.1353
   -37.1031 -37.0834 -37.0274 -36.9662 -36.9068 -36.8713 -36.8463 -36.8181
   -36.7698 -36.7257 -36.6828 -36.6491 -36.6261 -36.5842 -36.5654 -36.5463
   -36.5306 -36.5206 -36.4883 -36.4794 -36.4634 -36.4468 -36.4268 -36.4111
   -36.3904 -36.3588 -36.3210 -36.2829 -36.2503 -36.2250 -36.2022 -36.1670
   -16.7336  -3.6806  -3.2029  -3.0303  -2.6099  -2.1960  -1.9148  -1.8879
    -1.8150  -1.6749  -1.5331  -1.4510  -1.4260  -1.3643  -1.1642  -1.1215
    -0.9909  -0.8593  -0.6976  -0.5221  -0.3803  -0.3397  -0.1577  -0.0925
     0.0280   0.0718   0.1933   0.3473   0.5222   0.5798   0.6928   0.7763
     0.8490   0.9415   1.0407   1.0909   1.1820   1.3268   1.4984   1.5541
     1.5838   1.6882   1.8215   1.9449   2.2398   2.3826   2.4495   2.5042
     2.7282   2.7465   2.8502   2.9810   3.2677   3.4110   3.5030

          k =-0.0912 0.0526 0.0000 ( 16164 PWs)   bands (ev):

   -64.8304 -64.8027 -64.7392 -64.7218 -64.7158 -64.6975 -64.6696 -64.5538
   -64.5457 -64.4910 -64.4836 -64.4256 -37.2933 -37.1661 -37.1642 -37.1511
   -37.1097 -37.0876 -36.9557 -36.9369 -36.9107 -36.8918 -36.8456 -36.8337
   -36.8291 -36.7085 -36.6618 -36.6056 -36.6040 -36.5840 -36.5685 -36.5560
   -36.5225 -36.5171 -36.4949 -36.4928 -36.4620 -36.4517 -36.4501 -36.4416
   -36.3921 -36.3576 -36.3493 -36.2943 -36.2514 -36.2009 -36.1745 -36.1641
   -16.7336  -3.7268  -3.1503  -3.0155  -2.5434  -2.4251  -1.9668  -1.8890
    -1.8601  -1.6175  -1.5558  -1.5078  -1.3235  -1.2171  -1.1560  -1.1533
    -0.9614  -0.8881  -0.8880  -0.4571  -0.3215  -0.2400  -0.1748  -0.1213
     0.0148   0.0233   0.3731   0.5032   0.6316   0.6651   0.9403   0.9653
     1.0044   1.0341   1.0925   1.1175   1.1653   1.2766   1.2882   1.3507
     1.3858   1.6427   1.7243   2.2028   2.2216   2.2796   2.4341   2.5619
     2.5722   2.7558   2.8286   2.9651   3.0467   3.1103   3.3915

          k =-0.0912 0.0877 0.0000 ( 16203 PWs)   bands (ev):

   -64.8355 -64.7909 -64.7474 -64.7293 -64.7091 -64.6946 -64.6701 -64.5615
   -64.5302 -64.5069 -64.4756 -64.4256 -37.2905 -37.1690 -37.1497 -37.1353
   -37.1031 -37.0834 -37.0274 -36.9662 -36.9068 -36.8713 -36.8463 -36.8181
   -36.7698 -36.7257 -36.6828 -36.6491 -36.6261 -36.5842 -36.5654 -36.5463
   -36.5306 -36.5206 -36.4883 -36.4794 -36.4634 -36.4468 -36.4268 -36.4111
   -36.3904 -36.3588 -36.3210 -36.2829 -36.2503 -36.2250 -36.2022 -36.1670
   -16.7336  -3.6806  -3.2029  -3.0303  -2.6099  -2.1960  -1.9148  -1.8879
    -1.8150  -1.6749  -1.5331  -1.4510  -1.4260  -1.3643  -1.1642  -1.1214
    -0.9909  -0.8593  -0.6976  -0.5221  -0.3803  -0.3397  -0.1577  -0.0925
     0.0280   0.0718   0.1933   0.3473   0.5222   0.5798   0.6928   0.7763
     0.8490   0.9415   1.0407   1.0909   1.1820   1.3268   1.4984   1.5541
     1.5838   1.6882   1.8215   1.9449   2.2398   2.3826   2.4495   2.5042
     2.7282   2.7465   2.8502   2.9810   3.2677   3.4110   3.5030

          k =-0.0912 0.1228 0.0000 ( 16203 PWs)   bands (ev):

   -64.8355 -64.7909 -64.7474 -64.7292 -64.7091 -64.6946 -64.6700 -64.5615
   -64.5302 -64.5069 -64.4756 -64.4256 -37.2905 -37.1690 -37.1497 -37.1353
   -37.1031 -37.0834 -37.0274 -36.9662 -36.9068 -36.8713 -36.8463 -36.8181
   -36.7698 -36.7257 -36.6828 -36.6491 -36.6261 -36.5842 -36.5654 -36.5463
   -36.5307 -36.5206 -36.4883 -36.4794 -36.4634 -36.4468 -36.4268 -36.4111
   -36.3904 -36.3588 -36.3210 -36.2829 -36.2503 -36.2250 -36.2023 -36.1670
   -16.7336  -3.6806  -3.2029  -3.0303  -2.6099  -2.1960  -1.9148  -1.8879
    -1.8150  -1.6749  -1.5331  -1.4510  -1.4260  -1.3643  -1.1642  -1.1215
    -0.9909  -0.8593  -0.6976  -0.5221  -0.3803  -0.3397  -0.1577  -0.0925
     0.0280   0.0718   0.1934   0.3473   0.5223   0.5798   0.6928   0.7763
     0.8490   0.9415   1.0407   1.0909   1.1820   1.3268   1.4984   1.5541
     1.5838   1.6882   1.8215   1.9449   2.2398   2.3826   2.4495   2.5042
     2.7282   2.7465   2.8502   2.9810   3.2677   3.4110   3.5030

          k =-0.0912-0.0526 0.0000 ( 16164 PWs)   bands (ev):

   -64.8303 -64.8027 -64.7391 -64.7218 -64.7158 -64.6975 -64.6695 -64.5538
   -64.5457 -64.4910 -64.4836 -64.4256 -37.2933 -37.1662 -37.1642 -37.1511
   -37.1097 -37.0876 -36.9558 -36.9369 -36.9107 -36.8918 -36.8456 -36.8338
   -36.8291 -36.7084 -36.6617 -36.6056 -36.6040 -36.5841 -36.5685 -36.5560
   -36.5225 -36.5171 -36.4949 -36.4928 -36.4620 -36.4517 -36.4500 -36.4416
   -36.3921 -36.3576 -36.3492 -36.2943 -36.2514 -36.2009 -36.1745 -36.1641
   -16.7336  -3.7268  -3.1503  -3.0155  -2.5434  -2.4251  -1.9668  -1.8890
    -1.8601  -1.6175  -1.5558  -1.5078  -1.3235  -1.2171  -1.1560  -1.1533
    -0.9614  -0.8881  -0.8880  -0.4571  -0.3215  -0.2400  -0.1748  -0.1213
     0.0148   0.0233   0.3731   0.5032   0.6316   0.6651   0.9404   0.9653
     1.0044   1.0341   1.0925   1.1175   1.1653   1.2766   1.2882   1.3507
     1.3858   1.6426   1.7243   2.2028   2.2216   2.2796   2.4341   2.5619
     2.5722   2.7558   2.8286   2.9651   3.0467   3.1103   3.3915

     the Fermi energy is     2.4353 ev

!    total energy              =   -2136.03513434 Ry
     Harris-Foulkes estimate   =   -2136.03513432 Ry
     estimated scf accuracy    <       0.00000007 Ry

     The total energy is the sum of the following terms:

     one-electron contribution =  -19550.39679952 Ry
     hartree contribution      =    9776.45220716 Ry
     xc contribution           =    -404.81788579 Ry
     ewald contribution        =    8042.81443406 Ry
     electric field correction =       0.00000396 Ry
     smearing contrib. (-TS)   =      -0.08709420 Ry

     convergence has been achieved in  11 iterations
 
 BEEF-vdW xc energy contributions
           1 :   -354.623888673108     
           2 :    325.967153239542     
           3 :   -275.032723782556     
           4 :    212.066760468523     
           5 :   -147.963389744572     
           6 :    91.2827396813165     
           7 :   -46.6133863943266     
           8 :    14.4668269146318     
           9 :    7.47772315400795     
          10 :   -22.5463713580679     
          11 :    33.4037755736278     
          12 :   -41.1795802947676     
          13 :    45.5065959453172     
          14 :   -45.2767755376722     
          15 :    39.6429998692628     
          16 :   -28.8306024179272     
          17 :    14.4129827661970     
          18 :    1.01098268355577     
          19 :   -14.5793343622753     
          20 :    24.0123247436147     
          21 :   -28.2092412037160     
          22 :    27.3749617505538     
          23 :   -22.6917159805773     
          24 :    15.7283680867820     
          25 :   -7.88173273792341     
          26 :   7.333338888349772E-002
          27 :    7.22798309764124     
          28 :   -13.7622907491200     
          29 :    19.2023757473677     
          30 :   -23.0218708991003     
          31 :   -33.8014699203691     
          32 :   -24.7915962636946     

     Forces acting on atoms (Ry/au):


     negative rho (up, down):  1.590E+00 0.000E+00
     atom    1 type  1   force =     0.00230003    0.00132882    0.01850068
     atom    2 type  1   force =    -0.00229865    0.00132447    0.01849202
     atom    3 type  1   force =    -0.00000308   -0.00265441    0.01849096
     atom    4 type  1   force =     0.00000411    0.00000034    0.02181753
     atom    5 type  1   force =    -0.00000129   -0.00015804   -0.02063633
     atom    6 type  1   force =     0.00000303   -0.00000120   -0.01583867
     atom    7 type  1   force =     0.00013794    0.00008067   -0.02063867
     atom    8 type  1   force =    -0.00013491    0.00007783   -0.02063158
     atom    9 type  1   force =     0.00000138   -0.00000069    0.00145700
     atom   10 type  1   force =    -0.00000125   -0.00047029   -0.00014972
     atom   11 type  1   force =    -0.00040848    0.00023576   -0.00015087
     atom   12 type  1   force =     0.00040592    0.00023532   -0.00014293
     atom   13 type  2   force =    -0.00000477    0.00000140   -0.00056943

     Total force =     0.001782     Total SCF correction =     0.000974
     SCF correction compared to forces is large: reduce conv_thr to get better values


     entering subroutine stress ...


     negative rho (up, down):  1.590E+00 0.000E+00
          total   stress  (Ry/bohr**3)                   (kbar)     P=  -18.63
  -0.00014289  -0.00000000  -0.00000000        -21.02     -0.00     -0.00
  -0.00000000  -0.00014289   0.00000000         -0.00    -21.02      0.00
  -0.00000000   0.00000000  -0.00009414         -0.00      0.00    -13.85


     bfgs converged in  11 scf cycles and  10 bfgs steps
     (criteria: energy <  1.0E+00, force <  1.9E-03)

     End of BFGS Geometry Optimization

     Final energy   =   -2136.0351343379 Ry
Begin final coordinates

ATOMIC_POSITIONS (crystal)
Tc1      0.166666667   0.166666667   0.408540475    0   0   0
Tc1      0.666666667   0.166666667   0.408540475    0   0   0
Tc1      0.166666667   0.666666667   0.408540475    0   0   0
Tc1      0.666666667   0.666666667   0.408540475    0   0   0
Tc1      0.833333333   0.333333333   0.500000000    0   0   0
Tc1      0.333333333   0.333333333   0.500000000    0   0   0
Tc1      0.833333333   0.833333333   0.500000000    0   0   0
Tc1      0.333333333   0.833333333   0.500000000    0   0   0
Tc1     -0.000000151  -0.000000408   0.585395338
Tc1      0.505893734  -0.011783416   0.588784305
Tc1     -0.011779825   0.505889954   0.588784145
Tc1      0.505892655   0.505889185   0.588784333
O1       0.333336163   0.333330665   0.637105824
End final coordinates



     Writing output data file calc.save
 
     init_run     :      9.93s CPU     10.26s WALL (       1 calls)
     electrons    :   3779.24s CPU   4029.52s WALL (      11 calls)
     update_pot   :     25.03s CPU     26.29s WALL (      10 calls)
     forces       :    143.98s CPU    152.25s WALL (      11 calls)
     stress       :    458.37s CPU    473.34s WALL (      11 calls)

     Called by init_run:
     wfcinit      :      3.99s CPU      4.07s WALL (       1 calls)
     potinit      :      1.56s CPU      1.64s WALL (       1 calls)

     Called by electrons:
     c_bands      :   1693.72s CPU   1775.59s WALL (     177 calls)
     sum_band     :    725.09s CPU    777.92s WALL (     177 calls)
     v_of_rho     :    245.95s CPU    267.68s WALL (     188 calls)
     newd         :    628.54s CPU    646.04s WALL (     188 calls)
     mix_rho      :      8.88s CPU      9.11s WALL (     177 calls)
     vdW_energy   :    113.74s CPU    124.33s WALL (     584 calls)
     vdW_ffts     :    240.31s CPU    252.40s WALL (    1190 calls)
     vdW_v        :     95.53s CPU     98.83s WALL (     584 calls)

     Called by c_bands:
     init_us_2    :      9.29s CPU      9.34s WALL (    1885 calls)
     cegterg      :   1552.63s CPU   1592.07s WALL (     885 calls)

     Called by *egterg:
     h_psi        :    899.40s CPU    920.43s WALL (    4490 calls)
     s_psi        :     95.77s CPU     95.98s WALL (    4490 calls)
     g_psi        :      6.21s CPU      6.24s WALL (    3600 calls)
     cdiaghg      :    216.11s CPU    217.48s WALL (    4435 calls)

     Called by h_psi:
     add_vuspsi   :     98.70s CPU     98.95s WALL (    4490 calls)

     General routines
     calbec       :    147.29s CPU    149.65s WALL (    5485 calls)
     fft          :    371.94s CPU    401.98s WALL (   35551 calls)
     ffts         :      0.52s CPU      0.56s WALL (     365 calls)
     fftw         :    520.54s CPU    542.24s WALL (  567175 calls)
     interpolate  :      4.75s CPU      4.91s WALL (     365 calls)
     davcio       :      0.00s CPU      0.02s WALL (       5 calls)
 
     Parallel routines
     fft_scatter  :    520.25s CPU    569.15s WALL (  603091 calls)
 
     PWSCF        :     1h14m CPU        1h18m WALL

 
   This run was terminated on:  18:34:25   2May2018            

=------------------------------------------------------------------------------=
   JOB DONE.
=------------------------------------------------------------------------------=
Job  /afs/slac/g/suncat/bin/suncat-tsmpirun -x LD_LIBRARY_PATH -wdir /scratch/qe806657_Zr1qB pw.x -npool 4 -in pw.inp

TID   HOST_NAME   COMMAND_LINE            STATUS            TERMINATION_TIME
===== ========== ================  =======================  ===================
00000 suncat0091 pw.x -npool 4 -i  Done                     05/02/2018 18:34:25
00001 suncat0091 pw.x -npool 4 -i  Done                     05/02/2018 18:34:25
00002 suncat0091 pw.x -npool 4 -i  Done                     05/02/2018 18:34:25
00003 suncat0091 pw.x -npool 4 -i  Done                     05/02/2018 18:34:25
00004 suncat0091 pw.x -npool 4 -i  Done                     05/02/2018 18:34:25
00005 suncat0091 pw.x -npool 4 -i  Done                     05/02/2018 18:34:25
00006 suncat0091 pw.x -npool 4 -i  Done                     05/02/2018 18:34:25
00007 suncat0091 pw.x -npool 4 -i  Done                     05/02/2018 18:34:25
00008 suncat0090 pw.x -npool 4 -i  Done                     05/02/2018 18:34:25
00009 suncat0090 pw.x -npool 4 -i  Done                     05/02/2018 18:34:25
00010 suncat0090 pw.x -npool 4 -i  Done                     05/02/2018 18:34:25
00011 suncat0090 pw.x -npool 4 -i  Done                     05/02/2018 18:34:25
00012 suncat0090 pw.x -npool 4 -i  Done                     05/02/2018 18:34:25
00013 suncat0090 pw.x -npool 4 -i  Done                     05/02/2018 18:34:25
00014 suncat0090 pw.x -npool 4 -i  Done                     05/02/2018 18:34:25
00015 suncat0090 pw.x -npool 4 -i  Done                     05/02/2018 18:34:25
00016 suncat0050 pw.x -npool 4 -i  Done                     05/02/2018 18:34:25
00017 suncat0050 pw.x -npool 4 -i  Done                     05/02/2018 18:34:25
00018 suncat0050 pw.x -npool 4 -i  Done                     05/02/2018 18:34:25
00019 suncat0050 pw.x -npool 4 -i  Done                     05/02/2018 18:34:25
00020 suncat0050 pw.x -npool 4 -i  Done                     05/02/2018 18:34:25
00021 suncat0050 pw.x -npool 4 -i  Done                     05/02/2018 18:34:25
00022 suncat0050 pw.x -npool 4 -i  Done                     05/02/2018 18:34:25
00023 suncat0050 pw.x -npool 4 -i  Done                     05/02/2018 18:34:25
00024 suncat0048 pw.x -npool 4 -i  Done                     05/02/2018 18:34:25
00025 suncat0048 pw.x -npool 4 -i  Done                     05/02/2018 18:34:25
00026 suncat0048 pw.x -npool 4 -i  Done                     05/02/2018 18:34:25
00027 suncat0048 pw.x -npool 4 -i  Done                     05/02/2018 18:34:25
00028 suncat0048 pw.x -npool 4 -i  Done                     05/02/2018 18:34:25
00029 suncat0048 pw.x -npool 4 -i  Done                     05/02/2018 18:34:25
00030 suncat0048 pw.x -npool 4 -i  Done                     05/02/2018 18:34:25
00031 suncat0048 pw.x -npool 4 -i  Done                     05/02/2018 18:34:25
