  python dir          : /u/if/mamunm/src/espresso
  espresso dir        : /nfs/slac/g/suncatfs/sw/espv18/espresso-dynpy-beef/bin
  pseudo dir          : /u/if/mamunm/psp/gbrv1.5pbe
  ase-espresso py git : GITVERSION



     Program PWSCF v.5.1rc2 (svn rev. 11289) starts on  4May2018 at 10:49:36 

     This program is part of the open-source Quantum ESPRESSO suite
     for quantum simulation of materials; please cite
         "P. Giannozzi et al., J. Phys.:Condens. Matter 21 395502 (2009);
          URL http://www.quantum-espresso.org", 
     in publications or presentations arising from this work. More details at
     http://www.quantum-espresso.org/quote

     Parallel version (MPI), running on    36 processors
     K-points division:     npool     =       3
     R & G space division:  proc/nbgrp/npool/nimage =      12
     Reading input from pw.inp
     Message from routine read_cards :
     DEPRECATED: no units specified in CELL_PARAMETERS card

     Current dimensions of program PWSCF are:
     Max number of different atomic species (ntypx) = 10
     Max number of k-points (npk) =  40000
     Max angular momentum in pseudopotentials (lmaxx) =  3
     Presently stress not available with electric field


     **************************************************************************
     Initializing libbeef V0.1.1 with the BEEF-vdW functional.
     Citation: Wellendorff et al., PRB 85, 235149 (2012).
     **************************************************************************


     IMPORTANT: XC functional enforced from input :
     Exchange-correlation      = BEEF-VDW ( 1  4 27 13 2)
     Any further DFT definition will be discarded
     Please, verify this is what you really want


     Subspace diagonalization in iterative solution of the eigenvalue problem:
     a serial algorithm will be used

 
     Parallelization info
     --------------------
     sticks:   dense  smooth     PW     G-vecs:    dense   smooth      PW
     Min         268     107     30                51306    12979    2012
     Max         269     108     31                51327    13010    2035
     Sum        3217    1285    367               615719   155893   24283
 


     bravais-lattice index     =            0
     lattice parameter (alat)  =       1.8897  a.u.
     unit-cell volume          =    5174.6160 (a.u.)^3
     number of atoms/cell      =           13
     number of atomic types    =            2
     number of electrons       =       233.00
     number of Kohn-Sham states=          126
     kinetic-energy cutoff     =      36.7493  Ry
     charge density cutoff     =     367.4932  Ry
     convergence threshold     =      1.0E-05
     mixing beta               =       0.3000
     number of iterations used =           10  plain     mixing
     Exchange-correlation      = BEEF-VDW ( 1  4 27 13 2)
     nstep                     =           50


     celldm(1)=   1.889726  celldm(2)=   0.000000  celldm(3)=   0.000000
     celldm(4)=   0.000000  celldm(5)=   0.000000  celldm(6)=   0.000000

     crystal axes: (cart. coord. in units of alat)
               a(1) = (   5.966546   0.000000   0.000000 )  
               a(2) = (   2.983273   5.167181   0.000000 )  
               a(3) = (   0.000000   0.000000  24.871665 )  

     reciprocal axes: (cart. coord. in units 2 pi/alat)
               b(1) = (  0.167601 -0.096765  0.000000 )  
               b(2) = (  0.000000  0.193529  0.000000 )  
               b(3) = (  0.000000  0.000000  0.040206 )  


     PseudoPot. # 1 for Ag read from file:
     /u/if/mamunm/psp/gbrv1.5pbe/Ag.UPF
     MD5 check sum: d66d668201baa78d5eb5b04ef7011058
     Pseudo is Ultrasoft + core correction, Zval = 19.0
     Generated by new atomic code, or converted to UPF format
     Using radial grid of  887 points,  6 beta functions with: 
                l(1) =   0
                l(2) =   0
                l(3) =   1
                l(4) =   1
                l(5) =   2
                l(6) =   2
     Q(r) pseudized with  6 coefficients,  rinner =    1.300   1.300   1.300
                                                       1.300   1.300

     PseudoPot. # 2 for N  read from file:
     /u/if/mamunm/psp/gbrv1.5pbe/N.UPF
     MD5 check sum: 95339753478d7afb44899504a8723017
     Pseudo is Ultrasoft + core correction, Zval =  5.0
     Generated by new atomic code, or converted to UPF format
     Using radial grid of  729 points,  4 beta functions with: 
                l(1) =   0
                l(2) =   0
                l(3) =   1
                l(4) =   1
     Q(r) pseudized with  8 coefficients,  rinner =    0.900   0.900   0.900


     vdW kernel table read from file vdW_kernel_table
     MD5 check sum: 095c7af220d748ca6e76c0b4c6cfb241

     atomic species   valence    mass     pseudopotential
        Ag1           19.00   107.86820     Ag( 1.00)
        N1             5.00    14.00700     N ( 1.00)

     No symmetry found



   Cartesian axes

     site n.     atom                  positions (alat units)
         1           Ag1 tau(   1) = (   1.4916366   0.8611968  10.0000000  )
         2           Ag1 tau(   2) = (   4.4749098   0.8611968  10.0000000  )
         3           Ag1 tau(   3) = (   2.9832732   3.4447871  10.0000000  )
         4           Ag1 tau(   4) = (   5.9665464   3.4447871  10.0000000  )
         5           Ag1 tau(   5) = (   5.9665464   1.7223936  12.4358324  )
         6           Ag1 tau(   6) = (   2.9832732   1.7223936  12.4358324  )
         7           Ag1 tau(   7) = (   7.4581830   4.3059839  12.4358324  )
         8           Ag1 tau(   8) = (   4.4749098   4.3059839  12.4358324  )
         9           Ag1 tau(   9) = (   0.0000000   0.0000000  14.8716647  )
        10           Ag1 tau(  10) = (   2.9832732   0.0000000  14.8716647  )
        11           Ag1 tau(  11) = (   1.4916366   2.5835904  14.8716647  )
        12           Ag1 tau(  12) = (   4.4749098   2.5835904  14.8716647  )
        13           N1  tau(  13) = (   2.9832732   1.7223936  16.2756647  )

     number of k points=    20  Fermi-Dirac smearing, width (Ry)=  0.0110
                       cart. coord. in units 2pi/alat
        k(    1) = (   0.0000000   0.0000000   0.0000000), wk =   0.0555556
        k(    2) = (   0.0000000   0.0322549   0.0000000), wk =   0.1111111
        k(    3) = (   0.0000000   0.0645097   0.0000000), wk =   0.1111111
        k(    4) = (   0.0000000  -0.0967646   0.0000000), wk =   0.0555556
        k(    5) = (   0.0279335  -0.0161274   0.0000000), wk =   0.1111111
        k(    6) = (   0.0279335   0.0161274   0.0000000), wk =   0.1111111
        k(    7) = (   0.0279335   0.0483823   0.0000000), wk =   0.1111111
        k(    8) = (   0.0279335  -0.1128920   0.0000000), wk =   0.1111111
        k(    9) = (   0.0279335  -0.0806371   0.0000000), wk =   0.1111111
        k(   10) = (   0.0279335  -0.0483823   0.0000000), wk =   0.1111111
        k(   11) = (   0.0558670  -0.0322549   0.0000000), wk =   0.1111111
        k(   12) = (   0.0558670   0.0000000   0.0000000), wk =   0.1111111
        k(   13) = (   0.0558670   0.0322549   0.0000000), wk =   0.1111111
        k(   14) = (   0.0558670  -0.1290194   0.0000000), wk =   0.1111111
        k(   15) = (   0.0558670  -0.0967646   0.0000000), wk =   0.1111111
        k(   16) = (   0.0558670  -0.0645097   0.0000000), wk =   0.1111111
        k(   17) = (  -0.0838006   0.0483823   0.0000000), wk =   0.0555556
        k(   18) = (  -0.0838006   0.0806371   0.0000000), wk =   0.1111111
        k(   19) = (  -0.0838006   0.1128920   0.0000000), wk =   0.1111111
        k(   20) = (  -0.0838006  -0.0483823   0.0000000), wk =   0.0555556

     Dense  grid:   615719 G-vectors     FFT dimensions: (  72,  72, 288)

     Smooth grid:   155893 G-vectors     FFT dimensions: (  45,  45, 192)

     Largest allocated arrays     est. size (Mb)     dimensions
        Kohn-Sham Wavefunctions         3.15 Mb     (    1639,  126)
        NL pseudopotentials             5.60 Mb     (    1639,  224)
        Each V/rho on FFT grid          1.90 Mb     (  124416)
        Each G-vector array             0.39 Mb     (   51308)
        G-vector shells                 0.14 Mb     (   18128)
     Largest temporary arrays     est. size (Mb)     dimensions
        Auxiliary wavefunctions        12.60 Mb     (    1639,  504)
        Each subspace H/S matrix        3.88 Mb     (     504,  504)
        Each <psi_i|beta_j> matrix      0.43 Mb     (     224,  126)
        Arrays for rho mixing          18.98 Mb     (  124416,   10)

     Initial potential from superposition of free atoms
     Check: negative starting charge=   -0.002260

     starting charge  226.99942, renormalised to  233.00000

     negative rho (up, down):  2.320E-03 0.000E+00


     ************************************************************************
     *
     * You are using vdW-DF for exchange-correlation in this calculation.
     * Please cite the following three references that made this development
     * possible:
     *
     *   M. Dion, H. Rydberg, E. Schroder, D. C. Langreth, and
     *   B. I. Lundqvist, Phys. Rev. Lett. 92, 246401 (2004).
     *
     *   T. Thonhauser, V. R. Cooper, S. Li, A. Puzder, P. Hyldgaard, and
     *   D. C. Langreth, Phys. Rev. B 76, 125112 (2007).
     *
     *   G. Roman-Perez and J. M. Soler, Phys. Rev. Lett. 103, 096102 (2009).
     *
     *
     * If you are using vdW-DF2, please also cite:
     *
     *   K. Lee, E. D. Murray, L. Kong, B. I. Lundqvist, and
     *   D. C. Langreth, Phys. Rev. B 82, 081101(R) (2010).
     *
     *
     * If you are calculating the stress with vdW-DF, please also cite:
     *
     *   R. Sabatini, E. Kucukbenli, B. Kolb, T. Thonhauser, and
     *   S. de Gironcoli, J. Phys.: Condens. Matter 24, 424209 (2012).
     *
     ************************************************************************

     Carrying out vdW-DF run using the following parameters:

     Nqs =      20    Nr_points =    1024   r_max =   100.000
     q_mesh =
               0.00001000     0.04494208     0.09755937     0.15916263
               0.23128650     0.31572767     0.41458969     0.53033537
               0.66584808     0.82450364     1.01025438     1.22772762
               1.48234092     1.78043706     2.12944203     2.53805004
               3.01644009     3.57652955     4.23227104     5.00000000

     Gradients computed in reciprocal space

     ************************************************************************


 
     Adding external electric field

     Computed dipole along edir(3) : 
        Dipole               -0.9590 Ry au,         -2.4375 Debye
        Dipole field         -0.0023 Ry au
 
        Potential amp.        0.2134 Ry
        Total length         45.8256 bohr
 
     Starting wfc are  160 randomized atomic wfcs

     total cpu time spent up to now is       13.9 secs

     Self-consistent Calculation

     iteration #  1     ecut=    36.75 Ry     beta=0.30
     Davidson diagonalization with overlap
     ethr =  1.00E-02,  avg # of iterations =  5.5

     negative rho (up, down):  1.157E-03 0.000E+00
 
     Adding external electric field

     Computed dipole along edir(3) : 
        Dipole                8.0921 Ry au,         20.5682 Debye
        Dipole field          0.0197 Ry au
 
        Potential amp.       -1.8011 Ry
        Total length         45.8256 bohr
 

     total cpu time spent up to now is       38.3 secs

     total energy              =   -3571.25522549 Ry
     Harris-Foulkes estimate   =   -3583.41299555 Ry
     estimated scf accuracy    <      26.34846451 Ry

     iteration #  2     ecut=    36.75 Ry     beta=0.30
     Davidson diagonalization with overlap
     ethr =  1.00E-02,  avg # of iterations = 10.1

     negative rho (up, down):  7.751E-05 0.000E+00
 
     Adding external electric field

     Computed dipole along edir(3) : 
        Dipole               -1.1015 Ry au,         -2.7999 Debye
        Dipole field         -0.0027 Ry au
 
        Potential amp.        0.2452 Ry
        Total length         45.8256 bohr
 

     total cpu time spent up to now is       71.0 secs

     total energy              =   -3543.21785523 Ry
     Harris-Foulkes estimate   =   -3609.66933159 Ry
     estimated scf accuracy    <    2214.10452036 Ry

     iteration #  3     ecut=    36.75 Ry     beta=0.30
     Davidson diagonalization with overlap
     ethr =  1.00E-02,  avg # of iterations =  7.0

     negative rho (up, down):  8.764E-05 0.000E+00
 
     Adding external electric field

     Computed dipole along edir(3) : 
        Dipole               -0.1860 Ry au,         -0.4729 Debye
        Dipole field         -0.0005 Ry au
 
        Potential amp.        0.0414 Ry
        Total length         45.8256 bohr
 

     total cpu time spent up to now is       98.9 secs

     total energy              =   -3577.30001338 Ry
     Harris-Foulkes estimate   =   -3581.59215989 Ry
     estimated scf accuracy    <      15.54673424 Ry

     iteration #  4     ecut=    36.75 Ry     beta=0.30
     Davidson diagonalization with overlap
     ethr =  6.67E-03,  avg # of iterations =  2.9

     negative rho (up, down):  1.997E-04 0.000E+00
 
     Adding external electric field

     Computed dipole along edir(3) : 
        Dipole                0.0212 Ry au,          0.0539 Debye
        Dipole field          0.0001 Ry au
 
        Potential amp.       -0.0047 Ry
        Total length         45.8256 bohr
 

     total cpu time spent up to now is      117.2 secs

     total energy              =   -3579.32370731 Ry
     Harris-Foulkes estimate   =   -3580.36891526 Ry
     estimated scf accuracy    <       8.45365950 Ry

     iteration #  5     ecut=    36.75 Ry     beta=0.30
     Davidson diagonalization with overlap
     ethr =  3.63E-03,  avg # of iterations =  2.9

     negative rho (up, down):  3.439E-04 0.000E+00
 
     Adding external electric field

     Computed dipole along edir(3) : 
        Dipole               -0.1898 Ry au,         -0.4823 Debye
        Dipole field         -0.0005 Ry au
 
        Potential amp.        0.0422 Ry
        Total length         45.8256 bohr
 

     total cpu time spent up to now is      133.9 secs

     total energy              =   -3579.80333819 Ry
     Harris-Foulkes estimate   =   -3579.82824181 Ry
     estimated scf accuracy    <       0.09986860 Ry

     iteration #  6     ecut=    36.75 Ry     beta=0.30
     Davidson diagonalization with overlap
     ethr =  4.29E-05,  avg # of iterations =  4.3

     negative rho (up, down):  2.833E-04 0.000E+00
 
     Adding external electric field

     Computed dipole along edir(3) : 
        Dipole               -0.4785 Ry au,         -1.2163 Debye
        Dipole field         -0.0012 Ry au
 
        Potential amp.        0.1065 Ry
        Total length         45.8256 bohr
 

     total cpu time spent up to now is      154.1 secs

     total energy              =   -3579.89673438 Ry
     Harris-Foulkes estimate   =   -3579.90860193 Ry
     estimated scf accuracy    <       0.04216779 Ry

     iteration #  7     ecut=    36.75 Ry     beta=0.30
     Davidson diagonalization with overlap
     ethr =  1.81E-05,  avg # of iterations =  5.2

     negative rho (up, down):  4.157E-04 0.000E+00
 
     Adding external electric field

     Computed dipole along edir(3) : 
        Dipole               -0.5625 Ry au,         -1.4298 Debye
        Dipole field         -0.0014 Ry au
 
        Potential amp.        0.1252 Ry
        Total length         45.8256 bohr
 

     total cpu time spent up to now is      173.6 secs

     total energy              =   -3579.89748017 Ry
     Harris-Foulkes estimate   =   -3579.90076900 Ry
     estimated scf accuracy    <       0.01552367 Ry

     iteration #  8     ecut=    36.75 Ry     beta=0.30
     Davidson diagonalization with overlap
     ethr =  6.66E-06,  avg # of iterations =  5.2

     negative rho (up, down):  5.082E-04 0.000E+00
 
     Adding external electric field

     Computed dipole along edir(3) : 
        Dipole               -0.5877 Ry au,         -1.4937 Debye
        Dipole field         -0.0014 Ry au
 
        Potential amp.        0.1308 Ry
        Total length         45.8256 bohr
 

     total cpu time spent up to now is      193.2 secs

     total energy              =   -3579.89756531 Ry
     Harris-Foulkes estimate   =   -3579.89930439 Ry
     estimated scf accuracy    <       0.01728275 Ry

     iteration #  9     ecut=    36.75 Ry     beta=0.30
     Davidson diagonalization with overlap
     ethr =  6.66E-06,  avg # of iterations =  2.6

     negative rho (up, down):  6.939E-04 0.000E+00
 
     Adding external electric field

     Computed dipole along edir(3) : 
        Dipole               -0.5755 Ry au,         -1.4627 Debye
        Dipole field         -0.0014 Ry au
 
        Potential amp.        0.1281 Ry
        Total length         45.8256 bohr
 

     total cpu time spent up to now is      211.1 secs

     total energy              =   -3579.89853196 Ry
     Harris-Foulkes estimate   =   -3579.89919886 Ry
     estimated scf accuracy    <       0.00847579 Ry

     iteration # 10     ecut=    36.75 Ry     beta=0.30
     Davidson diagonalization with overlap
     ethr =  3.64E-06,  avg # of iterations =  3.2

     negative rho (up, down):  9.391E-04 0.000E+00
 
     Adding external electric field

     Computed dipole along edir(3) : 
        Dipole               -0.5625 Ry au,         -1.4298 Debye
        Dipole field         -0.0014 Ry au
 
        Potential amp.        0.1252 Ry
        Total length         45.8256 bohr
 

     total cpu time spent up to now is      232.0 secs

     total energy              =   -3579.89883655 Ry
     Harris-Foulkes estimate   =   -3579.89887700 Ry
     estimated scf accuracy    <       0.00043921 Ry

     iteration # 11     ecut=    36.75 Ry     beta=0.30
     Davidson diagonalization with overlap
     ethr =  1.89E-07,  avg # of iterations =  5.0

     negative rho (up, down):  1.053E-03 0.000E+00
 
     Adding external electric field

     Computed dipole along edir(3) : 
        Dipole               -0.5535 Ry au,         -1.4067 Debye
        Dipole field         -0.0013 Ry au
 
        Potential amp.        0.1232 Ry
        Total length         45.8256 bohr
 

     total cpu time spent up to now is      255.9 secs

     total energy              =   -3579.89885464 Ry
     Harris-Foulkes estimate   =   -3579.89892730 Ry
     estimated scf accuracy    <       0.00102179 Ry

     iteration # 12     ecut=    36.75 Ry     beta=0.30
     Davidson diagonalization with overlap
     ethr =  1.89E-07,  avg # of iterations =  2.0

     negative rho (up, down):  1.146E-03 0.000E+00
 
     Adding external electric field

     Computed dipole along edir(3) : 
        Dipole               -0.5441 Ry au,         -1.3829 Debye
        Dipole field         -0.0013 Ry au
 
        Potential amp.        0.1211 Ry
        Total length         45.8256 bohr
 

     total cpu time spent up to now is      272.7 secs

     total energy              =   -3579.89889063 Ry
     Harris-Foulkes estimate   =   -3579.89891496 Ry
     estimated scf accuracy    <       0.00011375 Ry

     iteration # 13     ecut=    36.75 Ry     beta=0.30
     Davidson diagonalization with overlap
     ethr =  4.88E-08,  avg # of iterations =  2.0

     negative rho (up, down):  1.937E-03 0.000E+00
 
     Adding external electric field

     Computed dipole along edir(3) : 
        Dipole               -0.5005 Ry au,         -1.2722 Debye
        Dipole field         -0.0012 Ry au
 
        Potential amp.        0.1114 Ry
        Total length         45.8256 bohr
 

     total cpu time spent up to now is      288.2 secs

     total energy              =   -3579.89888671 Ry
     Harris-Foulkes estimate   =   -3579.89900479 Ry
     estimated scf accuracy    <       0.00014557 Ry

     iteration # 14     ecut=    36.75 Ry     beta=0.30
     Davidson diagonalization with overlap
     ethr =  4.88E-08,  avg # of iterations =  2.1

     negative rho (up, down):  2.303E-03 0.000E+00

     negative rho (up, down):  2.303E-03 0.000E+00

     negative rho (up, down):  2.303E-03 0.000E+00

     negative rho (up, down):  2.303E-03 0.000E+00

     negative rho (up, down):  2.303E-03 0.000E+00

     negative rho (up, down):  2.303E-03 0.000E+00

     negative rho (up, down):  2.303E-03 0.000E+00

     negative rho (up, down):  2.303E-03 0.000E+00

     negative rho (up, down):  2.303E-03 0.000E+00

     negative rho (up, down):  2.303E-03 0.000E+00

     negative rho (up, down):  2.303E-03 0.000E+00

     negative rho (up, down):  2.303E-03 0.000E+00

     negative rho (up, down):  2.303E-03 0.000E+00

     negative rho (up, down):  2.303E-03 0.000E+00

     negative rho (up, down):  2.303E-03 0.000E+00

     negative rho (up, down):  2.303E-03 0.000E+00

     negative rho (up, down):  2.303E-03 0.000E+00

     negative rho (up, down):  2.303E-03 0.000E+00

     negative rho (up, down):  2.303E-03 0.000E+00

     negative rho (up, down):  2.303E-03 0.000E+00

     negative rho (up, down):  2.303E-03 0.000E+00

     negative rho (up, down):  2.303E-03 0.000E+00

     negative rho (up, down):  2.303E-03 0.000E+00

     negative rho (up, down):  2.303E-03 0.000E+00

     negative rho (up, down):  2.303E-03 0.000E+00

     negative rho (up, down):  2.303E-03 0.000E+00

     negative rho (up, down):  2.303E-03 0.000E+00

     negative rho (up, down):  2.303E-03 0.000E+00

     negative rho (up, down):  2.303E-03 0.000E+00

     negative rho (up, down):  2.303E-03 0.000E+00

     negative rho (up, down):  2.303E-03 0.000E+00

     negative rho (up, down):  2.303E-03 0.000E+00

     negative rho (up, down):  2.303E-03 0.000E+00

     negative rho (up, down):  2.303E-03 0.000E+00

     negative rho (up, down):  2.303E-03 0.000E+00
 
     Adding external electric field

     Computed dipole along edir(3) : 
        Dipole               -0.4968 Ry au,         -1.2628 Debye
        Dipole field         -0.0012 Ry au
 
        Potential amp.        0.1106 Ry
        Total length         45.8256 bohr
 

     total cpu time spent up to now is      348.9 secs

     End of self-consistent calculation

          k = 0.0000 0.0000 0.0000 ( 19435 PWs)   bands (ev):

   -91.3363 -91.3303 -91.3303 -91.3232 -91.1578 -91.1524 -91.1519 -91.1423
   -91.1370 -91.1369 -91.1351 -91.0185 -54.8758 -54.8758 -54.8692 -54.8325
   -54.8218 -54.8218 -54.8177 -54.8176 -54.8075 -54.8075 -54.7896 -54.7896
   -54.7021 -54.6948 -54.6946 -54.6872 -54.6573 -54.6572 -54.6403 -54.6373
   -54.6370 -54.6316 -54.6265 -54.6263 -54.6251 -54.6249 -54.6146 -54.6145
   -54.6106 -54.6065 -54.6009 -54.5816 -54.5816 -54.5211 -54.5210 -54.5007
   -11.9983  -5.7186  -5.0751  -5.0751  -5.0629  -5.0427  -4.9305  -4.9305
    -4.9059  -4.8457  -4.8400  -4.8400  -4.7682  -4.6631  -4.6620  -4.6620
    -4.1105  -4.1104  -4.0229  -3.9871  -3.9870  -3.9409  -3.9022  -3.9022
    -3.8566  -3.7738  -3.7738  -3.7152  -3.7152  -3.6849  -3.6345  -3.6345
    -3.2817  -3.2816  -3.1041  -3.0880  -3.0879  -3.0385  -3.0384  -3.0150
    -2.9906  -2.8129  -2.8128  -2.7843  -2.7842  -2.6955  -2.6398  -2.6397
    -2.5615  -2.5021  -2.5021  -2.4788  -2.4787  -2.4326  -2.4228  -2.4227
    -2.4152  -2.2538  -2.2498  -2.2496  -2.1897  -2.1873  -2.1873  -0.2118
     0.1377   0.1762   0.1762   1.3163   1.3164   1.3833   1.8082   2.0908
     2.0908   2.1898   2.5127   2.5127   4.1161   4.4150

          k = 0.0000 0.0323 0.0000 ( 19455 PWs)   bands (ev):

   -91.3359 -91.3306 -91.3303 -91.3233 -91.1574 -91.1526 -91.1520 -91.1420
   -91.1373 -91.1369 -91.1351 -91.0185 -54.8728 -54.8715 -54.8652 -54.8315
   -54.8225 -54.8219 -54.8196 -54.8177 -54.8106 -54.8073 -54.7951 -54.7909
   -54.6987 -54.6917 -54.6904 -54.6839 -54.6554 -54.6544 -54.6427 -54.6403
   -54.6366 -54.6312 -54.6275 -54.6265 -54.6259 -54.6252 -54.6195 -54.6158
   -54.6122 -54.6066 -54.6002 -54.5836 -54.5819 -54.5235 -54.5217 -54.5007
   -11.9940  -5.5515  -5.0224  -4.9719  -4.9642  -4.9394  -4.8741  -4.8618
    -4.8396  -4.7897  -4.7751  -4.7726  -4.6649  -4.6082  -4.5555  -4.5529
    -4.1151  -4.1059  -4.0031  -3.9580  -3.9404  -3.9383  -3.9116  -3.8607
    -3.8280  -3.8243  -3.7466  -3.7183  -3.6946  -3.6644  -3.6608  -3.5747
    -3.3366  -3.3206  -3.2817  -3.1907  -3.1501  -3.1329  -3.0707  -3.0319
    -2.9755  -2.8578  -2.8554  -2.8417  -2.8031  -2.7781  -2.6733  -2.6732
    -2.6106  -2.5726  -2.5523  -2.5503  -2.5146  -2.4978  -2.4971  -2.4860
    -2.3852  -2.3789  -2.3481  -2.3202  -2.3007  -2.2997  -2.2825  -0.5297
    -0.1767   0.0923   0.1162   0.4316   0.9775   1.0710   1.5465   2.1127
     2.2736   2.6017   3.1150   3.2219   4.2926   4.7108

          k = 0.0000 0.0645 0.0000 ( 19481 PWs)   bands (ev):

   -91.3348 -91.3315 -91.3303 -91.3235 -91.1564 -91.1535 -91.1520 -91.1411
   -91.1381 -91.1369 -91.1353 -91.0186 -54.8653 -54.8626 -54.8523 -54.8290
   -54.8267 -54.8247 -54.8212 -54.8186 -54.8171 -54.8097 -54.8050 -54.7945
   -54.6912 -54.6841 -54.6779 -54.6760 -54.6520 -54.6505 -54.6482 -54.6467
   -54.6339 -54.6324 -54.6318 -54.6297 -54.6290 -54.6269 -54.6255 -54.6189
   -54.6154 -54.6066 -54.5983 -54.5882 -54.5824 -54.5285 -54.5231 -54.5007
   -11.9855  -5.1256  -4.8990  -4.7631  -4.7217  -4.7196  -4.7059  -4.6863
    -4.6778  -4.6319  -4.6019  -4.5922  -4.4699  -4.3987  -4.2790  -4.2618
    -4.1548  -4.1388  -4.0622  -4.0238  -3.9280  -3.8635  -3.8411  -3.8131
    -3.7935  -3.7617  -3.7197  -3.6477  -3.6474  -3.6090  -3.5424  -3.5213
    -3.4932  -3.4861  -3.4417  -3.4138  -3.2618  -3.2358  -3.1454  -3.1106
    -3.0541  -3.0186  -3.0169  -2.9769  -2.9640  -2.9549  -2.9155  -2.8683
    -2.8541  -2.8198  -2.8155  -2.7711  -2.7210  -2.6989  -2.6522  -2.6088
    -2.4954  -2.4784  -2.4720  -2.4451  -2.3549  -2.3433  -2.0299  -1.9154
    -0.7658  -0.0433  -0.0355   0.4054   0.7589   0.8651   1.2168   2.1682
     2.2926   2.9114   3.2530   4.2472   4.6838   5.1378

          k = 0.0000-0.0968 0.0000 ( 19500 PWs)   bands (ev):

   -91.3338 -91.3324 -91.3303 -91.3236 -91.1555 -91.1543 -91.1520 -91.1404
   -91.1388 -91.1369 -91.1353 -91.0186 -54.8601 -54.8576 -54.8357 -54.8318
   -54.8297 -54.8263 -54.8258 -54.8218 -54.8212 -54.8172 -54.8020 -54.7978
   -54.6869 -54.6784 -54.6711 -54.6609 -54.6605 -54.6562 -54.6505 -54.6415
   -54.6386 -54.6351 -54.6342 -54.6320 -54.6289 -54.6276 -54.6254 -54.6210
   -54.6168 -54.6067 -54.5963 -54.5916 -54.5826 -54.5312 -54.5238 -54.5007
   -11.9813  -4.8419  -4.8094  -4.6858  -4.6380  -4.6252  -4.6188  -4.5271
    -4.4972  -4.4200  -4.4107  -4.3766  -4.3671  -4.3180  -4.2647  -4.1986
    -4.1833  -4.0302  -4.0176  -3.9585  -3.9422  -3.9357  -3.9282  -3.8404
    -3.8241  -3.7017  -3.6606  -3.5945  -3.5717  -3.5511  -3.5339  -3.5026
    -3.4913  -3.4061  -3.3638  -3.3274  -3.3258  -3.3113  -3.2822  -3.2670
    -3.2652  -3.2272  -3.1654  -3.0972  -3.0891  -3.0449  -3.0286  -2.9875
    -2.9834  -2.9691  -2.9674  -2.9133  -2.8900  -2.8475  -2.7832  -2.7493
    -2.6913  -2.5089  -2.4849  -2.4755  -2.4707  -2.3551  -2.3438  -1.6547
    -1.3157  -0.0911  -0.0816   0.3550   0.7099   0.8086   1.4897   1.8607
     2.2912   2.8160   3.8699   4.1714   4.5822   5.2779

          k = 0.0279-0.0161 0.0000 ( 19455 PWs)   bands (ev):

   -91.3359 -91.3306 -91.3303 -91.3233 -91.1574 -91.1526 -91.1520 -91.1420
   -91.1373 -91.1370 -91.1351 -91.0185 -54.8728 -54.8715 -54.8652 -54.8315
   -54.8225 -54.8219 -54.8196 -54.8177 -54.8106 -54.8073 -54.7951 -54.7909
   -54.6987 -54.6917 -54.6904 -54.6839 -54.6554 -54.6544 -54.6427 -54.6403
   -54.6366 -54.6312 -54.6275 -54.6266 -54.6259 -54.6252 -54.6195 -54.6158
   -54.6122 -54.6066 -54.6002 -54.5836 -54.5819 -54.5235 -54.5217 -54.5007
   -11.9940  -5.5515  -5.0224  -4.9719  -4.9642  -4.9394  -4.8741  -4.8618
    -4.8396  -4.7897  -4.7751  -4.7726  -4.6649  -4.6082  -4.5555  -4.5528
    -4.1151  -4.1059  -4.0031  -3.9580  -3.9404  -3.9383  -3.9116  -3.8607
    -3.8280  -3.8243  -3.7466  -3.7183  -3.6946  -3.6644  -3.6608  -3.5747
    -3.3365  -3.3207  -3.2817  -3.1907  -3.1501  -3.1329  -3.0708  -3.0319
    -2.9754  -2.8578  -2.8554  -2.8417  -2.8031  -2.7781  -2.6733  -2.6732
    -2.6106  -2.5726  -2.5523  -2.5503  -2.5146  -2.4978  -2.4971  -2.4860
    -2.3853  -2.3789  -2.3481  -2.3202  -2.3008  -2.2997  -2.2825  -0.5297
    -0.1767   0.0923   0.1162   0.4316   0.9775   1.0710   1.5465   2.1127
     2.2736   2.6017   3.1150   3.2219   4.2926   4.7108

          k = 0.0279 0.0161 0.0000 ( 19455 PWs)   bands (ev):

   -91.3359 -91.3306 -91.3303 -91.3233 -91.1575 -91.1524 -91.1522 -91.1420
   -91.1372 -91.1370 -91.1351 -91.0185 -54.8728 -54.8715 -54.8652 -54.8315
   -54.8225 -54.8219 -54.8196 -54.8177 -54.8106 -54.8073 -54.7951 -54.7909
   -54.6987 -54.6915 -54.6905 -54.6839 -54.6554 -54.6544 -54.6428 -54.6400
   -54.6368 -54.6312 -54.6275 -54.6267 -54.6256 -54.6254 -54.6196 -54.6157
   -54.6122 -54.6066 -54.6002 -54.5836 -54.5819 -54.5235 -54.5217 -54.5007
   -11.9940  -5.5515  -5.0224  -4.9719  -4.9642  -4.9394  -4.8741  -4.8618
    -4.8396  -4.7897  -4.7751  -4.7726  -4.6649  -4.6082  -4.5555  -4.5528
    -4.1152  -4.1058  -4.0031  -3.9580  -3.9404  -3.9383  -3.9116  -3.8607
    -3.8280  -3.8243  -3.7466  -3.7183  -3.6946  -3.6645  -3.6608  -3.5747
    -3.3365  -3.3207  -3.2817  -3.1907  -3.1501  -3.1329  -3.0708  -3.0319
    -2.9754  -2.8578  -2.8553  -2.8417  -2.8031  -2.7781  -2.6733  -2.6732
    -2.6106  -2.5726  -2.5523  -2.5503  -2.5146  -2.4978  -2.4972  -2.4860
    -2.3854  -2.3788  -2.3481  -2.3202  -2.3008  -2.2997  -2.2825  -0.5297
    -0.1767   0.0923   0.1162   0.4316   0.9775   1.0710   1.5465   2.1127
     2.2736   2.6017   3.1150   3.2219   4.2926   4.7108

          k = 0.0279 0.0484 0.0000 ( 19453 PWs)   bands (ev):

   -91.3351 -91.3312 -91.3303 -91.3235 -91.1568 -91.1530 -91.1522 -91.1414
   -91.1378 -91.1370 -91.1352 -91.0186 -54.8679 -54.8633 -54.8576 -54.8298
   -54.8269 -54.8227 -54.8219 -54.8178 -54.8123 -54.8080 -54.8048 -54.7937
   -54.6932 -54.6844 -54.6836 -54.6781 -54.6534 -54.6511 -54.6486 -54.6400
   -54.6382 -54.6313 -54.6301 -54.6276 -54.6269 -54.6264 -54.6256 -54.6184
   -54.6149 -54.6066 -54.5989 -54.5867 -54.5826 -54.5267 -54.5231 -54.5007
   -11.9877  -5.2459  -4.8790  -4.8674  -4.7783  -4.7685  -4.7538  -4.7319
    -4.7262  -4.7008  -4.6821  -4.6180  -4.4830  -4.4473  -4.4441  -4.3140
    -4.1835  -4.0696  -4.0250  -3.9820  -3.9617  -3.9137  -3.8597  -3.8366
    -3.8151  -3.7485  -3.7208  -3.7151  -3.6663  -3.6555  -3.5795  -3.5342
    -3.4662  -3.4318  -3.3801  -3.3534  -3.2687  -3.2207  -3.0894  -3.0880
    -3.0508  -2.9692  -2.9438  -2.9277  -2.8885  -2.8688  -2.8388  -2.8121
    -2.8023  -2.7410  -2.7146  -2.7088  -2.6808  -2.6423  -2.5856  -2.5351
    -2.5130  -2.4871  -2.4670  -2.4045  -2.4008  -2.3864  -2.0650  -1.0144
    -0.9624  -0.2963  -0.0573   0.1021   0.7624   1.1004   1.6252   2.2419
     2.6407   2.9012   3.1153   3.4607   4.5386   4.9188

          k = 0.0279-0.1129 0.0000 ( 19479 PWs)   bands (ev):

   -91.3339 -91.3321 -91.3304 -91.3236 -91.1557 -91.1540 -91.1521 -91.1405
   -91.1387 -91.1370 -91.1353 -91.0186 -54.8600 -54.8539 -54.8431 -54.8372
   -54.8269 -54.8262 -54.8223 -54.8206 -54.8180 -54.8147 -54.8055 -54.7983
   -54.6857 -54.6761 -54.6704 -54.6694 -54.6616 -54.6533 -54.6500 -54.6396
   -54.6390 -54.6352 -54.6326 -54.6297 -54.6288 -54.6274 -54.6256 -54.6225
   -54.6185 -54.6067 -54.5966 -54.5910 -54.5832 -54.5298 -54.5249 -54.5007
   -11.9813  -4.8189  -4.7337  -4.6556  -4.6167  -4.5910  -4.5752  -4.5552
    -4.5438  -4.5033  -4.4669  -4.3967  -4.3196  -4.2790  -4.2531  -4.2351
    -4.1577  -4.0861  -4.0506  -3.9727  -3.9223  -3.8944  -3.8710  -3.8654
    -3.8282  -3.7508  -3.6928  -3.6684  -3.6462  -3.6333  -3.5918  -3.5667
    -3.5375  -3.4986  -3.4560  -3.3749  -3.3398  -3.3076  -3.2781  -3.2495
    -3.2299  -3.1900  -3.1587  -3.1254  -3.0542  -3.0166  -2.9963  -2.9789
    -2.9623  -2.9010  -2.8879  -2.8293  -2.7867  -2.7266  -2.6858  -2.6625
    -2.5725  -2.5364  -2.5039  -2.4806  -2.4334  -2.4179  -2.2008  -1.6717
    -1.1016  -0.9600  -0.2234   0.0772   0.6211   1.1328   1.7094   2.1912
     2.5475   3.3912   3.6121   4.0634   4.5778   5.0352

          k = 0.0279-0.0806 0.0000 ( 19479 PWs)   bands (ev):

   -91.3339 -91.3321 -91.3304 -91.3236 -91.1556 -91.1542 -91.1521 -91.1404
   -91.1387 -91.1370 -91.1353 -91.0186 -54.8600 -54.8539 -54.8431 -54.8372
   -54.8269 -54.8262 -54.8224 -54.8206 -54.8180 -54.8147 -54.8055 -54.7983
   -54.6857 -54.6761 -54.6704 -54.6694 -54.6619 -54.6533 -54.6497 -54.6396
   -54.6390 -54.6352 -54.6326 -54.6296 -54.6288 -54.6275 -54.6255 -54.6225
   -54.6185 -54.6067 -54.5966 -54.5910 -54.5832 -54.5298 -54.5249 -54.5007
   -11.9813  -4.8189  -4.7337  -4.6556  -4.6166  -4.5910  -4.5752  -4.5552
    -4.5438  -4.5033  -4.4669  -4.3967  -4.3196  -4.2790  -4.2531  -4.2351
    -4.1577  -4.0860  -4.0506  -3.9727  -3.9224  -3.8944  -3.8710  -3.8654
    -3.8282  -3.7508  -3.6929  -3.6685  -3.6461  -3.6333  -3.5918  -3.5666
    -3.5375  -3.4986  -3.4560  -3.3749  -3.3399  -3.3076  -3.2781  -3.2495
    -3.2300  -3.1900  -3.1587  -3.1254  -3.0542  -3.0166  -2.9963  -2.9789
    -2.9623  -2.9010  -2.8879  -2.8293  -2.7868  -2.7266  -2.6858  -2.6625
    -2.5725  -2.5364  -2.5039  -2.4806  -2.4334  -2.4179  -2.2008  -1.6717
    -1.1016  -0.9600  -0.2234   0.0772   0.6211   1.1328   1.7094   2.1912
     2.5475   3.3913   3.6121   4.0634   4.5778   5.0352

          k = 0.0279-0.0484 0.0000 ( 19453 PWs)   bands (ev):

   -91.3351 -91.3311 -91.3303 -91.3235 -91.1567 -91.1532 -91.1520 -91.1414
   -91.1378 -91.1370 -91.1352 -91.0186 -54.8679 -54.8633 -54.8576 -54.8298
   -54.8269 -54.8227 -54.8219 -54.8178 -54.8123 -54.8080 -54.8048 -54.7937
   -54.6932 -54.6846 -54.6835 -54.6780 -54.6534 -54.6512 -54.6486 -54.6399
   -54.6380 -54.6313 -54.6300 -54.6276 -54.6269 -54.6266 -54.6254 -54.6184
   -54.6149 -54.6066 -54.5989 -54.5867 -54.5826 -54.5267 -54.5231 -54.5007
   -11.9877  -5.2459  -4.8790  -4.8674  -4.7783  -4.7685  -4.7538  -4.7319
    -4.7262  -4.7008  -4.6821  -4.6180  -4.4829  -4.4473  -4.4441  -4.3140
    -4.1835  -4.0696  -4.0250  -3.9820  -3.9617  -3.9137  -3.8597  -3.8366
    -3.8151  -3.7485  -3.7208  -3.7151  -3.6663  -3.6555  -3.5795  -3.5342
    -3.4662  -3.4319  -3.3801  -3.3534  -3.2687  -3.2207  -3.0894  -3.0880
    -3.0508  -2.9692  -2.9438  -2.9278  -2.8885  -2.8689  -2.8389  -2.8121
    -2.8024  -2.7410  -2.7146  -2.7088  -2.6808  -2.6423  -2.5856  -2.5351
    -2.5130  -2.4871  -2.4671  -2.4045  -2.4008  -2.3865  -2.0650  -1.0144
    -0.9624  -0.2963  -0.0573   0.1021   0.7625   1.1004   1.6252   2.2419
     2.6408   2.9012   3.1153   3.4607   4.5386   4.9188

          k = 0.0559-0.0323 0.0000 ( 19481 PWs)   bands (ev):

   -91.3348 -91.3315 -91.3303 -91.3235 -91.1565 -91.1534 -91.1520 -91.1411
   -91.1381 -91.1370 -91.1353 -91.0186 -54.8652 -54.8627 -54.8523 -54.8290
   -54.8267 -54.8247 -54.8212 -54.8186 -54.8171 -54.8097 -54.8050 -54.7945
   -54.6913 -54.6841 -54.6779 -54.6760 -54.6520 -54.6505 -54.6482 -54.6467
   -54.6340 -54.6324 -54.6318 -54.6297 -54.6290 -54.6268 -54.6255 -54.6189
   -54.6154 -54.6066 -54.5983 -54.5882 -54.5824 -54.5285 -54.5231 -54.5007
   -11.9855  -5.1256  -4.8990  -4.7631  -4.7217  -4.7196  -4.7059  -4.6863
    -4.6778  -4.6319  -4.6019  -4.5922  -4.4699  -4.3987  -4.2790  -4.2618
    -4.1548  -4.1388  -4.0622  -4.0238  -3.9280  -3.8635  -3.8411  -3.8131
    -3.7935  -3.7617  -3.7197  -3.6477  -3.6474  -3.6090  -3.5424  -3.5213
    -3.4932  -3.4861  -3.4417  -3.4139  -3.2618  -3.2358  -3.1454  -3.1106
    -3.0541  -3.0186  -3.0169  -2.9769  -2.9640  -2.9550  -2.9155  -2.8683
    -2.8541  -2.8198  -2.8155  -2.7710  -2.7210  -2.6989  -2.6522  -2.6088
    -2.4954  -2.4783  -2.4720  -2.4451  -2.3549  -2.3433  -2.0299  -1.9154
    -0.7658  -0.0433  -0.0355   0.4054   0.7589   0.8651   1.2168   2.1682
     2.2926   2.9114   3.2530   4.2472   4.6838   5.1378

          k = 0.0559 0.0000 0.0000 ( 19453 PWs)   bands (ev):

   -91.3351 -91.3311 -91.3303 -91.3235 -91.1568 -91.1529 -91.1522 -91.1414
   -91.1378 -91.1370 -91.1352 -91.0186 -54.8679 -54.8633 -54.8576 -54.8298
   -54.8269 -54.8227 -54.8219 -54.8178 -54.8123 -54.8080 -54.8048 -54.7937
   -54.6933 -54.6844 -54.6837 -54.6781 -54.6534 -54.6511 -54.6486 -54.6400
   -54.6382 -54.6313 -54.6301 -54.6276 -54.6269 -54.6263 -54.6256 -54.6184
   -54.6149 -54.6066 -54.5989 -54.5867 -54.5826 -54.5267 -54.5231 -54.5007
   -11.9877  -5.2459  -4.8790  -4.8674  -4.7783  -4.7685  -4.7538  -4.7319
    -4.7262  -4.7008  -4.6821  -4.6180  -4.4830  -4.4473  -4.4441  -4.3140
    -4.1835  -4.0696  -4.0250  -3.9820  -3.9617  -3.9137  -3.8597  -3.8366
    -3.8151  -3.7485  -3.7208  -3.7151  -3.6663  -3.6555  -3.5795  -3.5342
    -3.4662  -3.4318  -3.3801  -3.3534  -3.2687  -3.2207  -3.0894  -3.0881
    -3.0508  -2.9692  -2.9438  -2.9277  -2.8885  -2.8688  -2.8388  -2.8122
    -2.8023  -2.7410  -2.7146  -2.7088  -2.6808  -2.6423  -2.5856  -2.5351
    -2.5130  -2.4871  -2.4670  -2.4045  -2.4008  -2.3864  -2.0650  -1.0144
    -0.9624  -0.2963  -0.0573   0.1021   0.7624   1.1004   1.6252   2.2419
     2.6407   2.9012   3.1153   3.4607   4.5386   4.9188

          k = 0.0559 0.0323 0.0000 ( 19481 PWs)   bands (ev):

   -91.3348 -91.3315 -91.3303 -91.3235 -91.1565 -91.1530 -91.1524 -91.1411
   -91.1381 -91.1370 -91.1353 -91.0186 -54.8653 -54.8627 -54.8523 -54.8290
   -54.8267 -54.8247 -54.8212 -54.8186 -54.8171 -54.8097 -54.8050 -54.7945
   -54.6915 -54.6838 -54.6779 -54.6760 -54.6519 -54.6506 -54.6479 -54.6467
   -54.6342 -54.6324 -54.6318 -54.6298 -54.6290 -54.6265 -54.6258 -54.6187
   -54.6154 -54.6066 -54.5983 -54.5882 -54.5824 -54.5285 -54.5231 -54.5007
   -11.9855  -5.1256  -4.8990  -4.7631  -4.7217  -4.7196  -4.7059  -4.6863
    -4.6778  -4.6319  -4.6020  -4.5921  -4.4700  -4.3986  -4.2790  -4.2618
    -4.1549  -4.1388  -4.0622  -4.0238  -3.9280  -3.8635  -3.8411  -3.8131
    -3.7935  -3.7617  -3.7197  -3.6477  -3.6474  -3.6090  -3.5424  -3.5213
    -3.4932  -3.4861  -3.4418  -3.4139  -3.2618  -3.2357  -3.1453  -3.1106
    -3.0541  -3.0185  -3.0170  -2.9769  -2.9640  -2.9550  -2.9155  -2.8684
    -2.8541  -2.8198  -2.8155  -2.7710  -2.7210  -2.6988  -2.6522  -2.6088
    -2.4954  -2.4783  -2.4721  -2.4451  -2.3549  -2.3433  -2.0299  -1.9154
    -0.7658  -0.0433  -0.0355   0.4055   0.7589   0.8651   1.2168   2.1682
     2.2926   2.9114   3.2530   4.2472   4.6838   5.1378

          k = 0.0559-0.1290 0.0000 ( 19479 PWs)   bands (ev):

   -91.3339 -91.3321 -91.3304 -91.3236 -91.1558 -91.1537 -91.1523 -91.1405
   -91.1387 -91.1370 -91.1353 -91.0186 -54.8600 -54.8539 -54.8431 -54.8372
   -54.8269 -54.8262 -54.8223 -54.8206 -54.8180 -54.8147 -54.8055 -54.7983
   -54.6859 -54.6758 -54.6704 -54.6693 -54.6618 -54.6533 -54.6498 -54.6396
   -54.6391 -54.6353 -54.6328 -54.6297 -54.6289 -54.6271 -54.6258 -54.6223
   -54.6186 -54.6067 -54.5966 -54.5909 -54.5833 -54.5298 -54.5249 -54.5007
   -11.9813  -4.8189  -4.7337  -4.6556  -4.6167  -4.5910  -4.5752  -4.5552
    -4.5438  -4.5033  -4.4669  -4.3967  -4.3196  -4.2790  -4.2530  -4.2351
    -4.1577  -4.0860  -4.0506  -3.9727  -3.9223  -3.8944  -3.8710  -3.8654
    -3.8282  -3.7508  -3.6929  -3.6685  -3.6461  -3.6333  -3.5918  -3.5666
    -3.5375  -3.4986  -3.4560  -3.3749  -3.3398  -3.3076  -3.2781  -3.2495
    -3.2300  -3.1900  -3.1587  -3.1254  -3.0542  -3.0166  -2.9963  -2.9789
    -2.9623  -2.9010  -2.8879  -2.8293  -2.7868  -2.7266  -2.6858  -2.6625
    -2.5725  -2.5365  -2.5039  -2.4806  -2.4334  -2.4178  -2.2008  -1.6717
    -1.1016  -0.9600  -0.2234   0.0772   0.6210   1.1329   1.7094   2.1913
     2.5475   3.3913   3.6121   4.0634   4.5778   5.0352

          k = 0.0559-0.0968 0.0000 ( 19479 PWs)   bands (ev):

   -91.3329 -91.3329 -91.3306 -91.3236 -91.1550 -91.1546 -91.1523 -91.1396
   -91.1396 -91.1370 -91.1353 -91.0186 -54.8501 -54.8500 -54.8450 -54.8360
   -54.8358 -54.8245 -54.8243 -54.8232 -54.8176 -54.8089 -54.8089 -54.8023
   -54.6766 -54.6757 -54.6664 -54.6622 -54.6612 -54.6608 -54.6600 -54.6392
   -54.6366 -54.6346 -54.6289 -54.6289 -54.6282 -54.6276 -54.6257 -54.6252
   -54.6251 -54.6067 -54.5944 -54.5935 -54.5840 -54.5281 -54.5281 -54.5007
   -11.9792  -4.6176  -4.5408  -4.5290  -4.4901  -4.4757  -4.4258  -4.4174
    -4.4135  -4.4037  -4.3834  -4.3709  -4.3706  -4.3368  -4.3332  -4.3220
    -4.1007  -4.0955  -3.9746  -3.9484  -3.9318  -3.9141  -3.8811  -3.8672
    -3.7670  -3.7451  -3.7399  -3.6995  -3.6953  -3.6952  -3.6531  -3.6020
    -3.5648  -3.5513  -3.5295  -3.5155  -3.4913  -3.4373  -3.4357  -3.4353
    -3.3744  -3.2573  -3.1339  -3.0871  -3.0757  -3.0453  -3.0240  -2.9587
    -2.9426  -2.8413  -2.8222  -2.7383  -2.7213  -2.7014  -2.6445  -2.6104
    -2.6093  -2.5535  -2.5442  -2.5277  -2.5111  -2.2387  -2.1722  -2.1447
    -1.1463  -1.0967  -0.8590   0.1290   0.5047   0.9892   2.0728   2.2019
     2.8697   4.1581   4.1676   4.2814   4.5077   4.7611

          k = 0.0559-0.0645 0.0000 ( 19479 PWs)   bands (ev):

   -91.3339 -91.3321 -91.3304 -91.3236 -91.1556 -91.1541 -91.1521 -91.1405
   -91.1387 -91.1370 -91.1353 -91.0186 -54.8600 -54.8539 -54.8431 -54.8372
   -54.8269 -54.8262 -54.8224 -54.8206 -54.8180 -54.8147 -54.8055 -54.7983
   -54.6857 -54.6761 -54.6704 -54.6694 -54.6619 -54.6533 -54.6496 -54.6396
   -54.6390 -54.6353 -54.6327 -54.6296 -54.6288 -54.6274 -54.6255 -54.6225
   -54.6186 -54.6067 -54.5966 -54.5909 -54.5832 -54.5298 -54.5249 -54.5007
   -11.9813  -4.8189  -4.7337  -4.6556  -4.6166  -4.5910  -4.5752  -4.5552
    -4.5438  -4.5033  -4.4669  -4.3967  -4.3196  -4.2790  -4.2530  -4.2351
    -4.1577  -4.0860  -4.0506  -3.9727  -3.9224  -3.8944  -3.8710  -3.8654
    -3.8282  -3.7508  -3.6929  -3.6685  -3.6461  -3.6333  -3.5918  -3.5666
    -3.5375  -3.4986  -3.4560  -3.3749  -3.3398  -3.3076  -3.2781  -3.2495
    -3.2300  -3.1900  -3.1587  -3.1254  -3.0542  -3.0166  -2.9963  -2.9789
    -2.9623  -2.9010  -2.8879  -2.8293  -2.7868  -2.7266  -2.6858  -2.6625
    -2.5725  -2.5364  -2.5039  -2.4806  -2.4334  -2.4179  -2.2008  -1.6717
    -1.1016  -0.9600  -0.2234   0.0772   0.6211   1.1328   1.7094   2.1912
     2.5475   3.3912   3.6121   4.0634   4.5778   5.0351

          k =-0.0838 0.0484 0.0000 ( 19500 PWs)   bands (ev):

   -91.3338 -91.3324 -91.3303 -91.3236 -91.1556 -91.1542 -91.1520 -91.1405
   -91.1387 -91.1370 -91.1353 -91.0186 -54.8601 -54.8576 -54.8357 -54.8318
   -54.8296 -54.8263 -54.8258 -54.8218 -54.8212 -54.8172 -54.8020 -54.7978
   -54.6869 -54.6783 -54.6712 -54.6608 -54.6605 -54.6563 -54.6504 -54.6415
   -54.6386 -54.6351 -54.6342 -54.6320 -54.6289 -54.6275 -54.6255 -54.6210
   -54.6169 -54.6067 -54.5964 -54.5916 -54.5826 -54.5312 -54.5238 -54.5007
   -11.9813  -4.8419  -4.8094  -4.6858  -4.6380  -4.6253  -4.6188  -4.5272
    -4.4972  -4.4200  -4.4107  -4.3766  -4.3671  -4.3180  -4.2647  -4.1986
    -4.1833  -4.0302  -4.0176  -3.9585  -3.9422  -3.9357  -3.9281  -3.8404
    -3.8240  -3.7017  -3.6606  -3.5945  -3.5717  -3.5511  -3.5339  -3.5026
    -3.4913  -3.4061  -3.3638  -3.3274  -3.3257  -3.3113  -3.2822  -3.2670
    -3.2652  -3.2272  -3.1654  -3.0972  -3.0891  -3.0449  -3.0286  -2.9875
    -2.9834  -2.9692  -2.9674  -2.9133  -2.8900  -2.8475  -2.7832  -2.7493
    -2.6912  -2.5089  -2.4849  -2.4755  -2.4707  -2.3551  -2.3437  -1.6547
    -1.3157  -0.0911  -0.0816   0.3551   0.7099   0.8086   1.4897   1.8607
     2.2912   2.8160   3.8699   4.1714   4.5822   5.2779

          k =-0.0838 0.0806 0.0000 ( 19479 PWs)   bands (ev):

   -91.3339 -91.3321 -91.3304 -91.3236 -91.1557 -91.1540 -91.1522 -91.1405
   -91.1387 -91.1370 -91.1353 -91.0186 -54.8600 -54.8539 -54.8431 -54.8372
   -54.8269 -54.8262 -54.8224 -54.8206 -54.8180 -54.8147 -54.8055 -54.7983
   -54.6857 -54.6761 -54.6704 -54.6694 -54.6615 -54.6533 -54.6500 -54.6396
   -54.6390 -54.6352 -54.6326 -54.6297 -54.6288 -54.6273 -54.6256 -54.6224
   -54.6186 -54.6067 -54.5966 -54.5909 -54.5833 -54.5298 -54.5249 -54.5007
   -11.9813  -4.8189  -4.7337  -4.6556  -4.6167  -4.5910  -4.5752  -4.5552
    -4.5438  -4.5033  -4.4669  -4.3967  -4.3196  -4.2790  -4.2530  -4.2351
    -4.1577  -4.0860  -4.0506  -3.9727  -3.9223  -3.8944  -3.8710  -3.8654
    -3.8282  -3.7508  -3.6928  -3.6684  -3.6462  -3.6333  -3.5918  -3.5667
    -3.5375  -3.4986  -3.4560  -3.3748  -3.3398  -3.3076  -3.2781  -3.2495
    -3.2299  -3.1900  -3.1587  -3.1254  -3.0542  -3.0166  -2.9963  -2.9789
    -2.9623  -2.9010  -2.8879  -2.8293  -2.7867  -2.7266  -2.6858  -2.6625
    -2.5724  -2.5364  -2.5039  -2.4806  -2.4334  -2.4179  -2.2008  -1.6717
    -1.1016  -0.9600  -0.2234   0.0772   0.6210   1.1328   1.7094   2.1912
     2.5475   3.3912   3.6121   4.0634   4.5778   5.0351

          k =-0.0838 0.1129 0.0000 ( 19479 PWs)   bands (ev):

   -91.3339 -91.3321 -91.3304 -91.3236 -91.1558 -91.1537 -91.1524 -91.1405
   -91.1387 -91.1370 -91.1353 -91.0186 -54.8600 -54.8539 -54.8431 -54.8372
   -54.8269 -54.8262 -54.8224 -54.8206 -54.8180 -54.8147 -54.8055 -54.7983
   -54.6859 -54.6758 -54.6704 -54.6693 -54.6618 -54.6533 -54.6498 -54.6396
   -54.6391 -54.6352 -54.6328 -54.6297 -54.6289 -54.6270 -54.6258 -54.6223
   -54.6186 -54.6067 -54.5966 -54.5909 -54.5833 -54.5298 -54.5249 -54.5007
   -11.9813  -4.8189  -4.7337  -4.6556  -4.6167  -4.5910  -4.5752  -4.5552
    -4.5438  -4.5033  -4.4669  -4.3967  -4.3196  -4.2790  -4.2530  -4.2351
    -4.1577  -4.0860  -4.0506  -3.9727  -3.9223  -3.8944  -3.8710  -3.8654
    -3.8282  -3.7508  -3.6929  -3.6685  -3.6461  -3.6333  -3.5918  -3.5667
    -3.5375  -3.4986  -3.4560  -3.3749  -3.3398  -3.3076  -3.2781  -3.2495
    -3.2300  -3.1900  -3.1587  -3.1254  -3.0542  -3.0166  -2.9963  -2.9789
    -2.9623  -2.9010  -2.8879  -2.8293  -2.7868  -2.7266  -2.6858  -2.6625
    -2.5725  -2.5365  -2.5039  -2.4806  -2.4334  -2.4178  -2.2008  -1.6717
    -1.1016  -0.9600  -0.2234   0.0772   0.6210   1.1329   1.7094   2.1913
     2.5475   3.3912   3.6121   4.0634   4.5778   5.0352

          k =-0.0838-0.0484 0.0000 ( 19500 PWs)   bands (ev):

   -91.3338 -91.3324 -91.3303 -91.3236 -91.1559 -91.1536 -91.1524 -91.1405
   -91.1387 -91.1370 -91.1353 -91.0186 -54.8601 -54.8576 -54.8357 -54.8318
   -54.8296 -54.8263 -54.8258 -54.8218 -54.8212 -54.8172 -54.8020 -54.7978
   -54.6872 -54.6780 -54.6712 -54.6608 -54.6602 -54.6566 -54.6504 -54.6415
   -54.6386 -54.6351 -54.6342 -54.6323 -54.6291 -54.6270 -54.6258 -54.6208
   -54.6169 -54.6067 -54.5964 -54.5916 -54.5826 -54.5312 -54.5238 -54.5007
   -11.9813  -4.8419  -4.8094  -4.6858  -4.6379  -4.6253  -4.6188  -4.5272
    -4.4971  -4.4200  -4.4107  -4.3766  -4.3671  -4.3181  -4.2646  -4.1986
    -4.1832  -4.0302  -4.0177  -3.9586  -3.9422  -3.9357  -3.9281  -3.8404
    -3.8240  -3.7017  -3.6606  -3.5944  -3.5717  -3.5511  -3.5338  -3.5025
    -3.4914  -3.4061  -3.3638  -3.3275  -3.3256  -3.3113  -3.2822  -3.2670
    -3.2653  -3.2272  -3.1654  -3.0971  -3.0891  -3.0450  -3.0285  -2.9875
    -2.9836  -2.9692  -2.9673  -2.9133  -2.8900  -2.8474  -2.7832  -2.7494
    -2.6912  -2.5090  -2.4848  -2.4756  -2.4707  -2.3552  -2.3437  -1.6547
    -1.3157  -0.0911  -0.0816   0.3551   0.7099   0.8086   1.4897   1.8607
     2.2912   2.8160   3.8699   4.1714   4.5822   5.2779

     the Fermi energy is     0.7113 ev

!    total energy              =   -3579.89888995 Ry
     Harris-Foulkes estimate   =   -3579.89890477 Ry
     estimated scf accuracy    <       0.00000781 Ry

     The total energy is the sum of the following terms:

     one-electron contribution =  -26200.01160505 Ry
     hartree contribution      =   13089.26160633 Ry
     xc contribution           =    -366.24564925 Ry
     ewald contribution        =    9897.12362469 Ry
     electric field correction =       0.00059946 Ry
     smearing contrib. (-TS)   =      -0.02746613 Ry

     convergence has been achieved in  14 iterations
 
 BEEF-vdW xc energy contributions
           1 :   -317.280263814165     
           2 :    287.151440610877     
           3 :   -236.925438008740     
           4 :    181.791888731754     
           5 :   -135.507566108672     
           6 :    105.444894245953     
           7 :   -91.2485730253559     
           8 :    87.0565126518571     
           9 :   -85.6018468518950     
          10 :    81.8721421937767     
          11 :   -74.6608730617982     
          12 :    65.7409097323223     
          13 :   -57.7172777774558     
          14 :    52.1017393340086     
          15 :   -48.6701508588193     
          16 :    46.1278129001182     
          17 :   -43.2998426978567     
          18 :    39.9161477933573     
          19 :   -36.5519146615582     
          20 :    33.9490574509979     
          21 :   -32.3360287194966     
          22 :    31.2501931415629     
          23 :   -29.9286143416548     
          24 :    27.9104787417758     
          25 :   -25.3851632426269     
          26 :    23.0441770292114     
          27 :   -21.5750520067956     
          28 :    21.1773653235458     
          29 :   -21.4396316041638     
          30 :    21.6400610971643     
          31 :   -31.7300147932177     
          32 :   -23.0588433438061     

     Forces acting on atoms (Ry/au):


     negative rho (up, down):  2.303E-03 0.000E+00
     atom    1 type  1   force =    -0.00091483   -0.00052848    0.00098890
     atom    2 type  1   force =     0.00091251   -0.00052755    0.00099058
     atom    3 type  1   force =     0.00000006    0.00105485    0.00102917
     atom    4 type  1   force =    -0.00000003    0.00000063   -0.00250950
     atom    5 type  1   force =     0.00001487    0.00219983    0.00328977
     atom    6 type  1   force =    -0.00001343   -0.00000039   -0.00416129
     atom    7 type  1   force =    -0.00190562   -0.00110837    0.00329326
     atom    8 type  1   force =     0.00190609   -0.00109132    0.00328846
     atom    9 type  1   force =     0.00000066   -0.00000318   -0.00051444
     atom   10 type  1   force =    -0.00000053    0.00143317    0.01569943
     atom   11 type  1   force =     0.00124460   -0.00071503    0.01569717
     atom   12 type  1   force =    -0.00124460   -0.00071445    0.01570033
     atom   13 type  2   force =     0.00000026    0.00000030   -0.05279184

     Total force =     0.059437     Total SCF correction =     0.010680
     SCF correction compared to forces is large: reduce conv_thr to get better values


     entering subroutine stress ...


     negative rho (up, down):  2.303E-03 0.000E+00
          total   stress  (Ry/bohr**3)                   (kbar)     P=   -6.10
  -0.00004777  -0.00000000  -0.00000000         -7.03     -0.00     -0.00
  -0.00000000  -0.00004777  -0.00000000         -0.00     -7.03     -0.00
  -0.00000000  -0.00000000  -0.00002893         -0.00     -0.00     -4.26


     BFGS Geometry Optimization

     number of scf cycles    =   1
     number of bfgs steps    =   0

     energy   new            =   -3579.8988899462 Ry

     new trust radius        =       0.0527918416 bohr
     new conv_thr            =       0.0000099958 Ry


ATOMIC_POSITIONS (crystal)
Ag1      0.166666667   0.166666667   0.402063960    0   0   0
Ag1      0.666666667   0.166666667   0.402063960    0   0   0
Ag1      0.166666667   0.666666667   0.402063960    0   0   0
Ag1      0.666666667   0.666666667   0.402063960    0   0   0
Ag1      0.833333333   0.333333333   0.500000000    0   0   0
Ag1      0.333333333   0.333333333   0.500000000    0   0   0
Ag1      0.833333333   0.833333333   0.500000000    0   0   0
Ag1      0.333333333   0.833333333   0.500000000    0   0   0
Ag1      0.000000222  -0.000000326   0.597925095
Ag1      0.499926567   0.000146772   0.598270066
Ag1      0.000146998   0.499926773   0.598270018
Ag1      0.499926199   0.499926832   0.598270085
N1       0.333333341   0.333333364   0.653262605



     Writing output data file calc.save
     Check: negative starting charge=   -0.002260
     NEW-OLD atomic charge density approx. for the potential
     Check: negative starting charge=   -0.002264

     negative rho (up, down):  2.313E-03 0.000E+00
 
     Adding external electric field

     Computed dipole along edir(3) : 
        Dipole               -0.4735 Ry au,         -1.2036 Debye
        Dipole field         -0.0011 Ry au
 
        Potential amp.        0.1054 Ry
        Total length         45.8256 bohr
 

     total cpu time spent up to now is      382.3 secs

     Self-consistent Calculation

     iteration #  1     ecut=    36.75 Ry     beta=0.30
     Davidson diagonalization with overlap
     ethr =  1.00E-06,  avg # of iterations =  4.0

     negative rho (up, down):  2.304E-03 0.000E+00
 
     Adding external electric field

     Computed dipole along edir(3) : 
        Dipole               -0.7173 Ry au,         -1.8232 Debye
        Dipole field         -0.0017 Ry au
 
        Potential amp.        0.1597 Ry
        Total length         45.8256 bohr
 

     total cpu time spent up to now is      409.6 secs

     total energy              =   -3579.89751025 Ry
     Harris-Foulkes estimate   =   -3579.90192705 Ry
     estimated scf accuracy    <       0.01051906 Ry

     iteration #  2     ecut=    36.75 Ry     beta=0.30
     Davidson diagonalization with overlap
     ethr =  4.51E-06,  avg # of iterations =  5.4

     negative rho (up, down):  2.290E-03 0.000E+00
 
     Adding external electric field

     Computed dipole along edir(3) : 
        Dipole               -0.4527 Ry au,         -1.1506 Debye
        Dipole field         -0.0011 Ry au
 
        Potential amp.        0.1008 Ry
        Total length         45.8256 bohr
 

     total cpu time spent up to now is      432.1 secs

     total energy              =   -3579.87555516 Ry
     Harris-Foulkes estimate   =   -3579.92731711 Ry
     estimated scf accuracy    <       0.96972901 Ry

     iteration #  3     ecut=    36.75 Ry     beta=0.30
     Davidson diagonalization with overlap
     ethr =  4.51E-06,  avg # of iterations =  4.8

     negative rho (up, down):  2.292E-03 0.000E+00
 
     Adding external electric field

     Computed dipole along edir(3) : 
        Dipole               -0.4784 Ry au,         -1.2160 Debye
        Dipole field         -0.0012 Ry au
 
        Potential amp.        0.1065 Ry
        Total length         45.8256 bohr
 

     total cpu time spent up to now is      454.1 secs

     total energy              =   -3579.90196626 Ry
     Harris-Foulkes estimate   =   -3579.90237752 Ry
     estimated scf accuracy    <       0.00336442 Ry

     iteration #  4     ecut=    36.75 Ry     beta=0.30
     Davidson diagonalization with overlap
     ethr =  1.44E-06,  avg # of iterations =  3.8

     negative rho (up, down):  2.294E-03 0.000E+00
 
     Adding external electric field

     Computed dipole along edir(3) : 
        Dipole               -0.4769 Ry au,         -1.2122 Debye
        Dipole field         -0.0012 Ry au
 
        Potential amp.        0.1061 Ry
        Total length         45.8256 bohr
 

     total cpu time spent up to now is      474.3 secs

     total energy              =   -3579.90219217 Ry
     Harris-Foulkes estimate   =   -3579.90220784 Ry
     estimated scf accuracy    <       0.00010402 Ry

     iteration #  5     ecut=    36.75 Ry     beta=0.30
     Davidson diagonalization with overlap
     ethr =  4.46E-08,  avg # of iterations =  2.0

     negative rho (up, down):  2.296E-03 0.000E+00
 
     Adding external electric field

     Computed dipole along edir(3) : 
        Dipole               -0.4770 Ry au,         -1.2124 Debye
        Dipole field         -0.0012 Ry au
 
        Potential amp.        0.1062 Ry
        Total length         45.8256 bohr
 

     total cpu time spent up to now is      491.6 secs

     total energy              =   -3579.90219783 Ry
     Harris-Foulkes estimate   =   -3579.90219927 Ry
     estimated scf accuracy    <       0.00001261 Ry

     iteration #  6     ecut=    36.75 Ry     beta=0.30
     Davidson diagonalization with overlap
     ethr =  5.41E-09,  avg # of iterations =  2.0

     negative rho (up, down):  2.303E-03 0.000E+00

     negative rho (up, down):  2.303E-03 0.000E+00

     negative rho (up, down):  2.303E-03 0.000E+00

     negative rho (up, down):  2.303E-03 0.000E+00

     negative rho (up, down):  2.303E-03 0.000E+00

     negative rho (up, down):  2.303E-03 0.000E+00

     negative rho (up, down):  2.303E-03 0.000E+00

     negative rho (up, down):  2.303E-03 0.000E+00

     negative rho (up, down):  2.303E-03 0.000E+00

     negative rho (up, down):  2.303E-03 0.000E+00

     negative rho (up, down):  2.303E-03 0.000E+00

     negative rho (up, down):  2.303E-03 0.000E+00

     negative rho (up, down):  2.303E-03 0.000E+00

     negative rho (up, down):  2.303E-03 0.000E+00

     negative rho (up, down):  2.303E-03 0.000E+00

     negative rho (up, down):  2.303E-03 0.000E+00

     negative rho (up, down):  2.303E-03 0.000E+00

     negative rho (up, down):  2.303E-03 0.000E+00

     negative rho (up, down):  2.303E-03 0.000E+00

     negative rho (up, down):  2.303E-03 0.000E+00

     negative rho (up, down):  2.303E-03 0.000E+00

     negative rho (up, down):  2.303E-03 0.000E+00

     negative rho (up, down):  2.303E-03 0.000E+00

     negative rho (up, down):  2.303E-03 0.000E+00

     negative rho (up, down):  2.303E-03 0.000E+00

     negative rho (up, down):  2.303E-03 0.000E+00

     negative rho (up, down):  2.303E-03 0.000E+00

     negative rho (up, down):  2.303E-03 0.000E+00

     negative rho (up, down):  2.303E-03 0.000E+00

     negative rho (up, down):  2.303E-03 0.000E+00

     negative rho (up, down):  2.303E-03 0.000E+00

     negative rho (up, down):  2.303E-03 0.000E+00

     negative rho (up, down):  2.303E-03 0.000E+00

     negative rho (up, down):  2.303E-03 0.000E+00

     negative rho (up, down):  2.303E-03 0.000E+00
 
     Adding external electric field

     Computed dipole along edir(3) : 
        Dipole               -0.4568 Ry au,         -1.1611 Debye
        Dipole field         -0.0011 Ry au
 
        Potential amp.        0.1017 Ry
        Total length         45.8256 bohr
 

     total cpu time spent up to now is      545.5 secs

     End of self-consistent calculation

          k = 0.0000 0.0000 0.0000 ( 19435 PWs)   bands (ev):

   -91.3115 -91.3054 -91.3054 -91.2992 -91.1344 -91.1297 -91.1290 -91.1290
   -91.1240 -91.1240 -91.1064 -90.9973 -54.8516 -54.8516 -54.8448 -54.8075
   -54.7969 -54.7969 -54.7934 -54.7932 -54.7833 -54.7833 -54.7653 -54.7653
   -54.6836 -54.6735 -54.6664 -54.6664 -54.6486 -54.6486 -54.6193 -54.6193
   -54.6121 -54.6088 -54.6088 -54.6045 -54.6003 -54.5982 -54.5982 -54.5903
   -54.5860 -54.5860 -54.5790 -54.5710 -54.5710 -54.5007 -54.5007 -54.4804
   -12.0797  -5.6903  -5.0494  -5.0494  -5.0372  -5.0176  -4.9064  -4.9064
    -4.8796  -4.8285  -4.8204  -4.8204  -4.7421  -4.6450  -4.6450  -4.6442
    -4.1044  -4.1044  -3.9992  -3.9676  -3.9676  -3.9209  -3.8788  -3.8788
    -3.8286  -3.7677  -3.7677  -3.6892  -3.6892  -3.6573  -3.6149  -3.6149
    -3.2723  -3.2723  -3.0808  -3.0693  -3.0693  -3.0163  -3.0163  -2.9938
    -2.9665  -2.7927  -2.7927  -2.7655  -2.7655  -2.6653  -2.6191  -2.6191
    -2.5438  -2.4818  -2.4818  -2.4610  -2.4610  -2.4116  -2.4000  -2.4000
    -2.3921  -2.2266  -2.2227  -2.2227  -2.1796  -2.1742  -2.1742  -0.1721
     0.1386   0.1828   0.1828   1.3465   1.3465   1.4069   1.8369   2.1190
     2.1190   2.2143   2.5353   2.5353   4.1754   4.4369

          k = 0.0000 0.0323 0.0000 ( 19455 PWs)   bands (ev):

   -91.3111 -91.3057 -91.3054 -91.2993 -91.1340 -91.1293 -91.1293 -91.1290
   -91.1243 -91.1240 -91.1065 -90.9973 -54.8486 -54.8473 -54.8408 -54.8065
   -54.7976 -54.7970 -54.7951 -54.7935 -54.7864 -54.7831 -54.7707 -54.7666
   -54.6803 -54.6702 -54.6634 -54.6621 -54.6475 -54.6460 -54.6206 -54.6196
   -54.6145 -54.6119 -54.6084 -54.6039 -54.6019 -54.5985 -54.5982 -54.5911
   -54.5896 -54.5872 -54.5791 -54.5729 -54.5713 -54.5029 -54.5013 -54.4804
   -12.0752  -5.5236  -4.9971  -4.9463  -4.9389  -4.9147  -4.8518  -4.8359
    -4.8130  -4.7687  -4.7564  -4.7536  -4.6424  -4.5903  -4.5375  -4.5361
    -4.1098  -4.0963  -3.9792  -3.9397  -3.9232  -3.9156  -3.8917  -3.8373
    -3.8069  -3.8067  -3.7355  -3.6959  -3.6709  -3.6399  -3.6382  -3.5583
    -3.3237  -3.3073  -3.2598  -3.1686  -3.1331  -3.1152  -3.0487  -3.0110
    -2.9547  -2.8367  -2.8344  -2.8220  -2.7849  -2.7509  -2.6522  -2.6516
    -2.5912  -2.5543  -2.5301  -2.5285  -2.4937  -2.4798  -2.4777  -2.4650
    -2.3620  -2.3572  -2.3221  -2.2957  -2.2867  -2.2795  -2.2694  -0.5186
    -0.1457   0.0974   0.1391   0.4437   1.0079   1.0963   1.5789   2.1430
     2.3054   2.6256   3.1377   3.2436   4.3353   4.7227

          k = 0.0000 0.0645 0.0000 ( 19481 PWs)   bands (ev):

   -91.3100 -91.3067 -91.3054 -91.2995 -91.1332 -91.1301 -91.1290 -91.1283
   -91.1252 -91.1240 -91.1066 -90.9973 -54.8411 -54.8383 -54.8280 -54.8040
   -54.8023 -54.8000 -54.7962 -54.7945 -54.7929 -54.7851 -54.7808 -54.7701
   -54.6723 -54.6629 -54.6556 -54.6497 -54.6460 -54.6393 -54.6232 -54.6222
   -54.6213 -54.6199 -54.6059 -54.6055 -54.6038 -54.6025 -54.5993 -54.5981
   -54.5902 -54.5878 -54.5791 -54.5775 -54.5718 -54.5075 -54.5026 -54.4804
   -12.0663  -5.0992  -4.8752  -4.7474  -4.6953  -4.6951  -4.6796  -4.6606
    -4.6530  -4.6074  -4.5810  -4.5710  -4.4545  -4.3771  -4.2609  -4.2441
    -4.1459  -4.1272  -4.0374  -4.0013  -3.9079  -3.8450  -3.8315  -3.7933
    -3.7717  -3.7390  -3.6985  -3.6331  -3.6282  -3.5844  -3.5231  -3.4999
    -3.4737  -3.4653  -3.4189  -3.4049  -3.2403  -3.2218  -3.1228  -3.0898
    -3.0322  -2.9957  -2.9956  -2.9598  -2.9452  -2.9344  -2.8926  -2.8506
    -2.8338  -2.8011  -2.7912  -2.7488  -2.6987  -2.6788  -2.6300  -2.5895
    -2.4779  -2.4576  -2.4544  -2.4272  -2.3363  -2.3227  -2.0087  -1.8844
    -0.7516  -0.0311  -0.0154   0.4277   0.7889   0.8972   1.2383   2.1978
     2.3282   2.9437   3.2739   4.2720   4.7165   5.1538

          k = 0.0000-0.0968 0.0000 ( 19500 PWs)   bands (ev):

   -91.3089 -91.3076 -91.3054 -91.2996 -91.1325 -91.1308 -91.1290 -91.1275
   -91.1259 -91.1240 -91.1066 -90.9973 -54.8360 -54.8331 -54.8113 -54.8074
   -54.8055 -54.8023 -54.8006 -54.7973 -54.7962 -54.7927 -54.7780 -54.7732
   -54.6671 -54.6586 -54.6498 -54.6468 -54.6340 -54.6325 -54.6323 -54.6281
   -54.6242 -54.6241 -54.6126 -54.6075 -54.6039 -54.6017 -54.6000 -54.5980
   -54.5923 -54.5858 -54.5810 -54.5791 -54.5720 -54.5100 -54.5032 -54.4804
   -12.0618  -4.8245  -4.7833  -4.6695  -4.6121  -4.6007  -4.5921  -4.5078
    -4.4718  -4.3950  -4.3866  -4.3542  -4.3419  -4.3045  -4.2424  -4.1753
    -4.1598  -4.0324  -4.0087  -3.9341  -3.9175  -3.9125  -3.9047  -3.8226
    -3.8029  -3.6990  -3.6410  -3.5724  -3.5562  -3.5263  -3.5079  -3.4836
    -3.4675  -3.3994  -3.3529  -3.3029  -3.3006  -3.2907  -3.2696  -3.2430
    -3.2419  -3.2070  -3.1503  -3.0767  -3.0674  -3.0265  -3.0071  -2.9689
    -2.9585  -2.9495  -2.9445  -2.8949  -2.8655  -2.8272  -2.7620  -2.7293
    -2.6634  -2.4919  -2.4647  -2.4582  -2.4513  -2.3362  -2.3230  -1.6373
    -1.2799  -0.0773  -0.0773   0.3800   0.7395   0.8456   1.5066   1.8886
     2.3280   2.8619   3.8863   4.1865   4.6131   5.3188

          k = 0.0279-0.0161 0.0000 ( 19455 PWs)   bands (ev):

   -91.3111 -91.3057 -91.3054 -91.2993 -91.1340 -91.1293 -91.1293 -91.1290
   -91.1243 -91.1240 -91.1065 -90.9973 -54.8486 -54.8473 -54.8408 -54.8065
   -54.7976 -54.7970 -54.7951 -54.7935 -54.7864 -54.7831 -54.7707 -54.7666
   -54.6803 -54.6702 -54.6634 -54.6621 -54.6475 -54.6460 -54.6206 -54.6196
   -54.6145 -54.6119 -54.6084 -54.6039 -54.6019 -54.5985 -54.5982 -54.5911
   -54.5896 -54.5872 -54.5791 -54.5729 -54.5713 -54.5029 -54.5013 -54.4804
   -12.0752  -5.5236  -4.9971  -4.9463  -4.9389  -4.9147  -4.8518  -4.8359
    -4.8130  -4.7687  -4.7564  -4.7536  -4.6424  -4.5903  -4.5375  -4.5361
    -4.1098  -4.0963  -3.9792  -3.9397  -3.9232  -3.9156  -3.8917  -3.8373
    -3.8069  -3.8067  -3.7355  -3.6959  -3.6709  -3.6399  -3.6382  -3.5583
    -3.3237  -3.3073  -3.2598  -3.1686  -3.1331  -3.1152  -3.0487  -3.0110
    -2.9547  -2.8366  -2.8344  -2.8220  -2.7849  -2.7509  -2.6522  -2.6516
    -2.5912  -2.5543  -2.5301  -2.5285  -2.4937  -2.4798  -2.4777  -2.4650
    -2.3620  -2.3572  -2.3221  -2.2957  -2.2867  -2.2795  -2.2694  -0.5186
    -0.1457   0.0974   0.1391   0.4436   1.0079   1.0963   1.5789   2.1430
     2.3054   2.6256   3.1377   3.2436   4.3353   4.7227

          k = 0.0279 0.0161 0.0000 ( 19455 PWs)   bands (ev):

   -91.3111 -91.3057 -91.3054 -91.2993 -91.1340 -91.1293 -91.1293 -91.1290
   -91.1243 -91.1240 -91.1065 -90.9973 -54.8486 -54.8473 -54.8408 -54.8065
   -54.7976 -54.7970 -54.7951 -54.7935 -54.7864 -54.7831 -54.7707 -54.7666
   -54.6803 -54.6702 -54.6634 -54.6621 -54.6475 -54.6460 -54.6206 -54.6196
   -54.6145 -54.6119 -54.6084 -54.6039 -54.6019 -54.5985 -54.5982 -54.5911
   -54.5896 -54.5872 -54.5791 -54.5729 -54.5713 -54.5029 -54.5013 -54.4804
   -12.0752  -5.5236  -4.9971  -4.9463  -4.9389  -4.9147  -4.8518  -4.8359
    -4.8130  -4.7687  -4.7564  -4.7536  -4.6424  -4.5903  -4.5375  -4.5361
    -4.1098  -4.0963  -3.9792  -3.9397  -3.9232  -3.9156  -3.8917  -3.8373
    -3.8069  -3.8067  -3.7355  -3.6959  -3.6709  -3.6399  -3.6382  -3.5583
    -3.3237  -3.3073  -3.2598  -3.1686  -3.1331  -3.1152  -3.0487  -3.0110
    -2.9547  -2.8366  -2.8344  -2.8220  -2.7849  -2.7509  -2.6522  -2.6516
    -2.5912  -2.5543  -2.5300  -2.5285  -2.4937  -2.4798  -2.4777  -2.4650
    -2.3619  -2.3572  -2.3221  -2.2957  -2.2866  -2.2795  -2.2694  -0.5186
    -0.1457   0.0974   0.1391   0.4436   1.0079   1.0963   1.5789   2.1430
     2.3054   2.6256   3.1377   3.2436   4.3353   4.7227

          k = 0.0279 0.0484 0.0000 ( 19453 PWs)   bands (ev):

   -91.3103 -91.3063 -91.3055 -91.2995 -91.1334 -91.1299 -91.1290 -91.1286
   -91.1249 -91.1240 -91.1065 -90.9973 -54.8437 -54.8391 -54.8332 -54.8048
   -54.8025 -54.7978 -54.7971 -54.7936 -54.7881 -54.7838 -54.7803 -54.7693
   -54.6744 -54.6648 -54.6561 -54.6553 -54.6467 -54.6410 -54.6230 -54.6228
   -54.6198 -54.6118 -54.6098 -54.6048 -54.6030 -54.5991 -54.5989 -54.5982
   -54.5898 -54.5884 -54.5791 -54.5760 -54.5719 -54.5059 -54.5026 -54.4804
   -12.0685  -5.2187  -4.8552  -4.8421  -4.7576  -4.7459  -4.7284  -4.7066
    -4.7010  -4.6792  -4.6579  -4.5979  -4.4678  -4.4301  -4.4226  -4.2953
    -4.1743  -4.0617  -4.0006  -3.9597  -3.9395  -3.8968  -3.8420  -3.8174
    -3.7943  -3.7331  -3.7043  -3.6941  -3.6403  -3.6313  -3.5625  -3.5165
    -3.4458  -3.4144  -3.3579  -3.3342  -3.2509  -3.2081  -3.0691  -3.0663
    -3.0290  -2.9486  -2.9231  -2.9056  -2.8679  -2.8493  -2.8206  -2.7910
    -2.7790  -2.7212  -2.6941  -2.6855  -2.6602  -2.6220  -2.5614  -2.5190
    -2.4955  -2.4671  -2.4459  -2.3858  -2.3836  -2.3670  -2.0357  -0.9998
    -0.9405  -0.2827  -0.0453   0.1390   0.7777   1.1335   1.6629   2.2693
     2.6637   2.9235   3.1367   3.4885   4.5895   4.9492

          k = 0.0279-0.1129 0.0000 ( 19479 PWs)   bands (ev):

   -91.3091 -91.3073 -91.3056 -91.2996 -91.1325 -91.1308 -91.1290 -91.1276
   -91.1258 -91.1241 -91.1066 -90.9973 -54.8358 -54.8296 -54.8189 -54.8129
   -54.8019 -54.8016 -54.7977 -54.7959 -54.7938 -54.7902 -54.7814 -54.7738
   -54.6662 -54.6574 -54.6491 -54.6474 -54.6414 -54.6343 -54.6331 -54.6253
   -54.6216 -54.6203 -54.6106 -54.6088 -54.6042 -54.6017 -54.5999 -54.5981
   -54.5938 -54.5860 -54.5803 -54.5791 -54.5726 -54.5087 -54.5042 -54.4804
   -12.0618  -4.7979  -4.7113  -4.6382  -4.5920  -4.5654  -4.5515  -4.5316
    -4.5199  -4.4785  -4.4430  -4.3724  -4.3038  -4.2609  -4.2302  -4.2128
    -4.1381  -4.0697  -4.0359  -3.9627  -3.9013  -3.8714  -3.8483  -3.8438
    -3.8081  -3.7429  -3.6735  -3.6463  -3.6247  -3.6132  -3.5712  -3.5469
    -3.5161  -3.4759  -3.4521  -3.3542  -3.3195  -3.2872  -3.2555  -3.2274
    -3.2099  -3.1742  -3.1433  -3.1066  -3.0333  -2.9949  -2.9747  -2.9575
    -2.9424  -2.8812  -2.8629  -2.8078  -2.7655  -2.7039  -2.6624  -2.6437
    -2.5533  -2.5193  -2.4848  -2.4602  -2.4153  -2.3972  -2.1794  -1.6460
    -1.0824  -0.9356  -0.2107   0.0986   0.6512   1.1672   1.7374   2.2150
     2.5769   3.4253   3.6331   4.0911   4.6062   5.0587

          k = 0.0279-0.0806 0.0000 ( 19479 PWs)   bands (ev):

   -91.3091 -91.3073 -91.3056 -91.2996 -91.1325 -91.1308 -91.1290 -91.1276
   -91.1258 -91.1241 -91.1066 -90.9973 -54.8358 -54.8296 -54.8189 -54.8129
   -54.8019 -54.8016 -54.7977 -54.7959 -54.7938 -54.7902 -54.7814 -54.7738
   -54.6662 -54.6574 -54.6491 -54.6474 -54.6414 -54.6342 -54.6331 -54.6253
   -54.6216 -54.6203 -54.6106 -54.6088 -54.6042 -54.6017 -54.5998 -54.5981
   -54.5938 -54.5860 -54.5803 -54.5791 -54.5726 -54.5087 -54.5042 -54.4804
   -12.0618  -4.7979  -4.7113  -4.6382  -4.5920  -4.5654  -4.5515  -4.5316
    -4.5199  -4.4785  -4.4430  -4.3724  -4.3038  -4.2609  -4.2302  -4.2128
    -4.1381  -4.0697  -4.0359  -3.9627  -3.9013  -3.8714  -3.8483  -3.8438
    -3.8081  -3.7429  -3.6735  -3.6463  -3.6247  -3.6132  -3.5712  -3.5469
    -3.5161  -3.4759  -3.4521  -3.3542  -3.3195  -3.2872  -3.2555  -3.2274
    -3.2099  -3.1742  -3.1433  -3.1066  -3.0333  -2.9949  -2.9747  -2.9575
    -2.9424  -2.8812  -2.8629  -2.8078  -2.7655  -2.7039  -2.6624  -2.6437
    -2.5533  -2.5193  -2.4848  -2.4602  -2.4153  -2.3972  -2.1794  -1.6460
    -1.0824  -0.9356  -0.2107   0.0986   0.6512   1.1672   1.7374   2.2150
     2.5769   3.4253   3.6331   4.0911   4.6062   5.0587

          k = 0.0279-0.0484 0.0000 ( 19453 PWs)   bands (ev):

   -91.3103 -91.3063 -91.3055 -91.2995 -91.1334 -91.1299 -91.1290 -91.1286
   -91.1249 -91.1241 -91.1065 -90.9973 -54.8437 -54.8391 -54.8332 -54.8048
   -54.8025 -54.7978 -54.7971 -54.7936 -54.7881 -54.7838 -54.7803 -54.7693
   -54.6744 -54.6648 -54.6561 -54.6553 -54.6467 -54.6410 -54.6230 -54.6228
   -54.6198 -54.6118 -54.6098 -54.6048 -54.6030 -54.5991 -54.5989 -54.5982
   -54.5898 -54.5884 -54.5791 -54.5760 -54.5719 -54.5059 -54.5026 -54.4804
   -12.0685  -5.2187  -4.8552  -4.8421  -4.7576  -4.7459  -4.7284  -4.7066
    -4.7010  -4.6792  -4.6579  -4.5979  -4.4678  -4.4301  -4.4226  -4.2953
    -4.1743  -4.0617  -4.0006  -3.9597  -3.9395  -3.8968  -3.8420  -3.8174
    -3.7943  -3.7331  -3.7043  -3.6941  -3.6403  -3.6313  -3.5625  -3.5165
    -3.4458  -3.4144  -3.3579  -3.3342  -3.2509  -3.2081  -3.0691  -3.0663
    -3.0290  -2.9486  -2.9231  -2.9056  -2.8679  -2.8493  -2.8206  -2.7910
    -2.7790  -2.7212  -2.6941  -2.6855  -2.6603  -2.6220  -2.5614  -2.5190
    -2.4955  -2.4671  -2.4459  -2.3858  -2.3836  -2.3670  -2.0357  -0.9998
    -0.9405  -0.2827  -0.0453   0.1390   0.7777   1.1335   1.6629   2.2693
     2.6637   2.9235   3.1367   3.4885   4.5895   4.9492

          k = 0.0559-0.0323 0.0000 ( 19481 PWs)   bands (ev):

   -91.3100 -91.3067 -91.3054 -91.2995 -91.1332 -91.1302 -91.1290 -91.1283
   -91.1252 -91.1240 -91.1066 -90.9973 -54.8411 -54.8383 -54.8280 -54.8040
   -54.8023 -54.8000 -54.7962 -54.7945 -54.7929 -54.7851 -54.7808 -54.7701
   -54.6723 -54.6629 -54.6556 -54.6497 -54.6460 -54.6393 -54.6232 -54.6222
   -54.6213 -54.6199 -54.6059 -54.6055 -54.6038 -54.6025 -54.5993 -54.5981
   -54.5902 -54.5878 -54.5791 -54.5775 -54.5718 -54.5075 -54.5026 -54.4804
   -12.0663  -5.0992  -4.8752  -4.7474  -4.6953  -4.6951  -4.6796  -4.6606
    -4.6530  -4.6074  -4.5810  -4.5710  -4.4545  -4.3771  -4.2609  -4.2441
    -4.1459  -4.1272  -4.0374  -4.0013  -3.9079  -3.8450  -3.8315  -3.7933
    -3.7717  -3.7390  -3.6985  -3.6331  -3.6282  -3.5844  -3.5231  -3.4999
    -3.4737  -3.4653  -3.4189  -3.4049  -3.2403  -3.2218  -3.1228  -3.0898
    -3.0322  -2.9957  -2.9956  -2.9598  -2.9452  -2.9344  -2.8926  -2.8506
    -2.8338  -2.8011  -2.7912  -2.7488  -2.6987  -2.6788  -2.6300  -2.5895
    -2.4779  -2.4576  -2.4544  -2.4272  -2.3363  -2.3227  -2.0087  -1.8844
    -0.7516  -0.0311  -0.0154   0.4277   0.7889   0.8972   1.2383   2.1978
     2.3282   2.9437   3.2739   4.2720   4.7165   5.1538

          k = 0.0559 0.0000 0.0000 ( 19453 PWs)   bands (ev):

   -91.3103 -91.3063 -91.3055 -91.2995 -91.1334 -91.1299 -91.1290 -91.1286
   -91.1249 -91.1240 -91.1065 -90.9973 -54.8437 -54.8391 -54.8332 -54.8048
   -54.8025 -54.7978 -54.7971 -54.7936 -54.7881 -54.7838 -54.7803 -54.7693
   -54.6744 -54.6648 -54.6561 -54.6553 -54.6467 -54.6410 -54.6230 -54.6228
   -54.6198 -54.6118 -54.6098 -54.6048 -54.6030 -54.5991 -54.5989 -54.5981
   -54.5898 -54.5884 -54.5791 -54.5760 -54.5719 -54.5059 -54.5026 -54.4804
   -12.0685  -5.2187  -4.8552  -4.8421  -4.7576  -4.7459  -4.7284  -4.7066
    -4.7010  -4.6792  -4.6579  -4.5979  -4.4678  -4.4301  -4.4226  -4.2953
    -4.1743  -4.0617  -4.0006  -3.9597  -3.9395  -3.8968  -3.8420  -3.8174
    -3.7943  -3.7331  -3.7043  -3.6941  -3.6403  -3.6313  -3.5625  -3.5165
    -3.4458  -3.4144  -3.3579  -3.3342  -3.2509  -3.2081  -3.0691  -3.0663
    -3.0290  -2.9486  -2.9231  -2.9056  -2.8679  -2.8493  -2.8206  -2.7910
    -2.7790  -2.7212  -2.6941  -2.6855  -2.6602  -2.6220  -2.5614  -2.5190
    -2.4955  -2.4671  -2.4459  -2.3858  -2.3836  -2.3670  -2.0357  -0.9998
    -0.9405  -0.2827  -0.0453   0.1390   0.7777   1.1335   1.6629   2.2693
     2.6637   2.9235   3.1367   3.4885   4.5895   4.9492

          k = 0.0559 0.0323 0.0000 ( 19481 PWs)   bands (ev):

   -91.3100 -91.3067 -91.3054 -91.2995 -91.1332 -91.1302 -91.1290 -91.1283
   -91.1252 -91.1240 -91.1066 -90.9973 -54.8411 -54.8383 -54.8280 -54.8040
   -54.8023 -54.8000 -54.7962 -54.7945 -54.7929 -54.7851 -54.7808 -54.7701
   -54.6723 -54.6629 -54.6556 -54.6497 -54.6460 -54.6393 -54.6232 -54.6222
   -54.6213 -54.6199 -54.6058 -54.6055 -54.6038 -54.6025 -54.5993 -54.5980
   -54.5903 -54.5878 -54.5791 -54.5775 -54.5718 -54.5075 -54.5026 -54.4804
   -12.0663  -5.0992  -4.8752  -4.7474  -4.6953  -4.6951  -4.6796  -4.6606
    -4.6530  -4.6074  -4.5810  -4.5710  -4.4545  -4.3771  -4.2609  -4.2441
    -4.1459  -4.1272  -4.0374  -4.0013  -3.9079  -3.8450  -3.8315  -3.7933
    -3.7717  -3.7390  -3.6985  -3.6331  -3.6282  -3.5844  -3.5231  -3.4999
    -3.4737  -3.4653  -3.4189  -3.4049  -3.2403  -3.2218  -3.1228  -3.0898
    -3.0322  -2.9957  -2.9956  -2.9598  -2.9452  -2.9344  -2.8926  -2.8506
    -2.8338  -2.8011  -2.7912  -2.7488  -2.6987  -2.6788  -2.6300  -2.5895
    -2.4779  -2.4576  -2.4544  -2.4272  -2.3363  -2.3227  -2.0087  -1.8844
    -0.7516  -0.0311  -0.0154   0.4277   0.7889   0.8972   1.2383   2.1978
     2.3282   2.9437   3.2739   4.2720   4.7165   5.1538

          k = 0.0559-0.1290 0.0000 ( 19479 PWs)   bands (ev):

   -91.3091 -91.3073 -91.3056 -91.2996 -91.1325 -91.1308 -91.1290 -91.1275
   -91.1258 -91.1241 -91.1066 -90.9973 -54.8358 -54.8296 -54.8189 -54.8129
   -54.8019 -54.8016 -54.7977 -54.7959 -54.7938 -54.7902 -54.7814 -54.7738
   -54.6661 -54.6574 -54.6491 -54.6475 -54.6415 -54.6342 -54.6331 -54.6253
   -54.6216 -54.6203 -54.6106 -54.6088 -54.6042 -54.6017 -54.5999 -54.5981
   -54.5938 -54.5860 -54.5803 -54.5791 -54.5726 -54.5087 -54.5042 -54.4804
   -12.0618  -4.7979  -4.7113  -4.6381  -4.5920  -4.5654  -4.5515  -4.5316
    -4.5199  -4.4785  -4.4430  -4.3724  -4.3038  -4.2609  -4.2302  -4.2128
    -4.1382  -4.0697  -4.0359  -3.9627  -3.9013  -3.8714  -3.8483  -3.8438
    -3.8081  -3.7429  -3.6735  -3.6463  -3.6247  -3.6132  -3.5712  -3.5469
    -3.5161  -3.4759  -3.4521  -3.3542  -3.3195  -3.2872  -3.2555  -3.2274
    -3.2099  -3.1742  -3.1433  -3.1066  -3.0333  -2.9949  -2.9747  -2.9575
    -2.9424  -2.8812  -2.8629  -2.8078  -2.7655  -2.7039  -2.6624  -2.6437
    -2.5533  -2.5193  -2.4848  -2.4602  -2.4153  -2.3972  -2.1794  -1.6460
    -1.0824  -0.9356  -0.2107   0.0986   0.6512   1.1672   1.7374   2.2150
     2.5769   3.4253   3.6331   4.0911   4.6062   5.0587

          k = 0.0559-0.0968 0.0000 ( 19479 PWs)   bands (ev):

   -91.3081 -91.3081 -91.3058 -91.2996 -91.1317 -91.1316 -91.1291 -91.1267
   -91.1266 -91.1241 -91.1067 -90.9973 -54.8258 -54.8258 -54.8205 -54.8119
   -54.8117 -54.7994 -54.7991 -54.7986 -54.7933 -54.7848 -54.7848 -54.7776
   -54.6585 -54.6557 -54.6484 -54.6474 -54.6380 -54.6328 -54.6326 -54.6309
   -54.6260 -54.6150 -54.6150 -54.6110 -54.6009 -54.6008 -54.6000 -54.5997
   -54.5982 -54.5838 -54.5828 -54.5791 -54.5733 -54.5072 -54.5072 -54.4804
   -12.0596  -4.6157  -4.5182  -4.5045  -4.4659  -4.4499  -4.3998  -4.3941
    -4.3889  -4.3779  -4.3599  -4.3460  -4.3455  -4.3129  -4.3081  -4.3006
    -4.0830  -4.0737  -3.9761  -3.9320  -3.9140  -3.8921  -3.8616  -3.8465
    -3.7432  -3.7200  -3.7141  -3.6882  -3.6828  -3.6729  -3.6313  -3.5909
    -3.5547  -3.5330  -3.5020  -3.4882  -3.4710  -3.4226  -3.4161  -3.4158
    -3.3470  -3.2584  -3.1181  -3.0626  -3.0558  -3.0221  -2.9974  -2.9388
    -2.9188  -2.8206  -2.8009  -2.7110  -2.7043  -2.6807  -2.6217  -2.5951
    -2.5903  -2.5355  -2.5265  -2.5066  -2.4908  -2.2223  -2.1499  -2.1177
    -1.1318  -1.0789  -0.8222   0.1425   0.5303   1.0315   2.1010   2.2222
     2.9083   4.1838   4.1908   4.3084   4.5238   4.7783

          k = 0.0559-0.0645 0.0000 ( 19479 PWs)   bands (ev):

   -91.3091 -91.3073 -91.3056 -91.2996 -91.1325 -91.1308 -91.1290 -91.1276
   -91.1258 -91.1241 -91.1066 -90.9973 -54.8358 -54.8296 -54.8189 -54.8129
   -54.8019 -54.8016 -54.7977 -54.7959 -54.7938 -54.7902 -54.7814 -54.7738
   -54.6662 -54.6574 -54.6491 -54.6474 -54.6414 -54.6342 -54.6331 -54.6253
   -54.6216 -54.6203 -54.6106 -54.6088 -54.6042 -54.6017 -54.5999 -54.5981
   -54.5938 -54.5860 -54.5803 -54.5791 -54.5726 -54.5087 -54.5042 -54.4804
   -12.0618  -4.7979  -4.7113  -4.6382  -4.5920  -4.5654  -4.5515  -4.5316
    -4.5199  -4.4785  -4.4430  -4.3724  -4.3038  -4.2609  -4.2302  -4.2128
    -4.1381  -4.0697  -4.0359  -3.9627  -3.9013  -3.8714  -3.8483  -3.8438
    -3.8081  -3.7429  -3.6735  -3.6463  -3.6247  -3.6132  -3.5712  -3.5469
    -3.5161  -3.4759  -3.4521  -3.3542  -3.3195  -3.2872  -3.2555  -3.2274
    -3.2099  -3.1742  -3.1433  -3.1066  -3.0333  -2.9949  -2.9747  -2.9575
    -2.9424  -2.8812  -2.8629  -2.8078  -2.7655  -2.7039  -2.6624  -2.6437
    -2.5533  -2.5193  -2.4848  -2.4602  -2.4153  -2.3972  -2.1794  -1.6460
    -1.0824  -0.9356  -0.2107   0.0986   0.6512   1.1672   1.7374   2.2150
     2.5769   3.4253   3.6331   4.0911   4.6062   5.0587

          k =-0.0838 0.0484 0.0000 ( 19500 PWs)   bands (ev):

   -91.3089 -91.3076 -91.3054 -91.2996 -91.1325 -91.1308 -91.1290 -91.1275
   -91.1259 -91.1240 -91.1066 -90.9973 -54.8360 -54.8331 -54.8113 -54.8074
   -54.8055 -54.8023 -54.8006 -54.7973 -54.7962 -54.7927 -54.7780 -54.7732
   -54.6671 -54.6586 -54.6498 -54.6468 -54.6340 -54.6325 -54.6323 -54.6281
   -54.6242 -54.6241 -54.6126 -54.6075 -54.6039 -54.6017 -54.6000 -54.5980
   -54.5923 -54.5858 -54.5810 -54.5791 -54.5720 -54.5100 -54.5032 -54.4804
   -12.0618  -4.8245  -4.7833  -4.6695  -4.6121  -4.6007  -4.5921  -4.5078
    -4.4718  -4.3950  -4.3866  -4.3542  -4.3419  -4.3045  -4.2424  -4.1753
    -4.1598  -4.0324  -4.0087  -3.9341  -3.9175  -3.9125  -3.9047  -3.8226
    -3.8029  -3.6990  -3.6410  -3.5724  -3.5562  -3.5263  -3.5079  -3.4836
    -3.4675  -3.3994  -3.3529  -3.3029  -3.3006  -3.2907  -3.2696  -3.2430
    -3.2419  -3.2070  -3.1503  -3.0767  -3.0674  -3.0265  -3.0071  -2.9689
    -2.9585  -2.9495  -2.9445  -2.8949  -2.8655  -2.8272  -2.7621  -2.7293
    -2.6634  -2.4919  -2.4647  -2.4582  -2.4513  -2.3362  -2.3230  -1.6373
    -1.2799  -0.0773  -0.0773   0.3800   0.7395   0.8456   1.5066   1.8886
     2.3280   2.8619   3.8863   4.1865   4.6131   5.3188

          k =-0.0838 0.0806 0.0000 ( 19479 PWs)   bands (ev):

   -91.3091 -91.3073 -91.3056 -91.2996 -91.1325 -91.1308 -91.1290 -91.1276
   -91.1258 -91.1241 -91.1066 -90.9973 -54.8358 -54.8296 -54.8189 -54.8129
   -54.8019 -54.8016 -54.7977 -54.7959 -54.7938 -54.7902 -54.7814 -54.7738
   -54.6661 -54.6574 -54.6491 -54.6474 -54.6414 -54.6343 -54.6331 -54.6253
   -54.6216 -54.6203 -54.6106 -54.6088 -54.6042 -54.6017 -54.5999 -54.5981
   -54.5938 -54.5860 -54.5803 -54.5791 -54.5726 -54.5087 -54.5042 -54.4804
   -12.0618  -4.7979  -4.7113  -4.6382  -4.5920  -4.5654  -4.5515  -4.5316
[...]
   -54.7083 -54.7066 -54.7026 -54.6974 -54.6903 -54.6859 -54.6823 -54.6759
   -54.6720 -54.6589 -54.6499 -54.6095 -54.6079 -54.5863 -54.5667 -54.5536
   -54.5505 -54.5450 -54.5393 -54.5321 -54.5041 -54.5027 -54.4895 -54.4882
   -54.4833 -54.4801 -54.4789 -54.4752 -54.4684 -54.4495 -54.4458 -54.4283
   -12.4327  -5.0354  -4.8579  -4.7431  -4.6227  -4.6032  -4.5961  -4.5794
    -4.5761  -4.5476  -4.5355  -4.5094  -4.4242  -4.3061  -4.2407  -4.2161
    -4.1200  -4.0873  -3.9669  -3.9170  -3.8619  -3.8339  -3.7707  -3.7273
    -3.6831  -3.6616  -3.6403  -3.6116  -3.5031  -3.5021  -3.4476  -3.4123
    -3.3976  -3.3762  -3.3592  -3.3109  -3.1797  -3.1780  -3.0416  -3.0152
    -2.9674  -2.9479  -2.9215  -2.9000  -2.8656  -2.8623  -2.7866  -2.7692
    -2.7544  -2.7238  -2.6757  -2.6706  -2.6074  -2.5719  -2.5422  -2.4962
    -2.3904  -2.3750  -2.3682  -2.3411  -2.2431  -2.2391  -1.9630  -1.6951
    -0.6881  -0.0943   0.1340   0.5040   0.9663   1.0666   1.2867   2.3345
     2.5403   3.1019   3.3623   4.3496   4.8876   5.2881

          k = 0.0559-0.1290 0.0000 ( 19479 PWs)   bands (ev):

   -91.2138 -91.2121 -91.2103 -91.1885 -91.1293 -91.1251 -91.1240 -91.0090
   -91.0072 -91.0055 -90.9955 -90.9401 -54.7396 -54.7342 -54.7245 -54.7177
   -54.7141 -54.7077 -54.7031 -54.7002 -54.6907 -54.6867 -54.6826 -54.6772
   -54.6760 -54.6618 -54.6485 -54.6095 -54.6056 -54.5889 -54.5660 -54.5547
   -54.5510 -54.5397 -54.5310 -54.5238 -54.5160 -54.5040 -54.4952 -54.4879
   -54.4825 -54.4807 -54.4792 -54.4788 -54.4685 -54.4504 -54.4471 -54.4283
   -12.4249  -4.9003  -4.6505  -4.5872  -4.5260  -4.4886  -4.4767  -4.4637
    -4.4345  -4.4030  -4.3749  -4.3115  -4.2670  -4.2316  -4.1613  -4.1307
    -4.1013  -4.0251  -3.9731  -3.9294  -3.8323  -3.8161  -3.7855  -3.7588
    -3.7417  -3.7102  -3.5966  -3.5836  -3.5510  -3.5400  -3.4911  -3.4844
    -3.4683  -3.4209  -3.3937  -3.2907  -3.2622  -3.2065  -3.1818  -3.1476
    -3.1235  -3.0865  -3.0678  -3.0217  -2.9550  -2.9257  -2.8984  -2.8879
    -2.8513  -2.8170  -2.7462  -2.7211  -2.6764  -2.6125  -2.5610  -2.5207
    -2.4502  -2.4400  -2.4031  -2.3755  -2.3247  -2.3104  -2.0977  -1.5253
    -1.0395  -0.7850  -0.1564   0.2216   0.8067   1.3447   1.8398   2.3016
     2.7259   3.6167   3.7138   4.2376   4.7297   5.1652

          k = 0.0559-0.0968 0.0000 ( 19479 PWs)   bands (ev):

   -91.2129 -91.2129 -91.2104 -91.1885 -91.1291 -91.1253 -91.1240 -91.0080
   -91.0080 -91.0057 -90.9955 -90.9402 -54.7301 -54.7300 -54.7270 -54.7159
   -54.7158 -54.7119 -54.7035 -54.7034 -54.6861 -54.6850 -54.6829 -54.6807
   -54.6793 -54.6637 -54.6477 -54.6097 -54.6035 -54.5909 -54.5655 -54.5552
   -54.5514 -54.5306 -54.5296 -54.5195 -54.5168 -54.5166 -54.4929 -54.4854
   -54.4854 -54.4816 -54.4814 -54.4791 -54.4685 -54.4494 -54.4492 -54.4283
   -12.4210  -4.8615  -4.4720  -4.4189  -4.4070  -4.3501  -4.3245  -4.3134
    -4.3038  -4.2897  -4.2828  -4.2656  -4.2556  -4.2438  -4.2225  -4.1977
    -4.0988  -4.0352  -3.9529  -3.9438  -3.8384  -3.8088  -3.7988  -3.7223
    -3.6869  -3.6582  -3.6339  -3.6256  -3.6053  -3.5901  -3.5852  -3.5805
    -3.5472  -3.4252  -3.4067  -3.3901  -3.3845  -3.3735  -3.3725  -3.3615
    -3.2909  -3.1647  -3.0341  -2.9615  -2.9578  -2.9149  -2.8830  -2.8780
    -2.8506  -2.7437  -2.7163  -2.6708  -2.6014  -2.5775  -2.5129  -2.5079
    -2.4969  -2.4524  -2.4439  -2.4371  -2.4008  -2.1907  -2.0643  -1.9564
    -1.0816  -1.0293  -0.5462   0.2016   0.6813   1.2788   2.2253   2.2390
     3.1129   4.2732   4.3094   4.4527   4.6136   4.7677

          k = 0.0559-0.0645 0.0000 ( 19479 PWs)   bands (ev):

   -91.2138 -91.2121 -91.2103 -91.1885 -91.1293 -91.1251 -91.1240 -91.0090
   -91.0072 -91.0055 -90.9955 -90.9401 -54.7396 -54.7342 -54.7245 -54.7177
   -54.7141 -54.7077 -54.7031 -54.7002 -54.6907 -54.6867 -54.6826 -54.6772
   -54.6760 -54.6618 -54.6485 -54.6095 -54.6056 -54.5889 -54.5660 -54.5547
   -54.5510 -54.5397 -54.5310 -54.5238 -54.5160 -54.5040 -54.4952 -54.4879
   -54.4825 -54.4807 -54.4792 -54.4788 -54.4685 -54.4504 -54.4471 -54.4283
   -12.4249  -4.9003  -4.6505  -4.5872  -4.5260  -4.4886  -4.4767  -4.4637
    -4.4345  -4.4030  -4.3749  -4.3115  -4.2670  -4.2316  -4.1613  -4.1307
    -4.1013  -4.0251  -3.9731  -3.9294  -3.8323  -3.8161  -3.7855  -3.7588
    -3.7417  -3.7102  -3.5966  -3.5836  -3.5510  -3.5400  -3.4911  -3.4844
    -3.4683  -3.4209  -3.3937  -3.2907  -3.2622  -3.2065  -3.1818  -3.1476
    -3.1235  -3.0865  -3.0678  -3.0217  -2.9550  -2.9257  -2.8984  -2.8879
    -2.8513  -2.8170  -2.7462  -2.7211  -2.6764  -2.6125  -2.5610  -2.5207
    -2.4502  -2.4400  -2.4031  -2.3755  -2.3247  -2.3104  -2.0977  -1.5253
    -1.0395  -0.7850  -0.1564   0.2216   0.8067   1.3447   1.8398   2.3016
     2.7259   3.6167   3.7138   4.2376   4.7297   5.1652

          k =-0.0838 0.0484 0.0000 ( 19500 PWs)   bands (ev):

   -91.2138 -91.2122 -91.2103 -91.1885 -91.1293 -91.1251 -91.1240 -91.0089
   -91.0074 -91.0054 -90.9955 -90.9401 -54.7401 -54.7370 -54.7184 -54.7141
   -54.7139 -54.7115 -54.7030 -54.7025 -54.6949 -54.6869 -54.6796 -54.6770
   -54.6752 -54.6619 -54.6486 -54.6090 -54.6068 -54.5885 -54.5660 -54.5550
   -54.5506 -54.5406 -54.5338 -54.5145 -54.5140 -54.5097 -54.5007 -54.4856
   -54.4824 -54.4809 -54.4789 -54.4778 -54.4685 -54.4513 -54.4463 -54.4283
   -12.4249  -4.9302  -4.6803  -4.6431  -4.5517  -4.5228  -4.4805  -4.4398
    -4.4249  -4.3582  -4.2972  -4.2906  -4.2489  -4.2355  -4.1706  -4.1691
    -4.0982  -4.0700  -3.9579  -3.8922  -3.8277  -3.8230  -3.8075  -3.7455
    -3.7378  -3.7085  -3.5688  -3.5400  -3.5036  -3.4508  -3.4430  -3.4252
    -3.4119  -3.3672  -3.2630  -3.2512  -3.2297  -3.1893  -3.1691  -3.1506
    -3.1455  -3.1140  -3.1016  -2.9963  -2.9852  -2.9695  -2.9296  -2.9133
    -2.8988  -2.8730  -2.8425  -2.8299  -2.7502  -2.7298  -2.6748  -2.6191
    -2.4766  -2.4018  -2.3798  -2.3688  -2.3608  -2.2424  -2.2351  -1.5832
    -1.0566  -0.1422  -0.0065   0.4686   0.9152   1.0572   1.5376   2.0003
     2.5608   3.1351   4.0000   4.1410   4.7702   5.5986

          k =-0.0838 0.0806 0.0000 ( 19479 PWs)   bands (ev):

   -91.2138 -91.2121 -91.2103 -91.1885 -91.1293 -91.1251 -91.1240 -91.0090
   -91.0072 -91.0055 -90.9955 -90.9401 -54.7396 -54.7342 -54.7245 -54.7177
   -54.7141 -54.7077 -54.7031 -54.7002 -54.6907 -54.6867 -54.6826 -54.6772
   -54.6760 -54.6618 -54.6485 -54.6095 -54.6056 -54.5889 -54.5660 -54.5547
   -54.5510 -54.5397 -54.5310 -54.5238 -54.5160 -54.5040 -54.4952 -54.4879
   -54.4825 -54.4807 -54.4792 -54.4788 -54.4685 -54.4504 -54.4471 -54.4283
   -12.4249  -4.9003  -4.6505  -4.5872  -4.5260  -4.4886  -4.4767  -4.4637
    -4.4345  -4.4030  -4.3749  -4.3115  -4.2670  -4.2316  -4.1613  -4.1307
    -4.1013  -4.0251  -3.9731  -3.9294  -3.8323  -3.8161  -3.7855  -3.7588
    -3.7417  -3.7102  -3.5966  -3.5836  -3.5510  -3.5400  -3.4911  -3.4844
    -3.4683  -3.4209  -3.3937  -3.2907  -3.2622  -3.2065  -3.1818  -3.1476
    -3.1235  -3.0865  -3.0678  -3.0217  -2.9550  -2.9257  -2.8984  -2.8879
    -2.8513  -2.8170  -2.7462  -2.7211  -2.6764  -2.6125  -2.5610  -2.5207
    -2.4502  -2.4400  -2.4031  -2.3755  -2.3247  -2.3104  -2.0977  -1.5253
    -1.0395  -0.7850  -0.1564   0.2216   0.8067   1.3446   1.8398   2.3016
     2.7259   3.6167   3.7138   4.2376   4.7297   5.1652

          k =-0.0838 0.1129 0.0000 ( 19479 PWs)   bands (ev):

   -91.2138 -91.2121 -91.2103 -91.1885 -91.1293 -91.1251 -91.1240 -91.0090
   -91.0072 -91.0055 -90.9955 -90.9401 -54.7396 -54.7342 -54.7245 -54.7177
   -54.7141 -54.7077 -54.7031 -54.7002 -54.6907 -54.6867 -54.6826 -54.6772
   -54.6760 -54.6618 -54.6485 -54.6095 -54.6056 -54.5889 -54.5660 -54.5547
   -54.5510 -54.5397 -54.5310 -54.5238 -54.5160 -54.5040 -54.4952 -54.4879
   -54.4825 -54.4807 -54.4792 -54.4788 -54.4685 -54.4504 -54.4471 -54.4283
   -12.4249  -4.9003  -4.6505  -4.5872  -4.5260  -4.4886  -4.4767  -4.4637
    -4.4345  -4.4030  -4.3750  -4.3115  -4.2670  -4.2316  -4.1613  -4.1307
    -4.1013  -4.0251  -3.9731  -3.9294  -3.8323  -3.8161  -3.7855  -3.7588
    -3.7417  -3.7102  -3.5966  -3.5836  -3.5510  -3.5400  -3.4911  -3.4844
    -3.4683  -3.4209  -3.3937  -3.2907  -3.2622  -3.2065  -3.1818  -3.1476
    -3.1235  -3.0865  -3.0678  -3.0217  -2.9550  -2.9257  -2.8984  -2.8879
    -2.8513  -2.8170  -2.7462  -2.7211  -2.6764  -2.6125  -2.5610  -2.5207
    -2.4502  -2.4400  -2.4031  -2.3755  -2.3247  -2.3104  -2.0977  -1.5253
    -1.0395  -0.7850  -0.1564   0.2216   0.8067   1.3446   1.8398   2.3016
     2.7259   3.6167   3.7138   4.2376   4.7297   5.1652

          k =-0.0838-0.0484 0.0000 ( 19500 PWs)   bands (ev):

   -91.2138 -91.2122 -91.2103 -91.1885 -91.1293 -91.1251 -91.1240 -91.0089
   -91.0074 -91.0054 -90.9955 -90.9401 -54.7401 -54.7370 -54.7184 -54.7141
   -54.7139 -54.7115 -54.7030 -54.7025 -54.6949 -54.6869 -54.6796 -54.6770
   -54.6752 -54.6619 -54.6486 -54.6090 -54.6068 -54.5885 -54.5660 -54.5550
   -54.5506 -54.5406 -54.5338 -54.5145 -54.5140 -54.5097 -54.5007 -54.4856
   -54.4824 -54.4809 -54.4789 -54.4778 -54.4685 -54.4513 -54.4463 -54.4283
   -12.4249  -4.9302  -4.6803  -4.6431  -4.5517  -4.5228  -4.4805  -4.4398
    -4.4249  -4.3582  -4.2972  -4.2906  -4.2489  -4.2355  -4.1706  -4.1691
    -4.0982  -4.0700  -3.9579  -3.8922  -3.8277  -3.8230  -3.8075  -3.7455
    -3.7378  -3.7085  -3.5688  -3.5400  -3.5036  -3.4508  -3.4430  -3.4252
    -3.4119  -3.3672  -3.2630  -3.2512  -3.2297  -3.1893  -3.1691  -3.1506
    -3.1455  -3.1140  -3.1016  -2.9963  -2.9852  -2.9695  -2.9296  -2.9133
    -2.8988  -2.8730  -2.8425  -2.8299  -2.7502  -2.7298  -2.6748  -2.6191
    -2.4766  -2.4018  -2.3798  -2.3688  -2.3608  -2.2424  -2.2351  -1.5832
    -1.0566  -0.1422  -0.0065   0.4686   0.9152   1.0572   1.5376   2.0003
     2.5608   3.1351   4.0000   4.1410   4.7702   5.5986

     the Fermi energy is     0.8683 ev

!    total energy              =   -3579.91460459 Ry
     Harris-Foulkes estimate   =   -3579.91460563 Ry
     estimated scf accuracy    <       0.00000002 Ry

     The total energy is the sum of the following terms:

     one-electron contribution =  -26275.27085251 Ry
     hartree contribution      =   13127.46435423 Ry
     xc contribution           =    -366.32119727 Ry
     ewald contribution        =    9934.23791752 Ry
     electric field correction =       0.00031995 Ry
     smearing contrib. (-TS)   =      -0.02514651 Ry

     convergence has been achieved in   8 iterations
 
 BEEF-vdW xc energy contributions
           1 :   -317.370831710148     
           2 :    287.304060494940     
           3 :   -237.136203288561     
           4 :    181.991463563202     
           5 :   -135.612495520095     
           6 :    105.411722474985     
           7 :   -91.1001737227874     
           8 :    86.8683671381534     
           9 :   -85.4585919875022     
          10 :    81.8220342479551     
          11 :   -74.6947347635713     
          12 :    65.8059225713843     
          13 :   -57.7560550516341     
          14 :    52.0896694099412     
          15 :   -48.6256551409182     
          16 :    46.0929793597571     
          17 :   -43.3084878515624     
          18 :    39.9704342543491     
          19 :   -36.6207683524652     
          20 :    33.9878886459794     
          21 :   -32.3150173265622     
          22 :    31.1735005634663     
          23 :   -29.8328541660138     
          24 :    27.8432091370401     
          25 :   -25.3777972750466     
          26 :    23.0966693838769     
          27 :   -21.6590824988806     
          28 :    21.2528762639239     
          29 :   -21.4743631003786     
          30 :    21.6207977916623     
          31 :   -31.7371084515577     
          32 :   -23.0775142696121     

     Forces acting on atoms (Ry/au):


     negative rho (up, down):  2.367E-03 0.000E+00
     atom    1 type  1   force =    -0.00112241   -0.00064802    0.00036648
     atom    2 type  1   force =     0.00112241   -0.00064803    0.00036647
     atom    3 type  1   force =     0.00000000    0.00129605    0.00036649
     atom    4 type  1   force =    -0.00000000    0.00000000   -0.00261927
     atom    5 type  1   force =     0.00000003    0.00160775    0.00071440
     atom    6 type  1   force =    -0.00000001    0.00000006   -0.00122064
     atom    7 type  1   force =    -0.00139223   -0.00080391    0.00071479
     atom    8 type  1   force =     0.00139223   -0.00080388    0.00071488
     atom    9 type  1   force =     0.00000029   -0.00000140    0.00035198
     atom   10 type  1   force =    -0.00000033    0.00062308    0.00062768
     atom   11 type  1   force =     0.00054096   -0.00031102    0.00062744
     atom   12 type  1   force =    -0.00054123   -0.00031079    0.00062770
     atom   13 type  2   force =     0.00000029    0.00000011   -0.00163840

     Total force =     0.002271     Total SCF correction =     0.000836
     SCF correction compared to forces is large: reduce conv_thr to get better values


     entering subroutine stress ...


     negative rho (up, down):  2.367E-03 0.000E+00
          total   stress  (Ry/bohr**3)                   (kbar)     P=   -5.08
  -0.00004183  -0.00000000   0.00000000         -6.15     -0.00      0.00
  -0.00000000  -0.00004183   0.00000000         -0.00     -6.15      0.00
   0.00000000   0.00000000  -0.00002002          0.00      0.00     -2.95


     bfgs converged in  14 scf cycles and  13 bfgs steps
     (criteria: energy <  1.0E+00, force <  1.9E-03)

     End of BFGS Geometry Optimization

     Final energy   =   -3579.9146045924 Ry
Begin final coordinates

ATOMIC_POSITIONS (crystal)
Ag1      0.166666667   0.166666667   0.402063960    0   0   0
Ag1      0.666666667   0.166666667   0.402063960    0   0   0
Ag1      0.166666667   0.666666667   0.402063960    0   0   0
Ag1      0.666666667   0.666666667   0.402063960    0   0   0
Ag1      0.833333333   0.333333333   0.500000000    0   0   0
Ag1      0.333333333   0.333333333   0.500000000    0   0   0
Ag1      0.833333333   0.833333333   0.500000000    0   0   0
Ag1      0.333333333   0.833333333   0.500000000    0   0   0
Ag1     -0.000000701   0.000001161   0.596561738
Ag1      0.507323146  -0.014645678   0.598696914
Ag1     -0.014646205   0.507322442   0.598696968
Ag1      0.507324063   0.507322146   0.598696947
N1       0.333333023   0.333333591   0.642409433
End final coordinates



     Writing output data file calc.save
 
     init_run     :      6.65s CPU      8.44s WALL (       1 calls)
     electrons    :   2067.41s CPU   2996.61s WALL (      14 calls)
     update_pot   :     29.69s CPU     39.17s WALL (      13 calls)
     forces       :     93.94s CPU     98.23s WALL (      14 calls)
     stress       :    275.70s CPU    294.70s WALL (      14 calls)

     Called by init_run:
     wfcinit      :      2.71s CPU      3.36s WALL (       1 calls)
     potinit      :      1.47s CPU      2.34s WALL (       1 calls)

     Called by electrons:
     c_bands      :   1153.92s CPU   1662.76s WALL (     117 calls)
     sum_band     :    284.96s CPU    397.49s WALL (     117 calls)
     v_of_rho     :    246.03s CPU    470.31s WALL (     131 calls)
     newd         :    144.64s CPU    158.63s WALL (     131 calls)
     mix_rho      :      2.61s CPU      3.29s WALL (     117 calls)
     vdW_energy   :     74.56s CPU     81.62s WALL (     635 calls)
     vdW_ffts     :    106.05s CPU    150.97s WALL (    1298 calls)
     vdW_v        :     48.41s CPU     57.43s WALL (     635 calls)

     Called by c_bands:
     init_us_2    :      5.21s CPU      5.72s WALL (    1841 calls)
     cegterg      :    830.95s CPU    994.84s WALL (     819 calls)

     Called by *egterg:
     h_psi        :    430.72s CPU    569.01s WALL (    3696 calls)
     s_psi        :     43.39s CPU     44.86s WALL (    3696 calls)
     g_psi        :      4.19s CPU      4.23s WALL (    2870 calls)
     cdiaghg      :    183.65s CPU    187.96s WALL (    3598 calls)

     Called by h_psi:
     add_vuspsi   :     45.38s CPU     46.75s WALL (    3696 calls)

     General routines
     calbec       :     65.01s CPU     67.69s WALL (    4711 calls)
     fft          :    159.83s CPU    232.02s WALL (   38101 calls)
     ffts         :      0.19s CPU      0.29s WALL (     248 calls)
     fftw         :    293.77s CPU    459.86s WALL (  598460 calls)
     interpolate  :      1.32s CPU      2.20s WALL (     248 calls)
     davcio       :      0.01s CPU      0.21s WALL (       7 calls)
 
     Parallel routines
     fft_scatter  :    205.05s CPU    370.95s WALL (  636809 calls)
 
     PWSCF        : 41m38.29s CPU    57m55.11s WALL

 
   This run was terminated on:  11:47:31   4May2018            

=------------------------------------------------------------------------------=
   JOB DONE.
=------------------------------------------------------------------------------=
Job  /afs/slac/g/suncat/bin/suncat-tsmpirun -x LD_LIBRARY_PATH -wdir /scratch/qe28863_9kwml pw.x -npool 3 -in pw.inp

TID   HOST_NAME   COMMAND_LINE            STATUS            TERMINATION_TIME
===== ========== ================  =======================  ===================
00000 suncat2041 pw.x -npool 3 -i  Done                     05/04/2018 11:47:31
00001 suncat2041 pw.x -npool 3 -i  Done                     05/04/2018 11:47:31
00002 suncat2041 pw.x -npool 3 -i  Done                     05/04/2018 11:47:31
00003 suncat2041 pw.x -npool 3 -i  Done                     05/04/2018 11:47:31
00004 suncat2040 pw.x -npool 3 -i  Done                     05/04/2018 11:47:31
00005 suncat2040 pw.x -npool 3 -i  Done                     05/04/2018 11:47:31
00006 suncat2040 pw.x -npool 3 -i  Done                     05/04/2018 11:47:31
00007 suncat2040 pw.x -npool 3 -i  Done                     05/04/2018 11:47:31
00008 suncat2040 pw.x -npool 3 -i  Done                     05/04/2018 11:47:31
00009 suncat2040 pw.x -npool 3 -i  Done                     05/04/2018 11:47:31
00010 suncat2040 pw.x -npool 3 -i  Done                     05/04/2018 11:47:31
00011 suncat2040 pw.x -npool 3 -i  Done                     05/04/2018 11:47:31
00012 suncat2040 pw.x -npool 3 -i  Done                     05/04/2018 11:47:31
00013 suncat2040 pw.x -npool 3 -i  Done                     05/04/2018 11:47:31
00014 suncat2040 pw.x -npool 3 -i  Done                     05/04/2018 11:47:31
00015 suncat2040 pw.x -npool 3 -i  Done                     05/04/2018 11:47:31
00016 suncat2040 pw.x -npool 3 -i  Done                     05/04/2018 11:47:31
00017 suncat2040 pw.x -npool 3 -i  Done                     05/04/2018 11:47:31
00018 suncat2040 pw.x -npool 3 -i  Done                     05/04/2018 11:47:31
00019 suncat2040 pw.x -npool 3 -i  Done                     05/04/2018 11:47:31
00020 suncat2009 pw.x -npool 3 -i  Done                     05/04/2018 11:47:31
00021 suncat2009 pw.x -npool 3 -i  Done                     05/04/2018 11:47:31
00022 suncat2009 pw.x -npool 3 -i  Done                     05/04/2018 11:47:31
00023 suncat2009 pw.x -npool 3 -i  Done                     05/04/2018 11:47:31
00024 suncat2009 pw.x -npool 3 -i  Done                     05/04/2018 11:47:31
00025 suncat2009 pw.x -npool 3 -i  Done                     05/04/2018 11:47:31
00026 suncat2009 pw.x -npool 3 -i  Done                     05/04/2018 11:47:31
00027 suncat2009 pw.x -npool 3 -i  Done                     05/04/2018 11:47:31
00028 suncat2009 pw.x -npool 3 -i  Done                     05/04/2018 11:47:31
00029 suncat2009 pw.x -npool 3 -i  Done                     05/04/2018 11:47:31
00030 suncat2009 pw.x -npool 3 -i  Done                     05/04/2018 11:47:31
00031 suncat2009 pw.x -npool 3 -i  Done                     05/04/2018 11:47:31
00032 suncat2009 pw.x -npool 3 -i  Done                     05/04/2018 11:47:31
00033 suncat2009 pw.x -npool 3 -i  Done                     05/04/2018 11:47:31
00034 suncat2009 pw.x -npool 3 -i  Done                     05/04/2018 11:47:31
00035 suncat2009 pw.x -npool 3 -i  Done                     05/04/2018 11:47:31
