  python dir          : /u/if/mamunm/src/espresso
  espresso dir        : /nfs/slac/g/suncatfs/sw/espv18/espresso-dynpy-beef/bin
  pseudo dir          : /u/if/mamunm/psp/gbrv1.5pbe
  ase-espresso py git : GITVERSION



     Program PWSCF v.5.1rc2 (svn rev. 11289) starts on 22Apr2018 at 23:59:56 

     This program is part of the open-source Quantum ESPRESSO suite
     for quantum simulation of materials; please cite
         "P. Giannozzi et al., J. Phys.:Condens. Matter 21 395502 (2009);
          URL http://www.quantum-espresso.org", 
     in publications or presentations arising from this work. More details at
     http://www.quantum-espresso.org/quote

     Parallel version (MPI), running on    32 processors
     K-points division:     npool     =       4
     R & G space division:  proc/nbgrp/npool/nimage =       8
     Reading input from pw.inp
     Message from routine read_cards :
     DEPRECATED: no units specified in CELL_PARAMETERS card

     Current dimensions of program PWSCF are:
     Max number of different atomic species (ntypx) = 10
     Max number of k-points (npk) =  40000
     Max angular momentum in pseudopotentials (lmaxx) =  3
     Presently stress not available with electric field


     **************************************************************************
     Initializing libbeef V0.1.1 with the BEEF-vdW functional.
     Citation: Wellendorff et al., PRB 85, 235149 (2012).
     **************************************************************************


     IMPORTANT: XC functional enforced from input :
     Exchange-correlation      = BEEF-VDW ( 1  4 27 13 2)
     Any further DFT definition will be discarded
     Please, verify this is what you really want


     Subspace diagonalization in iterative solution of the eigenvalue problem:
     a serial algorithm will be used

 
     Parallelization info
     --------------------
     sticks:   dense  smooth     PW     G-vecs:    dense   smooth      PW
     Min         469     188     53                90947    23011    3531
     Max         471     189     55                90959    23054    3542
     Sum        3757    1507    433               727599   184247   28311
 


     bravais-lattice index     =            0
     lattice parameter (alat)  =       1.8897  a.u.
     unit-cell volume          =    6116.8020 (a.u.)^3
     number of atoms/cell      =           16
     number of atomic types    =            3
     number of electrons       =       139.00
     number of Kohn-Sham states=           79
     kinetic-energy cutoff     =      36.7493  Ry
     charge density cutoff     =     367.4932  Ry
     convergence threshold     =      1.0E-05
     mixing beta               =       0.3000
     number of iterations used =           10  plain     mixing
     Exchange-correlation      = BEEF-VDW ( 1  4 27 13 2)
     nstep                     =           50


     celldm(1)=   1.889726  celldm(2)=   0.000000  celldm(3)=   0.000000
     celldm(4)=   0.000000  celldm(5)=   0.000000  celldm(6)=   0.000000

     crystal axes: (cart. coord. in units of alat)
               a(1) = (   6.437465   0.000000   0.000000 )  
               a(2) = (   3.218732   5.575008   0.000000 )  
               a(3) = (   0.000000   0.000000  25.256168 )  

     reciprocal axes: (cart. coord. in units 2 pi/alat)
               b(1) = (  0.155341 -0.089686  0.000000 )  
               b(2) = (  0.000000  0.179372  0.000000 )  
               b(3) = (  0.000000  0.000000  0.039594 )  


     PseudoPot. # 1 for Sc read from file:
     /u/if/mamunm/psp/gbrv1.5pbe/Sc.UPF
     MD5 check sum: db30a2753ba66ef00f23801d899b7e7f
     Pseudo is Ultrasoft + core correction, Zval = 11.0
     Generated by new atomic code, or converted to UPF format
     Using radial grid of  849 points,  6 beta functions with: 
                l(1) =   0
                l(2) =   0
                l(3) =   1
                l(4) =   1
                l(5) =   2
                l(6) =   2
     Q(r) pseudized with  6 coefficients,  rinner =    1.200   1.200   1.200
                                                       1.200   1.200

     PseudoPot. # 2 for C  read from file:
     /u/if/mamunm/psp/gbrv1.5pbe/C.UPF
     MD5 check sum: d1aef80898a10debaa0f26306b886e00
     Pseudo is Ultrasoft + core correction, Zval =  4.0
     Generated by new atomic code, or converted to UPF format
     Using radial grid of  721 points,  4 beta functions with: 
                l(1) =   0
                l(2) =   0
                l(3) =   1
                l(4) =   1
     Q(r) pseudized with  8 coefficients,  rinner =    1.100   1.100   1.100


     PseudoPot. # 3 for H  read from file:
     /u/if/mamunm/psp/gbrv1.5pbe/H.UPF
     MD5 check sum: 761ae9a214b05c3daf00ab9f6b793d6f
     Pseudo is Ultrasoft, Zval =  1.0
     Generated by new atomic code, or converted to UPF format
     Using radial grid of  615 points,  2 beta functions with: 
                l(1) =   0
                l(2) =   0
     Q(r) pseudized with  8 coefficients,  rinner =    0.700

     vdW kernel table read from file vdW_kernel_table
     MD5 check sum: 095c7af220d748ca6e76c0b4c6cfb241

     atomic species   valence    mass     pseudopotential
        Sc1           11.00    44.95591     Sc( 1.00)
        C1             4.00    12.01100     C ( 1.00)
        H1             1.00     1.00800     H ( 1.00)

     No symmetry found



   Cartesian axes

     site n.     atom                  positions (alat units)
         1           Sc1 tau(   1) = (   1.6093662   0.9291680  10.0000000  )
         2           Sc1 tau(   2) = (   4.8280986   0.9291680  10.0000000  )
         3           Sc1 tau(   3) = (   3.2187324   3.7166720  10.0000000  )
         4           Sc1 tau(   4) = (   6.4374648   3.7166720  10.0000000  )
         5           Sc1 tau(   5) = (   6.4374648   1.8583360  12.6280840  )
         6           Sc1 tau(   6) = (   3.2187324   1.8583360  12.6280840  )
         7           Sc1 tau(   7) = (   8.0468310   4.6458400  12.6280840  )
         8           Sc1 tau(   8) = (   4.8280986   4.6458400  12.6280840  )
         9           Sc1 tau(   9) = (   0.0000000   0.0000000  15.2561680  )
        10           Sc1 tau(  10) = (   3.2187324   0.0000000  15.2561680  )
        11           Sc1 tau(  11) = (   1.6093662   2.7875040  15.2561680  )
        12           Sc1 tau(  12) = (   4.8280986   2.7875040  15.2561680  )
        13           C1  tau(  13) = (   1.6093662   0.0000000  17.1011680  )
        14           H1  tau(  14) = (   2.6993662   0.0000000  17.7311680  )
        15           H1  tau(  15) = (   1.1593662   0.8895000  17.7311680  )
        16           H1  tau(  16) = (   4.3780986   4.6855080  17.7311680  )

     number of k points=    20  Fermi-Dirac smearing, width (Ry)=  0.0110
                       cart. coord. in units 2pi/alat
        k(    1) = (   0.0000000   0.0000000   0.0000000), wk =   0.0555556
        k(    2) = (   0.0000000   0.0298953   0.0000000), wk =   0.1111111
        k(    3) = (   0.0000000   0.0597906   0.0000000), wk =   0.1111111
        k(    4) = (   0.0000000  -0.0896860   0.0000000), wk =   0.0555556
        k(    5) = (   0.0258901  -0.0149477   0.0000000), wk =   0.1111111
        k(    6) = (   0.0258901   0.0149477   0.0000000), wk =   0.1111111
        k(    7) = (   0.0258901   0.0448430   0.0000000), wk =   0.1111111
        k(    8) = (   0.0258901  -0.1046336   0.0000000), wk =   0.1111111
        k(    9) = (   0.0258901  -0.0747383   0.0000000), wk =   0.1111111
        k(   10) = (   0.0258901  -0.0448430   0.0000000), wk =   0.1111111
        k(   11) = (   0.0517802  -0.0298953   0.0000000), wk =   0.1111111
        k(   12) = (   0.0517802   0.0000000   0.0000000), wk =   0.1111111
        k(   13) = (   0.0517802   0.0298953   0.0000000), wk =   0.1111111
        k(   14) = (   0.0517802  -0.1195813   0.0000000), wk =   0.1111111
        k(   15) = (   0.0517802  -0.0896860   0.0000000), wk =   0.1111111
        k(   16) = (   0.0517802  -0.0597906   0.0000000), wk =   0.1111111
        k(   17) = (  -0.0776703   0.0448430   0.0000000), wk =   0.0555556
        k(   18) = (  -0.0776703   0.0747383   0.0000000), wk =   0.1111111
        k(   19) = (  -0.0776703   0.1046336   0.0000000), wk =   0.1111111
        k(   20) = (  -0.0776703  -0.0448430   0.0000000), wk =   0.0555556

     Dense  grid:   727599 G-vectors     FFT dimensions: (  75,  75, 300)

     Smooth grid:   184247 G-vectors     FFT dimensions: (  48,  48, 192)

     Largest allocated arrays     est. size (Mb)     dimensions
        Kohn-Sham Wavefunctions         3.51 Mb     (    2914,   79)
        NL pseudopotentials            10.23 Mb     (    2914,  230)
        Each V/rho on FFT grid          3.26 Mb     (  213750)
        Each G-vector array             0.69 Mb     (   90950)
        G-vector shells                 0.18 Mb     (   23259)
     Largest temporary arrays     est. size (Mb)     dimensions
        Auxiliary wavefunctions        14.05 Mb     (    2914,  316)
        Each subspace H/S matrix        1.52 Mb     (     316,  316)
        Each <psi_i|beta_j> matrix      0.28 Mb     (     230,   79)
        Arrays for rho mixing          32.62 Mb     (  213750,   10)

     Initial potential from superposition of free atoms
     Check: negative starting charge=   -0.000255

     starting charge  138.97110, renormalised to  139.00000

     negative rho (up, down):  2.555E-04 0.000E+00


     ************************************************************************
     *
     * You are using vdW-DF for exchange-correlation in this calculation.
     * Please cite the following three references that made this development
     * possible:
     *
     *   M. Dion, H. Rydberg, E. Schroder, D. C. Langreth, and
     *   B. I. Lundqvist, Phys. Rev. Lett. 92, 246401 (2004).
     *
     *   T. Thonhauser, V. R. Cooper, S. Li, A. Puzder, P. Hyldgaard, and
     *   D. C. Langreth, Phys. Rev. B 76, 125112 (2007).
     *
     *   G. Roman-Perez and J. M. Soler, Phys. Rev. Lett. 103, 096102 (2009).
     *
     *
     * If you are using vdW-DF2, please also cite:
     *
     *   K. Lee, E. D. Murray, L. Kong, B. I. Lundqvist, and
     *   D. C. Langreth, Phys. Rev. B 82, 081101(R) (2010).
     *
     *
     * If you are calculating the stress with vdW-DF, please also cite:
     *
     *   R. Sabatini, E. Kucukbenli, B. Kolb, T. Thonhauser, and
     *   S. de Gironcoli, J. Phys.: Condens. Matter 24, 424209 (2012).
     *
     ************************************************************************

     Carrying out vdW-DF run using the following parameters:

     Nqs =      20    Nr_points =    1024   r_max =   100.000
     q_mesh =
               0.00001000     0.04494208     0.09755937     0.15916263
               0.23128650     0.31572767     0.41458969     0.53033537
               0.66584808     0.82450364     1.01025438     1.22772762
               1.48234092     1.78043706     2.12944203     2.53805004
               3.01644009     3.57652955     4.23227104     5.00000000

     Gradients computed in reciprocal space

     ************************************************************************


 
     Adding external electric field

     Computed dipole along edir(3) : 
        Dipole               -0.0124 Ry au,         -0.0316 Debye
        Dipole field         -0.0000 Ry au
 
        Potential amp.        0.0024 Ry
        Total length         46.5341 bohr
 
     Starting wfc are  163 randomized atomic wfcs

     total cpu time spent up to now is       16.0 secs

     per-process dynamical memory:    99.9 Mb

     Self-consistent Calculation

     iteration #  1     ecut=    36.75 Ry     beta=0.30
     Davidson diagonalization with overlap
     ethr =  1.00E-02,  avg # of iterations =  2.0

     negative rho (up, down):  1.818E-04 0.000E+00
 
     Adding external electric field

     Computed dipole along edir(3) : 
        Dipole               -1.6673 Ry au,         -4.2378 Debye
        Dipole field         -0.0034 Ry au
 
        Potential amp.        0.3188 Ry
        Total length         46.5341 bohr
 

     total cpu time spent up to now is       35.6 secs

     total energy              =   -1150.34405261 Ry
     Harris-Foulkes estimate   =   -1153.56188373 Ry
     estimated scf accuracy    <       6.86253987 Ry

     iteration #  2     ecut=    36.75 Ry     beta=0.30
     Davidson diagonalization with overlap
     ethr =  4.94E-03,  avg # of iterations =  8.6

     negative rho (up, down):  4.471E-04 0.000E+00
 
     Adding external electric field

     Computed dipole along edir(3) : 
        Dipole                3.3289 Ry au,          8.4613 Debye
        Dipole field          0.0068 Ry au
 
        Potential amp.       -0.6365 Ry
        Total length         46.5341 bohr
 

     total cpu time spent up to now is       62.5 secs

     total energy              =   -1145.74788425 Ry
     Harris-Foulkes estimate   =   -1159.36018046 Ry
     estimated scf accuracy    <     232.23955671 Ry

     iteration #  3     ecut=    36.75 Ry     beta=0.30
     Davidson diagonalization with overlap
     ethr =  4.94E-03,  avg # of iterations =  9.7

     negative rho (up, down):  9.612E-05 0.000E+00
 
     Adding external electric field

     Computed dipole along edir(3) : 
        Dipole                0.0062 Ry au,          0.0157 Debye
        Dipole field          0.0000 Ry au
 
        Potential amp.       -0.0012 Ry
        Total length         46.5341 bohr
 

     total cpu time spent up to now is       92.5 secs

     total energy              =   -1148.66071995 Ry
     Harris-Foulkes estimate   =   -1161.85135902 Ry
     estimated scf accuracy    <     338.54607987 Ry

     iteration #  4     ecut=    36.75 Ry     beta=0.30
     Davidson diagonalization with overlap
     ethr =  4.94E-03,  avg # of iterations =  9.3

     negative rho (up, down):  7.766E-05 0.000E+00
 
     Adding external electric field

     Computed dipole along edir(3) : 
        Dipole                0.1356 Ry au,          0.3446 Debye
        Dipole field          0.0003 Ry au
 
        Potential amp.       -0.0259 Ry
        Total length         46.5341 bohr
 

     total cpu time spent up to now is      120.9 secs

     total energy              =   -1152.77922375 Ry
     Harris-Foulkes estimate   =   -1152.97441132 Ry
     estimated scf accuracy    <       5.59037983 Ry

     iteration #  5     ecut=    36.75 Ry     beta=0.30
     Davidson diagonalization with overlap
     ethr =  4.02E-03,  avg # of iterations =  1.1

     negative rho (up, down):  6.244E-05 0.000E+00
 
     Adding external electric field

     Computed dipole along edir(3) : 
        Dipole                0.1026 Ry au,          0.2608 Debye
        Dipole field          0.0002 Ry au
 
        Potential amp.       -0.0196 Ry
        Total length         46.5341 bohr
 

     total cpu time spent up to now is      139.9 secs

     total energy              =   -1152.80020462 Ry
     Harris-Foulkes estimate   =   -1152.85894756 Ry
     estimated scf accuracy    <       0.62110894 Ry

     iteration #  6     ecut=    36.75 Ry     beta=0.30
     Davidson diagonalization with overlap
     ethr =  4.47E-04,  avg # of iterations =  9.6

     negative rho (up, down):  3.845E-05 0.000E+00
 
     Adding external electric field

     Computed dipole along edir(3) : 
        Dipole                0.0690 Ry au,          0.1753 Debye
        Dipole field          0.0001 Ry au
 
        Potential amp.       -0.0132 Ry
        Total length         46.5341 bohr
 

     total cpu time spent up to now is      166.2 secs

     total energy              =   -1152.87201904 Ry
     Harris-Foulkes estimate   =   -1152.89947084 Ry
     estimated scf accuracy    <       0.25825319 Ry

     iteration #  7     ecut=    36.75 Ry     beta=0.30
     Davidson diagonalization with overlap
     ethr =  1.86E-04,  avg # of iterations =  5.1

     negative rho (up, down):  3.727E-05 0.000E+00
 
     Adding external electric field

     Computed dipole along edir(3) : 
        Dipole                0.1074 Ry au,          0.2730 Debye
        Dipole field          0.0002 Ry au
 
        Potential amp.       -0.0205 Ry
        Total length         46.5341 bohr
 

     total cpu time spent up to now is      187.4 secs

     total energy              =   -1152.87701779 Ry
     Harris-Foulkes estimate   =   -1152.88277755 Ry
     estimated scf accuracy    <       0.03713406 Ry

     iteration #  8     ecut=    36.75 Ry     beta=0.30
     Davidson diagonalization with overlap
     ethr =  2.67E-05,  avg # of iterations =  9.3

     negative rho (up, down):  5.288E-05 0.000E+00
 
     Adding external electric field

     Computed dipole along edir(3) : 
        Dipole                0.1334 Ry au,          0.3391 Debye
        Dipole field          0.0003 Ry au
 
        Potential amp.       -0.0255 Ry
        Total length         46.5341 bohr
 

     total cpu time spent up to now is      215.3 secs

     total energy              =   -1152.88219632 Ry
     Harris-Foulkes estimate   =   -1152.88859734 Ry
     estimated scf accuracy    <       0.13973272 Ry

     iteration #  9     ecut=    36.75 Ry     beta=0.30
     Davidson diagonalization with overlap
     ethr =  2.67E-05,  avg # of iterations =  6.2

     negative rho (up, down):  7.790E-05 0.000E+00
 
     Adding external electric field

     Computed dipole along edir(3) : 
        Dipole                0.1205 Ry au,          0.3063 Debye
        Dipole field          0.0002 Ry au
 
        Potential amp.       -0.0230 Ry
        Total length         46.5341 bohr
 

     total cpu time spent up to now is      238.1 secs

     total energy              =   -1152.88329100 Ry
     Harris-Foulkes estimate   =   -1152.88568381 Ry
     estimated scf accuracy    <       0.05882864 Ry

     iteration # 10     ecut=    36.75 Ry     beta=0.30
     Davidson diagonalization with overlap
     ethr =  2.67E-05,  avg # of iterations =  5.2

     negative rho (up, down):  9.319E-05 0.000E+00
 
     Adding external electric field

     Computed dipole along edir(3) : 
        Dipole                0.1297 Ry au,          0.3297 Debye
        Dipole field          0.0003 Ry au
 
        Potential amp.       -0.0248 Ry
        Total length         46.5341 bohr
 

     total cpu time spent up to now is      259.2 secs

     total energy              =   -1152.88443294 Ry
     Harris-Foulkes estimate   =   -1152.88495524 Ry
     estimated scf accuracy    <       0.01085232 Ry

     iteration # 11     ecut=    36.75 Ry     beta=0.30
     Davidson diagonalization with overlap
     ethr =  7.81E-06,  avg # of iterations =  7.5

     negative rho (up, down):  1.022E-04 0.000E+00
 
     Adding external electric field

     Computed dipole along edir(3) : 
        Dipole                0.1421 Ry au,          0.3612 Debye
        Dipole field          0.0003 Ry au
 
        Potential amp.       -0.0272 Ry
        Total length         46.5341 bohr
 

     total cpu time spent up to now is      283.4 secs

     total energy              =   -1152.88503531 Ry
     Harris-Foulkes estimate   =   -1152.88541035 Ry
     estimated scf accuracy    <       0.00275372 Ry

     iteration # 12     ecut=    36.75 Ry     beta=0.30
     Davidson diagonalization with overlap
     ethr =  1.98E-06,  avg # of iterations =  6.9

     negative rho (up, down):  1.388E-04 0.000E+00
 
     Adding external electric field

     Computed dipole along edir(3) : 
        Dipole                0.1497 Ry au,          0.3805 Debye
        Dipole field          0.0003 Ry au
 
        Potential amp.       -0.0286 Ry
        Total length         46.5341 bohr
 

     total cpu time spent up to now is      307.5 secs

     total energy              =   -1152.88531707 Ry
     Harris-Foulkes estimate   =   -1152.88533036 Ry
     estimated scf accuracy    <       0.00251156 Ry

     iteration # 13     ecut=    36.75 Ry     beta=0.30
     Davidson diagonalization with overlap
     ethr =  1.81E-06,  avg # of iterations =  3.5

     negative rho (up, down):  1.415E-04 0.000E+00
 
     Adding external electric field

     Computed dipole along edir(3) : 
        Dipole                0.1485 Ry au,          0.3774 Debye
        Dipole field          0.0003 Ry au
 
        Potential amp.       -0.0284 Ry
        Total length         46.5341 bohr
 

     total cpu time spent up to now is      328.1 secs

     total energy              =   -1152.88540666 Ry
     Harris-Foulkes estimate   =   -1152.88543692 Ry
     estimated scf accuracy    <       0.00071765 Ry

     iteration # 14     ecut=    36.75 Ry     beta=0.30
     Davidson diagonalization with overlap
     ethr =  5.16E-07,  avg # of iterations =  6.4

     negative rho (up, down):  1.619E-04 0.000E+00
 
     Adding external electric field

     Computed dipole along edir(3) : 
        Dipole                0.1474 Ry au,          0.3748 Debye
        Dipole field          0.0003 Ry au
 
        Potential amp.       -0.0282 Ry
        Total length         46.5341 bohr
 

     total cpu time spent up to now is      351.8 secs

     total energy              =   -1152.88544766 Ry
     Harris-Foulkes estimate   =   -1152.88546686 Ry
     estimated scf accuracy    <       0.00066381 Ry

     iteration # 15     ecut=    36.75 Ry     beta=0.30
     Davidson diagonalization with overlap
     ethr =  4.78E-07,  avg # of iterations =  1.0

     negative rho (up, down):  1.728E-04 0.000E+00
 
     Adding external electric field

     Computed dipole along edir(3) : 
        Dipole                0.1466 Ry au,          0.3726 Debye
        Dipole field          0.0003 Ry au
 
        Potential amp.       -0.0280 Ry
        Total length         46.5341 bohr
 

     total cpu time spent up to now is      371.1 secs

     total energy              =   -1152.88544968 Ry
     Harris-Foulkes estimate   =   -1152.88546422 Ry
     estimated scf accuracy    <       0.00014067 Ry

     iteration # 16     ecut=    36.75 Ry     beta=0.30
     Davidson diagonalization with overlap
     ethr =  1.01E-07,  avg # of iterations =  8.2

     negative rho (up, down):  1.742E-04 0.000E+00
 
     Adding external electric field

     Computed dipole along edir(3) : 
        Dipole                0.1447 Ry au,          0.3677 Debye
        Dipole field          0.0003 Ry au
 
        Potential amp.       -0.0277 Ry
        Total length         46.5341 bohr
 

     total cpu time spent up to now is      397.6 secs

     total energy              =   -1152.88546774 Ry
     Harris-Foulkes estimate   =   -1152.88547512 Ry
     estimated scf accuracy    <       0.00004084 Ry

     iteration # 17     ecut=    36.75 Ry     beta=0.30
     Davidson diagonalization with overlap
     ethr =  2.94E-08,  avg # of iterations =  7.2

     negative rho (up, down):  1.756E-04 0.000E+00

     negative rho (up, down):  1.756E-04 0.000E+00

     negative rho (up, down):  1.756E-04 0.000E+00

     negative rho (up, down):  1.756E-04 0.000E+00

     negative rho (up, down):  1.756E-04 0.000E+00

     negative rho (up, down):  1.756E-04 0.000E+00

     negative rho (up, down):  1.756E-04 0.000E+00

     negative rho (up, down):  1.756E-04 0.000E+00

     negative rho (up, down):  1.756E-04 0.000E+00

     negative rho (up, down):  1.756E-04 0.000E+00

     negative rho (up, down):  1.756E-04 0.000E+00

     negative rho (up, down):  1.756E-04 0.000E+00

     negative rho (up, down):  1.756E-04 0.000E+00

     negative rho (up, down):  1.756E-04 0.000E+00

     negative rho (up, down):  1.756E-04 0.000E+00

     negative rho (up, down):  1.756E-04 0.000E+00

     negative rho (up, down):  1.756E-04 0.000E+00

     negative rho (up, down):  1.756E-04 0.000E+00

     negative rho (up, down):  1.756E-04 0.000E+00

     negative rho (up, down):  1.756E-04 0.000E+00

     negative rho (up, down):  1.756E-04 0.000E+00

     negative rho (up, down):  1.756E-04 0.000E+00

     negative rho (up, down):  1.756E-04 0.000E+00

     negative rho (up, down):  1.756E-04 0.000E+00

     negative rho (up, down):  1.756E-04 0.000E+00

     negative rho (up, down):  1.756E-04 0.000E+00

     negative rho (up, down):  1.756E-04 0.000E+00

     negative rho (up, down):  1.756E-04 0.000E+00

     negative rho (up, down):  1.756E-04 0.000E+00

     negative rho (up, down):  1.756E-04 0.000E+00

     negative rho (up, down):  1.756E-04 0.000E+00

     negative rho (up, down):  1.756E-04 0.000E+00

     negative rho (up, down):  1.756E-04 0.000E+00

     negative rho (up, down):  1.756E-04 0.000E+00

     negative rho (up, down):  1.756E-04 0.000E+00
 
     Adding external electric field

     Computed dipole along edir(3) : 
        Dipole                0.1626 Ry au,          0.4133 Debye
        Dipole field          0.0003 Ry au
 
        Potential amp.       -0.0311 Ry
        Total length         46.5341 bohr
 

     total cpu time spent up to now is      483.9 secs

     End of self-consistent calculation

          k = 0.0000 0.0000 0.0000 ( 23031 PWs)   bands (ev):

   -49.1885 -49.1575 -49.1481 -49.1128 -49.1113 -49.1106 -49.0815 -49.0350
   -48.7040 -48.6675 -48.6550 -48.6459 -27.9055 -27.8896 -27.8734 -27.8713
   -27.8679 -27.8607 -27.8460 -27.8396 -27.8272 -27.7836 -27.7805 -27.7772
   -27.7527 -27.6977 -27.6173 -27.6107 -27.6107 -27.6094 -27.5924 -27.5794
   -27.5320 -27.5314 -27.5219 -27.4760 -27.4277 -27.4233 -27.4190 -27.2699
   -27.2528 -27.2350 -27.2230 -27.1918 -27.1842 -27.1790 -27.1084 -27.1077
   -12.3530  -5.2896  -5.0198  -4.0542  -3.3584  -2.4626  -1.4584  -0.7054
    -0.6917  -0.6664  -0.5841  -0.5783  -0.5224  -0.3049  -0.2964  -0.1704
     0.2190   0.2247   0.2525   0.4712   0.5222   0.6124   0.8827   0.9893
     1.2763   1.2924   1.4150   1.4177   1.4341   1.6540   1.8581

          k = 0.0000 0.0299 0.0000 ( 23008 PWs)   bands (ev):

   -49.1876 -49.1544 -49.1478 -49.1151 -49.1114 -49.1113 -49.0825 -49.0353
   -48.7014 -48.6675 -48.6576 -48.6460 -27.9011 -27.8749 -27.8616 -27.8589
   -27.8504 -27.8474 -27.8370 -27.8324 -27.8187 -27.7847 -27.7800 -27.7773
   -27.7546 -27.6981 -27.6322 -27.6241 -27.6226 -27.6055 -27.5943 -27.5872
   -27.5549 -27.5432 -27.5373 -27.4795 -27.4165 -27.4081 -27.4041 -27.2679
   -27.2523 -27.2352 -27.2226 -27.2038 -27.1910 -27.1798 -27.1306 -27.1128
   -12.3518  -5.3071  -5.0235  -3.9125  -3.2773  -2.3698  -1.3336  -1.0405
    -0.7168  -0.7150  -0.5930  -0.4986  -0.4911  -0.1661  -0.1382   0.0053
     0.2703   0.2888   0.3181   0.5307   0.5837   0.6770   0.8950   0.9970
     1.2408   1.2711   1.2951   1.3486   1.3664   1.5992   1.7730

          k = 0.0000 0.0598 0.0000 ( 22962 PWs)   bands (ev):

   -49.1857 -49.1472 -49.1461 -49.1232 -49.1117 -49.1113 -49.0845 -49.0358
   -48.6947 -48.6675 -48.6642 -48.6461 -27.8950 -27.8538 -27.8343 -27.8284
   -27.8227 -27.8215 -27.8053 -27.7947 -27.7850 -27.7816 -27.7778 -27.7761
   -27.7559 -27.6997 -27.6717 -27.6559 -27.6541 -27.6284 -27.6181 -27.5935
   -27.5912 -27.5807 -27.5518 -27.4871 -27.3902 -27.3795 -27.3499 -27.2642
   -27.2522 -27.2362 -27.2342 -27.2219 -27.2195 -27.1903 -27.1665 -27.1265
   -12.3494  -5.3393  -5.0310  -3.5716  -3.0575  -2.0870  -1.7515  -1.0173
    -0.7958  -0.7298  -0.7222  -0.3139  -0.2996  -0.0157   0.2313   0.2679
     0.4193   0.4481   0.4936   0.6707   0.7128   0.8103   0.8422   1.0073
     1.1103   1.1349   1.1400   1.1660   1.2571   1.4180   1.4799

          k = 0.0000-0.0897 0.0000 ( 23032 PWs)   bands (ev):

   -49.1847 -49.1468 -49.1350 -49.1343 -49.1117 -49.1113 -49.0856 -49.0361
   -48.6899 -48.6690 -48.6675 -48.6461 -27.8923 -27.8497 -27.8165 -27.8098
   -27.8079 -27.8061 -27.8033 -27.7778 -27.7764 -27.7697 -27.7546 -27.7339
   -27.7166 -27.7041 -27.7036 -27.6937 -27.6770 -27.6746 -27.6685 -27.6208
   -27.5769 -27.5722 -27.5706 -27.4915 -27.3730 -27.3586 -27.2816 -27.2626
   -27.2619 -27.2611 -27.2472 -27.2397 -27.2341 -27.2213 -27.1526 -27.1405
   -12.3483  -5.3543  -5.0347  -3.3859  -2.6349  -2.4688  -1.6366  -1.3590
    -0.7289  -0.7161  -0.4262  -0.2910  -0.1684  -0.1666   0.5234   0.5340
     0.5460   0.5667   0.6128   0.6502   0.8332   0.8518   0.8613   0.8944
     0.9407   0.9681   1.0447   1.1924   1.2252   1.2751   1.2855

          k = 0.0259-0.0149 0.0000 ( 23008 PWs)   bands (ev):

   -49.1871 -49.1544 -49.1489 -49.1149 -49.1121 -49.1107 -49.0815 -49.0357
   -48.7012 -48.6691 -48.6549 -48.6472 -27.9016 -27.8802 -27.8600 -27.8563
   -27.8528 -27.8467 -27.8355 -27.8329 -27.8195 -27.7831 -27.7819 -27.7773
   -27.7533 -27.6988 -27.6239 -27.6235 -27.6185 -27.6061 -27.6049 -27.5847
   -27.5554 -27.5369 -27.5317 -27.4923 -27.4143 -27.4120 -27.4025 -27.2675
   -27.2532 -27.2342 -27.2229 -27.2008 -27.1958 -27.1780 -27.1302 -27.1133
   -12.3517  -5.2968  -5.0357  -3.9072  -3.2723  -2.3651  -1.3173  -1.0778
    -0.7191  -0.6983  -0.6548  -0.5014  -0.4477  -0.1501  -0.1311  -0.0111
     0.2636   0.2871   0.3183   0.5319   0.5720   0.6647   0.8948   0.9990
     1.1779   1.2751   1.3211   1.3492   1.3615   1.6132   1.7810

          k = 0.0259 0.0149 0.0000 ( 23008 PWs)   bands (ev):

   -49.1870 -49.1544 -49.1490 -49.1149 -49.1122 -49.1107 -49.0813 -49.0358
   -48.7012 -48.6691 -48.6549 -48.6472 -27.9013 -27.8798 -27.8601 -27.8561
   -27.8521 -27.8451 -27.8402 -27.8323 -27.8188 -27.7837 -27.7800 -27.7785
   -27.7531 -27.6988 -27.6239 -27.6236 -27.6207 -27.6067 -27.6049 -27.5810
   -27.5554 -27.5369 -27.5316 -27.4933 -27.4149 -27.4112 -27.4026 -27.2675
   -27.2532 -27.2343 -27.2229 -27.2004 -27.1961 -27.1781 -27.1299 -27.1135
   -12.3517  -5.2969  -5.0356  -3.9072  -3.2723  -2.3651  -1.3174  -1.0773
    -0.7195  -0.6997  -0.6534  -0.5030  -0.4453  -0.1516  -0.1309  -0.0100
     0.2654   0.2865   0.3173   0.5306   0.5685   0.6671   0.8947   0.9983
     1.1796   1.2745   1.3203   1.3497   1.3622   1.6202   1.7817

          k = 0.0259 0.0448 0.0000 ( 23004 PWs)   bands (ev):

   -49.1855 -49.1489 -49.1485 -49.1182 -49.1166 -49.1088 -49.0828 -49.0362
   -48.6964 -48.6698 -48.6595 -48.6468 -27.8961 -27.8603 -27.8436 -27.8322
   -27.8266 -27.8229 -27.8187 -27.8152 -27.7951 -27.7858 -27.7824 -27.7751
   -27.7554 -27.6995 -27.6644 -27.6570 -27.6123 -27.6117 -27.6074 -27.5971
   -27.5920 -27.5674 -27.5483 -27.4964 -27.3990 -27.3777 -27.3759 -27.2646
   -27.2527 -27.2378 -27.2335 -27.2223 -27.1881 -27.1845 -27.1693 -27.1240
   -12.3499  -5.3226  -5.0397  -3.6590  -3.1270  -2.1657  -1.3287  -1.3141
    -1.0337  -0.6978  -0.5997  -0.3379  -0.2179   0.0042   0.0430   0.1706
     0.3558   0.4162   0.4488   0.6239   0.6808   0.7772   0.8579   0.9998
     1.1380   1.1545   1.1668   1.2600   1.3162   1.4441   1.5181

          k = 0.0259-0.1046 0.0000 ( 23012 PWs)   bands (ev):

   -49.1841 -49.1482 -49.1388 -49.1274 -49.1188 -49.1073 -49.0844 -49.0365
   -48.6898 -48.6704 -48.6660 -48.6462 -27.8918 -27.8520 -27.8132 -27.8119
   -27.8040 -27.7993 -27.7910 -27.7820 -27.7761 -27.7713 -27.7644 -27.7495
   -27.7449 -27.7133 -27.7087 -27.6918 -27.6681 -27.6521 -27.6302 -27.6084
   -27.5921 -27.5802 -27.5686 -27.5030 -27.3708 -27.3463 -27.3150 -27.2821
   -27.2618 -27.2516 -27.2391 -27.2331 -27.2216 -27.2029 -27.1671 -27.1427
   -12.3481  -5.3452  -5.0454  -3.3861  -2.7736  -2.0990  -1.7114  -1.4439
    -1.1066  -0.6545  -0.5114  -0.1394  -0.0384   0.0706   0.3316   0.3578
     0.5166   0.5696   0.6284   0.7097   0.8046   0.8196   0.9034   0.9609
     0.9868   1.0649   1.1024   1.1130   1.2115   1.2599   1.2866

          k = 0.0259-0.0747 0.0000 ( 23012 PWs)   bands (ev):

   -49.1842 -49.1480 -49.1388 -49.1274 -49.1188 -49.1073 -49.0846 -49.0365
   -48.6898 -48.6704 -48.6661 -48.6462 -27.8919 -27.8517 -27.8141 -27.8121
   -27.8052 -27.7991 -27.7915 -27.7821 -27.7762 -27.7720 -27.7626 -27.7481
   -27.7435 -27.7137 -27.7079 -27.6884 -27.6683 -27.6577 -27.6302 -27.6095
   -27.5921 -27.5788 -27.5686 -27.5026 -27.3708 -27.3464 -27.3150 -27.2823
   -27.2618 -27.2516 -27.2392 -27.2330 -27.2216 -27.2028 -27.1673 -27.1425
   -12.3481  -5.3451  -5.0454  -3.3862  -2.7736  -2.0991  -1.7113  -1.4440
    -1.1068  -0.6546  -0.5114  -0.1388  -0.0373   0.0685   0.3286   0.3630
     0.5167   0.5679   0.6265   0.7102   0.8033   0.8243   0.9093   0.9613
     0.9960   1.0468   1.1015   1.1163   1.2092   1.2590   1.2893

          k = 0.0259-0.0448 0.0000 ( 23004 PWs)   bands (ev):

   -49.1857 -49.1488 -49.1483 -49.1182 -49.1165 -49.1088 -49.0830 -49.0361
   -48.6964 -48.6697 -48.6595 -48.6467 -27.8963 -27.8603 -27.8453 -27.8367
   -27.8248 -27.8215 -27.8182 -27.8111 -27.7953 -27.7858 -27.7834 -27.7747
   -27.7554 -27.6999 -27.6644 -27.6517 -27.6123 -27.6118 -27.6096 -27.5993
   -27.5971 -27.5642 -27.5483 -27.4952 -27.3988 -27.3783 -27.3755 -27.2647
   -27.2528 -27.2380 -27.2335 -27.2223 -27.1876 -27.1846 -27.1697 -27.1237
   -12.3499  -5.3224  -5.0399  -3.6590  -3.1270  -2.1656  -1.3279  -1.3152
    -1.0336  -0.6997  -0.5981  -0.3365  -0.2193   0.0038   0.0446   0.1693
     0.3548   0.4140   0.4502   0.6303   0.6780   0.7815   0.8579   1.0021
     1.1346   1.1552   1.1640   1.2623   1.3173   1.4350   1.5180

          k = 0.0518-0.0299 0.0000 ( 22962 PWs)   bands (ev):

   -49.1839 -49.1508 -49.1461 -49.1231 -49.1123 -49.1108 -49.0814 -49.0371
   -48.6936 -48.6745 -48.6548 -48.6496 -27.8945 -27.8627 -27.8401 -27.8273
   -27.8255 -27.8210 -27.8041 -27.7980 -27.7848 -27.7801 -27.7770 -27.7752
   -27.7539 -27.7015 -27.6557 -27.6552 -27.6478 -27.6281 -27.6186 -27.5908
   -27.5854 -27.5661 -27.5513 -27.5198 -27.3861 -27.3845 -27.3494 -27.2624
   -27.2549 -27.2346 -27.2283 -27.2256 -27.2226 -27.1897 -27.1653 -27.1273
   -12.3490  -5.3116  -5.0634  -3.5397  -3.0495  -2.0598  -1.7977  -0.9970
    -0.9110  -0.7254  -0.7005  -0.3065  -0.2768  -0.0438   0.2387   0.2736
     0.4066   0.4529   0.4879   0.6577   0.7001   0.7726   0.8350   0.9975
     1.0726   1.1369   1.1391   1.1779   1.2698   1.3905   1.4904

          k = 0.0518 0.0000 0.0000 ( 23004 PWs)   bands (ev):

   -49.1843 -49.1511 -49.1487 -49.1177 -49.1171 -49.1088 -49.0807 -49.0371
   -48.6958 -48.6731 -48.6537 -48.6498 -27.8960 -27.8689 -27.8435 -27.8371
   -27.8247 -27.8207 -27.8198 -27.8064 -27.8007 -27.7849 -27.7839 -27.7756
   -27.7532 -27.7011 -27.6648 -27.6480 -27.6126 -27.6112 -27.6043 -27.5976
   -27.5856 -27.5478 -27.5402 -27.5345 -27.3988 -27.3786 -27.3754 -27.2634
   -27.2551 -27.2360 -27.2328 -27.2230 -27.1904 -27.1814 -27.1699 -27.1243
   -12.3496  -5.3016  -5.0640  -3.6419  -3.1208  -2.1592  -1.3332  -1.3141
    -1.0453  -0.6967  -0.6598  -0.3418  -0.1905   0.0294   0.0502   0.1480
     0.3707   0.3731   0.4432   0.6306   0.6554   0.7415   0.8598   1.0075
     1.0502   1.1603   1.1611   1.2694   1.3203   1.4734   1.6068

          k = 0.0518 0.0299 0.0000 ( 22962 PWs)   bands (ev):

   -49.1837 -49.1513 -49.1461 -49.1231 -49.1123 -49.1108 -49.0810 -49.0373
   -48.6936 -48.6745 -48.6547 -48.6497 -27.8939 -27.8632 -27.8327 -27.8290
   -27.8231 -27.8218 -27.8137 -27.7983 -27.7848 -27.7790 -27.7779 -27.7748
   -27.7530 -27.7015 -27.6556 -27.6552 -27.6476 -27.6343 -27.6186 -27.5907
   -27.5753 -27.5641 -27.5513 -27.5256 -27.3869 -27.3837 -27.3493 -27.2623
   -27.2549 -27.2344 -27.2280 -27.2258 -27.2226 -27.1895 -27.1656 -27.1276
   -12.3490  -5.3119  -5.0631  -3.5397  -3.0495  -2.0599  -1.7975  -0.9971
    -0.9109  -0.7257  -0.7005  -0.3089  -0.2722  -0.0483   0.2370   0.2785
     0.4076   0.4540   0.4865   0.6568   0.6924   0.7741   0.8390   1.0002
     1.0714   1.1367   1.1393   1.1785   1.2672   1.4003   1.4862

          k = 0.0518-0.1196 0.0000 ( 23012 PWs)   bands (ev):

   -49.1826 -49.1511 -49.1389 -49.1273 -49.1189 -49.1073 -49.0821 -49.0375
   -48.6881 -48.6769 -48.6597 -48.6478 -27.8907 -27.8567 -27.8139 -27.8112
   -27.8026 -27.7988 -27.7979 -27.7866 -27.7818 -27.7723 -27.7610 -27.7509
   -27.7456 -27.7127 -27.7021 -27.6749 -27.6675 -27.6560 -27.6307 -27.5923
   -27.5914 -27.5731 -27.5684 -27.5292 -27.3698 -27.3486 -27.3148 -27.2798
   -27.2601 -27.2549 -27.2383 -27.2330 -27.2222 -27.2022 -27.1664 -27.1438
   -12.3478  -5.3278  -5.0657  -3.3540  -2.7726  -2.1036  -1.7385  -1.4236
    -1.1448  -0.6664  -0.4977  -0.1408  -0.0581   0.0664   0.3261   0.3741
     0.5036   0.5680   0.6391   0.7176   0.7665   0.8401   0.8844   0.9597
     0.9854   1.0773   1.1072   1.1429   1.1938   1.2262   1.2701

          k = 0.0518-0.0897 0.0000 ( 23028 PWs)   bands (ev):

   -49.1823 -49.1506 -49.1302 -49.1286 -49.1279 -49.1058 -49.0828 -49.0375
   -48.6843 -48.6779 -48.6634 -48.6468 -27.8895 -27.8545 -27.8033 -27.7996
   -27.7988 -27.7884 -27.7727 -27.7693 -27.7659 -27.7632 -27.7568 -27.7500
   -27.7299 -27.7293 -27.7274 -27.7041 -27.6992 -27.6658 -27.5994 -27.5992
   -27.5973 -27.5972 -27.5736 -27.5353 -27.3332 -27.3329 -27.3017 -27.2935
   -27.2903 -27.2584 -27.2540 -27.2335 -27.2220 -27.1751 -27.1709 -27.1700
   -12.3472  -5.3338  -5.0689  -3.2877  -2.2403  -2.2196  -2.1238  -1.2776
    -1.2555  -1.0394  -0.1247  -0.0879   0.1147   0.2363   0.2395   0.2643
     0.5821   0.6312   0.7365   0.7734   0.7748   0.8733   0.8989   0.9681
     1.0148   1.0293   1.0553   1.0759   1.1882   1.1996   1.2166

          k = 0.0518-0.0598 0.0000 ( 23012 PWs)   bands (ev):

   -49.1829 -49.1505 -49.1389 -49.1273 -49.1189 -49.1073 -49.0825 -49.0373
   -48.6881 -48.6768 -48.6597 -48.6478 -27.8912 -27.8559 -27.8206 -27.8120
   -27.8080 -27.7986 -27.7925 -27.7822 -27.7780 -27.7722 -27.7600 -27.7508
   -27.7454 -27.7125 -27.7037 -27.6706 -27.6656 -27.6600 -27.6308 -27.5987
   -27.5915 -27.5741 -27.5683 -27.5250 -27.3696 -27.3487 -27.3148 -27.2802
   -27.2601 -27.2550 -27.2384 -27.2328 -27.2223 -27.2024 -27.1662 -27.1435
   -12.3478  -5.3275  -5.0660  -3.3541  -2.7726  -2.1036  -1.7385  -1.4238
    -1.1452  -0.6659  -0.4977  -0.1405  -0.0555   0.0653   0.3262   0.3725
     0.5029   0.5647   0.6341   0.7241   0.7663   0.8477   0.8817   0.9657
     0.9809   1.0773   1.1145   1.1362   1.1951   1.2246   1.2682

          k =-0.0777 0.0448 0.0000 ( 23032 PWs)   bands (ev):

   -49.1822 -49.1519 -49.1354 -49.1338 -49.1123 -49.1108 -49.0814 -49.0378
   -48.6842 -48.6828 -48.6547 -48.6508 -27.8909 -27.8580 -27.8284 -27.8085
   -27.8070 -27.8062 -27.8054 -27.7860 -27.7784 -27.7757 -27.7572 -27.7184
   -27.7082 -27.7046 -27.7003 -27.6958 -27.6771 -27.6761 -27.6323 -27.6047
   -27.5754 -27.5716 -27.5702 -27.5318 -27.3671 -27.3660 -27.2757 -27.2731
   -27.2583 -27.2550 -27.2484 -27.2439 -27.2309 -27.2227 -27.1476 -27.1454
   -12.3477  -5.3192  -5.0756  -3.3182  -2.6109  -2.5141  -1.6068  -1.4542
    -0.7221  -0.7205  -0.4479  -0.3391  -0.1736  -0.1382   0.5205   0.5299
     0.5443   0.5700   0.5851   0.6504   0.8078   0.8510   0.8723   0.8965
     0.9245   0.9505   1.1362   1.1866   1.2126   1.2697   1.2819

          k =-0.0777 0.0747 0.0000 ( 23012 PWs)   bands (ev):

   -49.1821 -49.1520 -49.1389 -49.1273 -49.1189 -49.1073 -49.0813 -49.0379
   -48.6868 -48.6794 -48.6573 -48.6490 -27.8907 -27.8587 -27.8238 -27.8122
   -27.8080 -27.7989 -27.7931 -27.7822 -27.7771 -27.7720 -27.7570 -27.7492
   -27.7417 -27.7127 -27.7053 -27.6980 -27.6683 -27.6306 -27.6139 -27.5953
   -27.5917 -27.5777 -27.5680 -27.5422 -27.3699 -27.3483 -27.3143 -27.2822
   -27.2583 -27.2562 -27.2365 -27.2324 -27.2227 -27.2032 -27.1661 -27.1437
   -12.3477  -5.3170  -5.0781  -3.3362  -2.7809  -2.1002  -1.7325  -1.4403
    -1.1388  -0.6570  -0.5367  -0.1381  -0.0556   0.0811   0.3339   0.3623
     0.5313   0.5520   0.5874   0.6966   0.7597   0.8178   0.8854   0.9336
     0.9948   1.0754   1.0974   1.1395   1.2202   1.2470   1.3288

          k =-0.0777 0.1046 0.0000 ( 23012 PWs)   bands (ev):

   -49.1819 -49.1524 -49.1389 -49.1273 -49.1189 -49.1073 -49.0810 -49.0380
   -48.6867 -48.6795 -48.6573 -48.6490 -27.8904 -27.8593 -27.8185 -27.8123
   -27.8071 -27.7993 -27.7949 -27.7829 -27.7813 -27.7722 -27.7595 -27.7489
   -27.7400 -27.7133 -27.7056 -27.6950 -27.6683 -27.6307 -27.6235 -27.5918
   -27.5875 -27.5681 -27.5647 -27.5535 -27.3700 -27.3484 -27.3142 -27.2821
   -27.2583 -27.2561 -27.2363 -27.2325 -27.2226 -27.2030 -27.1664 -27.1438
   -12.3477  -5.3172  -5.0779  -3.3362  -2.7809  -2.1002  -1.7324  -1.4404
    -1.1386  -0.6565  -0.5374  -0.1380  -0.0582   0.0814   0.3356   0.3647
     0.5322   0.5542   0.5874   0.6930   0.7558   0.8222   0.8839   0.9351
     0.9928   1.0763   1.0960   1.1395   1.2216   1.2454   1.3315

          k =-0.0777-0.0448 0.0000 ( 23032 PWs)   bands (ev):

   -49.1818 -49.1526 -49.1354 -49.1338 -49.1123 -49.1108 -49.0808 -49.0381
   -48.6836 -48.6835 -48.6545 -48.6509 -27.8901 -27.8593 -27.8156 -27.8101
   -27.8082 -27.8062 -27.8036 -27.7987 -27.7780 -27.7762 -27.7581 -27.7214
   -27.7094 -27.7026 -27.6993 -27.6932 -27.6765 -27.6765 -27.6399 -27.5994
   -27.5719 -27.5702 -27.5582 -27.5458 -27.3680 -27.3652 -27.2748 -27.2740
   -27.2574 -27.2557 -27.2475 -27.2440 -27.2312 -27.2226 -27.1478 -27.1456
   -12.3477  -5.3196  -5.0752  -3.3182  -2.6106  -2.5144  -1.6071  -1.4536
    -0.7258  -0.7167  -0.4485  -0.3423  -0.1711  -0.1389   0.5238   0.5305
     0.5474   0.5747   0.5893   0.6347   0.8074   0.8500   0.8746   0.9058
     0.9244   0.9415   1.1588   1.1729   1.2168   1.2677   1.2745

     the Fermi energy is     0.7926 ev

!    total energy              =   -1152.88546868 Ry
     Harris-Foulkes estimate   =   -1152.88546219 Ry
     estimated scf accuracy    <       0.00000864 Ry

     The total energy is the sum of the following terms:

     one-electron contribution =   -7354.37479562 Ry
     hartree contribution      =    3662.55164133 Ry
     xc contribution           =    -172.30340543 Ry
     ewald contribution        =    2711.37630073 Ry
     electric field correction =       0.00005432 Ry
     smearing contrib. (-TS)   =      -0.13526401 Ry

     convergence has been achieved in  17 iterations
 
 BEEF-vdW xc energy contributions
           1 :   -145.903607765514     
           2 :    128.281586224983     
           3 :   -100.873498974158     
           4 :    74.3013509149634     
           5 :   -55.9568914347902     
           6 :    47.0781622804785     
           7 :   -44.0817923456833     
           8 :    42.3042121116936     
           9 :   -39.1742538047282     
          10 :    34.9554176924303     
          11 :   -31.3088853981794     
          12 :    29.3269681223520     
          13 :   -28.6267459535171     
          14 :    27.9323915198256     
          15 :   -26.3410379319144     
          16 :    24.0650637392817     
          17 :   -22.0818212965507     
          18 :    21.1421706553136     
          19 :   -21.0952365056742     
          20 :    21.0941682826208     
          21 :   -20.4022642558687     
          22 :    19.0170764920374     
          23 :   -17.5844245062569     
          24 :    16.7580271233884     
          25 :   -16.6263193725807     
          26 :    16.6973606330126     
          27 :   -16.3942146222698     
          28 :    15.5719015774704     
          29 :   -14.5982009219929     
          30 :    13.9688719799692     
          31 :   -17.3409143405437     
          32 :   -12.4136739599467     

     Forces acting on atoms (Ry/au):


     negative rho (up, down):  1.756E-04 0.000E+00
     atom    1 type  1   force =     0.00006139   -0.00006356    0.00208215
     atom    2 type  1   force =    -0.00006367   -0.00030198    0.00182066
     atom    3 type  1   force =    -0.00031900    0.00014605    0.00252044
     atom    4 type  1   force =     0.00032745    0.00025861    0.00230750
     atom    5 type  1   force =    -0.00036608    0.00082123    0.00324461
     atom    6 type  1   force =     0.00019036    0.00167861    0.00279132
     atom    7 type  1   force =     0.00057565   -0.00167836   -0.00340646
     atom    8 type  1   force =    -0.00067599   -0.00134966   -0.00216150
     atom    9 type  1   force =     0.01457171   -0.00052021    0.01106554
     atom   10 type  1   force =    -0.01186457   -0.00089101    0.01237541
     atom   11 type  1   force =    -0.00142758   -0.00183753   -0.00779503
     atom   12 type  1   force =    -0.00109788    0.00238660   -0.00717338
     atom   13 type  2   force =     0.05342820    0.00118930    0.14991083
     atom   14 type  3   force =    -0.07872496    0.00005301   -0.07134610
     atom   15 type  3   force =     0.01269359   -0.04241503   -0.04746760
     atom   16 type  3   force =     0.01269137    0.04252395   -0.04876840

     Total force =     0.214319     Total SCF correction =     0.003357


     entering subroutine stress ...


     negative rho (up, down):  1.756E-04 0.000E+00
          total   stress  (Ry/bohr**3)                   (kbar)     P=   -3.51
  -0.00001373   0.00000018  -0.00001021         -2.02      0.03     -1.50
   0.00000018  -0.00000256   0.00000116          0.03     -0.38      0.17
  -0.00001021   0.00000116  -0.00005526         -1.50      0.17     -8.13


     BFGS Geometry Optimization

     number of scf cycles    =   1
     number of bfgs steps    =   0

     energy   new            =   -1152.8854686774 Ry

     new trust radius        =       0.1591516396 bohr
     new conv_thr            =       0.0000099958 Ry


ATOMIC_POSITIONS (crystal)
Sc1      0.166666667   0.166666667   0.395942884    0   0   0
Sc1      0.666666667   0.166666667   0.395942884    0   0   0
Sc1      0.166666667   0.666666667   0.395942884    0   0   0
Sc1      0.666666667   0.666666667   0.395942884    0   0   0
Sc1      0.833333333   0.333333333   0.500000000    0   0   0
Sc1      0.333333333   0.333333333   0.500000000    0   0   0
Sc1      0.833333333   0.833333333   0.500000000    0   0   0
Sc1      0.333333333   0.833333333   0.500000000    0   0   0
Sc1      0.001222523  -0.000049378   0.604288965
Sc1      0.499066988  -0.000084575   0.604316410
Sc1     -0.000030142   0.499825582   0.603893791
Sc1      0.499796484   0.500226535   0.603906816
C1       0.254335500   0.000112888   0.680249569
H1       0.412847392   0.000005032   0.700558108
H1       0.103377491   0.155525324   0.701058419
H1       0.258897464   0.844485014   0.701031165



     Writing output data file calc.save
     Check: negative starting charge=   -0.000255
     NEW-OLD atomic charge density approx. for the potential
     Check: negative starting charge=   -0.000256

     negative rho (up, down):  1.322E-04 0.000E+00
 
     Adding external electric field

     Computed dipole along edir(3) : 
        Dipole                0.1626 Ry au,          0.4134 Debye
        Dipole field          0.0003 Ry au
 
        Potential amp.       -0.0311 Ry
        Total length         46.5341 bohr
 

     total cpu time spent up to now is      564.9 secs

     per-process dynamical memory:    88.7 Mb

     Self-consistent Calculation

     iteration #  1     ecut=    36.75 Ry     beta=0.30
     Davidson diagonalization with overlap
     ethr =  1.00E-06,  avg # of iterations = 13.9

     negative rho (up, down):  1.347E-04 0.000E+00
 
     Adding external electric field

     Computed dipole along edir(3) : 
        Dipole               -0.4884 Ry au,         -1.2413 Debye
        Dipole field         -0.0010 Ry au
 
        Potential amp.        0.0934 Ry
        Total length         46.5341 bohr
 

     total cpu time spent up to now is      598.9 secs

     total energy              =   -1152.89995774 Ry
     Harris-Foulkes estimate   =   -1152.92185191 Ry
     estimated scf accuracy    <       0.04889921 Ry

     iteration #  2     ecut=    36.75 Ry     beta=0.30
     Davidson diagonalization with overlap
     ethr =  3.52E-05,  avg # of iterations =  9.8

     negative rho (up, down):  2.674E-04 0.000E+00
 
     Adding external electric field

     Computed dipole along edir(3) : 
        Dipole                0.0782 Ry au,          0.1987 Debye
        Dipole field          0.0002 Ry au
 
        Potential amp.       -0.0149 Ry
        Total length         46.5341 bohr
 

     total cpu time spent up to now is      628.0 secs

     total energy              =   -1152.66316288 Ry
     Harris-Foulkes estimate   =   -1153.17929767 Ry
     estimated scf accuracy    <      28.03881072 Ry

     iteration #  3     ecut=    36.75 Ry     beta=0.30
     Davidson diagonalization with overlap
     ethr =  3.52E-05,  avg # of iterations =  9.2

     negative rho (up, down):  2.312E-04 0.000E+00
 
     Adding external electric field

     Computed dipole along edir(3) : 
        Dipole                0.1383 Ry au,          0.3515 Debye
        Dipole field          0.0003 Ry au
 
        Potential amp.       -0.0264 Ry
        Total length         46.5341 bohr
 

     total cpu time spent up to now is      657.6 secs

     total energy              =   -1152.91488493 Ry
     Harris-Foulkes estimate   =   -1152.91733977 Ry
     estimated scf accuracy    <       0.01239825 Ry

     iteration #  4     ecut=    36.75 Ry     beta=0.30
     Davidson diagonalization with overlap
     ethr =  8.92E-06,  avg # of iterations =  8.6

     negative rho (up, down):  2.235E-04 0.000E+00
 
     Adding external electric field

     Computed dipole along edir(3) : 
        Dipole                0.1232 Ry au,          0.3132 Debye
        Dipole field          0.0003 Ry au
 
        Potential amp.       -0.0236 Ry
        Total length         46.5341 bohr
 

     total cpu time spent up to now is      684.4 secs

     total energy              =   -1152.91429767 Ry
     Harris-Foulkes estimate   =   -1152.91775924 Ry
     estimated scf accuracy    <       0.03234089 Ry

     iteration #  5     ecut=    36.75 Ry     beta=0.30
     Davidson diagonalization with overlap
     ethr =  8.92E-06,  avg # of iterations =  8.3

     negative rho (up, down):  2.156E-04 0.000E+00
 
     Adding external electric field

     Computed dipole along edir(3) : 
        Dipole                0.1240 Ry au,          0.3151 Debye
        Dipole field          0.0003 Ry au
 
        Potential amp.       -0.0237 Ry
        Total length         46.5341 bohr
 

     total cpu time spent up to now is      710.9 secs

     total energy              =   -1152.91540419 Ry
     Harris-Foulkes estimate   =   -1152.91716246 Ry
     estimated scf accuracy    <       0.01858958 Ry

     iteration #  6     ecut=    36.75 Ry     beta=0.30
     Davidson diagonalization with overlap
     ethr =  8.92E-06,  avg # of iterations =  4.7

     negative rho (up, down):  1.970E-04 0.000E+00
 
     Adding external electric field

     Computed dipole along edir(3) : 
        Dipole                0.1138 Ry au,          0.2893 Debye
        Dipole field          0.0002 Ry au
 
        Potential amp.       -0.0218 Ry
        Total length         46.5341 bohr
 

     total cpu time spent up to now is      733.6 secs

     total energy              =   -1152.91603396 Ry
     Harris-Foulkes estimate   =   -1152.91618548 Ry
     estimated scf accuracy    <       0.00105824 Ry

     iteration #  7     ecut=    36.75 Ry     beta=0.30
     Davidson diagonalization with overlap
     ethr =  7.61E-07,  avg # of iterations =  8.3

     negative rho (up, down):  1.846E-04 0.000E+00
 
     Adding external electric field

     Computed dipole along edir(3) : 
        Dipole                0.1127 Ry au,          0.2864 Debye
        Dipole field          0.0002 Ry au
 
        Potential amp.       -0.0215 Ry
        Total length         46.5341 bohr
 

     total cpu time spent up to now is      761.6 secs

     total energy              =   -1152.91631666 Ry
     Harris-Foulkes estimate   =   -1152.91644112 Ry
     estimated scf accuracy    <       0.00126617 Ry

     iteration #  8     ecut=    36.75 Ry     beta=0.30
     Davidson diagonalization with overlap
     ethr =  7.61E-07,  avg # of iterations =  3.5

     negative rho (up, down):  1.790E-04 0.000E+00
 
     Adding external electric field

     Computed dipole along edir(3) : 
        Dipole                0.1172 Ry au,          0.2979 Debye
        Dipole field          0.0002 Ry au
 
        Potential amp.       -0.0224 Ry
        Total length         46.5341 bohr
 

     total cpu time spent up to now is      783.4 secs

     total energy              =   -1152.91632824 Ry
     Harris-Foulkes estimate   =   -1152.91636048 Ry
     estimated scf accuracy    <       0.00032912 Ry

     iteration #  9     ecut=    36.75 Ry     beta=0.30
     Davidson diagonalization with overlap
     ethr =  2.37E-07,  avg # of iterations =  7.5

     negative rho (up, down):  1.795E-04 0.000E+00
 
     Adding external electric field

     Computed dipole along edir(3) : 
        Dipole                0.1196 Ry au,          0.3040 Debye
        Dipole field          0.0002 Ry au
 
        Potential amp.       -0.0229 Ry
        Total length         46.5341 bohr
 

     total cpu time spent up to now is      810.3 secs

     total energy              =   -1152.91638167 Ry
     Harris-Foulkes estimate   =   -1152.91639288 Ry
     estimated scf accuracy    <       0.00015414 Ry

     iteration # 10     ecut=    36.75 Ry     beta=0.30
     Davidson diagonalization with overlap
     ethr =  1.11E-07,  avg # of iterations =  3.0

     negative rho (up, down):  1.795E-04 0.000E+00
 
     Adding external electric field

     Computed dipole along edir(3) : 
        Dipole                0.1201 Ry au,          0.3052 Debye
        Dipole field          0.0002 Ry au
 
        Potential amp.       -0.0230 Ry
        Total length         46.5341 bohr
 

     total cpu time spent up to now is      832.3 secs

     total energy              =   -1152.91637447 Ry
     Harris-Foulkes estimate   =   -1152.91638565 Ry
     estimated scf accuracy    <       0.00007490 Ry

     iteration # 11     ecut=    36.75 Ry     beta=0.30
     Davidson diagonalization with overlap
     ethr =  5.39E-08,  avg # of iterations =  6.8

     negative rho (up, down):  1.802E-04 0.000E+00
 
     Adding external electric field

     Computed dipole along edir(3) : 
        Dipole                0.1196 Ry au,          0.3039 Debye
        Dipole field          0.0002 Ry au
 
        Potential amp.       -0.0229 Ry
        Total length         46.5341 bohr
 

     total cpu time spent up to now is      859.1 secs

     total energy              =   -1152.91638719 Ry
     Harris-Foulkes estimate   =   -1152.91639156 Ry
     estimated scf accuracy    <       0.00004301 Ry

     iteration # 12     ecut=    36.75 Ry     beta=0.30
     Davidson diagonalization with overlap
     ethr =  3.09E-08,  avg # of iterations =  2.6

     negative rho (up, down):  1.809E-04 0.000E+00
 
     Adding external electric field

     Computed dipole along edir(3) : 
        Dipole                0.1186 Ry au,          0.3016 Debye
        Dipole field          0.0002 Ry au
 
        Potential amp.       -0.0227 Ry
        Total length         46.5341 bohr
 

     total cpu time spent up to now is      881.0 secs

     total energy              =   -1152.91638440 Ry
     Harris-Foulkes estimate   =   -1152.91638864 Ry
     estimated scf accuracy    <       0.00002172 Ry

     iteration # 13     ecut=    36.75 Ry     beta=0.30
     Davidson diagonalization with overlap
     ethr =  1.56E-08,  avg # of iterations =  6.0

     negative rho (up, down):  1.822E-04 0.000E+00

     negative rho (up, down):  1.822E-04 0.000E+00

     negative rho (up, down):  1.822E-04 0.000E+00

     negative rho (up, down):  1.822E-04 0.000E+00

     negative rho (up, down):  1.822E-04 0.000E+00

     negative rho (up, down):  1.822E-04 0.000E+00

     negative rho (up, down):  1.822E-04 0.000E+00

     negative rho (up, down):  1.822E-04 0.000E+00

     negative rho (up, down):  1.822E-04 0.000E+00

     negative rho (up, down):  1.822E-04 0.000E+00

     negative rho (up, down):  1.822E-04 0.000E+00

     negative rho (up, down):  1.822E-04 0.000E+00

     negative rho (up, down):  1.822E-04 0.000E+00

     negative rho (up, down):  1.822E-04 0.000E+00

     negative rho (up, down):  1.822E-04 0.000E+00

     negative rho (up, down):  1.822E-04 0.000E+00

     negative rho (up, down):  1.822E-04 0.000E+00

     negative rho (up, down):  1.822E-04 0.000E+00

     negative rho (up, down):  1.822E-04 0.000E+00

     negative rho (up, down):  1.822E-04 0.000E+00

     negative rho (up, down):  1.822E-04 0.000E+00

     negative rho (up, down):  1.822E-04 0.000E+00

     negative rho (up, down):  1.822E-04 0.000E+00

     negative rho (up, down):  1.822E-04 0.000E+00

     negative rho (up, down):  1.822E-04 0.000E+00

     negative rho (up, down):  1.822E-04 0.000E+00

     negative rho (up, down):  1.822E-04 0.000E+00

     negative rho (up, down):  1.822E-04 0.000E+00

     negative rho (up, down):  1.822E-04 0.000E+00

     negative rho (up, down):  1.822E-04 0.000E+00

     negative rho (up, down):  1.822E-04 0.000E+00

     negative rho (up, down):  1.822E-04 0.000E+00

     negative rho (up, down):  1.822E-04 0.000E+00

     negative rho (up, down):  1.822E-04 0.000E+00

     negative rho (up, down):  1.822E-04 0.000E+00
 
     Adding external electric field

     Computed dipole along edir(3) : 
        Dipole                0.1215 Ry au,          0.3089 Debye
        Dipole field          0.0002 Ry au
 
        Potential amp.       -0.0232 Ry
        Total length         46.5341 bohr
 

     total cpu time spent up to now is      970.0 secs

     End of self-consistent calculation

          k = 0.0000 0.0000 0.0000 ( 23031 PWs)   bands (ev):

   -49.2089 -49.1821 -49.1711 -49.1380 -49.1361 -49.1344 -49.1185 -49.0715
   -48.7306 -48.6918 -48.6854 -48.6750 -27.9268 -27.9142 -27.8985 -27.8955
   -27.8925 -27.8853 -27.8718 -27.8642 -27.8526 -27.8091 -27.8051 -27.8030
   -27.7836 -27.7329 -27.6445 -27.6361 -27.6352 -27.6335 -27.6165 -27.6119
   -27.5566 -27.5561 -27.5537 -27.5079 -27.4527 -27.4512 -27.4484 -27.2953
   -27.2770 -27.2672 -27.2505 -27.2188 -27.2108 -27.2077 -27.1362 -27.1356
   -12.7063  -5.5552  -5.5371  -4.0380  -3.2102  -2.3256  -1.4595  -0.7306
    -0.7190  -0.6908  -0.6090  -0.6071  -0.5458  -0.3360  -0.3218  -0.1968
     0.1934   0.2003   0.2267   0.4462   0.4962   0.5858   0.8581   0.9690
     1.2558   1.2672   1.3905   1.3930   1.4089   1.6192   1.8410

          k = 0.0000 0.0299 0.0000 ( 23008 PWs)   bands (ev):

   -49.2078 -49.1791 -49.1709 -49.1395 -49.1375 -49.1345 -49.1197 -49.0718
   -48.7278 -48.6918 -48.6877 -48.6754 -27.9210 -27.8999 -27.8864 -27.8830
   -27.8745 -27.8719 -27.8619 -27.8575 -27.8462 -27.8098 -27.8045 -27.8030
   -27.7858 -27.7333 -27.6593 -27.6494 -27.6465 -27.6301 -27.6266 -27.6115
   -27.5796 -27.5754 -27.5619 -27.5116 -27.4414 -27.4378 -27.4317 -27.2931
   -27.2765 -27.2676 -27.2501 -27.2303 -27.2201 -27.2067 -27.1584 -27.1408
   -12.7054  -5.5696  -5.5400  -3.8852  -3.1073  -2.2636  -1.3477  -1.0610
    -0.7425  -0.7414  -0.6157  -0.5278  -0.5150  -0.1900  -0.1696  -0.0204
     0.2442   0.2642   0.2929   0.5048   0.5586   0.6507   0.8702   0.9743
     1.2179   1.2464   1.2698   1.3239   1.3415   1.5593   1.7518

          k = 0.0000 0.0598 0.0000 ( 22962 PWs)   bands (ev):

   -49.2054 -49.1708 -49.1702 -49.1477 -49.1377 -49.1346 -49.1221 -49.0724
   -48.7204 -48.6949 -48.6915 -48.6760 -27.9140 -27.8760 -27.8583 -27.8523
   -27.8472 -27.8463 -27.8305 -27.8223 -27.8108 -27.8085 -27.8028 -27.8013
   -27.7865 -27.7346 -27.6988 -27.6815 -27.6779 -27.6615 -27.6429 -27.6277
   -27.6158 -27.6036 -27.5764 -27.5200 -27.4148 -27.4098 -27.3772 -27.2889
   -27.2764 -27.2687 -27.2600 -27.2503 -27.2485 -27.2182 -27.1932 -27.1547
   -12.7034  -5.5965  -5.5456  -3.4696  -2.8860  -2.0772  -1.7571  -1.0467
    -0.8088  -0.7544  -0.7488  -0.3378  -0.3284  -0.0424   0.2000   0.2451
     0.3930   0.4229   0.4704   0.6429   0.6884   0.7849   0.8191   0.9797
     1.0784   1.1097   1.1150   1.1409   1.2340   1.3744   1.4536

          k = 0.0000-0.0897 0.0000 ( 23032 PWs)   bands (ev):

   -49.2042 -49.1699 -49.1608 -49.1577 -49.1377 -49.1346 -49.1234 -49.0727
   -48.7142 -48.7008 -48.6916 -48.6761 -27.9110 -27.8714 -27.8395 -27.8354
   -27.8315 -27.8299 -27.8279 -27.8050 -27.8034 -27.7995 -27.7757 -27.7664
   -27.7408 -27.7319 -27.7298 -27.7228 -27.7039 -27.7029 -27.6985 -27.6577
   -27.5992 -27.5963 -27.5956 -27.5249 -27.3969 -27.3898 -27.3064 -27.2929
   -27.2867 -27.2852 -27.2718 -27.2698 -27.2672 -27.2491 -27.1766 -27.1714
   -12.7024  -5.6092  -5.5484  -3.1112  -2.6637  -2.4325  -1.6697  -1.3533
    -0.7536  -0.7429  -0.4580  -0.3125  -0.1950  -0.1911   0.4968   0.5098
     0.5242   0.5385   0.5860   0.6267   0.7950   0.8281   0.8376   0.8698
     0.9165   0.9371   1.0150   1.1677   1.1983   1.2480   1.2610

          k = 0.0259-0.0149 0.0000 ( 23008 PWs)   bands (ev):

   -49.2073 -49.1791 -49.1720 -49.1401 -49.1361 -49.1353 -49.1186 -49.0721
   -48.7277 -48.6933 -48.6858 -48.6759 -27.9220 -27.9052 -27.8847 -27.8808
   -27.8768 -27.8709 -27.8598 -27.8589 -27.8466 -27.8081 -27.8068 -27.8029
   -27.7845 -27.7340 -27.6487 -27.6483 -27.6464 -27.6296 -27.6290 -27.6174
   -27.5800 -27.5641 -27.5614 -27.5239 -27.4403 -27.4398 -27.4309 -27.2928
   -27.2773 -27.2667 -27.2503 -27.2287 -27.2222 -27.2062 -27.1581 -27.1410
   -12.7053  -5.5637  -5.5457  -3.8827  -3.1029  -2.2549  -1.3258  -1.1047
    -0.7452  -0.7231  -0.6826  -0.5283  -0.4730  -0.1778  -0.1583  -0.0373
     0.2390   0.2620   0.2924   0.5069   0.5455   0.6394   0.8700   0.9764
     1.1580   1.2497   1.2971   1.3243   1.3366   1.5782   1.7612

          k = 0.0259 0.0149 0.0000 ( 23008 PWs)   bands (ev):

   -49.2072 -49.1791 -49.1722 -49.1399 -49.1367 -49.1349 -49.1185 -49.0722
   -48.7277 -48.6935 -48.6855 -48.6761 -27.9215 -27.9049 -27.8850 -27.8807
   -27.8762 -27.8700 -27.8639 -27.8577 -27.8461 -27.8083 -27.8050 -27.8043
   -27.7843 -27.7340 -27.6495 -27.6485 -27.6476 -27.6304 -27.6295 -27.6133
   -27.5800 -27.5637 -27.5614 -27.5250 -27.4411 -27.4389 -27.4310 -27.2927
   -27.2774 -27.2667 -27.2503 -27.2278 -27.2230 -27.2062 -27.1579 -27.1413
   -12.7053  -5.5624  -5.5471  -3.8827  -3.1029  -2.2549  -1.3259  -1.1041
    -0.7452  -0.7249  -0.6814  -0.5301  -0.4704  -0.1790  -0.1583  -0.0361
     0.2404   0.2616   0.2917   0.5059   0.5430   0.6408   0.8700   0.9758
     1.1590   1.2493   1.2965   1.3246   1.3372   1.5833   1.7623

          k = 0.0259 0.0448 0.0000 ( 23004 PWs)   bands (ev):

   -49.2053 -49.1734 -49.1720 -49.1423 -49.1419 -49.1331 -49.1201 -49.0727
   -48.7225 -48.6949 -48.6892 -48.6761 -27.9152 -27.8836 -27.8684 -27.8566
   -27.8515 -27.8472 -27.8436 -27.8399 -27.8238 -27.8103 -27.8077 -27.8002
   -27.7865 -27.7348 -27.6891 -27.6860 -27.6370 -27.6364 -27.6338 -27.6222
   -27.6213 -27.5994 -27.5729 -27.5285 -27.4258 -27.4050 -27.4040 -27.2896
   -27.2771 -27.2680 -27.2632 -27.2498 -27.2157 -27.2113 -27.1978 -27.1518
   -12.7038  -5.5846  -5.5495  -3.5950  -2.9385  -2.1151  -1.3557  -1.3389
    -1.0528  -0.7268  -0.6206  -0.3629  -0.2438  -0.0201   0.0131   0.1449
     0.3303   0.3903   0.4241   0.5995   0.6554   0.7504   0.8338   0.9760
     1.1137   1.1299   1.1422   1.2383   1.2905   1.3997   1.4927

          k = 0.0259-0.1046 0.0000 ( 23012 PWs)   bands (ev):

   -49.2036 -49.1715 -49.1636 -49.1517 -49.1437 -49.1317 -49.1221 -49.0731
   -48.7147 -48.6985 -48.6939 -48.6757 -27.9105 -27.8739 -27.8382 -27.8363
   -27.8271 -27.8237 -27.8163 -27.8068 -27.8044 -27.7960 -27.7925 -27.7758
   -27.7709 -27.7440 -27.7358 -27.7245 -27.6932 -27.6833 -27.6548 -27.6419
   -27.6167 -27.6053 -27.5932 -27.5359 -27.3971 -27.3750 -27.3420 -27.3093
   -27.2863 -27.2760 -27.2693 -27.2636 -27.2493 -27.2309 -27.1939 -27.1712
   -12.7023  -5.6019  -5.5559  -3.1529  -2.7082  -2.1211  -1.7177  -1.4702
    -1.1262  -0.6846  -0.5338  -0.1642  -0.0650   0.0450   0.3047   0.3332
     0.4904   0.5440   0.6040   0.6831   0.7762   0.7963   0.8802   0.9346
     0.9608   1.0355   1.0775   1.0880   1.1880   1.2337   1.2552

          k = 0.0259-0.0747 0.0000 ( 23012 PWs)   bands (ev):

   -49.2037 -49.1712 -49.1636 -49.1518 -49.1436 -49.1317 -49.1223 -49.0730
   -48.7148 -48.6978 -48.6946 -48.6757 -27.9106 -27.8736 -27.8389 -27.8364
   -27.8285 -27.8235 -27.8168 -27.8072 -27.8042 -27.7972 -27.7907 -27.7738
   -27.7706 -27.7437 -27.7353 -27.7202 -27.6942 -27.6888 -27.6548 -27.6418
   -27.6167 -27.6048 -27.5932 -27.5354 -27.3970 -27.3751 -27.3420 -27.3093
   -27.2863 -27.2760 -27.2695 -27.2636 -27.2493 -27.2308 -27.1940 -27.1710
   -12.7023  -5.6023  -5.5554  -3.1529  -2.7082  -2.1211  -1.7176  -1.4702
    -1.1264  -0.6846  -0.5338  -0.1637  -0.0639   0.0432   0.3022   0.3371
     0.4899   0.5429   0.6026   0.6841   0.7749   0.7997   0.8847   0.9359
     0.9687   1.0202   1.0762   1.0910   1.1849   1.2329   1.2581

          k = 0.0259-0.0448 0.0000 ( 23004 PWs)   bands (ev):

   -49.2055 -49.1734 -49.1716 -49.1430 -49.1411 -49.1332 -49.1205 -49.0726
   -48.7225 -48.6942 -48.6900 -48.6760 -27.9156 -27.8837 -27.8696 -27.8607
   -27.8496 -27.8462 -27.8431 -27.8363 -27.8242 -27.8107 -27.8083 -27.7999
   -27.7867 -27.7351 -27.6892 -27.6807 -27.6392 -27.6368 -27.6362 -27.6251
   -27.6217 -27.5972 -27.5729 -27.5272 -27.4256 -27.4058 -27.4034 -27.2896
   -27.2770 -27.2681 -27.2635 -27.2498 -27.2147 -27.2119 -27.1980 -27.1516
   -12.7038  -5.5858  -5.5483  -3.5950  -2.9386  -2.1150  -1.3548  -1.3401
    -1.0528  -0.7282  -0.6192  -0.3614  -0.2452  -0.0206   0.0147   0.1435
     0.3292   0.3887   0.4251   0.6046   0.6525   0.7546   0.8339   0.9779
     1.1119   1.1303   1.1399   1.2391   1.2917   1.3919   1.4929

          k = 0.0518-0.0299 0.0000 ( 22962 PWs)   bands (ev):

   -49.2036 -49.1742 -49.1707 -49.1480 -49.1361 -49.1359 -49.1189 -49.0735
   -48.7199 -48.6991 -48.6864 -48.6774 -27.9137 -27.8863 -27.8640 -27.8526
   -27.8497 -27.8456 -27.8316 -27.8230 -27.8097 -27.8059 -27.8021 -27.8008
   -27.7850 -27.7367 -27.6804 -27.6798 -27.6717 -27.6584 -27.6433 -27.6163
   -27.6145 -27.5996 -27.5759 -27.5510 -27.4133 -27.4120 -27.3768 -27.2876
   -27.2790 -27.2667 -27.2574 -27.2518 -27.2497 -27.2179 -27.1932 -27.1551
   -12.7031  -5.5873  -5.5545  -3.4531  -2.8661  -2.0337  -1.8167  -1.0299
    -0.9263  -0.7519  -0.7243  -0.3330  -0.3043  -0.0696   0.2135   0.2458
     0.3823   0.4285   0.4615   0.6339   0.6728   0.7466   0.8114   0.9728
     1.0538   1.1121   1.1143   1.1537   1.2439   1.3552   1.4660

          k = 0.0518 0.0000 0.0000 ( 23004 PWs)   bands (ev):

   -49.2041 -49.1746 -49.1733 -49.1435 -49.1404 -49.1333 -49.1180 -49.0734
   -48.7222 -48.6973 -48.6860 -48.6772 -27.9156 -27.8933 -27.8674 -27.8613
   -27.8496 -27.8454 -27.8447 -27.8319 -27.8286 -27.8100 -27.8083 -27.8011
   -27.7850 -27.7364 -27.6895 -27.6717 -27.6378 -27.6355 -27.6333 -27.6223
   -27.6175 -27.5725 -27.5717 -27.5661 -27.4261 -27.4048 -27.4041 -27.2887
   -27.2793 -27.2657 -27.2631 -27.2501 -27.2174 -27.2098 -27.1978 -27.1521
   -12.7036  -5.5689  -5.5650  -3.5868  -2.9280  -2.1017  -1.3597  -1.3419
    -1.0626  -0.7238  -0.6869  -0.3671  -0.2174   0.0005   0.0226   0.1224
     0.3459   0.3492   0.4177   0.6065   0.6276   0.7176   0.8357   0.9819
     1.0319   1.1354   1.1366   1.2428   1.2948   1.4481   1.5864

          k = 0.0518 0.0299 0.0000 ( 22962 PWs)   bands (ev):

   -49.2032 -49.1749 -49.1707 -49.1479 -49.1370 -49.1351 -49.1183 -49.0737
   -48.7198 -48.6996 -48.6856 -48.6778 -27.9130 -27.8867 -27.8573 -27.8542
   -27.8478 -27.8468 -27.8393 -27.8235 -27.8095 -27.8054 -27.8032 -27.8002
   -27.7836 -27.7368 -27.6804 -27.6798 -27.6712 -27.6651 -27.6432 -27.6154
   -27.6056 -27.5972 -27.5760 -27.5566 -27.4135 -27.4118 -27.3767 -27.2874
   -27.2792 -27.2666 -27.2561 -27.2528 -27.2499 -27.2177 -27.1933 -27.1553
   -12.7031  -5.5853  -5.5566  -3.4531  -2.8660  -2.0336  -1.8166  -1.0301
    -0.9263  -0.7521  -0.7244  -0.3356  -0.2995  -0.0733   0.2116   0.2505
     0.3833   0.4292   0.4606   0.6330   0.6665   0.7484   0.8146   0.9752
     1.0524   1.1119   1.1145   1.1543   1.2411   1.3624   1.4634

          k = 0.0518-0.1196 0.0000 ( 23012 PWs)   bands (ev):

   -49.2019 -49.1748 -49.1636 -49.1519 -49.1434 -49.1318 -49.1195 -49.0740
   -48.7136 -48.7028 -48.6899 -48.6766 -27.9093 -27.8791 -27.8392 -27.8359
   -27.8275 -27.8249 -27.8228 -27.8116 -27.8066 -27.7976 -27.7928 -27.7755
   -27.7690 -27.7412 -27.7341 -27.7055 -27.6930 -27.6836 -27.6553 -27.6215
   -27.6162 -27.6058 -27.5930 -27.5604 -27.3970 -27.3760 -27.3415 -27.3083
   -27.2848 -27.2793 -27.2666 -27.2644 -27.2496 -27.2304 -27.1941 -27.1715
   -12.7021  -5.5945  -5.5631  -3.1274  -2.6970  -2.1281  -1.7487  -1.4472
    -1.1680  -0.6947  -0.5216  -0.1652  -0.0832   0.0410   0.3021   0.3464
     0.4791   0.5421   0.6115   0.6930   0.7433   0.8139   0.8590   0.9357
     0.9615   1.0537   1.0811   1.1193   1.1702   1.1943   1.2443

          k = 0.0518-0.0897 0.0000 ( 23028 PWs)   bands (ev):

   -49.2015 -49.1743 -49.1553 -49.1534 -49.1517 -49.1303 -49.1205 -49.0740
   -48.7089 -48.7038 -48.6946 -48.6756 -27.9078 -27.8767 -27.8287 -27.8247
   -27.8224 -27.8130 -27.8001 -27.7953 -27.7928 -27.7890 -27.7806 -27.7761
   -27.7554 -27.7541 -27.7518 -27.7389 -27.7302 -27.6970 -27.6284 -27.6232
   -27.6226 -27.6219 -27.6051 -27.5671 -27.3602 -27.3597 -27.3285 -27.3214
   -27.3186 -27.2831 -27.2783 -27.2666 -27.2494 -27.2007 -27.1996 -27.1991
   -12.7016  -5.5922  -5.5730  -2.9674  -2.2683  -2.2499  -2.1192  -1.3092
    -1.2904  -1.0466  -0.1547  -0.1191   0.0934   0.2110   0.2147   0.2391
     0.5589   0.6041   0.7107   0.7473   0.7492   0.8474   0.8748   0.9422
     0.9903   1.0025   1.0302   1.0531   1.1622   1.1807   1.1931

          k = 0.0518-0.0598 0.0000 ( 23012 PWs)   bands (ev):

   -49.2023 -49.1740 -49.1635 -49.1521 -49.1433 -49.1318 -49.1201 -49.0738
   -48.7139 -48.7020 -48.6906 -48.6764 -27.9099 -27.8782 -27.8456 -27.8365
   -27.8326 -27.8234 -27.8177 -27.8071 -27.8050 -27.7973 -27.7920 -27.7756
   -27.7691 -27.7414 -27.7351 -27.6974 -27.6934 -27.6886 -27.6554 -27.6271
   -27.6161 -27.6076 -27.5930 -27.5562 -27.3969 -27.3759 -27.3416 -27.3085
   -27.2850 -27.2793 -27.2668 -27.2642 -27.2496 -27.2306 -27.1940 -27.1713
   -12.7021  -5.5963  -5.5612  -3.1274  -2.6972  -2.1282  -1.7486  -1.4473
    -1.1682  -0.6942  -0.5218  -0.1651  -0.0810   0.0402   0.3021   0.3455
     0.4780   0.5394   0.6078   0.6981   0.7421   0.8210   0.8563   0.9392
     0.9585   1.0535   1.0883   1.1119   1.1725   1.1925   1.2427

          k =-0.0777 0.0448 0.0000 ( 23032 PWs)   bands (ev):

   -49.2015 -49.1756 -49.1595 -49.1592 -49.1361 -49.1360 -49.1190 -49.0742
   -48.7114 -48.7068 -48.6866 -48.6780 -27.9096 -27.8805 -27.8533 -27.8328
   -27.8325 -27.8310 -27.8298 -27.8142 -27.8022 -27.8010 -27.7908 -27.7455
   -27.7363 -27.7291 -27.7267 -27.7208 -27.7016 -27.7010 -27.6663 -27.6368
   -27.6053 -27.5957 -27.5955 -27.5630 -27.3950 -27.3927 -27.3030 -27.2976
   -27.2845 -27.2791 -27.2788 -27.2706 -27.2640 -27.2497 -27.1751 -27.1734
   -12.7020  -5.5997  -5.5577  -3.0445  -2.6434  -2.4727  -1.6450  -1.4496
    -0.7482  -0.7460  -0.4803  -0.3586  -0.2005  -0.1627   0.4973   0.5053
     0.5190   0.5430   0.5603   0.6242   0.7846   0.8254   0.8475   0.8714
     0.9000   0.9255   1.1101   1.1592   1.1801   1.2460   1.2564

          k =-0.0777 0.0747 0.0000 ( 23012 PWs)   bands (ev):

   -49.2014 -49.1758 -49.1635 -49.1522 -49.1432 -49.1318 -49.1188 -49.0742
   -48.7132 -48.7036 -48.6891 -48.6769 -27.9094 -27.8813 -27.8487 -27.8367
   -27.8327 -27.8240 -27.8181 -27.8071 -27.8048 -27.7969 -27.7887 -27.7749
   -27.7673 -27.7400 -27.7355 -27.7234 -27.6931 -27.6553 -27.6468 -27.6258
   -27.6163 -27.6081 -27.5927 -27.5737 -27.3972 -27.3757 -27.3415 -27.3089
   -27.2838 -27.2803 -27.2657 -27.2642 -27.2497 -27.2311 -27.1938 -27.1715
   -12.7020  -5.5898  -5.5677  -3.1115  -2.7049  -2.1240  -1.7402  -1.4655
    -1.1621  -0.6877  -0.5567  -0.1640  -0.0822   0.0550   0.3068   0.3364
     0.5076   0.5282   0.5608   0.6707   0.7329   0.7933   0.8613   0.9078
     0.9703   1.0533   1.0725   1.1159   1.1949   1.2220   1.3044

          k =-0.0777 0.1046 0.0000 ( 23012 PWs)   bands (ev):

   -49.2011 -49.1763 -49.1635 -49.1521 -49.1433 -49.1318 -49.1185 -49.0743
   -48.7130 -48.7041 -48.6886 -48.6770 -27.9089 -27.8820 -27.8438 -27.8369
   -27.8318 -27.8248 -27.8198 -27.8092 -27.8063 -27.7974 -27.7909 -27.7743
   -27.7652 -27.7420 -27.7351 -27.7209 -27.6930 -27.6567 -27.6547 -27.6184
   -27.6163 -27.5951 -27.5926 -27.5854 -27.3972 -27.3758 -27.3414 -27.3087
   -27.2837 -27.2804 -27.2656 -27.2643 -27.2497 -27.2308 -27.1940 -27.1717
   -12.7020  -5.5878  -5.5697  -3.1115  -2.7048  -2.1240  -1.7402  -1.4656
    -1.1622  -0.6873  -0.5572  -0.1639  -0.0842   0.0551   0.3083   0.3381
     0.5090   0.5290   0.5613   0.6680   0.7299   0.7970   0.8598   0.9098
     0.9690   1.0530   1.0719   1.1158   1.1951   1.2208   1.3072

          k =-0.0777-0.0448 0.0000 ( 23032 PWs)   bands (ev):

   -49.2009 -49.1766 -49.1602 -49.1584 -49.1370 -49.1352 -49.1182 -49.0744
   -48.7094 -48.7092 -48.6857 -48.6784 -27.9086 -27.8820 -27.8407 -27.8367
   -27.8329 -27.8307 -27.8283 -27.8249 -27.8026 -27.8012 -27.7913 -27.7423
   -27.7411 -27.7278 -27.7269 -27.7193 -27.7016 -27.7010 -27.6737 -27.6310
   -27.5967 -27.5948 -27.5891 -27.5765 -27.3945 -27.3934 -27.3009 -27.2999
   -27.2821 -27.2813 -27.2774 -27.2715 -27.2638 -27.2497 -27.1746 -27.1743
   -12.7020  -5.5977  -5.5597  -3.0445  -2.6429  -2.4730  -1.6451  -1.4494
    -0.7515  -0.7425  -0.4807  -0.3613  -0.1989  -0.1627   0.4996   0.5056
     0.5224   0.5475   0.5638   0.6115   0.7849   0.8233   0.8498   0.8769
     0.9030   0.9183   1.1349   1.1404   1.1823   1.2445   1.2497

     the Fermi energy is     0.7674 ev

!    total energy              =   -1152.91638217 Ry
     Harris-Foulkes estimate   =   -1152.91638769 Ry
     estimated scf accuracy    <       0.00000773 Ry

     The total energy is the sum of the following terms:

     one-electron contribution =   -7347.64784852 Ry
     hartree contribution      =    3659.12994186 Ry
     xc contribution           =    -172.42866252 Ry
     ewald contribution        =    2708.16534482 Ry
     electric field correction =       0.00003034 Ry
     smearing contrib. (-TS)   =      -0.13518814 Ry

     convergence has been achieved in  13 iterations
 
 BEEF-vdW xc energy contributions
           1 :   -146.011968846454     
           2 :    128.368176518256     
           3 :   -100.938560348284     
           4 :    74.3619214951380     
           5 :   -56.0259787102457     
           6 :    47.1544481847608     
           7 :   -44.1552519937696     
           8 :    42.3663381942520     
           9 :   -39.2236766251195     
          10 :    34.9970989368796     
          11 :   -31.3493233877147     
          12 :    29.3694862936149     
          13 :   -28.6703050490566     
          14 :    27.9739153753597     
          15 :   -26.3783845536962     
          16 :    24.0988658055443     
          17 :   -22.1150748545360     
          18 :    21.1767813367682     
          19 :   -21.1289492814399     
          20 :    21.1221010684306     
          21 :   -20.4215497180193     
          22 :    19.0296776462872     
          23 :   -17.5956455022648     
          24 :    16.7725770513304     
          25 :   -16.6454745674846     
          26 :    16.7189394109200     
          27 :   -16.4145167018170     
          28 :    15.5880665006272     
          29 :   -14.6095274242224     
          30 :    13.9761176037505     
          31 :   -17.3474968705552     
          32 :   -12.4166202408701     

     Forces acting on atoms (Ry/au):


     negative rho (up, down):  1.822E-04 0.000E+00
     atom    1 type  1   force =     0.00014844    0.00008059    0.00144000
     atom    2 type  1   force =    -0.00012048   -0.00016393    0.00113345
     atom    3 type  1   force =    -0.00031262   -0.00001925    0.00153469
     atom    4 type  1   force =     0.00033401    0.00017813    0.00108452
     atom    5 type  1   force =    -0.00017325    0.00077091    0.00302190
     atom    6 type  1   force =    -0.00003363    0.00168170    0.00243595
     atom    7 type  1   force =     0.00072190   -0.00152650   -0.00283622
     atom    8 type  1   force =    -0.00070024   -0.00120686   -0.00173360
     atom    9 type  1   force =     0.01638323   -0.00063567    0.01447655
     atom   10 type  1   force =    -0.01211372   -0.00082407    0.01227159
     atom   11 type  1   force =    -0.00082188   -0.00186178   -0.00680842
     atom   12 type  1   force =    -0.00076444    0.00200561   -0.00669069
     atom   13 type  2   force =     0.02483618    0.00095294    0.03800647
     atom   14 type  3   force =    -0.02464979    0.00009891   -0.02703979
     atom   15 type  3   force =    -0.00140488   -0.00684144   -0.01437648
     atom   16 type  3   force =    -0.00132883    0.00731071   -0.01591992

     Total force =     0.069580     Total SCF correction =     0.003821


     entering subroutine stress ...


     negative rho (up, down):  1.822E-04 0.000E+00
          total   stress  (Ry/bohr**3)                   (kbar)     P=   -0.29
   0.00000811   0.00000013  -0.00000568          1.19      0.02     -0.84
   0.00000013   0.00001844   0.00000110          0.02      2.71      0.16
  -0.00000568   0.00000110  -0.00003254         -0.84      0.16     -4.79


     number of scf cycles    =   2
     number of bfgs steps    =   1

     energy   old            =   -1152.8854686774 Ry
     energy   new            =   -1152.9163821718 Ry

     CASE: energy  _new < energy  _old

     new trust radius        =       0.0698412738 bohr
     new conv_thr            =       0.0000001000 Ry


ATOMIC_POSITIONS (crystal)
Sc1      0.166666667   0.166666667   0.395942884    0   0   0
Sc1      0.666666667   0.166666667   0.395942884    0   0   0
Sc1      0.166666667   0.666666667   0.395942884    0   0   0
Sc1      0.666666667   0.666666667   0.395942884    0   0   0
Sc1      0.833333333   0.333333333   0.500000000    0   0   0
Sc1      0.333333333   0.333333333   0.500000000    0   0   0
Sc1      0.833333333   0.833333333   0.500000000    0   0   0
Sc1      0.333333333   0.833333333   0.500000000    0   0   0
Sc1      0.003226349  -0.000137051   0.604729159
Sc1      0.497672007  -0.000198903   0.604691611
Sc1     -0.000001463   0.499567829   0.603684989
Sc1      0.499564441   0.500505465   0.603701958
C1       0.257324685   0.000245589   0.681488099
H1       0.409738894   0.000018587   0.699701157
H1       0.103775877   0.154467411   0.700596261
H1       0.258214913   0.845606795   0.700521991



     Writing output data file calc.save
     Check: negative starting charge=   -0.000256
     NEW-OLD atomic charge density approx. for the potential
     Check: negative starting charge=   -0.000257

     negative rho (up, down):  1.738E-04 0.000E+00
 
     Adding external electric field

     Computed dipole along edir(3) : 
        Dipole                0.1216 Ry au,          0.3090 Debye
        Dipole field          0.0002 Ry au
 
        Potential amp.       -0.0232 Ry
        Total length         46.5341 bohr
 

     total cpu time spent up to now is     1056.8 secs

     per-process dynamical memory:    88.7 Mb

     Self-consistent Calculation

     iteration #  1     ecut=    36.75 Ry     beta=0.30
     Davidson diagonalization with overlap
     ethr =  1.00E-06,  avg # of iterations =  9.6

     negative rho (up, down):  1.752E-04 0.000E+00
 
     Adding external electric field

     Computed dipole along edir(3) : 
        Dipole                0.0528 Ry au,          0.1343 Debye
        Dipole field          0.0001 Ry au
 
        Potential amp.       -0.0101 Ry
        Total length         46.5341 bohr
 

     total cpu time spent up to now is     1090.1 secs

     total energy              =   -1152.91841731 Ry
     Harris-Foulkes estimate   =   -1152.92051596 Ry
     estimated scf accuracy    <       0.00515098 Ry

     iteration #  2     ecut=    36.75 Ry     beta=0.30
     Davidson diagonalization with overlap
     ethr =  3.71E-06,  avg # of iterations =  8.8

[...]

          k = 0.0259-0.0747 0.0000 ( 23012 PWs)   bands (ev):

   -49.1618 -49.1556 -49.1469 -49.1417 -49.1341 -49.1267 -49.0970 -49.0532
   -48.7172 -48.6782 -48.6754 -48.6481 -27.8707 -27.8386 -27.8314 -27.8235
   -27.8165 -27.8138 -27.8046 -27.7955 -27.7902 -27.7786 -27.7716 -27.7670
   -27.7499 -27.7423 -27.7312 -27.6988 -27.6887 -27.6757 -27.6508 -27.6134
   -27.6082 -27.5891 -27.5523 -27.5214 -27.3965 -27.3465 -27.3279 -27.2912
   -27.2892 -27.2529 -27.2512 -27.2441 -27.2297 -27.2135 -27.1883 -27.1408
   -13.0397  -6.2034  -6.0924  -3.1319  -2.7116  -2.1178  -1.7135  -1.4666
    -1.1164  -0.6773  -0.5277  -0.1599  -0.0586   0.0438   0.2852   0.3415
     0.4842   0.5343   0.5885   0.7008   0.7685   0.7994   0.8877   0.9321
     0.9740   1.0329   1.0823   1.1006   1.2099   1.2381   1.2774

          k = 0.0259-0.0448 0.0000 ( 23004 PWs)   bands (ev):

   -49.1707 -49.1600 -49.1407 -49.1381 -49.1304 -49.1277 -49.0974 -49.0521
   -48.7205 -48.6812 -48.6696 -48.6476 -27.8830 -27.8632 -27.8549 -27.8410
   -27.8390 -27.8345 -27.8166 -27.8105 -27.8059 -27.7999 -27.7948 -27.7891
   -27.7701 -27.7488 -27.6854 -27.6570 -27.6336 -27.6324 -27.6288 -27.6178
   -27.5726 -27.5690 -27.5661 -27.5053 -27.4224 -27.3905 -27.3759 -27.2929
   -27.2525 -27.2476 -27.2441 -27.2298 -27.2084 -27.2011 -27.1735 -27.1281
   -13.0411  -6.2000  -6.0765  -3.5760  -2.9268  -2.1311  -1.3491  -1.3362
    -1.0430  -0.7208  -0.6254  -0.3579  -0.2392  -0.0137   0.0200   0.1416
     0.3409   0.3957   0.4319   0.6161   0.6617   0.8023   0.8327   0.9682
     1.1112   1.1360   1.1435   1.2666   1.3001   1.4247   1.5079

          k = 0.0518-0.0299 0.0000 ( 22962 PWs)   bands (ev):

   -49.1680 -49.1598 -49.1460 -49.1332 -49.1300 -49.1283 -49.0999 -49.0519
   -48.7191 -48.6832 -48.6680 -48.6485 -27.8833 -27.8538 -27.8492 -27.8448
   -27.8337 -27.8195 -27.8114 -27.8079 -27.8004 -27.7982 -27.7921 -27.7782
   -27.7680 -27.7440 -27.6775 -27.6756 -27.6531 -27.6394 -27.6171 -27.6113
   -27.5950 -27.5788 -27.5720 -27.5171 -27.4102 -27.3899 -27.3574 -27.2920
   -27.2538 -27.2494 -27.2453 -27.2341 -27.2291 -27.1917 -27.1799 -27.1349
   -13.0404  -6.2122  -6.0688  -3.4324  -2.8539  -2.0456  -1.8175  -1.0183
    -0.9288  -0.7465  -0.7224  -0.3272  -0.3066  -0.0640   0.2174   0.2530
     0.3934   0.4325   0.4731   0.6365   0.6764   0.7680   0.8214   0.9637
     1.0532   1.1190   1.1228   1.1596   1.2576   1.3928   1.4753

          k = 0.0518 0.0000 0.0000 ( 23004 PWs)   bands (ev):

   -49.1705 -49.1603 -49.1433 -49.1341 -49.1295 -49.1291 -49.0981 -49.0520
   -48.7200 -48.6846 -48.6652 -48.6490 -27.8868 -27.8638 -27.8551 -27.8421
   -27.8393 -27.8350 -27.8170 -27.8122 -27.8041 -27.7984 -27.7944 -27.7907
   -27.7710 -27.7480 -27.6859 -27.6375 -27.6344 -27.6309 -27.6186 -27.6174
   -27.5899 -27.5686 -27.5484 -27.5307 -27.4141 -27.4012 -27.3739 -27.2926
   -27.2559 -27.2525 -27.2440 -27.2299 -27.1995 -27.1958 -27.1719 -27.1348
   -13.0408  -6.2126  -6.0619  -3.5680  -2.9126  -2.1240  -1.3519  -1.3386
    -1.0620  -0.7114  -0.6843  -0.3616  -0.2167   0.0139   0.0440   0.1009
     0.3532   0.3736   0.4213   0.6083   0.6366   0.7543   0.8412   0.9668
     1.0395   1.1383   1.1490   1.2568   1.3145   1.4587   1.5930

          k = 0.0518 0.0299 0.0000 ( 22962 PWs)   bands (ev):

   -49.1679 -49.1582 -49.1461 -49.1326 -49.1324 -49.1304 -49.0965 -49.0527
   -48.7186 -48.6860 -48.6643 -48.6500 -27.8810 -27.8527 -27.8488 -27.8451
   -27.8298 -27.8200 -27.8141 -27.8098 -27.8044 -27.7987 -27.7955 -27.7727
   -27.7640 -27.7497 -27.6767 -27.6760 -27.6636 -27.6392 -27.6166 -27.6115
   -27.5807 -27.5723 -27.5695 -27.5291 -27.4020 -27.3980 -27.3573 -27.2920
   -27.2539 -27.2508 -27.2426 -27.2364 -27.2299 -27.1903 -27.1764 -27.1377
   -13.0403  -6.2164  -6.0647  -3.4346  -2.8584  -2.0431  -1.8152  -1.0160
    -0.9299  -0.7481  -0.7218  -0.3278  -0.2950  -0.0751   0.2177   0.2542
     0.3806   0.4389   0.4650   0.6473   0.6736   0.7600   0.8270   0.9676
     1.0643   1.1206   1.1287   1.1646   1.2631   1.3977   1.4639

          k = 0.0518-0.1196 0.0000 ( 23012 PWs)   bands (ev):

   -49.1611 -49.1553 -49.1497 -49.1389 -49.1345 -49.1274 -49.0967 -49.0534
   -48.7164 -48.6856 -48.6671 -48.6499 -27.8726 -27.8386 -27.8312 -27.8233
   -27.8178 -27.8130 -27.8029 -27.8022 -27.7926 -27.7867 -27.7712 -27.7604
   -27.7570 -27.7321 -27.7302 -27.7101 -27.6890 -27.6514 -27.6369 -27.6124
   -27.5922 -27.5893 -27.5751 -27.5364 -27.3856 -27.3606 -27.3310 -27.2913
   -27.2860 -27.2541 -27.2516 -27.2427 -27.2302 -27.2092 -27.1775 -27.1511
   -13.0394  -6.2183  -6.0756  -3.1080  -2.6974  -2.1242  -1.7452  -1.4433
    -1.1684  -0.6777  -0.5217  -0.1665  -0.0952   0.0458   0.3099   0.3495
     0.4630   0.5442   0.6237   0.6772   0.7503   0.8022   0.8670   0.9244
     0.9749   1.0601   1.1094   1.1430   1.1936   1.2108   1.2523

          k = 0.0518-0.0897 0.0000 ( 23028 PWs)   bands (ev):

   -49.1552 -49.1548 -49.1509 -49.1452 -49.1332 -49.1259 -49.0985 -49.0533
   -48.7156 -48.6826 -48.6717 -48.6490 -27.8697 -27.8300 -27.8238 -27.8180
   -27.8133 -27.7946 -27.7906 -27.7867 -27.7849 -27.7769 -27.7658 -27.7521
   -27.7497 -27.7469 -27.7412 -27.7254 -27.7000 -27.6912 -27.6206 -27.6183
   -27.6173 -27.5984 -27.5607 -27.5500 -27.3578 -27.3477 -27.3099 -27.3037
   -27.2931 -27.2903 -27.2508 -27.2439 -27.2294 -27.1987 -27.1821 -27.1655
   -13.0389  -6.2161  -6.0841  -2.9481  -2.2633  -2.2429  -2.1263  -1.2948
    -1.2809  -1.0537  -0.1562  -0.0888   0.0698   0.2090   0.2148   0.2365
     0.5385   0.6291   0.6810   0.7211   0.7588   0.8209   0.8991   0.9505
     0.9848   0.9918   1.0510   1.0766   1.1468   1.2171   1.2363

          k = 0.0518-0.0598 0.0000 ( 23012 PWs)   bands (ev):

   -49.1612 -49.1573 -49.1495 -49.1392 -49.1299 -49.1273 -49.1001 -49.0526
   -48.7170 -48.6818 -48.6716 -48.6485 -27.8746 -27.8383 -27.8312 -27.8236
   -27.8201 -27.8136 -27.8036 -27.8012 -27.7921 -27.7860 -27.7733 -27.7673
   -27.7459 -27.7313 -27.7256 -27.6985 -27.6893 -27.6517 -27.6494 -27.6123
   -27.5987 -27.5891 -27.5819 -27.5259 -27.3903 -27.3566 -27.3300 -27.2911
   -27.2837 -27.2573 -27.2499 -27.2449 -27.2291 -27.2101 -27.1800 -27.1481
   -13.0394  -6.2139  -6.0800  -3.1018  -2.6969  -2.1267  -1.7479  -1.4432
    -1.1704  -0.6782  -0.5226  -0.1638  -0.0871   0.0402   0.3097   0.3466
     0.4696   0.5406   0.6071   0.7007   0.7390   0.8179   0.8614   0.9339
     0.9754   1.0503   1.1058   1.1205   1.1892   1.2137   1.2496

          k =-0.0777 0.0448 0.0000 ( 23032 PWs)   bands (ev):

   -49.1583 -49.1578 -49.1554 -49.1334 -49.1303 -49.1280 -49.1016 -49.0523
   -48.7168 -48.6836 -48.6696 -48.6490 -27.8770 -27.8366 -27.8320 -27.8285
   -27.8254 -27.8228 -27.8056 -27.7988 -27.7960 -27.7874 -27.7749 -27.7474
   -27.7257 -27.7240 -27.7069 -27.6984 -27.6960 -27.6842 -27.6420 -27.6172
   -27.5932 -27.5913 -27.5900 -27.5237 -27.3926 -27.3651 -27.3067 -27.2909
   -27.2835 -27.2573 -27.2485 -27.2449 -27.2382 -27.2281 -27.1693 -27.1459
   -13.0393  -6.2196  -6.0733  -3.0115  -2.6382  -2.4814  -1.6360  -1.4626
    -0.7439  -0.7410  -0.4656  -0.3611  -0.1962  -0.1761   0.4758   0.4910
     0.5285   0.5513   0.5847   0.6393   0.7778   0.8056   0.8389   0.8779
     0.9186   0.9553   1.0880   1.1564   1.1985   1.2727   1.3028

          k =-0.0777 0.0747 0.0000 ( 23012 PWs)   bands (ev):

   -49.1609 -49.1575 -49.1505 -49.1381 -49.1294 -49.1276 -49.1005 -49.0525
   -48.7167 -48.6841 -48.6689 -48.6492 -27.8762 -27.8387 -27.8296 -27.8257
   -27.8207 -27.8122 -27.8060 -27.8018 -27.7923 -27.7854 -27.7717 -27.7678
   -27.7504 -27.7343 -27.7284 -27.6893 -27.6803 -27.6515 -27.6409 -27.6125
   -27.5996 -27.5888 -27.5857 -27.5352 -27.3874 -27.3578 -27.3276 -27.3015
   -27.2908 -27.2509 -27.2463 -27.2371 -27.2284 -27.2125 -27.1795 -27.1512
   -13.0393  -6.2198  -6.0731  -3.0842  -2.7052  -2.1215  -1.7472  -1.4608
    -1.1573  -0.6778  -0.5603  -0.1620  -0.0710   0.0506   0.3127   0.3257
     0.5138   0.5433   0.5581   0.6697   0.7202   0.8005   0.8684   0.9091
     0.9692   1.0471   1.0880   1.1211   1.2072   1.2318   1.3253

          k =-0.0777 0.1046 0.0000 ( 23012 PWs)   bands (ev):

   -49.1608 -49.1563 -49.1507 -49.1380 -49.1325 -49.1277 -49.0981 -49.0530
   -48.7163 -48.6862 -48.6663 -48.6502 -27.8748 -27.8385 -27.8297 -27.8251
   -27.8185 -27.8120 -27.8080 -27.8020 -27.7924 -27.7854 -27.7701 -27.7686
   -27.7536 -27.7357 -27.7316 -27.6892 -27.6775 -27.6513 -27.6490 -27.6126
   -27.5903 -27.5888 -27.5712 -27.5490 -27.3826 -27.3629 -27.3297 -27.2981
   -27.2906 -27.2528 -27.2437 -27.2399 -27.2295 -27.2108 -27.1753 -27.1548
   -13.0392  -6.2225  -6.0704  -3.0882  -2.7063  -2.1181  -1.7465  -1.4617
    -1.1556  -0.6775  -0.5614  -0.1623  -0.0767   0.0526   0.3120   0.3391
     0.5050   0.5365   0.5704   0.6605   0.7134   0.8168   0.8719   0.9019
     0.9749   1.0520   1.0872   1.1250   1.2067   1.2283   1.3211

          k =-0.0777-0.0448 0.0000 ( 23032 PWs)   bands (ev):

   -49.1571 -49.1566 -49.1554 -49.1342 -49.1326 -49.1309 -49.0969 -49.0534
   -48.7159 -48.6876 -48.6642 -48.6511 -27.8741 -27.8355 -27.8324 -27.8281
   -27.8260 -27.8181 -27.8068 -27.7985 -27.7967 -27.7953 -27.7617 -27.7608
   -27.7249 -27.7244 -27.7112 -27.6978 -27.6966 -27.6943 -27.6408 -27.6052
   -27.5923 -27.5917 -27.5715 -27.5403 -27.3820 -27.3756 -27.3093 -27.2907
   -27.2817 -27.2554 -27.2504 -27.2421 -27.2411 -27.2278 -27.1575 -27.1571
   -13.0392  -6.2249  -6.0680  -3.0231  -2.6345  -2.4803  -1.6280  -1.4646
    -0.7480  -0.7377  -0.4712  -0.3654  -0.1935  -0.1669   0.4789   0.4977
     0.5283   0.5587   0.5713   0.6072   0.7927   0.8171   0.8561   0.8800
     0.9082   0.9521   1.1358   1.1645   1.1835   1.2559   1.3103

     the Fermi energy is     0.7733 ev

!    total energy              =   -1152.92651310 Ry
     Harris-Foulkes estimate   =   -1152.92651326 Ry
     estimated scf accuracy    <       0.00000005 Ry

     The total energy is the sum of the following terms:

     one-electron contribution =   -7375.44837720 Ry
     hartree contribution      =    3673.01988944 Ry
     xc contribution           =    -172.50864529 Ry
     ewald contribution        =    2722.14515375 Ry
     electric field correction =       0.00003267 Ry
     smearing contrib. (-TS)   =      -0.13456646 Ry

     convergence has been achieved in  10 iterations
 
 BEEF-vdW xc energy contributions
           1 :   -146.090352525180     
           2 :    128.463277778779     
           3 :   -101.042279777525     
           4 :    74.4485253506259     
           5 :   -56.0770353438155     
           6 :    47.1721138356323     
           7 :   -44.1546447126905     
           8 :    42.3597852176738     
           9 :   -39.2135707177484     
          10 :    34.9792075150136     
          11 :   -31.3185821504082     
          12 :    29.3251519810267     
          13 :   -28.6199952499467     
          14 :    27.9319059933910     
          15 :   -26.3557488390863     
          16 :    24.0931549185059     
          17 :   -22.1099739998887     
          18 :    21.1534623627075     
          19 :   -21.0800827531077     
          20 :    21.0564410738626     
          21 :   -20.3555204104916     
          22 :    18.9736056683184     
          23 :   -17.5457978026085     
          24 :    16.7152675996139     
          25 :   -16.5700609735115     
          26 :    16.6283036739015     
          27 :   -16.3226253955470     
          28 :    15.5061798370723     
          29 :   -14.5342186610359     
          30 :    13.8911817816237     
          31 :   -17.3528994241861     
          32 :   -12.4253326281546     

     Forces acting on atoms (Ry/au):


     negative rho (up, down):  1.908E-04 0.000E+00
     atom    1 type  1   force =    -0.00033902   -0.00046897    0.00163556
     atom    2 type  1   force =     0.00023490   -0.00128278    0.00182252
     atom    3 type  1   force =    -0.00074910    0.00111258    0.00136327
     atom    4 type  1   force =     0.00064830    0.00082103    0.00108544
     atom    5 type  1   force =     0.00251956   -0.00119494   -0.00201376
     atom    6 type  1   force =    -0.00088899   -0.00042176   -0.00283703
     atom    7 type  1   force =     0.00191242   -0.00037623   -0.00103723
     atom    8 type  1   force =     0.00081072   -0.00131740    0.00057744
     atom    9 type  1   force =    -0.00083629    0.00094789    0.00033622
     atom   10 type  1   force =    -0.00178241    0.00152812    0.00078643
     atom   11 type  1   force =     0.00033839   -0.00158629   -0.00013912
     atom   12 type  1   force =    -0.00022341   -0.00127872   -0.00039089
     atom   13 type  2   force =     0.00004281    0.00093903   -0.00118784
     atom   14 type  3   force =    -0.00007236    0.00094707   -0.00136752
     atom   15 type  3   force =    -0.00068381   -0.00024185    0.00025248
     atom   16 type  3   force =    -0.00093171    0.00187322    0.00111402

     Total force =     0.004858     Total SCF correction =     0.000594
     SCF correction compared to forces is large: reduce conv_thr to get better values


     entering subroutine stress ...


     negative rho (up, down):  1.908E-04 0.000E+00
          total   stress  (Ry/bohr**3)                   (kbar)     P=    1.55
   0.00002077  -0.00000172  -0.00000442          3.05     -0.25     -0.65
  -0.00000172   0.00002139   0.00000490         -0.25      3.15      0.72
  -0.00000442   0.00000490  -0.00001050         -0.65      0.72     -1.54


     bfgs converged in  26 scf cycles and  25 bfgs steps
     (criteria: energy <  1.0E+00, force <  1.9E-03)

     End of BFGS Geometry Optimization

     Final energy   =   -1152.9265130984 Ry
Begin final coordinates

ATOMIC_POSITIONS (crystal)
Sc1      0.166666667   0.166666667   0.395942884    0   0   0
Sc1      0.666666667   0.166666667   0.395942884    0   0   0
Sc1      0.166666667   0.666666667   0.395942884    0   0   0
Sc1      0.666666667   0.666666667   0.395942884    0   0   0
Sc1      0.833333333   0.333333333   0.500000000    0   0   0
Sc1      0.333333333   0.333333333   0.500000000    0   0   0
Sc1      0.833333333   0.833333333   0.500000000    0   0   0
Sc1      0.333333333   0.833333333   0.500000000    0   0   0
Sc1      0.019726534  -0.004356909   0.607771016
Sc1      0.502581208  -0.002912071   0.606007060
Sc1      0.006912609   0.497436214   0.601541972
Sc1      0.508307891   0.492981347   0.599054211
C1       0.243187243   0.018562319   0.678840387
H1       0.394186163   0.005121168   0.702060689
H1       0.080813406   0.169244580   0.696737968
H1       0.235514938   0.855057610   0.690010119
End final coordinates



     Writing output data file calc.save
 
     init_run     :     14.82s CPU     15.17s WALL (       1 calls)
     electrons    :  10083.00s CPU  10983.01s WALL (      26 calls)
     update_pot   :     90.22s CPU     94.39s WALL (      25 calls)
     forces       :    504.06s CPU    547.59s WALL (      26 calls)
     stress       :   1500.88s CPU   1583.92s WALL (      26 calls)

     Called by init_run:
     wfcinit      :      6.12s CPU      6.21s WALL (       1 calls)
     potinit      :      2.38s CPU      2.50s WALL (       1 calls)

     Called by electrons:
     c_bands      :   3886.33s CPU   4258.69s WALL (     326 calls)
     sum_band     :   1991.64s CPU   2123.46s WALL (     326 calls)
     v_of_rho     :    700.60s CPU    795.66s WALL (     349 calls)
     newd         :   1874.72s CPU   1907.80s WALL (     349 calls)
     mix_rho      :     24.97s CPU     25.74s WALL (     326 calls)
     vdW_energy   :    339.48s CPU    373.81s WALL (    1285 calls)
     vdW_ffts     :    855.13s CPU    881.90s WALL (    2622 calls)
     vdW_v        :    351.35s CPU    361.09s WALL (    1285 calls)

     Called by c_bands:
     init_us_2    :     27.47s CPU     27.63s WALL (    3525 calls)
     cegterg      :   3316.66s CPU   3417.20s WALL (    1630 calls)

     Called by *egterg:
     h_psi        :   2248.44s CPU   2311.13s WALL (   10238 calls)
     s_psi        :    209.92s CPU    210.31s WALL (   10238 calls)
     g_psi        :     13.31s CPU     13.26s WALL (    8603 calls)
     cdiaghg      :    275.60s CPU    277.45s WALL (   10093 calls)

     Called by h_psi:
     add_vuspsi   :    217.36s CPU    217.79s WALL (   10238 calls)

     General routines
     calbec       :    323.45s CPU    328.97s WALL (   12128 calls)
     fft          :   1350.47s CPU   1440.33s WALL (   77749 calls)
     ffts         :      1.51s CPU      1.61s WALL (     675 calls)
     fftw         :   1341.15s CPU   1406.81s WALL (  825144 calls)
     interpolate  :     15.35s CPU     16.12s WALL (     675 calls)
     davcio       :      0.00s CPU      0.03s WALL (       5 calls)
 
     Parallel routines
     fft_scatter  :   1644.87s CPU   1794.97s WALL (  903568 calls)
 
     PWSCF        :     3h25m CPU        3h43m WALL

 
   This run was terminated on:   3:43: 1  23Apr2018            

=------------------------------------------------------------------------------=
   JOB DONE.
=------------------------------------------------------------------------------=
Job  /afs/slac/g/suncat/bin/suncat-tsmpirun -x LD_LIBRARY_PATH -wdir /scratch/qe357399_h3MgT pw.x -npool 4 -in pw.inp

TID   HOST_NAME   COMMAND_LINE            STATUS            TERMINATION_TIME
===== ========== ================  =======================  ===================
00000 suncat0089 pw.x -npool 4 -i  Done                     04/23/2018 03:43:01
00001 suncat0089 pw.x -npool 4 -i  Done                     04/23/2018 03:43:01
00002 suncat0089 pw.x -npool 4 -i  Done                     04/23/2018 03:43:01
00003 suncat0089 pw.x -npool 4 -i  Done                     04/23/2018 03:43:01
00004 suncat0089 pw.x -npool 4 -i  Done                     04/23/2018 03:43:01
00005 suncat0089 pw.x -npool 4 -i  Done                     04/23/2018 03:43:01
00006 suncat0089 pw.x -npool 4 -i  Done                     04/23/2018 03:43:01
00007 suncat0089 pw.x -npool 4 -i  Done                     04/23/2018 03:43:01
00008 suncat0148 pw.x -npool 4 -i  Done                     04/23/2018 03:43:01
00009 suncat0148 pw.x -npool 4 -i  Done                     04/23/2018 03:43:01
00010 suncat0148 pw.x -npool 4 -i  Done                     04/23/2018 03:43:01
00011 suncat0148 pw.x -npool 4 -i  Done                     04/23/2018 03:43:01
00012 suncat0148 pw.x -npool 4 -i  Done                     04/23/2018 03:43:01
00013 suncat0148 pw.x -npool 4 -i  Done                     04/23/2018 03:43:01
00014 suncat0148 pw.x -npool 4 -i  Done                     04/23/2018 03:43:01
00015 suncat0148 pw.x -npool 4 -i  Done                     04/23/2018 03:43:01
00016 suncat0123 pw.x -npool 4 -i  Done                     04/23/2018 03:43:01
00017 suncat0123 pw.x -npool 4 -i  Done                     04/23/2018 03:43:01
00018 suncat0123 pw.x -npool 4 -i  Done                     04/23/2018 03:43:01
00019 suncat0123 pw.x -npool 4 -i  Done                     04/23/2018 03:43:01
00020 suncat0123 pw.x -npool 4 -i  Done                     04/23/2018 03:43:01
00021 suncat0123 pw.x -npool 4 -i  Done                     04/23/2018 03:43:01
00022 suncat0123 pw.x -npool 4 -i  Done                     04/23/2018 03:43:01
00023 suncat0123 pw.x -npool 4 -i  Done                     04/23/2018 03:43:01
00024 suncat0109 pw.x -npool 4 -i  Done                     04/23/2018 03:43:01
00025 suncat0109 pw.x -npool 4 -i  Done                     04/23/2018 03:43:01
00026 suncat0109 pw.x -npool 4 -i  Done                     04/23/2018 03:43:01
00027 suncat0109 pw.x -npool 4 -i  Done                     04/23/2018 03:43:01
00028 suncat0109 pw.x -npool 4 -i  Done                     04/23/2018 03:43:01
00029 suncat0109 pw.x -npool 4 -i  Done                     04/23/2018 03:43:01
00030 suncat0109 pw.x -npool 4 -i  Done                     04/23/2018 03:43:01
00031 suncat0109 pw.x -npool 4 -i  Done                     04/23/2018 03:43:01
