  python dir          : /u/if/mamunm/src/espresso
  espresso dir        : /nfs/slac/g/suncatfs/sw/espv18/espresso-dynpy-beef/bin
  pseudo dir          : /u/if/mamunm/psp/gbrv1.5pbe
  ase-espresso py git : GITVERSION



     Program PWSCF v.5.1rc2 (svn rev. 11289) starts on  2May2018 at 16:30: 5 

     This program is part of the open-source Quantum ESPRESSO suite
     for quantum simulation of materials; please cite
         "P. Giannozzi et al., J. Phys.:Condens. Matter 21 395502 (2009);
          URL http://www.quantum-espresso.org", 
     in publications or presentations arising from this work. More details at
     http://www.quantum-espresso.org/quote

     Parallel version (MPI), running on    32 processors
     K-points division:     npool     =       4
     R & G space division:  proc/nbgrp/npool/nimage =       8
     Reading input from pw.inp
     Message from routine read_cards :
     DEPRECATED: no units specified in CELL_PARAMETERS card

     Current dimensions of program PWSCF are:
     Max number of different atomic species (ntypx) = 10
     Max number of k-points (npk) =  40000
     Max angular momentum in pseudopotentials (lmaxx) =  3
     Presently stress not available with electric field


     **************************************************************************
     Initializing libbeef V0.1.1 with the BEEF-vdW functional.
     Citation: Wellendorff et al., PRB 85, 235149 (2012).
     **************************************************************************


     IMPORTANT: XC functional enforced from input :
     Exchange-correlation      = BEEF-VDW ( 1  4 27 13 2)
     Any further DFT definition will be discarded
     Please, verify this is what you really want


     Subspace diagonalization in iterative solution of the eigenvalue problem:
     a serial algorithm will be used

 
     Parallelization info
     --------------------
     sticks:   dense  smooth     PW     G-vecs:    dense   smooth      PW
     Min         339     133     39                63987    16111    2561
     Max         340     134     40                64016    16172    2582
     Sum        2713    1069    313               511963   129143   20533
 


     bravais-lattice index     =            0
     lattice parameter (alat)  =       1.8897  a.u.
     unit-cell volume          =    4301.6107 (a.u.)^3
     number of atoms/cell      =           13
     number of atomic types    =            2
     number of electrons       =       185.00
     number of Kohn-Sham states=          102
     kinetic-energy cutoff     =      36.7493  Ry
     charge density cutoff     =     367.4932  Ry
     convergence threshold     =      1.0E-05
     mixing beta               =       0.3000
     number of iterations used =           10  plain     mixing
     Exchange-correlation      = BEEF-VDW ( 1  4 27 13 2)
     nstep                     =           50


     celldm(1)=   1.889726  celldm(2)=   0.000000  celldm(3)=   0.000000
     celldm(4)=   0.000000  celldm(5)=   0.000000  celldm(6)=   0.000000

     crystal axes: (cart. coord. in units of alat)
               a(1) = (   5.483647   0.000000   0.000000 )  
               a(2) = (   2.741823   4.748977   0.000000 )  
               a(3) = (   0.000000   0.000000  24.477379 )  

     reciprocal axes: (cart. coord. in units 2 pi/alat)
               b(1) = (  0.182360 -0.105286  0.000000 )  
               b(2) = (  0.000000  0.210572  0.000000 )  
               b(3) = (  0.000000  0.000000  0.040854 )  


     PseudoPot. # 1 for Tc read from file:
     /u/if/mamunm/psp/gbrv1.5pbe/Tc.UPF
     MD5 check sum: 9eb49e5b028550b2339a02317eb7b844
     Pseudo is Ultrasoft + core correction, Zval = 15.0
     Generated by new atomic code, or converted to UPF format
     Using radial grid of  965 points,  6 beta functions with: 
                l(1) =   0
                l(2) =   0
                l(3) =   1
                l(4) =   1
                l(5) =   2
                l(6) =   2
     Q(r) pseudized with  8 coefficients,  rinner =    1.300   1.300   1.300
                                                       1.300   1.300

     PseudoPot. # 2 for N  read from file:
     /u/if/mamunm/psp/gbrv1.5pbe/N.UPF
     MD5 check sum: 95339753478d7afb44899504a8723017
     Pseudo is Ultrasoft + core correction, Zval =  5.0
     Generated by new atomic code, or converted to UPF format
     Using radial grid of  729 points,  4 beta functions with: 
                l(1) =   0
                l(2) =   0
                l(3) =   1
                l(4) =   1
     Q(r) pseudized with  8 coefficients,  rinner =    0.900   0.900   0.900


     vdW kernel table read from file vdW_kernel_table
     MD5 check sum: 095c7af220d748ca6e76c0b4c6cfb241

     atomic species   valence    mass     pseudopotential
        Tc1           15.00    97.90721     Tc( 1.00)
        N1             5.00    14.00700     N ( 1.00)

     No symmetry found



   Cartesian axes

     site n.     atom                  positions (alat units)
         1           Tc1 tau(   1) = (   1.3709117   0.7914962  10.0000000  )
         2           Tc1 tau(   2) = (   4.1127351   0.7914962  10.0000000  )
         3           Tc1 tau(   3) = (   2.7418234   3.1659850  10.0000000  )
         4           Tc1 tau(   4) = (   5.4836469   3.1659850  10.0000000  )
         5           Tc1 tau(   5) = (   5.4836469   1.5829925  12.2386895  )
         6           Tc1 tau(   6) = (   2.7418234   1.5829925  12.2386895  )
         7           Tc1 tau(   7) = (   6.8545586   3.9574812  12.2386895  )
         8           Tc1 tau(   8) = (   4.1127351   3.9574812  12.2386895  )
         9           Tc1 tau(   9) = (   0.0000000   0.0000000  14.4773789  )
        10           Tc1 tau(  10) = (   2.7418234   0.0000000  14.4773789  )
        11           Tc1 tau(  11) = (   1.3709117   2.3744887  14.4773789  )
        12           Tc1 tau(  12) = (   4.1127351   2.3744887  14.4773789  )
        13           N1  tau(  13) = (   0.0000000   0.0000000  16.3303789  )

     number of k points=    20  Fermi-Dirac smearing, width (Ry)=  0.0110
                       cart. coord. in units 2pi/alat
        k(    1) = (   0.0000000   0.0000000   0.0000000), wk =   0.0555556
        k(    2) = (   0.0000000   0.0350953   0.0000000), wk =   0.1111111
        k(    3) = (   0.0000000   0.0701905   0.0000000), wk =   0.1111111
        k(    4) = (   0.0000000  -0.1052858   0.0000000), wk =   0.0555556
        k(    5) = (   0.0303934  -0.0175476   0.0000000), wk =   0.1111111
        k(    6) = (   0.0303934   0.0175476   0.0000000), wk =   0.1111111
        k(    7) = (   0.0303934   0.0526429   0.0000000), wk =   0.1111111
        k(    8) = (   0.0303934  -0.1228335   0.0000000), wk =   0.1111111
        k(    9) = (   0.0303934  -0.0877382   0.0000000), wk =   0.1111111
        k(   10) = (   0.0303934  -0.0526429   0.0000000), wk =   0.1111111
        k(   11) = (   0.0607868  -0.0350953   0.0000000), wk =   0.1111111
        k(   12) = (   0.0607868   0.0000000   0.0000000), wk =   0.1111111
        k(   13) = (   0.0607868   0.0350953   0.0000000), wk =   0.1111111
        k(   14) = (   0.0607868  -0.1403811   0.0000000), wk =   0.1111111
        k(   15) = (   0.0607868  -0.1052858   0.0000000), wk =   0.1111111
        k(   16) = (   0.0607868  -0.0701905   0.0000000), wk =   0.1111111
        k(   17) = (  -0.0911802   0.0526429   0.0000000), wk =   0.0555556
        k(   18) = (  -0.0911802   0.0877382   0.0000000), wk =   0.1111111
        k(   19) = (  -0.0911802   0.1228335   0.0000000), wk =   0.1111111
        k(   20) = (  -0.0911802  -0.0526429   0.0000000), wk =   0.0555556

     Dense  grid:   511963 G-vectors     FFT dimensions: (  64,  64, 288)

     Smooth grid:   129143 G-vectors     FFT dimensions: (  40,  40, 180)

     Largest allocated arrays     est. size (Mb)     dimensions
        Kohn-Sham Wavefunctions         3.18 Mb     (    2045,  102)
        NL pseudopotentials             6.99 Mb     (    2045,  224)
        Each V/rho on FFT grid          2.25 Mb     (  147456)
        Each G-vector array             0.49 Mb     (   63995)
        G-vector shells                 0.13 Mb     (   17029)
     Largest temporary arrays     est. size (Mb)     dimensions
        Auxiliary wavefunctions        12.73 Mb     (    2045,  408)
        Each subspace H/S matrix        2.54 Mb     (     408,  408)
        Each <psi_i|beta_j> matrix      0.35 Mb     (     224,  102)
        Arrays for rho mixing          22.50 Mb     (  147456,   10)

     Check: negative/imaginary core charge=   -0.000022    0.000000

     Initial potential from superposition of free atoms
     Check: negative starting charge=   -1.504904

     starting charge  172.99966, renormalised to  185.00000

     negative rho (up, down):  1.609E+00 0.000E+00


     ************************************************************************
     *
     * You are using vdW-DF for exchange-correlation in this calculation.
     * Please cite the following three references that made this development
     * possible:
     *
     *   M. Dion, H. Rydberg, E. Schroder, D. C. Langreth, and
     *   B. I. Lundqvist, Phys. Rev. Lett. 92, 246401 (2004).
     *
     *   T. Thonhauser, V. R. Cooper, S. Li, A. Puzder, P. Hyldgaard, and
     *   D. C. Langreth, Phys. Rev. B 76, 125112 (2007).
     *
     *   G. Roman-Perez and J. M. Soler, Phys. Rev. Lett. 103, 096102 (2009).
     *
     *
     * If you are using vdW-DF2, please also cite:
     *
     *   K. Lee, E. D. Murray, L. Kong, B. I. Lundqvist, and
     *   D. C. Langreth, Phys. Rev. B 82, 081101(R) (2010).
     *
     *
     * If you are calculating the stress with vdW-DF, please also cite:
     *
     *   R. Sabatini, E. Kucukbenli, B. Kolb, T. Thonhauser, and
     *   S. de Gironcoli, J. Phys.: Condens. Matter 24, 424209 (2012).
     *
     ************************************************************************

     Carrying out vdW-DF run using the following parameters:

     Nqs =      20    Nr_points =    1024   r_max =   100.000
     q_mesh =
               0.00001000     0.04494208     0.09755937     0.15916263
               0.23128650     0.31572767     0.41458969     0.53033537
               0.66584808     0.82450364     1.01025438     1.22772762
               1.48234092     1.78043706     2.12944203     2.53805004
               3.01644009     3.57652955     4.23227104     5.00000000

     Gradients computed in reciprocal space

     ************************************************************************


 
     Adding external electric field

     Computed dipole along edir(3) : 
        Dipole               -2.6817 Ry au,         -6.8162 Debye
        Dipole field         -0.0078 Ry au
 
        Potential amp.        0.7066 Ry
        Total length         45.0992 bohr
 
     Starting wfc are  160 randomized atomic wfcs

     total cpu time spent up to now is       10.5 secs

     per-process dynamical memory:    74.2 Mb

     Self-consistent Calculation

     iteration #  1     ecut=    36.75 Ry     beta=0.30
     Davidson diagonalization with overlap
     ethr =  1.00E-02,  avg # of iterations =  6.8

     negative rho (up, down):  1.600E+00 0.000E+00
 
     Adding external electric field

     Computed dipole along edir(3) : 
        Dipole               52.9797 Ry au,        134.6611 Debye
        Dipole field          0.1548 Ry au
 
        Potential amp.      -13.9601 Ry
        Total length         45.0992 bohr
 

     total cpu time spent up to now is       29.3 secs

     total energy              =   -1970.51822632 Ry
     Harris-Foulkes estimate   =   -2123.32248666 Ry
     estimated scf accuracy    <     320.33622548 Ry

     iteration #  2     ecut=    36.75 Ry     beta=0.30
     Davidson diagonalization with overlap
     ethr =  1.00E-02,  avg # of iterations = 16.9

     negative rho (up, down):  1.573E+00 0.000E+00
 
     Adding external electric field

     Computed dipole along edir(3) : 
        Dipole                5.3023 Ry au,         13.4770 Debye
        Dipole field          0.0155 Ry au
 
        Potential amp.       -1.3971 Ry
        Total length         45.0992 bohr
 

     total cpu time spent up to now is       75.8 secs

     total energy              =   -1815.08766433 Ry
     Harris-Foulkes estimate   =   -2819.07222146 Ry
     estimated scf accuracy    <   18889.58886085 Ry

     iteration #  3     ecut=    36.75 Ry     beta=0.30
     Davidson diagonalization with overlap
     ethr =  1.00E-02,  avg # of iterations = 10.0

     negative rho (up, down):  1.559E+00 0.000E+00
 
     Adding external electric field

     Computed dipole along edir(3) : 
        Dipole                6.8320 Ry au,         17.3653 Debye
        Dipole field          0.0200 Ry au
 
        Potential amp.       -1.8002 Ry
        Total length         45.0992 bohr
 

     total cpu time spent up to now is      109.7 secs

     total energy              =   -2047.91443049 Ry
     Harris-Foulkes estimate   =   -2249.87255581 Ry
     estimated scf accuracy    <    2860.51168827 Ry

     iteration #  4     ecut=    36.75 Ry     beta=0.30
     Davidson diagonalization with overlap
     ethr =  1.00E-02,  avg # of iterations =  6.2

     negative rho (up, down):  1.643E+00 0.000E+00
 
     Adding external electric field

     Computed dipole along edir(3) : 
        Dipole                4.9765 Ry au,         12.6491 Debye
        Dipole field          0.0145 Ry au
 
        Potential amp.       -1.3113 Ry
        Total length         45.0992 bohr
 

     total cpu time spent up to now is      133.5 secs

     total energy              =   -2108.00090636 Ry
     Harris-Foulkes estimate   =   -2134.62637662 Ry
     estimated scf accuracy    <     458.99082505 Ry

     iteration #  5     ecut=    36.75 Ry     beta=0.30
     Davidson diagonalization with overlap
     ethr =  1.00E-02,  avg # of iterations =  5.1

     negative rho (up, down):  1.587E+00 0.000E+00
 
     Adding external electric field

     Computed dipole along edir(3) : 
        Dipole                4.4263 Ry au,         11.2506 Debye
        Dipole field          0.0129 Ry au
 
        Potential amp.       -1.1663 Ry
        Total length         45.0992 bohr
 

     total cpu time spent up to now is      155.0 secs

     total energy              =   -2122.28063450 Ry
     Harris-Foulkes estimate   =   -2130.22643319 Ry
     estimated scf accuracy    <     213.07973064 Ry

     iteration #  6     ecut=    36.75 Ry     beta=0.30
     Davidson diagonalization with overlap
     ethr =  1.00E-02,  avg # of iterations =  3.1

     negative rho (up, down):  1.584E+00 0.000E+00
 
     Adding external electric field

     Computed dipole along edir(3) : 
        Dipole                3.6283 Ry au,          9.2221 Debye
        Dipole field          0.0106 Ry au
 
        Potential amp.       -0.9560 Ry
        Total length         45.0992 bohr
 

     total cpu time spent up to now is      170.0 secs

     total energy              =   -2124.02306872 Ry
     Harris-Foulkes estimate   =   -2124.76288696 Ry
     estimated scf accuracy    <      15.70710522 Ry

     iteration #  7     ecut=    36.75 Ry     beta=0.30
     Davidson diagonalization with overlap
     ethr =  8.49E-03,  avg # of iterations =  2.6

     negative rho (up, down):  1.590E+00 0.000E+00
 
     Adding external electric field

     Computed dipole along edir(3) : 
        Dipole                1.4063 Ry au,          3.5744 Debye
        Dipole field          0.0041 Ry au
 
        Potential amp.       -0.3705 Ry
        Total length         45.0992 bohr
 

     total cpu time spent up to now is      185.3 secs

     total energy              =   -2123.34265683 Ry
     Harris-Foulkes estimate   =   -2124.34996138 Ry
     estimated scf accuracy    <       2.65376943 Ry

     iteration #  8     ecut=    36.75 Ry     beta=0.30
     Davidson diagonalization with overlap
     ethr =  1.43E-03,  avg # of iterations =  5.7

     negative rho (up, down):  1.591E+00 0.000E+00
 
     Adding external electric field

     Computed dipole along edir(3) : 
        Dipole                0.7270 Ry au,          1.8480 Debye
        Dipole field          0.0021 Ry au
 
        Potential amp.       -0.1916 Ry
        Total length         45.0992 bohr
 

     total cpu time spent up to now is      204.5 secs

     total energy              =   -2123.52205973 Ry
     Harris-Foulkes estimate   =   -2123.92254081 Ry
     estimated scf accuracy    <       2.45003056 Ry

     iteration #  9     ecut=    36.75 Ry     beta=0.30
     Davidson diagonalization with overlap
     ethr =  1.32E-03,  avg # of iterations =  3.7

     negative rho (up, down):  1.595E+00 0.000E+00
 
     Adding external electric field

     Computed dipole along edir(3) : 
        Dipole                0.3905 Ry au,          0.9925 Debye
        Dipole field          0.0011 Ry au
 
        Potential amp.       -0.1029 Ry
        Total length         45.0992 bohr
 

     total cpu time spent up to now is      219.7 secs

     total energy              =   -2123.57741101 Ry
     Harris-Foulkes estimate   =   -2123.66981539 Ry
     estimated scf accuracy    <       0.40983392 Ry

     iteration # 10     ecut=    36.75 Ry     beta=0.30
     Davidson diagonalization with overlap
     ethr =  2.22E-04,  avg # of iterations =  6.0

     negative rho (up, down):  1.593E+00 0.000E+00
 
     Adding external electric field

     Computed dipole along edir(3) : 
        Dipole                0.4876 Ry au,          1.2394 Debye
        Dipole field          0.0014 Ry au
 
        Potential amp.       -0.1285 Ry
        Total length         45.0992 bohr
 

     total cpu time spent up to now is      239.3 secs

     total energy              =   -2123.58549774 Ry
     Harris-Foulkes estimate   =   -2123.81060717 Ry
     estimated scf accuracy    <      15.61319889 Ry

     iteration # 11     ecut=    36.75 Ry     beta=0.30
     Davidson diagonalization with overlap
     ethr =  2.22E-04,  avg # of iterations =  4.8

     negative rho (up, down):  1.590E+00 0.000E+00
 
     Adding external electric field

     Computed dipole along edir(3) : 
        Dipole               -0.5753 Ry au,         -1.4622 Debye
        Dipole field         -0.0017 Ry au
 
        Potential amp.        0.1516 Ry
        Total length         45.0992 bohr
 

     total cpu time spent up to now is      256.0 secs

     total energy              =   -2123.49893357 Ry
     Harris-Foulkes estimate   =   -2123.65254901 Ry
     estimated scf accuracy    <       3.52086983 Ry

     iteration # 12     ecut=    36.75 Ry     beta=0.30
     Davidson diagonalization with overlap
     ethr =  2.22E-04,  avg # of iterations =  5.5

     negative rho (up, down):  1.589E+00 0.000E+00
 
     Adding external electric field

     Computed dipole along edir(3) : 
        Dipole               -0.9851 Ry au,         -2.5039 Debye
        Dipole field         -0.0029 Ry au
 
        Potential amp.        0.2596 Ry
        Total length         45.0992 bohr
 

     total cpu time spent up to now is      274.4 secs

     total energy              =   -2123.57327771 Ry
     Harris-Foulkes estimate   =   -2123.58447778 Ry
     estimated scf accuracy    <       0.29089174 Ry

     iteration # 13     ecut=    36.75 Ry     beta=0.30
     Davidson diagonalization with overlap
     ethr =  1.57E-04,  avg # of iterations =  2.4

     negative rho (up, down):  1.590E+00 0.000E+00
 
     Adding external electric field

     Computed dipole along edir(3) : 
        Dipole               -0.6368 Ry au,         -1.6186 Debye
        Dipole field         -0.0019 Ry au
 
        Potential amp.        0.1678 Ry
        Total length         45.0992 bohr
 

     total cpu time spent up to now is      289.8 secs

     total energy              =   -2123.55419356 Ry
     Harris-Foulkes estimate   =   -2123.59202663 Ry
     estimated scf accuracy    <       0.76231873 Ry

     iteration # 14     ecut=    36.75 Ry     beta=0.30
     Davidson diagonalization with overlap
     ethr =  1.57E-04,  avg # of iterations =  1.5

     negative rho (up, down):  1.590E+00 0.000E+00
 
     Adding external electric field

     Computed dipole along edir(3) : 
        Dipole               -0.4826 Ry au,         -1.2266 Debye
        Dipole field         -0.0014 Ry au
 
        Potential amp.        0.1272 Ry
        Total length         45.0992 bohr
 

     total cpu time spent up to now is      304.3 secs

     total energy              =   -2123.55771854 Ry
     Harris-Foulkes estimate   =   -2123.56886665 Ry
     estimated scf accuracy    <       0.11066706 Ry

     iteration # 15     ecut=    36.75 Ry     beta=0.30
     Davidson diagonalization with overlap
     ethr =  5.98E-05,  avg # of iterations =  4.8

     negative rho (up, down):  1.589E+00 0.000E+00
 
     Adding external electric field

     Computed dipole along edir(3) : 
        Dipole               -0.3447 Ry au,         -0.8760 Debye
        Dipole field         -0.0010 Ry au
 
        Potential amp.        0.0908 Ry
        Total length         45.0992 bohr
 

     total cpu time spent up to now is      321.8 secs

     total energy              =   -2123.56473095 Ry
     Harris-Foulkes estimate   =   -2123.56942005 Ry
     estimated scf accuracy    <       0.04619113 Ry

     iteration # 16     ecut=    36.75 Ry     beta=0.30
     Davidson diagonalization with overlap
     ethr =  2.50E-05,  avg # of iterations =  5.5

     negative rho (up, down):  1.589E+00 0.000E+00
 
     Adding external electric field

     Computed dipole along edir(3) : 
        Dipole               -0.3453 Ry au,         -0.8776 Debye
        Dipole field         -0.0010 Ry au
 
        Potential amp.        0.0910 Ry
        Total length         45.0992 bohr
 

     total cpu time spent up to now is      339.6 secs

     total energy              =   -2123.56625411 Ry
     Harris-Foulkes estimate   =   -2123.56844731 Ry
     estimated scf accuracy    <       0.16835793 Ry

     iteration # 17     ecut=    36.75 Ry     beta=0.30
     Davidson diagonalization with overlap
     ethr =  2.50E-05,  avg # of iterations =  1.0

     negative rho (up, down):  1.588E+00 0.000E+00
 
     Adding external electric field

     Computed dipole along edir(3) : 
        Dipole               -0.3483 Ry au,         -0.8853 Debye
        Dipole field         -0.0010 Ry au
 
        Potential amp.        0.0918 Ry
        Total length         45.0992 bohr
 

     total cpu time spent up to now is      354.2 secs

     total energy              =   -2123.56386090 Ry
     Harris-Foulkes estimate   =   -2123.56700095 Ry
     estimated scf accuracy    <       0.06982435 Ry

     iteration # 18     ecut=    36.75 Ry     beta=0.30
     Davidson diagonalization with overlap
     ethr =  2.50E-05,  avg # of iterations =  2.4

     negative rho (up, down):  1.588E+00 0.000E+00
 
     Adding external electric field

     Computed dipole along edir(3) : 
        Dipole               -0.3362 Ry au,         -0.8545 Debye
        Dipole field         -0.0010 Ry au
 
        Potential amp.        0.0886 Ry
        Total length         45.0992 bohr
 

     total cpu time spent up to now is      369.8 secs

     total energy              =   -2123.56507098 Ry
     Harris-Foulkes estimate   =   -2123.56527948 Ry
     estimated scf accuracy    <       0.00371710 Ry

     iteration # 19     ecut=    36.75 Ry     beta=0.30
     Davidson diagonalization with overlap
     ethr =  2.01E-06,  avg # of iterations =  5.8

     negative rho (up, down):  1.588E+00 0.000E+00
 
     Adding external electric field

     Computed dipole along edir(3) : 
        Dipole               -0.3288 Ry au,         -0.8357 Debye
        Dipole field         -0.0010 Ry au
 
        Potential amp.        0.0866 Ry
        Total length         45.0992 bohr
 

     total cpu time spent up to now is      388.7 secs

     total energy              =   -2123.56553349 Ry
     Harris-Foulkes estimate   =   -2123.56574738 Ry
     estimated scf accuracy    <       0.00156608 Ry

     iteration # 20     ecut=    36.75 Ry     beta=0.30
     Davidson diagonalization with overlap
     ethr =  8.47E-07,  avg # of iterations =  4.0

     negative rho (up, down):  1.588E+00 0.000E+00
 
     Adding external electric field

     Computed dipole along edir(3) : 
        Dipole               -0.3161 Ry au,         -0.8034 Debye
        Dipole field         -0.0009 Ry au
 
        Potential amp.        0.0833 Ry
        Total length         45.0992 bohr
 

     total cpu time spent up to now is      405.0 secs

     total energy              =   -2123.56558603 Ry
     Harris-Foulkes estimate   =   -2123.56569532 Ry
     estimated scf accuracy    <       0.00045929 Ry

     iteration # 21     ecut=    36.75 Ry     beta=0.30
     Davidson diagonalization with overlap
     ethr =  2.48E-07,  avg # of iterations =  4.2

     negative rho (up, down):  1.588E+00 0.000E+00
 
     Adding external electric field

     Computed dipole along edir(3) : 
        Dipole               -0.3138 Ry au,         -0.7975 Debye
        Dipole field         -0.0009 Ry au
 
        Potential amp.        0.0827 Ry
        Total length         45.0992 bohr
 

     total cpu time spent up to now is      421.7 secs

     total energy              =   -2123.56561919 Ry
     Harris-Foulkes estimate   =   -2123.56564566 Ry
     estimated scf accuracy    <       0.00020632 Ry

     iteration # 22     ecut=    36.75 Ry     beta=0.30
     Davidson diagonalization with overlap
     ethr =  1.12E-07,  avg # of iterations =  1.8

     negative rho (up, down):  1.588E+00 0.000E+00
 
     Adding external electric field

     Computed dipole along edir(3) : 
        Dipole               -0.3163 Ry au,         -0.8039 Debye
        Dipole field         -0.0009 Ry au
 
        Potential amp.        0.0833 Ry
        Total length         45.0992 bohr
 

     total cpu time spent up to now is      436.6 secs

     total energy              =   -2123.56562496 Ry
     Harris-Foulkes estimate   =   -2123.56562586 Ry
     estimated scf accuracy    <       0.00003405 Ry

     iteration # 23     ecut=    36.75 Ry     beta=0.30
     Davidson diagonalization with overlap
     ethr =  1.84E-08,  avg # of iterations =  4.8

     negative rho (up, down):  1.589E+00 0.000E+00
 
     Adding external electric field

     Computed dipole along edir(3) : 
        Dipole               -0.3098 Ry au,         -0.7873 Debye
        Dipole field         -0.0009 Ry au
 
        Potential amp.        0.0816 Ry
        Total length         45.0992 bohr
 

     total cpu time spent up to now is      454.8 secs

     total energy              =   -2123.56562907 Ry
     Harris-Foulkes estimate   =   -2123.56564505 Ry
     estimated scf accuracy    <       0.00003996 Ry

     iteration # 24     ecut=    36.75 Ry     beta=0.30
     Davidson diagonalization with overlap
     ethr =  1.84E-08,  avg # of iterations =  1.0

     negative rho (up, down):  1.589E+00 0.000E+00
 
     Adding external electric field

     Computed dipole along edir(3) : 
        Dipole               -0.3084 Ry au,         -0.7838 Debye
        Dipole field         -0.0009 Ry au
 
        Potential amp.        0.0813 Ry
        Total length         45.0992 bohr
 

     total cpu time spent up to now is      468.9 secs

     total energy              =   -2123.56562940 Ry
     Harris-Foulkes estimate   =   -2123.56563300 Ry
     estimated scf accuracy    <       0.00001022 Ry

     iteration # 25     ecut=    36.75 Ry     beta=0.30
     Davidson diagonalization with overlap
     ethr =  5.53E-09,  avg # of iterations =  4.3

     negative rho (up, down):  1.589E+00 0.000E+00

     negative rho (up, down):  1.589E+00 0.000E+00

     negative rho (up, down):  1.589E+00 0.000E+00

     negative rho (up, down):  1.589E+00 0.000E+00

     negative rho (up, down):  1.589E+00 0.000E+00

     negative rho (up, down):  1.589E+00 0.000E+00

     negative rho (up, down):  1.589E+00 0.000E+00

     negative rho (up, down):  1.589E+00 0.000E+00

     negative rho (up, down):  1.589E+00 0.000E+00

     negative rho (up, down):  1.589E+00 0.000E+00

     negative rho (up, down):  1.589E+00 0.000E+00

     negative rho (up, down):  1.589E+00 0.000E+00

     negative rho (up, down):  1.589E+00 0.000E+00

     negative rho (up, down):  1.589E+00 0.000E+00

     negative rho (up, down):  1.589E+00 0.000E+00

     negative rho (up, down):  1.589E+00 0.000E+00

     negative rho (up, down):  1.589E+00 0.000E+00

     negative rho (up, down):  1.589E+00 0.000E+00

     negative rho (up, down):  1.589E+00 0.000E+00

     negative rho (up, down):  1.589E+00 0.000E+00

     negative rho (up, down):  1.589E+00 0.000E+00

     negative rho (up, down):  1.589E+00 0.000E+00

     negative rho (up, down):  1.589E+00 0.000E+00

     negative rho (up, down):  1.589E+00 0.000E+00

     negative rho (up, down):  1.589E+00 0.000E+00

     negative rho (up, down):  1.589E+00 0.000E+00

     negative rho (up, down):  1.589E+00 0.000E+00

     negative rho (up, down):  1.589E+00 0.000E+00

     negative rho (up, down):  1.589E+00 0.000E+00

     negative rho (up, down):  1.589E+00 0.000E+00

     negative rho (up, down):  1.589E+00 0.000E+00

     negative rho (up, down):  1.589E+00 0.000E+00

     negative rho (up, down):  1.589E+00 0.000E+00

     negative rho (up, down):  1.589E+00 0.000E+00

     negative rho (up, down):  1.589E+00 0.000E+00
 
     Adding external electric field

     Computed dipole along edir(3) : 
        Dipole               -0.3126 Ry au,         -0.7944 Debye
        Dipole field         -0.0009 Ry au
 
        Potential amp.        0.0824 Ry
        Total length         45.0992 bohr
 

     total cpu time spent up to now is      526.2 secs

     End of self-consistent calculation

          k = 0.0000 0.0000 0.0000 ( 16073 PWs)   bands (ev):

   -65.2641 -65.1550 -65.0277 -64.9731 -64.9721 -64.9222 -64.8693 -64.8081
   -64.7946 -64.7940 -64.7834 -64.7831 -37.6817 -37.6076 -37.6072 -37.5220
   -37.4978 -37.4977 -37.4453 -37.3322 -37.3319 -37.2879 -37.2736 -36.9589
   -36.9426 -36.9421 -36.9085 -36.8678 -36.8676 -36.8507 -36.8226 -36.8224
   -36.7613 -36.7265 -36.7264 -36.6778 -36.6775 -36.6283 -36.6223 -36.6222
   -36.6149 -36.5843 -36.5840 -36.5734 -36.4455 -36.4454 -36.3901 -36.3901
   -10.7473  -4.3737  -3.1511  -3.1509  -3.1040  -3.0595  -2.9775  -2.6889
    -2.6553  -2.6551  -2.5633  -2.5633  -2.4894  -2.1646  -2.1646  -2.1415
    -1.4039  -1.4039  -0.9507  -0.7250  -0.2748  -0.2748  -0.0284   0.1877
     0.4214   0.4214   0.6032   0.6033   0.6035   0.7293   0.7294   0.8475
     0.9644   0.9644   1.0918   1.0920   1.4420   1.4421   1.9417   2.4025
     2.4453   2.4454   2.4785   2.7166   2.8071   2.8072   3.1073   3.1074
     3.4309   3.4311   3.4751   3.8856   3.8857   4.1816

          k = 0.0000 0.0351 0.0000 ( 16137 PWs)   bands (ev):

   -65.2615 -65.1482 -65.0297 -64.9794 -64.9724 -64.9143 -64.8650 -64.8120
   -64.7989 -64.7941 -64.7888 -64.7832 -37.6651 -37.5760 -37.5583 -37.4914
   -37.4729 -37.4580 -37.4198 -37.3037 -37.2920 -37.2631 -37.2445 -36.9818
   -36.9622 -36.9550 -36.9382 -36.8884 -36.8733 -36.8505 -36.8085 -36.7989
   -36.7777 -36.7355 -36.7306 -36.6872 -36.6807 -36.6647 -36.6377 -36.6353
   -36.6207 -36.6175 -36.6074 -36.5696 -36.4971 -36.4577 -36.4474 -36.4034
   -10.7453  -4.1290  -3.0137  -2.9578  -2.8978  -2.8447  -2.7316  -2.5788
    -2.5063  -2.4715  -2.4297  -2.4066  -2.3432  -2.0347  -1.9190  -1.8972
    -1.3597  -1.3184  -0.9001  -0.7207  -0.2279  -0.2059  -0.0173   0.0716
     0.2261   0.3255   0.4838   0.5306   0.6313   0.7542   0.7837   0.8444
     0.8765   0.9177   1.0341   1.1732   1.2637   1.3848   1.7018   2.0837
     2.1032   2.2299   2.4586   2.4793   2.5540   2.6633   2.8593   2.8912
     3.0787   3.3120   3.4023   3.6795   3.7005   3.8031

          k = 0.0000 0.0702 0.0000 ( 16149 PWs)   bands (ev):

   -65.2566 -65.1311 -65.0377 -64.9918 -64.9725 -64.8926 -64.8538 -64.8309
   -64.8027 -64.8019 -64.7942 -64.7832 -37.6337 -37.4980 -37.4496 -37.4188
   -37.3981 -37.3737 -37.3508 -37.2374 -37.2355 -37.1998 -37.1346 -37.0437
   -37.0397 -36.9990 -36.9359 -36.9083 -36.8984 -36.8517 -36.8145 -36.7906
   -36.7876 -36.7793 -36.7527 -36.7370 -36.7246 -36.7013 -36.6823 -36.6797
   -36.6514 -36.6473 -36.6332 -36.6194 -36.5662 -36.5372 -36.4865 -36.4390
   -10.7414  -3.4905  -2.7293  -2.5107  -2.4212  -2.3903  -2.3373  -2.1291
    -2.0752  -2.0410  -2.0085  -1.9336  -1.9185  -1.7112  -1.3906  -1.2784
    -1.1276  -1.1175  -0.8830  -0.7402  -0.4710  -0.3109  -0.2099  -0.1402
     0.1125   0.1766   0.2278   0.3667   0.4660   0.5143   0.6181   0.8030
     0.8532   1.0157   1.1316   1.1520   1.1938   1.2481   1.4352   1.4720
     1.7524   1.7748   1.7870   1.9085   2.0250   2.0257   2.2146   2.2935
     2.5206   2.7671   2.8085   3.0774   3.1300   3.1995

          k = 0.0000-0.1053 0.0000 ( 16164 PWs)   bands (ev):

   -65.2541 -65.1195 -65.0457 -64.9971 -64.9725 -64.8676 -64.8568 -64.8436
   -64.8126 -64.8027 -64.7942 -64.7832 -37.6184 -37.4423 -37.3930 -37.3824
   -37.3655 -37.3182 -37.2508 -37.1926 -37.1908 -37.1514 -37.1257 -37.1149
   -37.0995 -37.0011 -36.8910 -36.8865 -36.8705 -36.8526 -36.8384 -36.8328
   -36.8092 -36.7873 -36.7837 -36.7809 -36.7731 -36.7637 -36.7403 -36.7291
   -36.6932 -36.6520 -36.6289 -36.6166 -36.6096 -36.5105 -36.4898 -36.4825
   -10.7395  -2.8310  -2.8211  -2.1870  -2.1685  -2.1372  -2.0916  -1.9620
    -1.8050  -1.6965  -1.6615  -1.5113  -1.4250  -1.3820  -1.2201  -1.1089
    -1.0562  -0.9317  -0.7617  -0.7515  -0.5187  -0.4546  -0.3709  -0.3286
    -0.1385   0.0192   0.1922   0.3345   0.4876   0.5365   0.6144   0.7091
     0.7424   0.8048   0.8422   0.8594   0.9385   1.0386   1.0681   1.1750
     1.2177   1.2711   1.8227   1.8404   2.0224   2.0290   2.0606   2.1844
     2.3149   2.5029   2.6139   2.6490   2.7183   2.8276

          k = 0.0304-0.0175 0.0000 ( 16137 PWs)   bands (ev):

   -65.2615 -65.1481 -65.0299 -64.9785 -64.9732 -64.9143 -64.8650 -64.8120
   -64.7988 -64.7942 -64.7886 -64.7834 -37.6651 -37.5756 -37.5586 -37.4914
   -37.4729 -37.4579 -37.4198 -37.3038 -37.2920 -37.2631 -37.2445 -36.9819
   -36.9625 -36.9547 -36.9380 -36.8888 -36.8730 -36.8503 -36.8084 -36.7990
   -36.7777 -36.7355 -36.7307 -36.6874 -36.6805 -36.6646 -36.6377 -36.6354
   -36.6207 -36.6173 -36.6075 -36.5696 -36.4970 -36.4578 -36.4474 -36.4034
   -10.7453  -4.1290  -3.0138  -2.9577  -2.8979  -2.8447  -2.7316  -2.5787
    -2.5065  -2.4713  -2.4297  -2.4066  -2.3431  -2.0347  -1.9190  -1.8972
    -1.3596  -1.3184  -0.9001  -0.7207  -0.2279  -0.2059  -0.0173   0.0716
     0.2261   0.3255   0.4836   0.5307   0.6313   0.7542   0.7837   0.8445
     0.8767   0.9178   1.0340   1.1732   1.2637   1.3847   1.7018   2.0837
     2.1032   2.2298   2.4586   2.4793   2.5540   2.6633   2.8593   2.8911
     3.0787   3.3120   3.4024   3.6794   3.7005   3.8031

          k = 0.0304 0.0175 0.0000 ( 16137 PWs)   bands (ev):

   -65.2615 -65.1482 -65.0297 -64.9794 -64.9723 -64.9143 -64.8650 -64.8122
   -64.7982 -64.7946 -64.7888 -64.7832 -37.6651 -37.5760 -37.5583 -37.4914
   -37.4729 -37.4580 -37.4198 -37.3035 -37.2922 -37.2631 -37.2445 -36.9817
   -36.9621 -36.9551 -36.9382 -36.8884 -36.8732 -36.8505 -36.8084 -36.7991
   -36.7777 -36.7354 -36.7307 -36.6873 -36.6806 -36.6647 -36.6377 -36.6353
   -36.6207 -36.6172 -36.6077 -36.5695 -36.4971 -36.4577 -36.4474 -36.4034
   -10.7453  -4.1290  -3.0137  -2.9578  -2.8978  -2.8447  -2.7316  -2.5788
    -2.5063  -2.4715  -2.4297  -2.4065  -2.3432  -2.0347  -1.9189  -1.8973
    -1.3596  -1.3184  -0.9001  -0.7207  -0.2279  -0.2059  -0.0173   0.0716
     0.2261   0.3255   0.4838   0.5307   0.6313   0.7542   0.7836   0.8444
     0.8765   0.9177   1.0341   1.1732   1.2638   1.3848   1.7018   2.0837
     2.1032   2.2299   2.4586   2.4793   2.5541   2.6634   2.8593   2.8911
     3.0787   3.3120   3.4024   3.6794   3.7005   3.8032

          k = 0.0304 0.0526 0.0000 ( 16202 PWs)   bands (ev):

   -65.2578 -65.1361 -65.0337 -64.9921 -64.9704 -64.8995 -64.8569 -64.8204
   -64.8096 -64.7990 -64.7902 -64.7830 -37.6413 -37.5210 -37.4691 -37.4324
   -37.4274 -37.4018 -37.3733 -37.2600 -37.2441 -37.2133 -37.1708 -37.0415
   -37.0058 -36.9949 -36.9422 -36.9069 -36.8699 -36.8484 -36.8323 -36.7902
   -36.7804 -36.7610 -36.7403 -36.7213 -36.7133 -36.6923 -36.6803 -36.6685
   -36.6412 -36.6314 -36.5912 -36.5862 -36.5777 -36.5337 -36.4835 -36.4325
   -10.7424  -3.6799  -2.7125  -2.6906  -2.5635  -2.4567  -2.3338  -2.3312
    -2.2922  -2.1885  -2.1677  -2.0680  -1.9978  -1.6846  -1.6660  -1.4355
    -1.2294  -1.1868  -0.8554  -0.7389  -0.3833  -0.2206  -0.1088  -0.0648
     0.0636   0.1203   0.2864   0.4258   0.4978   0.6676   0.6772   0.7338
     0.8401   1.0241   1.0506   1.1260   1.2229   1.3975   1.5760   1.6251
     1.6414   1.9220   2.0196   2.1575   2.2049   2.2844   2.3206   2.3895
     2.5462   2.8015   3.0448   3.2015   3.2536   3.3410

          k = 0.0304-0.1228 0.0000 ( 16203 PWs)   bands (ev):

   -65.2542 -65.1203 -65.0397 -65.0067 -64.9681 -64.8741 -64.8452 -64.8404
   -64.8183 -64.8134 -64.7866 -64.7826 -37.6180 -37.4370 -37.3756 -37.3707
   -37.3553 -37.3233 -37.2905 -37.2239 -37.1915 -37.1622 -37.1289 -37.0806
   -37.0615 -36.9938 -36.9631 -36.9270 -36.9068 -36.8515 -36.8374 -36.8065
   -36.7955 -36.7872 -36.7831 -36.7737 -36.7519 -36.7338 -36.7227 -36.7040
   -36.6724 -36.6567 -36.6247 -36.6111 -36.6034 -36.5400 -36.5216 -36.4826
   -10.7395  -2.9686  -2.5089  -2.2242  -2.1355  -2.0931  -2.0020  -1.9497
    -1.8069  -1.7189  -1.6721  -1.6243  -1.4245  -1.3712  -1.2833  -1.1422
    -1.0447  -0.9649  -0.8194  -0.6783  -0.6163  -0.4898  -0.4162  -0.2475
    -0.1091  -0.0577   0.0573   0.2462   0.3623   0.4225   0.5026   0.5270
     0.6074   0.6915   0.7767   0.9156   0.9500   1.1058   1.2226   1.2776
     1.3698   1.4627   1.6061   1.7941   1.9469   2.0178   2.1404   2.2204
     2.3755   2.5058   2.6491   2.6636   2.8943   2.9962

          k = 0.0304-0.0877 0.0000 ( 16203 PWs)   bands (ev):

   -65.2542 -65.1202 -65.0400 -65.0064 -64.9682 -64.8741 -64.8453 -64.8404
   -64.8184 -64.8133 -64.7865 -64.7827 -37.6181 -37.4369 -37.3755 -37.3708
   -37.3552 -37.3232 -37.2905 -37.2237 -37.1918 -37.1623 -37.1292 -37.0807
   -37.0611 -36.9938 -36.9631 -36.9271 -36.9068 -36.8515 -36.8373 -36.8065
   -36.7955 -36.7873 -36.7829 -36.7735 -36.7521 -36.7338 -36.7227 -36.7039
   -36.6725 -36.6567 -36.6248 -36.6114 -36.6032 -36.5400 -36.5217 -36.4826
   -10.7395  -2.9686  -2.5089  -2.2242  -2.1355  -2.0931  -2.0020  -1.9498
    -1.8069  -1.7189  -1.6722  -1.6242  -1.4244  -1.3713  -1.2833  -1.1423
    -1.0447  -0.9649  -0.8195  -0.6783  -0.6162  -0.4900  -0.4161  -0.2475
    -0.1090  -0.0577   0.0573   0.2462   0.3623   0.4225   0.5027   0.5270
     0.6074   0.6914   0.7767   0.9156   0.9500   1.1058   1.2226   1.2776
     1.3698   1.4626   1.6061   1.7942   1.9470   2.0176   2.1403   2.2203
     2.3755   2.5058   2.6493   2.6635   2.8943   2.9962

          k = 0.0304-0.0526 0.0000 ( 16202 PWs)   bands (ev):

   -65.2578 -65.1360 -65.0340 -64.9913 -64.9709 -64.8995 -64.8570 -64.8201
   -64.8100 -64.7988 -64.7901 -64.7831 -37.6414 -37.5208 -37.4693 -37.4326
   -37.4272 -37.4017 -37.3733 -37.2601 -37.2442 -37.2132 -37.1708 -37.0417
   -37.0061 -36.9948 -36.9422 -36.9066 -36.8697 -36.8485 -36.8323 -36.7901
   -36.7804 -36.7613 -36.7403 -36.7211 -36.7132 -36.6923 -36.6801 -36.6685
   -36.6412 -36.6315 -36.5913 -36.5861 -36.5777 -36.5337 -36.4835 -36.4324
   -10.7424  -3.6799  -2.7126  -2.6905  -2.5635  -2.4567  -2.3338  -2.3311
    -2.2921  -2.1886  -2.1678  -2.0680  -1.9977  -1.6846  -1.6660  -1.4355
    -1.2294  -1.1868  -0.8554  -0.7389  -0.3834  -0.2207  -0.1087  -0.0649
     0.0635   0.1203   0.2865   0.4257   0.4978   0.6675   0.6772   0.7339
     0.8402   1.0241   1.0506   1.1260   1.2228   1.3975   1.5761   1.6251
     1.6415   1.9221   2.0195   2.1576   2.2050   2.2843   2.3206   2.3895
     2.5461   2.8015   3.0448   3.2016   3.2536   3.3410

          k = 0.0608-0.0351 0.0000 ( 16149 PWs)   bands (ev):

   -65.2566 -65.1311 -65.0382 -64.9906 -64.9733 -64.8926 -64.8538 -64.8309
   -64.8025 -64.8017 -64.7942 -64.7834 -37.6337 -37.4975 -37.4500 -37.4188
   -37.3981 -37.3737 -37.3507 -37.2375 -37.2356 -37.1999 -37.1346 -37.0437
   -37.0400 -36.9991 -36.9356 -36.9078 -36.8990 -36.8516 -36.8144 -36.7905
   -36.7876 -36.7794 -36.7528 -36.7369 -36.7247 -36.7012 -36.6822 -36.6797
   -36.6512 -36.6475 -36.6332 -36.6194 -36.5663 -36.5373 -36.4866 -36.4390
   -10.7414  -3.4905  -2.7293  -2.5106  -2.4213  -2.3903  -2.3373  -2.1291
    -2.0751  -2.0410  -2.0087  -1.9335  -1.9185  -1.7112  -1.3906  -1.2784
    -1.1276  -1.1175  -0.8830  -0.7401  -0.4710  -0.3109  -0.2099  -0.1402
     0.1125   0.1767   0.2277   0.3667   0.4659   0.5144   0.6182   0.8030
     0.8532   1.0157   1.1318   1.1521   1.1937   1.2481   1.4352   1.4721
     1.7524   1.7748   1.7870   1.9085   2.0249   2.0258   2.2146   2.2936
     2.5205   2.7672   2.8085   3.0774   3.1299   3.1997

          k = 0.0608 0.0000 0.0000 ( 16202 PWs)   bands (ev):

   -65.2578 -65.1360 -65.0340 -64.9914 -64.9709 -64.8995 -64.8570 -64.8204
   -64.8095 -64.7988 -64.7902 -64.7831 -37.6414 -37.5208 -37.4693 -37.4326
   -37.4273 -37.4017 -37.3733 -37.2600 -37.2442 -37.2132 -37.1708 -37.0416
   -37.0061 -36.9949 -36.9422 -36.9067 -36.8697 -36.8484 -36.8324 -36.7902
   -36.7804 -36.7611 -36.7403 -36.7211 -36.7132 -36.6923 -36.6802 -36.6685
   -36.6412 -36.6315 -36.5912 -36.5862 -36.5777 -36.5337 -36.4835 -36.4325
   -10.7424  -3.6799  -2.7126  -2.6905  -2.5635  -2.4567  -2.3338  -2.3312
    -2.2922  -2.1886  -2.1677  -2.0680  -1.9978  -1.6846  -1.6660  -1.4355
    -1.2294  -1.1868  -0.8554  -0.7389  -0.3833  -0.2207  -0.1087  -0.0648
     0.0635   0.1203   0.2864   0.4258   0.4978   0.6676   0.6772   0.7338
     0.8402   1.0241   1.0506   1.1261   1.2229   1.3975   1.5761   1.6252
     1.6415   1.9221   2.0196   2.1575   2.2049   2.2844   2.3206   2.3895
     2.5462   2.8015   3.0448   3.2016   3.2536   3.3410

          k = 0.0608 0.0351 0.0000 ( 16149 PWs)   bands (ev):

   -65.2566 -65.1311 -65.0377 -64.9919 -64.9725 -64.8926 -64.8537 -64.8310
   -64.8027 -64.8014 -64.7946 -64.7832 -37.6337 -37.4980 -37.4495 -37.4189
   -37.3981 -37.3737 -37.3508 -37.2372 -37.2355 -37.2000 -37.1346 -37.0436
   -37.0397 -36.9990 -36.9360 -36.9082 -36.8984 -36.8516 -36.8146 -36.7907
   -36.7877 -36.7792 -36.7527 -36.7368 -36.7248 -36.7010 -36.6824 -36.6797
   -36.6513 -36.6474 -36.6332 -36.6194 -36.5662 -36.5372 -36.4865 -36.4391
   -10.7414  -3.4905  -2.7293  -2.5107  -2.4212  -2.3903  -2.3373  -2.1291
    -2.0752  -2.0410  -2.0085  -1.9336  -1.9186  -1.7111  -1.3906  -1.2784
    -1.1275  -1.1176  -0.8830  -0.7402  -0.4709  -0.3109  -0.2098  -0.1402
     0.1125   0.1766   0.2277   0.3667   0.4659   0.5143   0.6181   0.8031
     0.8532   1.0157   1.1316   1.1521   1.1938   1.2481   1.4351   1.4721
     1.7524   1.7749   1.7870   1.9085   2.0249   2.0258   2.2147   2.2935
     2.5206   2.7672   2.8085   3.0774   3.1300   3.1996

          k = 0.0608-0.1404 0.0000 ( 16203 PWs)   bands (ev):

   -65.2542 -65.1203 -65.0397 -65.0068 -64.9681 -64.8740 -64.8453 -64.8405
   -64.8181 -64.8135 -64.7866 -64.7826 -37.6180 -37.4370 -37.3756 -37.3707
   -37.3552 -37.3234 -37.2905 -37.2239 -37.1915 -37.1621 -37.1289 -37.0807
   -37.0615 -36.9938 -36.9630 -36.9271 -36.9068 -36.8516 -36.8374 -36.8064
   -36.7955 -36.7871 -36.7832 -36.7736 -36.7520 -36.7338 -36.7227 -36.7039
   -36.6724 -36.6568 -36.6248 -36.6112 -36.6033 -36.5400 -36.5216 -36.4826
   -10.7395  -2.9686  -2.5089  -2.2242  -2.1355  -2.0931  -2.0021  -1.9497
    -1.8069  -1.7189  -1.6722  -1.6243  -1.4245  -1.3712  -1.2833  -1.1423
    -1.0447  -0.9648  -0.8195  -0.6783  -0.6163  -0.4899  -0.4162  -0.2475
    -0.1091  -0.0577   0.0573   0.2461   0.3623   0.4226   0.5026   0.5269
     0.6074   0.6915   0.7767   0.9156   0.9500   1.1058   1.2227   1.2776
     1.3698   1.4626   1.6061   1.7941   1.9469   2.0178   2.1405   2.2203
     2.3755   2.5058   2.6491   2.6636   2.8944   2.9962

          k = 0.0608-0.1053 0.0000 ( 16272 PWs)   bands (ev):

   -65.2530 -65.1143 -65.0327 -65.0237 -64.9649 -64.8560 -64.8432 -64.8398
   -64.8294 -64.8283 -64.7827 -64.7821 -37.6100 -37.3534 -37.3530 -37.3256
   -37.3186 -37.3080 -37.2696 -37.2342 -37.2176 -37.1580 -37.1241 -37.0908
   -36.9939 -36.9910 -36.9751 -36.9331 -36.9294 -36.9279 -36.9073 -36.7974
   -36.7895 -36.7892 -36.7879 -36.7796 -36.7651 -36.7461 -36.7361 -36.6912
   -36.6636 -36.6456 -36.6322 -36.6150 -36.5744 -36.5526 -36.5520 -36.5487
   -10.7385  -2.3622  -2.3300  -2.3293  -1.8418  -1.7791  -1.7281  -1.6998
    -1.6883  -1.5738  -1.5062  -1.3029  -1.2957  -1.2818  -1.2625  -1.2591
    -1.0174  -0.9327  -0.8509  -0.6995  -0.4457  -0.4132  -0.3909  -0.3472
    -0.2488  -0.2122  -0.0942  -0.0422  -0.0400   0.0511   0.2246   0.2952
     0.3641   0.4569   0.6463   0.6954   0.8302   0.9814   1.0952   1.1903
     1.1980   1.3782   1.5516   1.7090   1.8713   2.0365   2.2395   2.2990
     2.3927   2.5928   2.6841   2.7581   2.9727   3.1384

          k = 0.0608-0.0702 0.0000 ( 16203 PWs)   bands (ev):

   -65.2542 -65.1202 -65.0405 -65.0057 -64.9684 -64.8741 -64.8454 -64.8404
   -64.8183 -64.8132 -64.7865 -64.7828 -37.6181 -37.4367 -37.3756 -37.3707
   -37.3555 -37.3232 -37.2904 -37.2239 -37.1918 -37.1623 -37.1292 -37.0808
   -37.0614 -36.9935 -36.9630 -36.9270 -36.9068 -36.8516 -36.8374 -36.8065
   -36.7952 -36.7873 -36.7828 -36.7736 -36.7521 -36.7337 -36.7227 -36.7039
   -36.6724 -36.6567 -36.6248 -36.6113 -36.6033 -36.5400 -36.5217 -36.4826
   -10.7395  -2.9686  -2.5089  -2.2241  -2.1357  -2.0931  -2.0020  -1.9497
    -1.8068  -1.7189  -1.6720  -1.6243  -1.4245  -1.3712  -1.2833  -1.1423
    -1.0447  -0.9648  -0.8195  -0.6783  -0.6163  -0.4900  -0.4161  -0.2476
    -0.1091  -0.0577   0.0573   0.2462   0.3623   0.4225   0.5027   0.5270
     0.6074   0.6914   0.7768   0.9156   0.9500   1.1058   1.2227   1.2776
     1.3697   1.4627   1.6062   1.7942   1.9469   2.0177   2.1404   2.2203
     2.3755   2.5058   2.6491   2.6637   2.8943   2.9961

          k =-0.0912 0.0526 0.0000 ( 16164 PWs)   bands (ev):

   -65.2541 -65.1193 -65.0464 -64.9958 -64.9733 -64.8676 -64.8568 -64.8437
   -64.8123 -64.8026 -64.7942 -64.7834 -37.6185 -37.4417 -37.3930 -37.3828
   -37.3654 -37.3181 -37.2507 -37.1927 -37.1908 -37.1516 -37.1258 -37.1151
   -37.1000 -37.0004 -36.8907 -36.8870 -36.8706 -36.8527 -36.8384 -36.8326
   -36.8093 -36.7871 -36.7838 -36.7809 -36.7726 -36.7637 -36.7402 -36.7296
   -36.6929 -36.6523 -36.6288 -36.6167 -36.6095 -36.5107 -36.4899 -36.4826
   -10.7395  -2.8311  -2.8210  -2.1872  -2.1683  -2.1371  -2.0918  -1.9620
    -1.8049  -1.6966  -1.6612  -1.5115  -1.4247  -1.3821  -1.2201  -1.1090
    -1.0562  -0.9317  -0.7616  -0.7515  -0.5188  -0.4547  -0.3710  -0.3286
    -0.1385   0.0192   0.1923   0.3346   0.4876   0.5365   0.6145   0.7091
     0.7423   0.8048   0.8423   0.8594   0.9385   1.0386   1.0681   1.1750
     1.2174   1.2714   1.8227   1.8404   2.0224   2.0288   2.0608   2.1844
     2.3149   2.5026   2.6142   2.6490   2.7183   2.8276

          k =-0.0912 0.0877 0.0000 ( 16203 PWs)   bands (ev):

   -65.2542 -65.1202 -65.0405 -65.0057 -64.9684 -64.8741 -64.8454 -64.8404
   -64.8182 -64.8132 -64.7866 -64.7828 -37.6181 -37.4367 -37.3756 -37.3707
   -37.3555 -37.3232 -37.2904 -37.2239 -37.1917 -37.1623 -37.1291 -37.0808
   -37.0615 -36.9935 -36.9631 -36.9269 -36.9068 -36.8516 -36.8373 -36.8065
   -36.7952 -36.7873 -36.7829 -36.7737 -36.7520 -36.7337 -36.7227 -36.7039
   -36.6725 -36.6566 -36.6248 -36.6112 -36.6033 -36.5400 -36.5217 -36.4826
   -10.7395  -2.9686  -2.5089  -2.2241  -2.1357  -2.0930  -2.0020  -1.9497
    -1.8068  -1.7189  -1.6720  -1.6243  -1.4245  -1.3712  -1.2834  -1.1423
    -1.0447  -0.9648  -0.8194  -0.6783  -0.6163  -0.4900  -0.4162  -0.2476
    -0.1091  -0.0577   0.0573   0.2462   0.3623   0.4225   0.5026   0.5270
     0.6074   0.6915   0.7767   0.9156   0.9500   1.1059   1.2226   1.2776
     1.3697   1.4627   1.6062   1.7941   1.9469   2.0177   2.1404   2.2203
     2.3755   2.5058   2.6491   2.6637   2.8944   2.9961

          k =-0.0912 0.1228 0.0000 ( 16203 PWs)   bands (ev):

   -65.2542 -65.1202 -65.0399 -65.0064 -64.9682 -64.8740 -64.8453 -64.8406
   -64.8181 -64.8134 -64.7866 -64.7826 -37.6181 -37.4369 -37.3756 -37.3708
   -37.3552 -37.3233 -37.2905 -37.2237 -37.1917 -37.1621 -37.1292 -37.0808
   -37.0611 -36.9938 -36.9631 -36.9271 -36.9068 -36.8515 -36.8373 -36.8064
   -36.7955 -36.7872 -36.7831 -36.7736 -36.7521 -36.7338 -36.7226 -36.7039
   -36.6725 -36.6567 -36.6248 -36.6113 -36.6032 -36.5400 -36.5216 -36.4826
   -10.7395  -2.9686  -2.5089  -2.2242  -2.1355  -2.0931  -2.0020  -1.9498
    -1.8069  -1.7189  -1.6722  -1.6242  -1.4244  -1.3712  -1.2833  -1.1423
    -1.0447  -0.9648  -0.8195  -0.6783  -0.6163  -0.4900  -0.4161  -0.2475
    -0.1091  -0.0577   0.0573   0.2462   0.3623   0.4225   0.5027   0.5270
     0.6074   0.6914   0.7767   0.9156   0.9500   1.1058   1.2227   1.2776
     1.3698   1.4626   1.6061   1.7941   1.9470   2.0177   2.1403   2.2203
     2.3755   2.5058   2.6492   2.6635   2.8943   2.9962

          k =-0.0912-0.0526 0.0000 ( 16164 PWs)   bands (ev):

   -65.2541 -65.1195 -65.0456 -64.9972 -64.9725 -64.8673 -64.8572 -64.8436
   -64.8128 -64.8021 -64.7946 -64.7832 -37.6184 -37.4423 -37.3930 -37.3823
   -37.3654 -37.3182 -37.2509 -37.1923 -37.1907 -37.1514 -37.1258 -37.1150
   -37.0995 -37.0011 -36.8911 -36.8864 -36.8706 -36.8528 -36.8382 -36.8327
   -36.8093 -36.7873 -36.7841 -36.7806 -36.7732 -36.7636 -36.7404 -36.7291
   -36.6930 -36.6521 -36.6290 -36.6166 -36.6096 -36.5105 -36.4895 -36.4829
   -10.7395  -2.8310  -2.8211  -2.1870  -2.1685  -2.1373  -2.0915  -1.9620
    -1.8051  -1.6965  -1.6615  -1.5112  -1.4250  -1.3819  -1.2201  -1.1088
    -1.0563  -0.9317  -0.7616  -0.7515  -0.5187  -0.4546  -0.3708  -0.3287
    -0.1384   0.0192   0.1923   0.3345   0.4876   0.5365   0.6143   0.7090
     0.7424   0.8048   0.8423   0.8594   0.9385   1.0387   1.0680   1.1750
     1.2177   1.2710   1.8227   1.8403   2.0224   2.0290   2.0605   2.1845
     2.3149   2.5028   2.6139   2.6489   2.7184   2.8275

     the Fermi energy is     2.1056 ev

!    total energy              =   -2123.56562682 Ry
     Harris-Foulkes estimate   =   -2123.56562261 Ry
     estimated scf accuracy    <       0.00000382 Ry

     The total energy is the sum of the following terms:

     one-electron contribution =  -18964.99813843 Ry
     hartree contribution      =    9481.51875601 Ry
     xc contribution           =    -402.28403781 Ry
     ewald contribution        =    7762.28850754 Ry
     electric field correction =       0.00028539 Ry
     smearing contrib. (-TS)   =      -0.09099953 Ry

     convergence has been achieved in  25 iterations
 
 BEEF-vdW xc energy contributions
           1 :   -352.361657220636     
           2 :    323.798422020246     
           3 :   -273.101043515069     
           4 :    210.535365244546     
           5 :   -146.940258339898     
           6 :    90.7675617452775     
           7 :   -46.4957695846710     
           8 :    14.5635240229827     
           9 :    7.36925433322511     
          10 :   -22.5952721689243     
          11 :    33.7015201974926     
          12 :   -41.7122439899804     
          13 :    46.1533860419304     
          14 :   -45.8496468064014     
          15 :    39.9606931022105     
          16 :   -28.7968125720653     
          17 :    14.0647015141131     
          18 :    1.51222284976166     
          19 :   -15.0168276279816     
          20 :    24.2160913977823     
          21 :   -28.1360135401806     
          22 :    27.1225008405914     
          23 :   -22.4427980274749     
          24 :    15.6587846016608     
          25 :   -8.07659235321552     
          26 :   0.487945195617385     
          27 :    6.74494963652813     
          28 :   -13.3955454415977     
          29 :    19.0840871039895     
          30 :   -23.1731889270440     
          31 :   -33.6155747610640     
          32 :   -24.6384294227434     

     Forces acting on atoms (Ry/au):


     negative rho (up, down):  1.589E+00 0.000E+00
     atom    1 type  1   force =    -0.00032983   -0.00016688    0.02775037
     atom    2 type  1   force =     0.00032539   -0.00018415    0.02773983
     atom    3 type  1   force =    -0.00003117    0.00036926    0.02770815
     atom    4 type  1   force =     0.00003871   -0.00001711    0.04274380
     atom    5 type  1   force =    -0.00011168    0.02352057   -0.01686647
     atom    6 type  1   force =     0.00010998    0.00003927   -0.00480441
     atom    7 type  1   force =    -0.02034799   -0.01171716   -0.01696247
     atom    8 type  1   force =     0.02033636   -0.01185585   -0.01685444
     atom    9 type  1   force =    -0.00001834    0.00001748    0.19905043
     atom   10 type  1   force =     0.00002819   -0.00292706   -0.03745144
     atom   11 type  1   force =    -0.00254812    0.00147830   -0.03753365
     atom   12 type  1   force =     0.00255105    0.00144190   -0.03738944
     atom   13 type  2   force =    -0.00000256    0.00000143   -0.15713026

     Total force =     0.261813     Total SCF correction =     0.002694


     entering subroutine stress ...


     negative rho (up, down):  1.589E+00 0.000E+00
          total   stress  (Ry/bohr**3)                   (kbar)     P=  -35.17
  -0.00019115   0.00000003  -0.00000001        -28.12      0.00     -0.00
   0.00000003  -0.00019115   0.00000001          0.00    -28.12      0.00
  -0.00000001   0.00000001  -0.00033504         -0.00      0.00    -49.29


     BFGS Geometry Optimization

     number of scf cycles    =   1
     number of bfgs steps    =   0

     energy   new            =   -2123.5656268224 Ry

     new trust radius        =       0.1990504339 bohr
     new conv_thr            =       0.0000099958 Ry


ATOMIC_POSITIONS (crystal)
Tc1      0.166666667   0.166666667   0.408540475    0   0   0
Tc1      0.666666667   0.166666667   0.408540475    0   0   0
Tc1      0.166666667   0.666666667   0.408540475    0   0   0
Tc1      0.666666667   0.666666667   0.408540475    0   0   0
Tc1      0.833333333   0.333333333   0.500000000    0   0   0
Tc1      0.333333333   0.333333333   0.500000000    0   0   0
Tc1      0.833333333   0.833333333   0.500000000    0   0   0
Tc1      0.333333333   0.833333333   0.500000000    0   0   0
Tc1     -0.000002744   0.000001948   0.595762803
Tc1      0.500165801  -0.000326162   0.590649861
Tc1     -0.000328259   0.500164726   0.590648084
Tc1      0.500165844   0.500160670   0.590651202
N1      -0.000000327   0.000000160   0.663765071



     Writing output data file calc.save
     Check: negative starting charge=   -1.504904
     NEW-OLD atomic charge density approx. for the potential

     Check: negative/imaginary core charge=   -0.000022    0.000000
     Check: negative starting charge=   -1.510935

     negative rho (up, down):  1.592E+00 0.000E+00
 
     Adding external electric field

     Computed dipole along edir(3) : 
        Dipole               -0.2259 Ry au,         -0.5741 Debye
        Dipole field         -0.0007 Ry au
 
        Potential amp.        0.0595 Ry
        Total length         45.0992 bohr
 

     total cpu time spent up to now is      578.3 secs

     per-process dynamical memory:   101.3 Mb

     Self-consistent Calculation

     iteration #  1     ecut=    36.75 Ry     beta=0.30
     Davidson diagonalization with overlap
     c_bands:  1 eigenvalues not converged
     c_bands:  1 eigenvalues not converged
     ethr =  1.00E-06,  avg # of iterations = 16.0

     negative rho (up, down):  1.593E+00 0.000E+00
 
     Adding external electric field

     Computed dipole along edir(3) : 
        Dipole               -1.7293 Ry au,         -4.3955 Debye
        Dipole field         -0.0051 Ry au
 
        Potential amp.        0.4557 Ry
        Total length         45.0992 bohr
 

     total cpu time spent up to now is      613.7 secs

     total energy              =   -2123.43609025 Ry
     Harris-Foulkes estimate   =   -2123.61616578 Ry
     estimated scf accuracy    <       0.38198725 Ry

     iteration #  2     ecut=    36.75 Ry     beta=0.30
     Davidson diagonalization with overlap
     ethr =  2.06E-04,  avg # of iterations =  6.8

     negative rho (up, down):  1.593E+00 0.000E+00
 
     Adding external electric field

     Computed dipole along edir(3) : 
        Dipole               -0.2717 Ry au,         -0.6907 Debye
        Dipole field         -0.0008 Ry au
 
        Potential amp.        0.0716 Ry
        Total length         45.0992 bohr
 

     total cpu time spent up to now is      636.5 secs

     total energy              =   -2121.43511001 Ry
     Harris-Foulkes estimate   =   -2125.73655590 Ry
     estimated scf accuracy    <     182.31248141 Ry

     iteration #  3     ecut=    36.75 Ry     beta=0.30
     Davidson diagonalization with overlap
     ethr =  2.06E-04,  avg # of iterations =  6.0

     negative rho (up, down):  1.593E+00 0.000E+00
 
     Adding external electric field

     Computed dipole along edir(3) : 
        Dipole               -0.2976 Ry au,         -0.7563 Debye
        Dipole field         -0.0009 Ry au
 
        Potential amp.        0.0784 Ry
        Total length         45.0992 bohr
 

     total cpu time spent up to now is      658.4 secs

     total energy              =   -2123.54752574 Ry
     Harris-Foulkes estimate   =   -2123.66466042 Ry
     estimated scf accuracy    <       1.77618370 Ry

     iteration #  4     ecut=    36.75 Ry     beta=0.30
     Davidson diagonalization with overlap
     ethr =  2.06E-04,  avg # of iterations =  4.0

     negative rho (up, down):  1.593E+00 0.000E+00
 
     Adding external electric field

     Computed dipole along edir(3) : 
        Dipole               -0.2359 Ry au,         -0.5995 Debye
        Dipole field         -0.0007 Ry au
 
        Potential amp.        0.0622 Ry
        Total length         45.0992 bohr
 

     total cpu time spent up to now is      675.0 secs

     total energy              =   -2123.60451137 Ry
     Harris-Foulkes estimate   =   -2123.61478363 Ry
     estimated scf accuracy    <       0.08343589 Ry

     iteration #  5     ecut=    36.75 Ry     beta=0.30
     Davidson diagonalization with overlap
     ethr =  4.51E-05,  avg # of iterations =  2.8

     negative rho (up, down):  1.593E+00 0.000E+00
 
     Adding external electric field

     Computed dipole along edir(3) : 
        Dipole               -0.2045 Ry au,         -0.5199 Debye
        Dipole field         -0.0006 Ry au
 
        Potential amp.        0.0539 Ry
        Total length         45.0992 bohr
 

     total cpu time spent up to now is      690.4 secs

     total energy              =   -2123.60920303 Ry
     Harris-Foulkes estimate   =   -2123.61003225 Ry
     estimated scf accuracy    <       0.00594573 Ry

     iteration #  6     ecut=    36.75 Ry     beta=0.30
     Davidson diagonalization with overlap
     ethr =  3.21E-06,  avg # of iterations =  5.7

     negative rho (up, down):  1.593E+00 0.000E+00
 
     Adding external electric field

     Computed dipole along edir(3) : 
        Dipole               -0.2115 Ry au,         -0.5376 Debye
        Dipole field         -0.0006 Ry au
 
        Potential amp.        0.0557 Ry
        Total length         45.0992 bohr
 

     total cpu time spent up to now is      710.8 secs

     total energy              =   -2123.61067396 Ry
     Harris-Foulkes estimate   =   -2123.61143355 Ry
     estimated scf accuracy    <       0.00848975 Ry

     iteration #  7     ecut=    36.75 Ry     beta=0.30
     Davidson diagonalization with overlap
     ethr =  3.21E-06,  avg # of iterations =  1.4

     negative rho (up, down):  1.594E+00 0.000E+00
 
     Adding external electric field

     Computed dipole along edir(3) : 
        Dipole               -0.2249 Ry au,         -0.5716 Debye
        Dipole field         -0.0007 Ry au
 
        Potential amp.        0.0593 Ry
        Total length         45.0992 bohr
 

     total cpu time spent up to now is      725.2 secs

     total energy              =   -2123.61045473 Ry
     Harris-Foulkes estimate   =   -2123.61095021 Ry
     estimated scf accuracy    <       0.00367351 Ry

     iteration #  8     ecut=    36.75 Ry     beta=0.30
     Davidson diagonalization with overlap
     ethr =  1.99E-06,  avg # of iterations =  4.0

     negative rho (up, down):  1.594E+00 0.000E+00
 
     Adding external electric field

     Computed dipole along edir(3) : 
        Dipole               -0.2267 Ry au,         -0.5762 Debye
        Dipole field         -0.0007 Ry au
 
        Potential amp.        0.0597 Ry
        Total length         45.0992 bohr
 

     total cpu time spent up to now is      741.8 secs

     total energy              =   -2123.61092770 Ry
     Harris-Foulkes estimate   =   -2123.61096938 Ry
     estimated scf accuracy    <       0.00138680 Ry

     iteration #  9     ecut=    36.75 Ry     beta=0.30
     Davidson diagonalization with overlap
     ethr =  7.50E-07,  avg # of iterations =  2.8

     negative rho (up, down):  1.594E+00 0.000E+00
 
     Adding external electric field

     Computed dipole along edir(3) : 
        Dipole               -0.2173 Ry au,         -0.5523 Debye
        Dipole field         -0.0006 Ry au
 
        Potential amp.        0.0573 Ry
        Total length         45.0992 bohr
 

     total cpu time spent up to now is      757.0 secs

     total energy              =   -2123.61082228 Ry
     Harris-Foulkes estimate   =   -2123.61103541 Ry
     estimated scf accuracy    <       0.00198423 Ry

     iteration # 10     ecut=    36.75 Ry     beta=0.30
     Davidson diagonalization with overlap
     ethr =  7.50E-07,  avg # of iterations =  1.8

     negative rho (up, down):  1.594E+00 0.000E+00
 
     Adding external electric field

     Computed dipole along edir(3) : 
        Dipole               -0.2154 Ry au,         -0.5475 Debye
        Dipole field         -0.0006 Ry au
 
        Potential amp.        0.0568 Ry
        Total length         45.0992 bohr
 

     total cpu time spent up to now is      772.1 secs

     total energy              =   -2123.61086921 Ry
     Harris-Foulkes estimate   =   -2123.61089972 Ry
     estimated scf accuracy    <       0.00028843 Ry

     iteration # 11     ecut=    36.75 Ry     beta=0.30
     Davidson diagonalization with overlap
     ethr =  1.56E-07,  avg # of iterations =  4.8

     negative rho (up, down):  1.594E+00 0.000E+00
 
     Adding external electric field

     Computed dipole along edir(3) : 
        Dipole               -0.2149 Ry au,         -0.5462 Debye
        Dipole field         -0.0006 Ry au
 
        Potential amp.        0.0566 Ry
        Total length         45.0992 bohr
 

     total cpu time spent up to now is      789.1 secs

     total energy              =   -2123.61090068 Ry
     Harris-Foulkes estimate   =   -2123.61090635 Ry
     estimated scf accuracy    <       0.00004359 Ry

     iteration # 12     ecut=    36.75 Ry     beta=0.30
     Davidson diagonalization with overlap
     ethr =  2.36E-08,  avg # of iterations =  4.2

     negative rho (up, down):  1.594E+00 0.000E+00
 
     Adding external electric field

     Computed dipole along edir(3) : 
        Dipole               -0.2159 Ry au,         -0.5487 Debye
        Dipole field         -0.0006 Ry au
 
        Potential amp.        0.0569 Ry
        Total length         45.0992 bohr
 

     total cpu time spent up to now is      806.6 secs

     total energy              =   -2123.61090361 Ry
     Harris-Foulkes estimate   =   -2123.61090692 Ry
     estimated scf accuracy    <       0.00005712 Ry

     iteration # 13     ecut=    36.75 Ry     beta=0.30
     Davidson diagonalization with overlap
     ethr =  2.36E-08,  avg # of iterations =  1.0

     negative rho (up, down):  1.594E+00 0.000E+00
 
     Adding external electric field

     Computed dipole along edir(3) : 
        Dipole               -0.2170 Ry au,         -0.5515 Debye
        Dipole field         -0.0006 Ry au
 
        Potential amp.        0.0572 Ry
        Total length         45.0992 bohr
 

     total cpu time spent up to now is      820.9 secs

     total energy              =   -2123.61090285 Ry
     Harris-Foulkes estimate   =   -2123.61090380 Ry
     estimated scf accuracy    <       0.00001856 Ry

     iteration # 14     ecut=    36.75 Ry     beta=0.30
     Davidson diagonalization with overlap
     ethr =  1.00E-08,  avg # of iterations =  4.0

     negative rho (up, down):  1.594E+00 0.000E+00

     negative rho (up, down):  1.594E+00 0.000E+00

     negative rho (up, down):  1.594E+00 0.000E+00

     negative rho (up, down):  1.594E+00 0.000E+00

     negative rho (up, down):  1.594E+00 0.000E+00

     negative rho (up, down):  1.594E+00 0.000E+00

     negative rho (up, down):  1.594E+00 0.000E+00

     negative rho (up, down):  1.594E+00 0.000E+00

     negative rho (up, down):  1.594E+00 0.000E+00

     negative rho (up, down):  1.594E+00 0.000E+00

     negative rho (up, down):  1.594E+00 0.000E+00

     negative rho (up, down):  1.594E+00 0.000E+00

     negative rho (up, down):  1.594E+00 0.000E+00

     negative rho (up, down):  1.594E+00 0.000E+00

     negative rho (up, down):  1.594E+00 0.000E+00

     negative rho (up, down):  1.594E+00 0.000E+00

     negative rho (up, down):  1.594E+00 0.000E+00

     negative rho (up, down):  1.594E+00 0.000E+00

     negative rho (up, down):  1.594E+00 0.000E+00

     negative rho (up, down):  1.594E+00 0.000E+00

     negative rho (up, down):  1.594E+00 0.000E+00

     negative rho (up, down):  1.594E+00 0.000E+00

     negative rho (up, down):  1.594E+00 0.000E+00

     negative rho (up, down):  1.594E+00 0.000E+00

     negative rho (up, down):  1.594E+00 0.000E+00

     negative rho (up, down):  1.594E+00 0.000E+00

     negative rho (up, down):  1.594E+00 0.000E+00

     negative rho (up, down):  1.594E+00 0.000E+00

     negative rho (up, down):  1.594E+00 0.000E+00

     negative rho (up, down):  1.594E+00 0.000E+00

     negative rho (up, down):  1.594E+00 0.000E+00

     negative rho (up, down):  1.594E+00 0.000E+00

     negative rho (up, down):  1.594E+00 0.000E+00

     negative rho (up, down):  1.594E+00 0.000E+00

     negative rho (up, down):  1.594E+00 0.000E+00
 
     Adding external electric field

     Computed dipole along edir(3) : 
        Dipole               -0.2026 Ry au,         -0.5149 Debye
        Dipole field         -0.0006 Ry au
 
        Potential amp.        0.0534 Ry
        Total length         45.0992 bohr
 

     total cpu time spent up to now is      878.5 secs

     End of self-consistent calculation

          k = 0.0000 0.0000 0.0000 ( 16073 PWs)   bands (ev):

   -65.1734 -65.0302 -64.9002 -64.8452 -64.8447 -64.7864 -64.7035 -64.6639
   -64.6632 -64.6624 -64.6163 -64.6155 -37.8422 -37.4782 -37.4780 -37.4148
   -37.3402 -37.3399 -37.3245 -37.2208 -37.1965 -37.1962 -37.1434 -36.8214
   -36.8211 -36.8136 -36.7715 -36.7340 -36.7339 -36.7233 -36.6828 -36.6822
   -36.6190 -36.5772 -36.5772 -36.5220 -36.5217 -36.4926 -36.4926 -36.4780
   -36.4648 -36.4501 -36.4497 -36.4215 -36.2849 -36.2846 -36.2551 -36.2550
   -11.0858  -4.2414  -3.0598  -3.0597  -3.0239  -2.9629  -2.8486  -2.5590
    -2.5344  -2.5343  -2.5226  -2.5225  -2.3819  -2.0246  -2.0238  -2.0237
    -1.6499  -1.6498  -1.0726  -0.7836  -0.2249  -0.2248   0.1220   0.3308
     0.5185   0.5187   0.5990   0.5990   0.7596   0.8621   0.8621   0.9578
     1.1045   1.1045   1.2181   1.2183   1.5696   1.5699   2.1209   2.5293
     2.5743   2.5744   2.6117   2.9126   2.9160   2.9161   3.2478   3.2480
     3.5549   3.6944   3.6945   4.0025   4.0027   4.2881

          k = 0.0000 0.0351 0.0000 ( 16137 PWs)   bands (ev):

   -65.1718 -65.0225 -64.9024 -64.8511 -64.8452 -64.7782 -64.6990 -64.6715
   -64.6634 -64.6628 -64.6218 -64.6155 -37.8395 -37.4464 -37.4303 -37.3767
   -37.3150 -37.3064 -37.2948 -37.1990 -37.1685 -37.1549 -37.1019 -36.8519
   -36.8388 -36.8189 -36.8011 -36.7615 -36.7450 -36.7178 -36.6646 -36.6608
   -36.6283 -36.5925 -36.5794 -36.5394 -36.5350 -36.5228 -36.5049 -36.4885
   -36.4794 -36.4768 -36.4530 -36.4297 -36.3362 -36.3125 -36.2971 -36.2681
   -11.0841  -3.9961  -2.9301  -2.8915  -2.8069  -2.7719  -2.6052  -2.4463
    -2.4049  -2.3789  -2.3732  -2.3427  -2.2307  -1.9100  -1.7859  -1.7799
    -1.5807  -1.5778  -1.0569  -0.7328  -0.1906  -0.1802   0.1250   0.1962
     0.3673   0.4396   0.5108   0.5911   0.7527   0.8230   0.9265   0.9756
     1.0084   1.0560   1.1832   1.3131   1.3972   1.5258   1.8493   2.2235
     2.2625   2.3198   2.5788   2.6126   2.6695   2.7751   3.0049   3.0746
     3.2363   3.3895   3.5489   3.8016   3.8733   3.9223

          k = 0.0000 0.0702 0.0000 ( 16149 PWs)   bands (ev):

   -65.1686 -65.0036 -64.9111 -64.8635 -64.8453 -64.7559 -64.6945 -64.6868
   -64.6634 -64.6629 -64.6357 -64.6155 -37.8344 -37.3688 -37.3267 -37.2727
   -37.2595 -37.2386 -37.2068 -37.1426 -37.1043 -37.0713 -36.9950 -36.9130
   -36.9118 -36.8698 -36.8004 -36.7825 -36.7758 -36.6993 -36.6808 -36.6521
   -36.6462 -36.6345 -36.6006 -36.5951 -36.5822 -36.5644 -36.5448 -36.5346
   -36.5006 -36.4999 -36.4822 -36.4586 -36.4207 -36.4024 -36.3264 -36.3028
   -11.0807  -3.3567  -2.6500  -2.5413  -2.3557  -2.3079  -2.2432  -2.0695
    -2.0041  -1.9862  -1.9030  -1.8342  -1.8053  -1.6525  -1.4351  -1.4068
    -1.1553  -1.0679  -1.0139  -0.6527  -0.3880  -0.2259  -0.1792  -0.0783
     0.2525   0.3068   0.3133   0.4778   0.5469   0.6363   0.7610   0.9264
     0.9889   1.1062   1.2413   1.3185   1.3328   1.4073   1.5624   1.6183
     1.8612   1.8733   1.9331   2.0368   2.0577   2.1332   2.3716   2.3748
     2.6323   2.9841   3.0360   3.2197   3.2792   3.3157

          k = 0.0000-0.1053 0.0000 ( 16164 PWs)   bands (ev):

   -65.1671 -64.9905 -64.9198 -64.8688 -64.8454 -64.7261 -64.7243 -64.6775
   -64.6634 -64.6629 -64.6463 -64.6155 -37.8319 -37.3152 -37.2597 -37.2351
   -37.2304 -37.1738 -37.1332 -37.0673 -37.0626 -37.0245 -36.9980 -36.9742
   -36.9717 -36.8956 -36.7639 -36.7509 -36.7227 -36.7080 -36.7026 -36.6868
   -36.6656 -36.6438 -36.6421 -36.6415 -36.6313 -36.6160 -36.5944 -36.5860
   -36.5539 -36.5040 -36.4803 -36.4654 -36.4509 -36.3636 -36.3534 -36.3346
   -11.0791  -2.7125  -2.6963  -2.3372  -2.1344  -2.0369  -2.0129  -1.9037
    -1.8728  -1.6847  -1.6081  -1.4636  -1.3956  -1.3342  -1.1367  -1.0332
    -1.0077  -0.9030  -0.7653  -0.7492  -0.4035  -0.3530  -0.2455  -0.2139
    -0.0995   0.0530   0.3225   0.4197   0.5916   0.6309   0.7498   0.8384
     0.8585   0.9384   0.9672   0.9927   1.0688   1.1617   1.1693   1.2788
     1.3124   1.3913   1.9013   1.9873   2.1509   2.1715   2.2264   2.3296
     2.4648   2.6599   2.7905   2.7920   2.8588   2.9481

          k = 0.0304-0.0175 0.0000 ( 16137 PWs)   bands (ev):

   -65.1718 -65.0226 -64.9024 -64.8517 -64.8448 -64.7783 -64.6990 -64.6715
   -64.6632 -64.6631 -64.6213 -64.6160 -37.8395 -37.4467 -37.4301 -37.3767
   -37.3149 -37.3065 -37.2950 -37.1990 -37.1685 -37.1549 -37.1019 -36.8520
   -36.8386 -36.8189 -36.8012 -36.7613 -36.7452 -36.7179 -36.6646 -36.6608
   -36.6283 -36.5925 -36.5795 -36.5394 -36.5350 -36.5227 -36.5049 -36.4887
   -36.4794 -36.4767 -36.4529 -36.4296 -36.3361 -36.3125 -36.2973 -36.2681
   -11.0841  -3.9961  -2.9301  -2.8915  -2.8069  -2.7719  -2.6052  -2.4463
    -2.4050  -2.3787  -2.3732  -2.3428  -2.2307  -1.9100  -1.7859  -1.7799
    -1.5808  -1.5778  -1.0569  -0.7328  -0.1906  -0.1803   0.1250   0.1962
     0.3673   0.4396   0.5108   0.5910   0.7527   0.8230   0.9265   0.9755
     1.0083   1.0559   1.1832   1.3131   1.3973   1.5257   1.8493   2.2235
     2.2626   2.3199   2.5789   2.6126   2.6695   2.7751   3.0049   3.0746
     3.2362   3.3895   3.5489   3.8016   3.8734   3.9223

          k = 0.0304 0.0175 0.0000 ( 16137 PWs)   bands (ev):

   -65.1718 -65.0226 -64.9024 -64.8515 -64.8449 -64.7783 -64.6991 -64.6714
   -64.6639 -64.6624 -64.6211 -64.6162 -37.8395 -37.4466 -37.4301 -37.3768
   -37.3148 -37.3065 -37.2950 -37.1990 -37.1682 -37.1552 -37.1019 -36.8520
   -36.8387 -36.8188 -36.8011 -36.7614 -36.7451 -36.7179 -36.6643 -36.6612
   -36.6283 -36.5924 -36.5796 -36.5393 -36.5352 -36.5226 -36.5049 -36.4887
   -36.4791 -36.4769 -36.4530 -36.4296 -36.3360 -36.3125 -36.2973 -36.2681
   -11.0841  -3.9961  -2.9302  -2.8915  -2.8069  -2.7719  -2.6052  -2.4463
    -2.4050  -2.3787  -2.3732  -2.3428  -2.2308  -1.9100  -1.7858  -1.7800
    -1.5807  -1.5779  -1.0569  -0.7329  -0.1906  -0.1802   0.1250   0.1962
     0.3673   0.4397   0.5108   0.5910   0.7527   0.8230   0.9265   0.9756
     1.0083   1.0559   1.1832   1.3131   1.3974   1.5256   1.8494   2.2235
     2.2626   2.3198   2.5789   2.6126   2.6696   2.7750   3.0049   3.0745
     3.2362   3.3895   3.5490   3.8017   3.8733   3.9223

          k = 0.0304 0.0526 0.0000 ( 16202 PWs)   bands (ev):

   -65.1694 -65.0091 -64.9069 -64.8639 -64.8432 -64.7630 -64.6908 -64.6789
   -64.6783 -64.6560 -64.6317 -64.6156 -37.8356 -37.3937 -37.3403 -37.3093
   -37.2707 -37.2657 -37.2314 -37.1595 -37.1253 -37.0844 -37.0279 -36.9126
   -36.8731 -36.8687 -36.8037 -36.7838 -36.7404 -36.7175 -36.6845 -36.6459
   -36.6365 -36.6254 -36.5983 -36.5792 -36.5732 -36.5471 -36.5289 -36.5182
   -36.4971 -36.4713 -36.4528 -36.4498 -36.4243 -36.3906 -36.3228 -36.2975
   -11.0816  -3.5461  -2.6716  -2.6472  -2.4772  -2.4290  -2.2022  -2.2007
    -2.1720  -2.1438  -2.1151  -1.9607  -1.9114  -1.6202  -1.5862  -1.4590
    -1.4272  -1.2133  -1.0267  -0.6722  -0.3060  -0.2029  -0.0523   0.0368
     0.2183   0.2633   0.3944   0.5069   0.5659   0.8022   0.8133   0.8590
     0.9644   1.1417   1.1804   1.2519   1.3804   1.5692   1.7282   1.7584
     1.7820   2.0182   2.0806   2.2503   2.3195   2.3725   2.4531   2.5176
     2.6866   2.9486   3.2434   3.3571   3.4447   3.4872

          k = 0.0304-0.1228 0.0000 ( 16203 PWs)   bands (ev):

   -65.1671 -64.9916 -64.9135 -64.8788 -64.8406 -64.7365 -64.7056 -64.6829
   -64.6769 -64.6518 -64.6471 -64.6151 -37.8318 -37.3090 -37.2426 -37.2300
   -37.2133 -37.1737 -37.1647 -37.1040 -37.0751 -37.0358 -37.0052 -36.9383
   -36.9355 -36.8708 -36.8207 -36.7991 -36.7636 -36.7189 -36.6952 -36.6713
   -36.6611 -36.6459 -36.6388 -36.6313 -36.6062 -36.5899 -36.5724 -36.5588
   -36.5283 -36.5032 -36.4763 -36.4631 -36.4484 -36.4045 -36.3620 -36.3462
   -11.0791  -2.8386  -2.4408  -2.3391  -2.0886  -2.0300  -1.9573  -1.8511
    -1.7910  -1.7139  -1.6083  -1.5043  -1.4742  -1.3406  -1.2316  -1.1270
    -1.0089  -0.9412  -0.7948  -0.6346  -0.4776  -0.3989  -0.3154  -0.1489
    -0.0617   0.0479   0.1725   0.3459   0.4565   0.4988   0.6244   0.6640
     0.7191   0.8152   0.9076   1.0343   1.1013   1.2073   1.3430   1.4028
     1.4885   1.5690   1.7516   1.8959   2.0626   2.1445   2.2806   2.3733
     2.5250   2.6498   2.8240   2.8604   3.0882   3.2080

          k = 0.0304-0.0877 0.0000 ( 16203 PWs)   bands (ev):

   -65.1671 -64.9916 -64.9135 -64.8789 -64.8406 -64.7365 -64.7056 -64.6829
   -64.6769 -64.6518 -64.6472 -64.6151 -37.8318 -37.3090 -37.2426 -37.2301
   -37.2133 -37.1737 -37.1648 -37.1040 -37.0751 -37.0358 -37.0052 -36.9383
   -36.9354 -36.8708 -36.8204 -36.7993 -36.7635 -36.7189 -36.6953 -36.6714
   -36.6612 -36.6458 -36.6388 -36.6313 -36.6063 -36.5899 -36.5724 -36.5588
   -36.5282 -36.5033 -36.4763 -36.4631 -36.4483 -36.4045 -36.3620 -36.3462
   -11.0791  -2.8386  -2.4408  -2.3391  -2.0886  -2.0300  -1.9573  -1.8511
    -1.7910  -1.7139  -1.6083  -1.5043  -1.4742  -1.3406  -1.2316  -1.1270
    -1.0089  -0.9413  -0.7948  -0.6346  -0.4776  -0.3989  -0.3154  -0.1489
    -0.0617   0.0480   0.1725   0.3459   0.4565   0.4988   0.6244   0.6640
     0.7191   0.8152   0.9077   1.0342   1.1013   1.2072   1.3430   1.4028
     1.4885   1.5690   1.7516   1.8958   2.0625   2.1445   2.2807   2.3733
     2.5250   2.6498   2.8240   2.8604   3.0882   3.2080

          k = 0.0304-0.0526 0.0000 ( 16202 PWs)   bands (ev):

   -65.1694 -65.0091 -64.9068 -64.8640 -64.8430 -64.7630 -64.6908 -64.6793
   -64.6778 -64.6560 -64.6318 -64.6155 -37.8356 -37.3937 -37.3403 -37.3093
   -37.2707 -37.2658 -37.2314 -37.1595 -37.1254 -37.0843 -37.0278 -36.9126
   -36.8732 -36.8685 -36.8037 -36.7839 -36.7405 -36.7175 -36.6843 -36.6461
   -36.6363 -36.6256 -36.5984 -36.5792 -36.5732 -36.5471 -36.5288 -36.5183
   -36.4972 -36.4713 -36.4529 -36.4497 -36.4242 -36.3906 -36.3228 -36.2975
   -11.0816  -3.5461  -2.6716  -2.6472  -2.4772  -2.4290  -2.2023  -2.2007
    -2.1720  -2.1438  -2.1151  -1.9607  -1.9113  -1.6202  -1.5862  -1.4590
    -1.4272  -1.2133  -1.0266  -0.6722  -0.3060  -0.2030  -0.0523   0.0368
     0.2183   0.2633   0.3945   0.5069   0.5660   0.8022   0.8133   0.8589
     0.9643   1.1417   1.1804   1.2520   1.3804   1.5692   1.7282   1.7583
     1.7820   2.0182   2.0806   2.2503   2.3196   2.3726   2.4530   2.5175
     2.6866   2.9486   3.2435   3.3572   3.4446   3.4871

          k = 0.0608-0.0351 0.0000 ( 16149 PWs)   bands (ev):

   -65.1686 -65.0036 -64.9108 -64.8642 -64.8449 -64.7559 -64.6945 -64.6870
   -64.6632 -64.6631 -64.6350 -64.6160 -37.8343 -37.3691 -37.3264 -37.2727
   -37.2593 -37.2387 -37.2070 -37.1425 -37.1043 -37.0713 -36.9951 -36.9129
   -36.9117 -36.8698 -36.8005 -36.7827 -36.7755 -36.6994 -36.6810 -36.6521
   -36.6462 -36.6344 -36.6007 -36.5952 -36.5822 -36.5645 -36.5448 -36.5345
   -36.5005 -36.4999 -36.4821 -36.4582 -36.4207 -36.4024 -36.3267 -36.3029
   -11.0807  -3.3567  -2.6500  -2.5412  -2.3557  -2.3079  -2.2431  -2.0695
    -2.0041  -1.9862  -1.9028  -1.8343  -1.8053  -1.6526  -1.4350  -1.4068
    -1.1553  -1.0679  -1.0139  -0.6527  -0.3881  -0.2259  -0.1792  -0.0782
     0.2525   0.3068   0.3133   0.4778   0.5470   0.6362   0.7610   0.9264
     0.9889   1.1063   1.2412   1.3185   1.3328   1.4073   1.5624   1.6183
     1.8612   1.8733   1.9331   2.0369   2.0576   2.1332   2.3716   2.3748
     2.6323   2.9840   3.0360   3.2198   3.2792   3.3156

          k = 0.0608 0.0000 0.0000 ( 16202 PWs)   bands (ev):

   -65.1694 -65.0091 -64.9066 -64.8643 -64.8429 -64.7630 -64.6909 -64.6790
   -64.6782 -64.6560 -64.6312 -64.6160 -37.8356 -37.3938 -37.3402 -37.3093
   -37.2705 -37.2657 -37.2315 -37.1595 -37.1253 -37.0844 -37.0279 -36.9125
   -36.8730 -36.8687 -36.8038 -36.7840 -36.7405 -36.7174 -36.6846 -36.6459
   -36.6363 -36.6255 -36.5984 -36.5794 -36.5731 -36.5472 -36.5287 -36.5181
   -36.4973 -36.4710 -36.4528 -36.4497 -36.4244 -36.3906 -36.3230 -36.2975
   -11.0816  -3.5461  -2.6716  -2.6472  -2.4772  -2.4290  -2.2022  -2.2008
    -2.1720  -2.1437  -2.1151  -1.9607  -1.9114  -1.6202  -1.5862  -1.4590
    -1.4273  -1.2133  -1.0266  -0.6723  -0.3061  -0.2029  -0.0523   0.0368
     0.2184   0.2633   0.3944   0.5069   0.5660   0.8021   0.8133   0.8589
     0.9644   1.1418   1.1803   1.2519   1.3804   1.5692   1.7282   1.7584
     1.7820   2.0183   2.0805   2.2503   2.3196   2.3726   2.4530   2.5175
     2.6867   2.9485   3.2436   3.3571   3.4446   3.4871

          k = 0.0608 0.0351 0.0000 ( 16149 PWs)   bands (ev):

   -65.1686 -65.0036 -64.9109 -64.8640 -64.8450 -64.7559 -64.6945 -64.6870
   -64.6639 -64.6625 -64.6348 -64.6162 -37.8344 -37.3691 -37.3264 -37.2728
   -37.2592 -37.2386 -37.2071 -37.1425 -37.1040 -37.0715 -36.9951 -36.9130
   -36.9116 -36.8699 -36.8005 -36.7825 -36.7756 -36.6993 -36.6810 -36.6525
   -36.6460 -36.6343 -36.6010 -36.5950 -36.5824 -36.5641 -36.5448 -36.5345
   -36.5004 -36.5001 -36.4821 -36.4580 -36.4206 -36.4024 -36.3268 -36.3029
   -11.0807  -3.3567  -2.6501  -2.5412  -2.3558  -2.3079  -2.2432  -2.0696
    -2.0041  -1.9862  -1.9028  -1.8343  -1.8054  -1.6525  -1.4349  -1.4069
[...]
   -64.8227 -64.7930 -64.7859 -64.7744 -37.8284 -37.5680 -37.5457 -37.4902
   -37.4321 -37.3571 -37.3396 -37.3270 -37.1931 -37.1885 -37.1062 -37.1037
   -37.0777 -37.0426 -36.9661 -36.9548 -36.9198 -36.8609 -36.8357 -36.8232
   -36.8174 -36.7617 -36.7562 -36.7390 -36.7343 -36.7122 -36.7048 -36.6630
   -36.6324 -36.6302 -36.6127 -36.5927 -36.5529 -36.5382 -36.4685 -36.4481
   -10.9552  -3.5113  -2.8055  -2.5948  -2.4584  -2.4170  -2.3199  -2.2023
    -2.1343  -2.1151  -2.0387  -1.9816  -1.8706  -1.6497  -1.5614  -1.4154
    -1.3038  -1.1979  -1.0606  -0.8381  -0.6233  -0.5079  -0.3166  -0.2667
     0.0512   0.1494   0.2079   0.3067   0.3183   0.5056   0.6548   0.7701
     0.7869   0.9135   0.9163   1.0786   1.1389   1.2458   1.3789   1.4781
     1.6298   1.6404   1.7811   1.8999   1.9233   1.9753   2.2411   2.3238
     2.4143   2.8992   2.9538   3.1095   3.1608   3.1615

          k = 0.0608 0.0000 0.0000 ( 16202 PWs)   bands (ev):

   -65.1803 -65.1595 -65.0743 -65.0506 -65.0272 -64.9159 -64.8445 -64.8380
   -64.8261 -64.7896 -64.7844 -64.7742 -37.8277 -37.5958 -37.5451 -37.5386
   -37.4578 -37.3651 -37.3555 -37.3408 -37.2273 -37.1645 -37.1594 -37.0932
   -37.0568 -37.0419 -36.9516 -36.9463 -36.9197 -36.8906 -36.8349 -36.8116
   -36.7967 -36.7628 -36.7513 -36.7355 -36.7147 -36.7027 -36.6592 -36.6490
   -36.6347 -36.6041 -36.5939 -36.5911 -36.5648 -36.5160 -36.4657 -36.4443
   -10.9559  -3.7015  -2.7994  -2.7430  -2.6146  -2.4443  -2.4006  -2.3445
    -2.3316  -2.2134  -2.2068  -2.0393  -1.9892  -1.6811  -1.5493  -1.5122
    -1.4378  -1.3148  -1.2199  -0.8752  -0.5411  -0.4570  -0.2780  -0.1004
     0.1263   0.1683   0.1909   0.2790   0.3637   0.5900   0.6963   0.7614
     0.8128   0.8832   0.9510   1.0859   1.1691   1.3984   1.5539   1.6025
     1.6753   1.7252   1.8724   2.0233   2.1560   2.2007   2.3127   2.3779
     2.5719   2.8329   3.0882   3.2402   3.3098   3.4226

          k = 0.0608 0.0351 0.0000 ( 16149 PWs)   bands (ev):

   -65.1741 -65.1572 -65.0845 -65.0448 -65.0312 -64.9090 -64.8480 -64.8400
   -64.8228 -64.7930 -64.7858 -64.7744 -37.8284 -37.5680 -37.5457 -37.4902
   -37.4321 -37.3571 -37.3395 -37.3270 -37.1932 -37.1885 -37.1062 -37.1037
   -37.0777 -37.0426 -36.9662 -36.9548 -36.9198 -36.8609 -36.8357 -36.8232
   -36.8173 -36.7617 -36.7563 -36.7390 -36.7343 -36.7122 -36.7048 -36.6631
   -36.6324 -36.6302 -36.6127 -36.5927 -36.5529 -36.5382 -36.4685 -36.4481
   -10.9552  -3.5113  -2.8055  -2.5948  -2.4584  -2.4170  -2.3199  -2.2023
    -2.1343  -2.1151  -2.0387  -1.9816  -1.8706  -1.6497  -1.5614  -1.4154
    -1.3038  -1.1979  -1.0606  -0.8381  -0.6233  -0.5079  -0.3166  -0.2667
     0.0512   0.1494   0.2079   0.3067   0.3183   0.5055   0.6548   0.7701
     0.7869   0.9134   0.9163   1.0786   1.1389   1.2458   1.3789   1.4781
     1.6299   1.6404   1.7811   1.8999   1.9233   1.9753   2.2411   2.3238
     2.4143   2.8992   2.9538   3.1095   3.1608   3.1615

          k = 0.0608-0.1404 0.0000 ( 16203 PWs)   bands (ev):

   -65.1660 -65.1442 -65.0954 -65.0630 -65.0232 -64.8908 -64.8586 -64.8334
   -64.8292 -64.8027 -64.7853 -64.7740 -37.8297 -37.5121 -37.4647 -37.4358
   -37.3765 -37.3410 -37.3069 -37.2924 -37.2356 -37.1435 -37.1282 -37.0912
   -37.0497 -37.0219 -36.9776 -36.9586 -36.9176 -36.8793 -36.8594 -36.8368
   -36.8310 -36.8094 -36.7963 -36.7624 -36.7562 -36.7290 -36.7121 -36.7002
   -36.6663 -36.6291 -36.6068 -36.5907 -36.5655 -36.5509 -36.5015 -36.4894
   -10.9538  -2.9905  -2.5719  -2.3254  -2.2657  -2.1584  -2.0729  -2.0040
    -1.9236  -1.8248  -1.7288  -1.6260  -1.5682  -1.5210  -1.2926  -1.2540
    -1.1917  -1.0997  -0.9314  -0.8352  -0.5758  -0.5308  -0.4821  -0.3816
    -0.2668  -0.1190   0.0175   0.1597   0.2104   0.3697   0.4030   0.5004
     0.5570   0.6664   0.7803   0.8750   0.8928   0.9717   1.0993   1.2292
     1.2566   1.3551   1.6900   1.8357   1.9123   1.9887   2.1850   2.2691
     2.4040   2.5493   2.7075   2.8586   2.9954   3.1078

          k = 0.0608-0.1053 0.0000 ( 16272 PWs)   bands (ev):

   -65.1643 -65.1309 -65.0931 -65.0848 -65.0185 -64.8706 -64.8691 -64.8434
   -64.8193 -64.8148 -64.7836 -64.7736 -37.8303 -37.4228 -37.4151 -37.4134
   -37.3785 -37.3422 -37.3044 -37.2818 -37.2564 -37.1883 -37.0581 -37.0547
   -37.0206 -36.9987 -36.9961 -36.9600 -36.9456 -36.9406 -36.9157 -36.8385
   -36.8280 -36.8247 -36.7958 -36.7904 -36.7531 -36.7500 -36.7412 -36.6521
   -36.6484 -36.6237 -36.6137 -36.5809 -36.5698 -36.5552 -36.5456 -36.5371
   -10.9531  -2.4406  -2.3826  -2.3574  -2.1130  -2.0082  -1.8993  -1.7877
    -1.7413  -1.6141  -1.5762  -1.5086  -1.3751  -1.3285  -1.2836  -1.2251
    -1.1781  -1.0993  -1.0580  -0.7626  -0.6956  -0.3900  -0.3622  -0.3223
    -0.2052  -0.2036  -0.1957  -0.0486  -0.0414   0.0004   0.0361   0.1521
     0.2600   0.3773   0.4788   0.6308   0.6819   1.0418   1.1213   1.1284
     1.1682   1.3851   1.5553   1.6571   1.9634   2.0565   2.2095   2.3813
     2.6202   2.6836   2.7265   2.7761   3.0808   3.4280

          k = 0.0608-0.0702 0.0000 ( 16203 PWs)   bands (ev):

   -65.1660 -65.1442 -65.0954 -65.0630 -65.0232 -64.8907 -64.8587 -64.8334
   -64.8291 -64.8028 -64.7853 -64.7739 -37.8297 -37.5121 -37.4647 -37.4358
   -37.3765 -37.3409 -37.3069 -37.2925 -37.2356 -37.1435 -37.1282 -37.0912
   -37.0497 -37.0219 -36.9776 -36.9586 -36.9176 -36.8793 -36.8594 -36.8367
   -36.8310 -36.8094 -36.7963 -36.7623 -36.7562 -36.7290 -36.7121 -36.7002
   -36.6663 -36.6291 -36.6068 -36.5907 -36.5655 -36.5509 -36.5016 -36.4894
   -10.9538  -2.9905  -2.5719  -2.3254  -2.2657  -2.1584  -2.0729  -2.0040
    -1.9236  -1.8249  -1.7288  -1.6260  -1.5682  -1.5210  -1.2927  -1.2540
    -1.1917  -1.0997  -0.9314  -0.8352  -0.5758  -0.5308  -0.4820  -0.3816
    -0.2668  -0.1190   0.0175   0.1597   0.2104   0.3697   0.4030   0.5004
     0.5570   0.6664   0.7803   0.8750   0.8928   0.9717   1.0993   1.2292
     1.2566   1.3551   1.6900   1.8357   1.9123   1.9887   2.1850   2.2691
     2.4040   2.5493   2.7075   2.8586   2.9954   3.1078

          k =-0.0912 0.0526 0.0000 ( 16164 PWs)   bands (ev):

   -65.1654 -65.1411 -65.1072 -65.0466 -65.0313 -64.8856 -64.8699 -64.8317
   -64.8227 -64.8022 -64.7875 -64.7743 -37.8297 -37.5146 -37.4873 -37.4385
   -37.3648 -37.3265 -37.3059 -37.2556 -37.2240 -37.1827 -37.1340 -37.1310
   -37.0836 -36.9960 -36.9387 -36.8857 -36.8810 -36.8617 -36.8548 -36.8514
   -36.8333 -36.8241 -36.8053 -36.7812 -36.7739 -36.7523 -36.7443 -36.7286
   -36.6818 -36.6379 -36.5949 -36.5867 -36.5763 -36.5205 -36.4949 -36.4715
   -10.9538  -2.8751  -2.8464  -2.3406  -2.2532  -2.1640  -2.0767  -2.0159
    -1.9960  -1.8221  -1.6961  -1.5717  -1.5562  -1.5250  -1.3477  -1.1926
    -1.1140  -1.0553  -0.8820  -0.7891  -0.6205  -0.5437  -0.5384  -0.3715
    -0.2446  -0.1453   0.2253   0.2690   0.3092   0.4523   0.6168   0.6516
     0.7072   0.7381   0.7546   0.8227   0.9006   0.9137   0.9887   1.0728
     1.1106   1.2337   1.7291   1.8876   1.9066   2.1113   2.1114   2.2835
     2.3278   2.5543   2.6654   2.6835   2.7671   2.8062

          k =-0.0912 0.0877 0.0000 ( 16203 PWs)   bands (ev):

   -65.1660 -65.1442 -65.0954 -65.0630 -65.0232 -64.8907 -64.8587 -64.8334
   -64.8291 -64.8028 -64.7853 -64.7739 -37.8297 -37.5121 -37.4648 -37.4358
   -37.3765 -37.3409 -37.3069 -37.2925 -37.2356 -37.1435 -37.1282 -37.0912
   -37.0497 -37.0219 -36.9777 -36.9586 -36.9176 -36.8793 -36.8594 -36.8367
   -36.8310 -36.8094 -36.7963 -36.7623 -36.7562 -36.7290 -36.7121 -36.7001
   -36.6663 -36.6291 -36.6068 -36.5907 -36.5655 -36.5509 -36.5016 -36.4894
   -10.9538  -2.9905  -2.5719  -2.3254  -2.2657  -2.1584  -2.0729  -2.0040
    -1.9236  -1.8249  -1.7288  -1.6260  -1.5682  -1.5210  -1.2926  -1.2540
    -1.1917  -1.0997  -0.9314  -0.8352  -0.5758  -0.5308  -0.4821  -0.3816
    -0.2668  -0.1190   0.0175   0.1597   0.2104   0.3697   0.4030   0.5004
     0.5570   0.6664   0.7803   0.8750   0.8928   0.9717   1.0993   1.2292
     1.2566   1.3551   1.6900   1.8357   1.9123   1.9887   2.1850   2.2691
     2.4040   2.5493   2.7075   2.8586   2.9954   3.1078

          k =-0.0912 0.1228 0.0000 ( 16203 PWs)   bands (ev):

   -65.1660 -65.1442 -65.0954 -65.0630 -65.0232 -64.8907 -64.8586 -64.8334
   -64.8292 -64.8027 -64.7853 -64.7740 -37.8297 -37.5121 -37.4647 -37.4358
   -37.3765 -37.3409 -37.3069 -37.2924 -37.2356 -37.1435 -37.1282 -37.0912
   -37.0497 -37.0219 -36.9776 -36.9586 -36.9176 -36.8793 -36.8595 -36.8368
   -36.8310 -36.8094 -36.7963 -36.7624 -36.7562 -36.7290 -36.7121 -36.7002
   -36.6663 -36.6291 -36.6068 -36.5907 -36.5655 -36.5509 -36.5015 -36.4894
   -10.9538  -2.9905  -2.5719  -2.3254  -2.2657  -2.1584  -2.0729  -2.0040
    -1.9236  -1.8248  -1.7288  -1.6260  -1.5682  -1.5210  -1.2926  -1.2540
    -1.1917  -1.0997  -0.9314  -0.8352  -0.5758  -0.5308  -0.4821  -0.3816
    -0.2668  -0.1190   0.0175   0.1597   0.2104   0.3697   0.4030   0.5004
     0.5570   0.6664   0.7803   0.8750   0.8928   0.9717   1.0993   1.2292
     1.2566   1.3551   1.6900   1.8357   1.9123   1.9887   2.1850   2.2691
     2.4040   2.5493   2.7075   2.8586   2.9954   3.1078

          k =-0.0912-0.0526 0.0000 ( 16164 PWs)   bands (ev):

   -65.1654 -65.1412 -65.1072 -65.0467 -65.0312 -64.8857 -64.8698 -64.8317
   -64.8228 -64.8021 -64.7875 -64.7744 -37.8297 -37.5147 -37.4872 -37.4385
   -37.3648 -37.3265 -37.3059 -37.2556 -37.2239 -37.1826 -37.1340 -37.1311
   -37.0837 -36.9960 -36.9386 -36.8857 -36.8811 -36.8617 -36.8547 -36.8513
   -36.8334 -36.8241 -36.8053 -36.7812 -36.7739 -36.7523 -36.7443 -36.7287
   -36.6818 -36.6379 -36.5949 -36.5867 -36.5763 -36.5206 -36.4948 -36.4715
   -10.9538  -2.8751  -2.8463  -2.3406  -2.2532  -2.1640  -2.0767  -2.0159
    -1.9960  -1.8221  -1.6960  -1.5717  -1.5562  -1.5250  -1.3476  -1.1926
    -1.1140  -1.0553  -0.8820  -0.7891  -0.6205  -0.5437  -0.5384  -0.3716
    -0.2446  -0.1453   0.2253   0.2690   0.3092   0.4523   0.6168   0.6516
     0.7072   0.7381   0.7546   0.8227   0.9006   0.9137   0.9887   1.0728
     1.1106   1.2337   1.7291   1.8876   1.9066   2.1113   2.1114   2.2835
     2.3278   2.5543   2.6655   2.6835   2.7671   2.8062

     the Fermi energy is     2.0781 ev

!    total energy              =   -2123.64873067 Ry
     Harris-Foulkes estimate   =   -2123.64873067 Ry
     estimated scf accuracy    <       0.00000003 Ry

     The total energy is the sum of the following terms:

     one-electron contribution =  -18818.73333306 Ry
     hartree contribution      =    9408.21585633 Ry
     xc contribution           =    -402.48511990 Ry
     ewald contribution        =    7689.43878233 Ry
     electric field correction =       0.00030182 Ry
     smearing contrib. (-TS)   =      -0.08521820 Ry

     convergence has been achieved in  12 iterations
 
 BEEF-vdW xc energy contributions
           1 :   -352.553330982266     
           2 :    323.980698048514     
           3 :   -273.286116886625     
           4 :    210.735419859398     
           5 :   -147.142952774631     
           6 :    90.9388608971835     
           7 :   -46.5925537488175     
           8 :    14.5470499962975     
           9 :    7.52020479094847     
          10 :   -22.8724563879931     
          11 :    34.0622484543738     
          12 :   -42.0875343727567     
          13 :    46.4741484225387     
          14 :   -46.0788397538693     
          15 :    40.1113788037851     
          16 :   -28.9246747261388     
          17 :    14.2354848208396     
          18 :    1.26565852757392     
          19 :   -14.7216247922344     
          20 :    23.9502080573689     
          21 :   -27.9840835011322     
          22 :    27.1238339872252     
          23 :   -22.5641547934227     
          24 :    15.8052213321124     
          25 :   -8.13936481678303     
          26 :   0.404897472689072     
          27 :    6.95246596262342     
          28 :   -13.6308331291464     
          29 :    19.2223394072167     
          30 :   -23.1254631310054     
          31 :   -33.6243443640483     
          32 :   -24.6432120326075     

     Forces acting on atoms (Ry/au):


     negative rho (up, down):  1.593E+00 0.000E+00
     atom    1 type  1   force =    -0.00125541   -0.00072517    0.02529555
     atom    2 type  1   force =     0.00125471   -0.00072873    0.02529001
     atom    3 type  1   force =    -0.00000372    0.00145100    0.02529362
     atom    4 type  1   force =     0.00000345    0.00000219    0.04277593
     atom    5 type  1   force =    -0.00000637    0.01741378   -0.02854302
     atom    6 type  1   force =     0.00000599   -0.00000081   -0.03364864
     atom    7 type  1   force =    -0.01508376   -0.00870352   -0.02854291
     atom    8 type  1   force =     0.01508388   -0.00871073   -0.02853495
     atom    9 type  1   force =     0.00000038   -0.00001502   -0.00159473
     atom   10 type  1   force =     0.00000157   -0.00123823    0.00031317
     atom   11 type  1   force =    -0.00105760    0.00062838    0.00032338
     atom   12 type  1   force =     0.00105754    0.00062649    0.00032254
     atom   13 type  2   force =    -0.00000066    0.00000038    0.00125006

     Total force =     0.002995     Total SCF correction =     0.000478
     SCF correction compared to forces is large: reduce conv_thr to get better values


     entering subroutine stress ...


     negative rho (up, down):  1.593E+00 0.000E+00
          total   stress  (Ry/bohr**3)                   (kbar)     P=  -26.36
  -0.00020258  -0.00000000   0.00000000        -29.80     -0.00      0.00
  -0.00000000  -0.00020259  -0.00000000         -0.00    -29.80     -0.00
   0.00000000  -0.00000000  -0.00013233          0.00     -0.00    -19.47


     bfgs converged in  12 scf cycles and  11 bfgs steps
     (criteria: energy <  1.0E+00, force <  1.9E-03)

     End of BFGS Geometry Optimization

     Final energy   =   -2123.6487306746 Ry
Begin final coordinates

ATOMIC_POSITIONS (crystal)
Tc1      0.166666667   0.166666667   0.408540475    0   0   0
Tc1      0.666666667   0.166666667   0.408540475    0   0   0
Tc1      0.166666667   0.666666667   0.408540475    0   0   0
Tc1      0.666666667   0.666666667   0.408540475    0   0   0
Tc1      0.833333333   0.333333333   0.500000000    0   0   0
Tc1      0.333333333   0.333333333   0.500000000    0   0   0
Tc1      0.833333333   0.833333333   0.500000000    0   0   0
Tc1      0.333333333   0.833333333   0.500000000    0   0   0
Tc1     -0.000003058   0.000003935   0.610254804
Tc1      0.500972326  -0.001943239   0.586474905
Tc1     -0.001946521   0.500969417   0.586474105
Tc1      0.500977949   0.500968620   0.586474249
N1      -0.000000623   0.000002963   0.677378730
End final coordinates



     Writing output data file calc.save
 
     init_run     :      9.24s CPU      9.51s WALL (       1 calls)
     electrons    :   4436.78s CPU   4700.05s WALL (      12 calls)
     update_pot   :     26.93s CPU     27.92s WALL (      11 calls)
     forces       :    148.98s CPU    154.36s WALL (      12 calls)
     stress       :    468.72s CPU    483.97s WALL (      12 calls)

     Called by init_run:
     wfcinit      :      3.84s CPU      3.93s WALL (       1 calls)
     potinit      :      1.58s CPU      1.66s WALL (       1 calls)

     Called by electrons:
     c_bands      :   2051.51s CPU   2151.47s WALL (     222 calls)
     sum_band     :    837.61s CPU    892.66s WALL (     222 calls)
     v_of_rho     :    303.82s CPU    327.40s WALL (     234 calls)
     newd         :    725.97s CPU    741.05s WALL (     234 calls)
     mix_rho      :     11.30s CPU     11.57s WALL (     222 calls)
     vdW_energy   :    131.84s CPU    142.94s WALL (     666 calls)
     vdW_ffts     :    262.06s CPU    272.94s WALL (    1356 calls)
     vdW_v        :    109.34s CPU    113.28s WALL (     666 calls)

     Called by c_bands:
     init_us_2    :     11.14s CPU     11.19s WALL (    2345 calls)
     cegterg      :   1872.72s CPU   1916.80s WALL (    1110 calls)

     Called by *egterg:
     h_psi        :   1073.13s CPU   1094.88s WALL (    5796 calls)
     s_psi        :    112.14s CPU    112.46s WALL (    5796 calls)
     g_psi        :      7.64s CPU      7.65s WALL (    4681 calls)
     cdiaghg      :    273.60s CPU    275.18s WALL (    5736 calls)

     Called by h_psi:
     add_vuspsi   :    115.84s CPU    116.05s WALL (    5796 calls)

     General routines
     calbec       :    175.63s CPU    178.06s WALL (    7026 calls)
     fft          :    398.47s CPU    423.56s WALL (   40691 calls)
     ffts         :      0.66s CPU      0.68s WALL (     456 calls)
     fftw         :    622.12s CPU    644.95s WALL (  701310 calls)
     interpolate  :      5.85s CPU      6.03s WALL (     456 calls)
     davcio       :      0.00s CPU      0.03s WALL (       5 calls)
 
     Parallel routines
     fft_scatter  :    576.81s CPU    619.21s WALL (  742457 calls)
 
     PWSCF        :     1h25m CPU        1h30m WALL

 
   This run was terminated on:  18: 0:25   2May2018            

=------------------------------------------------------------------------------=
   JOB DONE.
=------------------------------------------------------------------------------=
Job  /afs/slac/g/suncat/bin/suncat-tsmpirun -x LD_LIBRARY_PATH -wdir /scratch/qe798541_ajv4U pw.x -npool 4 -in pw.inp

TID   HOST_NAME   COMMAND_LINE            STATUS            TERMINATION_TIME
===== ========== ================  =======================  ===================
00000 suncat0074 pw.x -npool 4 -i  Done                     05/02/2018 18:00:25
00001 suncat0074 pw.x -npool 4 -i  Done                     05/02/2018 18:00:25
00002 suncat0074 pw.x -npool 4 -i  Done                     05/02/2018 18:00:25
00003 suncat0074 pw.x -npool 4 -i  Done                     05/02/2018 18:00:25
00004 suncat0074 pw.x -npool 4 -i  Done                     05/02/2018 18:00:25
00005 suncat0074 pw.x -npool 4 -i  Done                     05/02/2018 18:00:25
00006 suncat0074 pw.x -npool 4 -i  Done                     05/02/2018 18:00:25
00007 suncat0074 pw.x -npool 4 -i  Done                     05/02/2018 18:00:25
00008 suncat0064 pw.x -npool 4 -i  Done                     05/02/2018 18:00:25
00009 suncat0064 pw.x -npool 4 -i  Done                     05/02/2018 18:00:25
00010 suncat0064 pw.x -npool 4 -i  Done                     05/02/2018 18:00:25
00011 suncat0064 pw.x -npool 4 -i  Done                     05/02/2018 18:00:25
00012 suncat0064 pw.x -npool 4 -i  Done                     05/02/2018 18:00:25
00013 suncat0064 pw.x -npool 4 -i  Done                     05/02/2018 18:00:25
00014 suncat0064 pw.x -npool 4 -i  Done                     05/02/2018 18:00:25
00015 suncat0064 pw.x -npool 4 -i  Done                     05/02/2018 18:00:25
00016 suncat0041 pw.x -npool 4 -i  Done                     05/02/2018 18:00:25
00017 suncat0041 pw.x -npool 4 -i  Done                     05/02/2018 18:00:25
00018 suncat0041 pw.x -npool 4 -i  Done                     05/02/2018 18:00:25
00019 suncat0041 pw.x -npool 4 -i  Done                     05/02/2018 18:00:25
00020 suncat0041 pw.x -npool 4 -i  Done                     05/02/2018 18:00:25
00021 suncat0041 pw.x -npool 4 -i  Done                     05/02/2018 18:00:25
00022 suncat0041 pw.x -npool 4 -i  Done                     05/02/2018 18:00:25
00023 suncat0041 pw.x -npool 4 -i  Done                     05/02/2018 18:00:25
00024 suncat0029 pw.x -npool 4 -i  Done                     05/02/2018 18:00:25
00025 suncat0029 pw.x -npool 4 -i  Done                     05/02/2018 18:00:25
00026 suncat0029 pw.x -npool 4 -i  Done                     05/02/2018 18:00:25
00027 suncat0029 pw.x -npool 4 -i  Done                     05/02/2018 18:00:25
00028 suncat0029 pw.x -npool 4 -i  Done                     05/02/2018 18:00:25
00029 suncat0029 pw.x -npool 4 -i  Done                     05/02/2018 18:00:25
00030 suncat0029 pw.x -npool 4 -i  Done                     05/02/2018 18:00:25
00031 suncat0029 pw.x -npool 4 -i  Done                     05/02/2018 18:00:25
