  python dir          : /u/if/mamunm/src/espresso
  espresso dir        : /nfs/slac/g/suncatfs/sw/espv18/espresso-dynpy-beef/bin
  pseudo dir          : /u/if/mamunm/psp/gbrv1.5pbe
  ase-espresso py git : GITVERSION



     Program PWSCF v.5.1rc2 (svn rev. 11289) starts on 24Apr2018 at 19:14:45 

     This program is part of the open-source Quantum ESPRESSO suite
     for quantum simulation of materials; please cite
         "P. Giannozzi et al., J. Phys.:Condens. Matter 21 395502 (2009);
          URL http://www.quantum-espresso.org", 
     in publications or presentations arising from this work. More details at
     http://www.quantum-espresso.org/quote

     Parallel version (MPI), running on    32 processors
     K-points division:     npool     =       4
     R & G space division:  proc/nbgrp/npool/nimage =       8
     Reading input from pw.inp
     Message from routine read_cards :
     DEPRECATED: no units specified in CELL_PARAMETERS card

     Current dimensions of program PWSCF are:
     Max number of different atomic species (ntypx) = 10
     Max number of k-points (npk) =  40000
     Max angular momentum in pseudopotentials (lmaxx) =  3
     Presently stress not available with electric field


     **************************************************************************
     Initializing libbeef V0.1.1 with the BEEF-vdW functional.
     Citation: Wellendorff et al., PRB 85, 235149 (2012).
     **************************************************************************


     IMPORTANT: XC functional enforced from input :
     Exchange-correlation      = BEEF-VDW ( 1  4 27 13 2)
     Any further DFT definition will be discarded
     Please, verify this is what you really want


     Subspace diagonalization in iterative solution of the eigenvalue problem:
     a serial algorithm will be used

 
     Parallelization info
     --------------------
     sticks:   dense  smooth     PW     G-vecs:    dense   smooth      PW
     Min         579     230     64               114907    29014    4366
     Max         580     231     66               114920    29056    4372
     Sum        4639    1843    517               919335   232275   34949
 


     bravais-lattice index     =            0
     lattice parameter (alat)  =       1.8897  a.u.
     unit-cell volume          =    7725.1200 (a.u.)^3
     number of atoms/cell      =           14
     number of atomic types    =            3
     number of electrons       =       139.00
     number of Kohn-Sham states=           79
     kinetic-energy cutoff     =      36.7493  Ry
     charge density cutoff     =     367.4932  Ry
     convergence threshold     =      1.0E-05
     mixing beta               =       0.3000
     number of iterations used =           10  plain     mixing
     Exchange-correlation      = BEEF-VDW ( 1  4 27 13 2)
     nstep                     =           50


     celldm(1)=   1.889726  celldm(2)=   0.000000  celldm(3)=   0.000000
     celldm(4)=   0.000000  celldm(5)=   0.000000  celldm(6)=   0.000000

     crystal axes: (cart. coord. in units of alat)
               a(1) = (   7.152277   0.000000   0.000000 )  
               a(2) = (   3.576139   6.194054   0.000000 )  
               a(3) = (   0.000000   0.000000  25.839810 )  

     reciprocal axes: (cart. coord. in units 2 pi/alat)
               b(1) = (  0.139816 -0.080723  0.000000 )  
               b(2) = (  0.000000  0.161445  0.000000 )  
               b(3) = (  0.000000  0.000000  0.038700 )  


     PseudoPot. # 1 for Y  read from file:
     /u/if/mamunm/psp/gbrv1.5pbe/Y.UPF
     MD5 check sum: d034151ed7554c50b6e82763ed42c788
     Pseudo is Ultrasoft + core correction, Zval = 11.0
     Generated by new atomic code, or converted to UPF format
     Using radial grid of  885 points,  6 beta functions with: 
                l(1) =   0
                l(2) =   0
                l(3) =   1
                l(4) =   1
                l(5) =   2
                l(6) =   2
     Q(r) pseudized with  8 coefficients,  rinner =    1.200   1.200   1.200
                                                       1.200   1.200

     PseudoPot. # 2 for O  read from file:
     /u/if/mamunm/psp/gbrv1.5pbe/O.UPF
     MD5 check sum: 734c27235a0248c51dbae37a1fbe46ec
     Pseudo is Ultrasoft + core correction, Zval =  6.0
     Generated by new atomic code, or converted to UPF format
     Using radial grid of  737 points,  5 beta functions with: 
                l(1) =   0
                l(2) =   0
                l(3) =   1
                l(4) =   1
                l(5) =   2
     Q(r) pseudized with  8 coefficients,  rinner =    0.900   0.900   0.900
                                                       0.900   0.900

     PseudoPot. # 3 for H  read from file:
     /u/if/mamunm/psp/gbrv1.5pbe/H.UPF
     MD5 check sum: 761ae9a214b05c3daf00ab9f6b793d6f
     Pseudo is Ultrasoft, Zval =  1.0
     Generated by new atomic code, or converted to UPF format
     Using radial grid of  615 points,  2 beta functions with: 
                l(1) =   0
                l(2) =   0
     Q(r) pseudized with  8 coefficients,  rinner =    0.700

     vdW kernel table read from file vdW_kernel_table
     MD5 check sum: 095c7af220d748ca6e76c0b4c6cfb241

     atomic species   valence    mass     pseudopotential
        Y1            11.00    88.90584     Y ( 1.00)
        O1             6.00    15.99900     O ( 1.00)
        H1             1.00     1.00800     H ( 1.00)

     No symmetry found



   Cartesian axes

     site n.     atom                  positions (alat units)
         1           Y1  tau(   1) = (   1.7880693   1.0323423  10.0000000  )
         2           Y1  tau(   2) = (   5.3642080   1.0323423  10.0000000  )
         3           Y1  tau(   3) = (   3.5761386   4.1293692  10.0000000  )
         4           Y1  tau(   4) = (   7.1522773   4.1293692  10.0000000  )
         5           Y1  tau(   5) = (   7.1522773   2.0646846  12.9199050  )
         6           Y1  tau(   6) = (   3.5761386   2.0646846  12.9199050  )
         7           Y1  tau(   7) = (   8.9403466   5.1617115  12.9199050  )
         8           Y1  tau(   8) = (   5.3642080   5.1617115  12.9199050  )
         9           Y1  tau(   9) = (   0.0000000   0.0000000  15.8398100  )
        10           Y1  tau(  10) = (   3.5761386   0.0000000  15.8398100  )
        11           Y1  tau(  11) = (   1.7880693   3.0970269  15.8398100  )
        12           Y1  tau(  12) = (   5.3642080   3.0970269  15.8398100  )
        13           O1  tau(  13) = (   1.7880693   1.0323423  17.5038100  )
        14           H1  tau(  14) = (   1.7880693   1.0323423  18.4538100  )

     number of k points=    20  Fermi-Dirac smearing, width (Ry)=  0.0110
                       cart. coord. in units 2pi/alat
        k(    1) = (   0.0000000   0.0000000   0.0000000), wk =   0.0555556
        k(    2) = (   0.0000000   0.0269075   0.0000000), wk =   0.1111111
        k(    3) = (   0.0000000   0.0538151   0.0000000), wk =   0.1111111
        k(    4) = (   0.0000000  -0.0807226   0.0000000), wk =   0.0555556
        k(    5) = (   0.0233026  -0.0134538   0.0000000), wk =   0.1111111
        k(    6) = (   0.0233026   0.0134538   0.0000000), wk =   0.1111111
        k(    7) = (   0.0233026   0.0403613   0.0000000), wk =   0.1111111
        k(    8) = (   0.0233026  -0.0941763   0.0000000), wk =   0.1111111
        k(    9) = (   0.0233026  -0.0672688   0.0000000), wk =   0.1111111
        k(   10) = (   0.0233026  -0.0403613   0.0000000), wk =   0.1111111
        k(   11) = (   0.0466052  -0.0269075   0.0000000), wk =   0.1111111
        k(   12) = (   0.0466052   0.0000000   0.0000000), wk =   0.1111111
        k(   13) = (   0.0466052   0.0269075   0.0000000), wk =   0.1111111
        k(   14) = (   0.0466052  -0.1076301   0.0000000), wk =   0.1111111
        k(   15) = (   0.0466052  -0.0807226   0.0000000), wk =   0.1111111
        k(   16) = (   0.0466052  -0.0538151   0.0000000), wk =   0.1111111
        k(   17) = (  -0.0699078   0.0403613   0.0000000), wk =   0.0555556
        k(   18) = (  -0.0699078   0.0672688   0.0000000), wk =   0.1111111
        k(   19) = (  -0.0699078   0.0941763   0.0000000), wk =   0.1111111
        k(   20) = (  -0.0699078  -0.0403613   0.0000000), wk =   0.0555556

     Dense  grid:   919335 G-vectors     FFT dimensions: (  90,  90, 300)

     Smooth grid:   232275 G-vectors     FFT dimensions: (  54,  54, 192)

     Largest allocated arrays     est. size (Mb)     dimensions
        Kohn-Sham Wavefunctions         4.44 Mb     (    3683,   79)
        NL pseudopotentials            12.98 Mb     (    3683,  231)
        Each V/rho on FFT grid          4.70 Mb     (  307800)
        Each G-vector array             0.88 Mb     (  114920)
        G-vector shells                 0.22 Mb     (   29028)
     Largest temporary arrays     est. size (Mb)     dimensions
        Auxiliary wavefunctions        17.76 Mb     (    3683,  316)
        Each subspace H/S matrix        1.52 Mb     (     316,  316)
        Each <psi_i|beta_j> matrix      0.28 Mb     (     231,   79)
        Arrays for rho mixing          46.97 Mb     (  307800,   10)

     Initial potential from superposition of free atoms
     Check: negative starting charge=   -0.000622

     starting charge  138.94636, renormalised to  139.00000

     negative rho (up, down):  6.219E-04 0.000E+00


     ************************************************************************
     *
     * You are using vdW-DF for exchange-correlation in this calculation.
     * Please cite the following three references that made this development
     * possible:
     *
     *   M. Dion, H. Rydberg, E. Schroder, D. C. Langreth, and
     *   B. I. Lundqvist, Phys. Rev. Lett. 92, 246401 (2004).
     *
     *   T. Thonhauser, V. R. Cooper, S. Li, A. Puzder, P. Hyldgaard, and
     *   D. C. Langreth, Phys. Rev. B 76, 125112 (2007).
     *
     *   G. Roman-Perez and J. M. Soler, Phys. Rev. Lett. 103, 096102 (2009).
     *
     *
     * If you are using vdW-DF2, please also cite:
     *
     *   K. Lee, E. D. Murray, L. Kong, B. I. Lundqvist, and
     *   D. C. Langreth, Phys. Rev. B 82, 081101(R) (2010).
     *
     *
     * If you are calculating the stress with vdW-DF, please also cite:
     *
     *   R. Sabatini, E. Kucukbenli, B. Kolb, T. Thonhauser, and
     *   S. de Gironcoli, J. Phys.: Condens. Matter 24, 424209 (2012).
     *
     ************************************************************************

     Carrying out vdW-DF run using the following parameters:

     Nqs =      20    Nr_points =    1024   r_max =   100.000
     q_mesh =
               0.00001000     0.04494208     0.09755937     0.15916263
               0.23128650     0.31572767     0.41458969     0.53033537
               0.66584808     0.82450364     1.01025438     1.22772762
               1.48234092     1.78043706     2.12944203     2.53805004
               3.01644009     3.57652955     4.23227104     5.00000000

     Gradients computed in reciprocal space

     ************************************************************************


 
     Adding external electric field

     Computed dipole along edir(3) : 
        Dipole               -0.0240 Ry au,         -0.0610 Debye
        Dipole field         -0.0000 Ry au
 
        Potential amp.        0.0037 Ry
        Total length         47.6094 bohr
 
     Starting wfc are  161 randomized atomic wfcs

     total cpu time spent up to now is       20.8 secs

     per-process dynamical memory:   121.0 Mb

     Self-consistent Calculation

     iteration #  1     ecut=    36.75 Ry     beta=0.30
     Davidson diagonalization with overlap
     ethr =  1.00E-02,  avg # of iterations =  2.0

     negative rho (up, down):  2.984E-04 0.000E+00
 
     Adding external electric field

     Computed dipole along edir(3) : 
        Dipole               -1.5624 Ry au,         -3.9712 Debye
        Dipole field         -0.0025 Ry au
 
        Potential amp.        0.2420 Ry
        Total length         47.6094 bohr
 

     total cpu time spent up to now is       47.9 secs

     total energy              =   -1156.31157701 Ry
     Harris-Foulkes estimate   =   -1158.79398428 Ry
     estimated scf accuracy    <       5.34720057 Ry

     iteration #  2     ecut=    36.75 Ry     beta=0.30
     Davidson diagonalization with overlap
     ethr =  3.85E-03,  avg # of iterations =  7.8

     negative rho (up, down):  1.840E-04 0.000E+00
 
     Adding external electric field

     Computed dipole along edir(3) : 
        Dipole                3.7449 Ry au,          9.5186 Debye
        Dipole field          0.0061 Ry au
 
        Potential amp.       -0.5801 Ry
        Total length         47.6094 bohr
 

     total cpu time spent up to now is       83.2 secs

     total energy              =   -1152.69290970 Ry
     Harris-Foulkes estimate   =   -1162.44734771 Ry
     estimated scf accuracy    <     143.98632133 Ry

     iteration #  3     ecut=    36.75 Ry     beta=0.30
     Davidson diagonalization with overlap
     ethr =  3.85E-03,  avg # of iterations = 11.2

     negative rho (up, down):  4.522E-06 0.000E+00
 
     Adding external electric field

     Computed dipole along edir(3) : 
        Dipole                0.0800 Ry au,          0.2033 Debye
        Dipole field          0.0001 Ry au
 
        Potential amp.       -0.0124 Ry
        Total length         47.6094 bohr
 

     total cpu time spent up to now is      123.0 secs

     total energy              =   -1154.01456958 Ry
     Harris-Foulkes estimate   =   -1164.56733998 Ry
     estimated scf accuracy    <     276.21607321 Ry

     iteration #  4     ecut=    36.75 Ry     beta=0.30
     Davidson diagonalization with overlap
     ethr =  3.85E-03,  avg # of iterations =  8.5

     negative rho (up, down):  5.827E-06 0.000E+00
 
     Adding external electric field

     Computed dipole along edir(3) : 
        Dipole                0.2714 Ry au,          0.6898 Debye
        Dipole field          0.0004 Ry au
 
        Potential amp.       -0.0420 Ry
        Total length         47.6094 bohr
 

     total cpu time spent up to now is      160.7 secs

     total energy              =   -1158.15230908 Ry
     Harris-Foulkes estimate   =   -1158.26271851 Ry
     estimated scf accuracy    <       1.94518977 Ry

     iteration #  5     ecut=    36.75 Ry     beta=0.30
     Davidson diagonalization with overlap
     ethr =  1.40E-03,  avg # of iterations =  3.5

     negative rho (up, down):  6.509E-06 0.000E+00
 
     Adding external electric field

     Computed dipole along edir(3) : 
        Dipole                0.0913 Ry au,          0.2322 Debye
        Dipole field          0.0001 Ry au
 
        Potential amp.       -0.0141 Ry
        Total length         47.6094 bohr
 

     total cpu time spent up to now is      188.7 secs

     total energy              =   -1158.16743995 Ry
     Harris-Foulkes estimate   =   -1158.19966472 Ry
     estimated scf accuracy    <       0.28944161 Ry

     iteration #  6     ecut=    36.75 Ry     beta=0.30
     Davidson diagonalization with overlap
     ethr =  2.08E-04,  avg # of iterations =  8.8

     negative rho (up, down):  1.264E-05 0.000E+00
 
     Adding external electric field

     Computed dipole along edir(3) : 
        Dipole                0.1997 Ry au,          0.5077 Debye
        Dipole field          0.0003 Ry au
 
        Potential amp.       -0.0309 Ry
        Total length         47.6094 bohr
 

     total cpu time spent up to now is      223.6 secs

     total energy              =   -1158.21021428 Ry
     Harris-Foulkes estimate   =   -1158.21551112 Ry
     estimated scf accuracy    <       0.11826155 Ry

     iteration #  7     ecut=    36.75 Ry     beta=0.30
     Davidson diagonalization with overlap
     ethr =  8.51E-05,  avg # of iterations =  1.9

     negative rho (up, down):  4.350E-05 0.000E+00
 
     Adding external electric field

     Computed dipole along edir(3) : 
        Dipole                0.2540 Ry au,          0.6457 Debye
        Dipole field          0.0004 Ry au
 
        Potential amp.       -0.0393 Ry
        Total length         47.6094 bohr
 

     total cpu time spent up to now is      250.5 secs

     total energy              =   -1158.21229942 Ry
     Harris-Foulkes estimate   =   -1158.21310802 Ry
     estimated scf accuracy    <       0.02833424 Ry

     iteration #  8     ecut=    36.75 Ry     beta=0.30
     Davidson diagonalization with overlap
     ethr =  2.04E-05,  avg # of iterations =  6.0

     negative rho (up, down):  8.222E-05 0.000E+00
 
     Adding external electric field

     Computed dipole along edir(3) : 
        Dipole                0.2170 Ry au,          0.5514 Debye
        Dipole field          0.0004 Ry au
 
        Potential amp.       -0.0336 Ry
        Total length         47.6094 bohr
 

     total cpu time spent up to now is      282.7 secs

     total energy              =   -1158.21521004 Ry
     Harris-Foulkes estimate   =   -1158.21657274 Ry
     estimated scf accuracy    <       0.03063262 Ry

     iteration #  9     ecut=    36.75 Ry     beta=0.30
     Davidson diagonalization with overlap
     ethr =  2.04E-05,  avg # of iterations =  1.6

     negative rho (up, down):  1.293E-04 0.000E+00
 
     Adding external electric field

     Computed dipole along edir(3) : 
        Dipole                0.2112 Ry au,          0.5367 Debye
        Dipole field          0.0003 Ry au
 
        Potential amp.       -0.0327 Ry
        Total length         47.6094 bohr
 

     total cpu time spent up to now is      309.5 secs

     total energy              =   -1158.21539252 Ry
     Harris-Foulkes estimate   =   -1158.21600496 Ry
     estimated scf accuracy    <       0.01640361 Ry

     iteration # 10     ecut=    36.75 Ry     beta=0.30
     Davidson diagonalization with overlap
     ethr =  1.18E-05,  avg # of iterations =  3.1

     negative rho (up, down):  1.972E-04 0.000E+00
 
     Adding external electric field

     Computed dipole along edir(3) : 
        Dipole                0.2395 Ry au,          0.6088 Debye
        Dipole field          0.0004 Ry au
 
        Potential amp.       -0.0371 Ry
        Total length         47.6094 bohr
 

     total cpu time spent up to now is      337.6 secs

     total energy              =   -1158.21590615 Ry
     Harris-Foulkes estimate   =   -1158.21595663 Ry
     estimated scf accuracy    <       0.00077337 Ry

     iteration # 11     ecut=    36.75 Ry     beta=0.30
     Davidson diagonalization with overlap
     ethr =  5.56E-07,  avg # of iterations =  8.4

     negative rho (up, down):  2.751E-04 0.000E+00
 
     Adding external electric field

     Computed dipole along edir(3) : 
        Dipole                0.2416 Ry au,          0.6140 Debye
        Dipole field          0.0004 Ry au
 
        Potential amp.       -0.0374 Ry
        Total length         47.6094 bohr
 

     total cpu time spent up to now is      374.0 secs

     total energy              =   -1158.21613249 Ry
     Harris-Foulkes estimate   =   -1158.21612810 Ry
     estimated scf accuracy    <       0.00078515 Ry

     iteration # 12     ecut=    36.75 Ry     beta=0.30
     Davidson diagonalization with overlap
     ethr =  5.56E-07,  avg # of iterations =  4.7

     negative rho (up, down):  2.612E-04 0.000E+00
 
     Adding external electric field

     Computed dipole along edir(3) : 
        Dipole                0.2314 Ry au,          0.5882 Debye
        Dipole field          0.0004 Ry au
 
        Potential amp.       -0.0358 Ry
        Total length         47.6094 bohr
 

     total cpu time spent up to now is      402.2 secs

     total energy              =   -1158.21612726 Ry
     Harris-Foulkes estimate   =   -1158.21618929 Ry
     estimated scf accuracy    <       0.00027983 Ry

     iteration # 13     ecut=    36.75 Ry     beta=0.30
     Davidson diagonalization with overlap
     ethr =  2.01E-07,  avg # of iterations =  5.2

     negative rho (up, down):  2.930E-04 0.000E+00
 
     Adding external electric field

     Computed dipole along edir(3) : 
        Dipole                0.2301 Ry au,          0.5848 Debye
        Dipole field          0.0004 Ry au
 
        Potential amp.       -0.0356 Ry
        Total length         47.6094 bohr
 

     total cpu time spent up to now is      431.6 secs

     total energy              =   -1158.21616721 Ry
     Harris-Foulkes estimate   =   -1158.21616462 Ry
     estimated scf accuracy    <       0.00004871 Ry

     iteration # 14     ecut=    36.75 Ry     beta=0.30
     Davidson diagonalization with overlap
     ethr =  3.50E-08,  avg # of iterations =  7.8

     negative rho (up, down):  2.890E-04 0.000E+00
 
     Adding external electric field

     Computed dipole along edir(3) : 
        Dipole                0.2304 Ry au,          0.5856 Debye
        Dipole field          0.0004 Ry au
 
        Potential amp.       -0.0357 Ry
        Total length         47.6094 bohr
 

     total cpu time spent up to now is      463.3 secs

     total energy              =   -1158.21617102 Ry
     Harris-Foulkes estimate   =   -1158.21617134 Ry
     estimated scf accuracy    <       0.00001823 Ry

     iteration # 15     ecut=    36.75 Ry     beta=0.30
     Davidson diagonalization with overlap
     ethr =  1.31E-08,  avg # of iterations =  6.2

     negative rho (up, down):  2.881E-04 0.000E+00

     negative rho (up, down):  2.881E-04 0.000E+00

     negative rho (up, down):  2.881E-04 0.000E+00

     negative rho (up, down):  2.881E-04 0.000E+00

     negative rho (up, down):  2.881E-04 0.000E+00

     negative rho (up, down):  2.881E-04 0.000E+00

     negative rho (up, down):  2.881E-04 0.000E+00

     negative rho (up, down):  2.881E-04 0.000E+00

     negative rho (up, down):  2.881E-04 0.000E+00

     negative rho (up, down):  2.881E-04 0.000E+00

     negative rho (up, down):  2.881E-04 0.000E+00

     negative rho (up, down):  2.881E-04 0.000E+00

     negative rho (up, down):  2.881E-04 0.000E+00

     negative rho (up, down):  2.881E-04 0.000E+00

     negative rho (up, down):  2.881E-04 0.000E+00

     negative rho (up, down):  2.881E-04 0.000E+00

     negative rho (up, down):  2.881E-04 0.000E+00

     negative rho (up, down):  2.881E-04 0.000E+00

     negative rho (up, down):  2.881E-04 0.000E+00

     negative rho (up, down):  2.881E-04 0.000E+00

     negative rho (up, down):  2.881E-04 0.000E+00

     negative rho (up, down):  2.881E-04 0.000E+00

     negative rho (up, down):  2.881E-04 0.000E+00

     negative rho (up, down):  2.881E-04 0.000E+00

     negative rho (up, down):  2.881E-04 0.000E+00

     negative rho (up, down):  2.881E-04 0.000E+00

     negative rho (up, down):  2.881E-04 0.000E+00

     negative rho (up, down):  2.881E-04 0.000E+00

     negative rho (up, down):  2.881E-04 0.000E+00

     negative rho (up, down):  2.881E-04 0.000E+00

     negative rho (up, down):  2.881E-04 0.000E+00

     negative rho (up, down):  2.881E-04 0.000E+00

     negative rho (up, down):  2.881E-04 0.000E+00

     negative rho (up, down):  2.881E-04 0.000E+00

     negative rho (up, down):  2.881E-04 0.000E+00
 
     Adding external electric field

     Computed dipole along edir(3) : 
        Dipole                0.2149 Ry au,          0.5462 Debye
        Dipole field          0.0003 Ry au
 
        Potential amp.       -0.0333 Ry
        Total length         47.6094 bohr
 

     total cpu time spent up to now is      579.0 secs

     End of self-consistent calculation

          k = 0.0000 0.0000 0.0000 ( 28997 PWs)   bands (ev):

   -42.1299 -42.0908 -42.0907 -42.0854 -42.0741 -42.0430 -42.0429 -42.0419
   -41.5209 -41.4831 -41.4830 -41.4585 -22.2722 -22.2214 -22.2214 -22.1911
   -22.1871 -22.1870 -22.1779 -22.1069 -22.1030 -22.0848 -22.0848 -22.0407
   -22.0394 -22.0393 -21.9042 -21.9001 -21.9001 -21.8664 -21.8663 -21.8647
   -21.8010 -21.8010 -21.7668 -21.7668 -21.6462 -21.6354 -21.6354 -21.4323
   -21.4067 -21.4067 -21.3788 -21.3433 -21.3373 -21.3372 -21.2407 -21.2406
   -19.0961  -6.8084  -3.0468  -3.0468  -2.9830  -2.0329  -1.0267  -0.3454
    -0.3454  -0.2874  -0.2378  -0.1866  -0.1866   0.1226   0.1226   0.1415
     0.5782   0.5782   0.6387   1.0193   1.0194   1.1500   1.4308   1.5333
     1.8563   1.9596   1.9597   1.9668   2.0421   2.0421   2.3416

          k = 0.0000 0.0269 0.0000 ( 29019 PWs)   bands (ev):

   -42.1271 -42.0928 -42.0907 -42.0825 -42.0749 -42.0456 -42.0430 -42.0422
   -41.5182 -41.4850 -41.4830 -41.4592 -22.2527 -22.2057 -22.1983 -22.1752
   -22.1718 -22.1706 -22.1613 -22.1035 -22.1027 -22.0859 -22.0829 -22.0455
   -22.0407 -22.0401 -21.9197 -21.9178 -21.8949 -21.8831 -21.8821 -21.8592
   -21.8312 -21.8076 -21.7967 -21.7735 -21.6307 -21.6214 -21.6134 -21.4292
   -21.4073 -21.4060 -21.3783 -21.3578 -21.3530 -21.3326 -21.2691 -21.2472
   -19.0952  -6.8038  -3.0726  -3.0437  -2.8181  -1.8807  -0.8773  -0.5537
    -0.2944  -0.2730  -0.2254  -0.1191  -0.0939   0.2002   0.2764   0.3116
     0.6469   0.6601   0.7139   1.0511   1.0552   1.1818   1.4464   1.5333
     1.7856   1.8029   1.8712   1.8815   1.9958   2.0120   2.2936

          k = 0.0000 0.0538 0.0000 ( 29058 PWs)   bands (ev):

   -42.1198 -42.0990 -42.0907 -42.0761 -42.0747 -42.0534 -42.0430 -42.0422
   -41.5112 -41.4908 -41.4830 -41.4605 -22.2082 -22.1671 -22.1541 -22.1376
   -22.1344 -22.1300 -22.1097 -22.0935 -22.0892 -22.0841 -22.0791 -22.0584
   -22.0419 -22.0418 -21.9610 -21.9606 -21.9234 -21.9225 -21.9109 -21.8775
   -21.8764 -21.8413 -21.8255 -21.7918 -21.5965 -21.5863 -21.5467 -21.4225
   -21.4099 -21.4048 -21.3969 -21.3910 -21.3770 -21.3451 -21.3156 -21.2649
   -19.0935  -6.7949  -3.0910  -3.0375  -2.3944  -1.4678  -1.0995  -0.4890
    -0.4029  -0.1811  -0.1654   0.1223   0.1520   0.3208   0.6589   0.6658
     0.8344   0.8785   0.9117   1.1273   1.1522   1.2503   1.3791   1.4687
     1.6181   1.6245   1.6515   1.7235   1.7596   1.7662   2.0037

          k = 0.0000-0.0807 0.0000 ( 29048 PWs)   bands (ev):

   -42.1122 -42.1061 -42.0907 -42.0766 -42.0644 -42.0637 -42.0430 -42.0423
   -41.5043 -41.4972 -41.4830 -41.4610 -22.1806 -22.1402 -22.1334 -22.1270
   -22.1120 -22.1090 -22.0892 -22.0791 -22.0775 -22.0770 -22.0431 -22.0431
   -22.0336 -22.0183 -21.9883 -21.9828 -21.9824 -21.9758 -21.9499 -21.9493
   -21.8594 -21.8438 -21.8178 -21.8155 -21.5741 -21.5614 -21.4539 -21.4484
   -21.4243 -21.4176 -21.4141 -21.4080 -21.4038 -21.3765 -21.2972 -21.2834
   -19.0926  -6.7904  -3.0971  -3.0344  -1.7984  -1.7578  -0.9490  -0.8642
    -0.1251  -0.1155   0.0220   0.1012   0.3122   0.3236   0.9750   0.9969
     1.0258   1.0389   1.0849   1.1062   1.2689   1.2696   1.3271   1.3747
     1.3900   1.4033   1.4670   1.6320   1.6470   1.7503   1.7756

          k = 0.0233-0.0135 0.0000 ( 29019 PWs)   bands (ev):

   -42.1271 -42.0928 -42.0907 -42.0825 -42.0749 -42.0456 -42.0429 -42.0423
   -41.5182 -41.4850 -41.4831 -41.4592 -22.2527 -22.2057 -22.1983 -22.1752
   -22.1718 -22.1706 -22.1613 -22.1035 -22.1027 -22.0859 -22.0829 -22.0455
   -22.0408 -22.0400 -21.9197 -21.9178 -21.8949 -21.8831 -21.8820 -21.8592
   -21.8312 -21.8076 -21.7967 -21.7735 -21.6307 -21.6214 -21.6134 -21.4292
   -21.4073 -21.4060 -21.3783 -21.3578 -21.3529 -21.3326 -21.2691 -21.2472
   -19.0952  -6.8038  -3.0726  -3.0437  -2.8181  -1.8807  -0.8773  -0.5537
    -0.2944  -0.2730  -0.2254  -0.1191  -0.0939   0.2002   0.2764   0.3116
     0.6469   0.6601   0.7139   1.0511   1.0552   1.1818   1.4464   1.5333
     1.7856   1.8029   1.8712   1.8815   1.9958   2.0119   2.2937

          k = 0.0233 0.0135 0.0000 ( 29019 PWs)   bands (ev):

   -42.1271 -42.0927 -42.0908 -42.0825 -42.0749 -42.0456 -42.0430 -42.0422
   -41.5182 -41.4850 -41.4830 -41.4592 -22.2527 -22.2057 -22.1983 -22.1752
   -22.1718 -22.1706 -22.1613 -22.1035 -22.1027 -22.0859 -22.0830 -22.0455
   -22.0407 -22.0401 -21.9198 -21.9178 -21.8949 -21.8831 -21.8821 -21.8592
   -21.8313 -21.8076 -21.7967 -21.7735 -21.6307 -21.6214 -21.6134 -21.4292
   -21.4074 -21.4059 -21.3783 -21.3578 -21.3530 -21.3326 -21.2691 -21.2472
   -19.0952  -6.8038  -3.0726  -3.0437  -2.8181  -1.8807  -0.8773  -0.5537
    -0.2944  -0.2730  -0.2254  -0.1191  -0.0939   0.2002   0.2764   0.3116
     0.6469   0.6601   0.7139   1.0511   1.0552   1.1818   1.4464   1.5333
     1.7856   1.8029   1.8712   1.8815   1.9958   2.0120   2.2937

          k = 0.0233 0.0404 0.0000 ( 29087 PWs)   bands (ev):

   -42.1221 -42.0961 -42.0917 -42.0772 -42.0757 -42.0483 -42.0477 -42.0401
   -41.5133 -41.4884 -41.4836 -41.4601 -22.2201 -22.1729 -22.1598 -22.1567
   -22.1534 -22.1263 -22.1248 -22.1044 -22.0964 -22.0890 -22.0788 -22.0507
   -22.0502 -22.0370 -21.9718 -21.9345 -21.9071 -21.9033 -21.8834 -21.8687
   -21.8674 -21.8499 -21.8216 -21.7876 -21.6091 -21.5827 -21.5789 -21.4243
   -21.4089 -21.4052 -21.4046 -21.3775 -21.3429 -21.3401 -21.3192 -21.2610
   -19.0939  -6.7971  -3.0847  -3.0417  -2.5298  -1.5968  -0.7127  -0.7002
    -0.5761  -0.2081  -0.1819   0.0827   0.1686   0.3730   0.4729   0.5461
     0.7742   0.8026   0.8583   1.1111   1.1190   1.2343   1.4368   1.4766
     1.6384   1.6612   1.7365   1.7758   1.8297   1.8845   2.0433

          k = 0.0233-0.0942 0.0000 ( 29098 PWs)   bands (ev):

   -42.1137 -42.1028 -42.0932 -42.0760 -42.0680 -42.0573 -42.0494 -42.0387
   -41.5055 -41.4946 -41.4847 -41.4608 -22.1762 -22.1395 -22.1263 -22.1175
   -22.1139 -22.0978 -22.0859 -22.0848 -22.0818 -22.0740 -22.0644 -22.0530
   -22.0391 -22.0376 -22.0278 -21.9933 -21.9774 -21.9387 -21.9261 -21.8917
   -21.8791 -21.8464 -21.8427 -21.8131 -21.5731 -21.5440 -21.5028 -21.4610
   -21.4182 -21.4116 -21.4064 -21.4046 -21.3769 -21.3620 -21.3167 -21.2854
   -19.0926  -6.7904  -3.0898  -3.0416  -2.0061  -1.3437  -1.0983  -0.7490
    -0.5463  -0.1205  -0.0539   0.3550   0.3712   0.5107   0.7748   0.8564
     0.9767   1.0130   1.0582   1.1703   1.2344   1.2608   1.3252   1.4061
     1.4359   1.5440   1.5528   1.6039   1.6511   1.7110   1.7923

          k = 0.0233-0.0673 0.0000 ( 29098 PWs)   bands (ev):

   -42.1137 -42.1028 -42.0932 -42.0760 -42.0680 -42.0573 -42.0494 -42.0387
   -41.5055 -41.4946 -41.4847 -41.4608 -22.1762 -22.1395 -22.1263 -22.1175
   -22.1139 -22.0978 -22.0859 -22.0848 -22.0818 -22.0740 -22.0644 -22.0530
   -22.0391 -22.0376 -22.0279 -21.9933 -21.9773 -21.9387 -21.9261 -21.8917
   -21.8791 -21.8464 -21.8427 -21.8131 -21.5732 -21.5440 -21.5029 -21.4610
   -21.4182 -21.4116 -21.4064 -21.4046 -21.3769 -21.3619 -21.3167 -21.2854
   -19.0926  -6.7904  -3.0898  -3.0416  -2.0061  -1.3437  -1.0983  -0.7490
    -0.5463  -0.1205  -0.0539   0.3550   0.3712   0.5107   0.7748   0.8564
     0.9768   1.0130   1.0582   1.1703   1.2344   1.2608   1.3252   1.4062
     1.4359   1.5440   1.5528   1.6039   1.6511   1.7110   1.7923

          k = 0.0233-0.0404 0.0000 ( 29087 PWs)   bands (ev):

   -42.1221 -42.0962 -42.0917 -42.0772 -42.0757 -42.0484 -42.0476 -42.0401
   -41.5134 -41.4883 -41.4837 -41.4601 -22.2201 -22.1729 -22.1598 -22.1567
   -22.1534 -22.1263 -22.1247 -22.1044 -22.0964 -22.0891 -22.0787 -22.0508
   -22.0501 -22.0370 -21.9718 -21.9345 -21.9071 -21.9033 -21.8834 -21.8687
   -21.8674 -21.8499 -21.8216 -21.7876 -21.6091 -21.5826 -21.5789 -21.4243
   -21.4089 -21.4053 -21.4046 -21.3775 -21.3429 -21.3401 -21.3192 -21.2610
   -19.0939  -6.7971  -3.0847  -3.0417  -2.5298  -1.5968  -0.7127  -0.7003
    -0.5761  -0.2081  -0.1819   0.0827   0.1686   0.3730   0.4729   0.5461
     0.7742   0.8026   0.8583   1.1111   1.1190   1.2343   1.4368   1.4766
     1.6384   1.6612   1.7366   1.7757   1.8297   1.8845   2.0433

          k = 0.0466-0.0269 0.0000 ( 29058 PWs)   bands (ev):

   -42.1198 -42.0990 -42.0907 -42.0761 -42.0747 -42.0534 -42.0429 -42.0423
   -41.5112 -41.4908 -41.4831 -41.4605 -22.2082 -22.1671 -22.1541 -22.1376
   -22.1345 -22.1300 -22.1097 -22.0935 -22.0892 -22.0841 -22.0791 -22.0584
   -22.0419 -22.0417 -21.9610 -21.9606 -21.9234 -21.9224 -21.9109 -21.8775
   -21.8764 -21.8413 -21.8255 -21.7918 -21.5966 -21.5863 -21.5467 -21.4225
   -21.4099 -21.4048 -21.3969 -21.3910 -21.3770 -21.3451 -21.3156 -21.2649
   -19.0935  -6.7949  -3.0910  -3.0375  -2.3944  -1.4678  -1.0995  -0.4890
    -0.4029  -0.1811  -0.1654   0.1223   0.1520   0.3208   0.6589   0.6658
     0.8344   0.8785   0.9117   1.1273   1.1522   1.2503   1.3791   1.4687
     1.6181   1.6245   1.6515   1.7235   1.7596   1.7662   2.0037

          k = 0.0466 0.0000 0.0000 ( 29087 PWs)   bands (ev):

   -42.1221 -42.0961 -42.0917 -42.0772 -42.0757 -42.0483 -42.0477 -42.0401
   -41.5133 -41.4884 -41.4837 -41.4601 -22.2201 -22.1729 -22.1598 -22.1567
   -22.1534 -22.1263 -22.1248 -22.1044 -22.0964 -22.0890 -22.0788 -22.0507
   -22.0501 -22.0370 -21.9718 -21.9345 -21.9071 -21.9033 -21.8834 -21.8687
   -21.8674 -21.8499 -21.8216 -21.7876 -21.6091 -21.5827 -21.5789 -21.4243
   -21.4089 -21.4052 -21.4046 -21.3775 -21.3429 -21.3401 -21.3192 -21.2610
   -19.0939  -6.7971  -3.0847  -3.0417  -2.5298  -1.5968  -0.7127  -0.7003
    -0.5761  -0.2081  -0.1819   0.0827   0.1686   0.3730   0.4729   0.5461
     0.7742   0.8026   0.8583   1.1111   1.1190   1.2343   1.4368   1.4766
     1.6384   1.6612   1.7366   1.7757   1.8297   1.8845   2.0433

          k = 0.0466 0.0269 0.0000 ( 29058 PWs)   bands (ev):

   -42.1198 -42.0989 -42.0908 -42.0761 -42.0747 -42.0534 -42.0430 -42.0422
   -41.5112 -41.4909 -41.4830 -41.4605 -22.2083 -22.1670 -22.1541 -22.1377
   -22.1344 -22.1300 -22.1097 -22.0935 -22.0892 -22.0841 -22.0791 -22.0584
   -22.0418 -22.0418 -21.9610 -21.9606 -21.9233 -21.9225 -21.9110 -21.8775
   -21.8765 -21.8413 -21.8255 -21.7918 -21.5965 -21.5864 -21.5467 -21.4225
   -21.4099 -21.4048 -21.3969 -21.3911 -21.3770 -21.3451 -21.3155 -21.2649
   -19.0935  -6.7949  -3.0910  -3.0375  -2.3944  -1.4678  -1.0995  -0.4890
    -0.4029  -0.1811  -0.1654   0.1223   0.1520   0.3208   0.6589   0.6658
     0.8344   0.8785   0.9117   1.1273   1.1522   1.2503   1.3791   1.4687
     1.6181   1.6245   1.6515   1.7235   1.7596   1.7662   2.0037

          k = 0.0466-0.1076 0.0000 ( 29098 PWs)   bands (ev):

   -42.1137 -42.1027 -42.0932 -42.0760 -42.0680 -42.0573 -42.0494 -42.0387
   -41.5055 -41.4947 -41.4847 -41.4608 -22.1762 -22.1395 -22.1263 -22.1175
   -22.1139 -22.0978 -22.0859 -22.0848 -22.0818 -22.0740 -22.0644 -22.0530
   -22.0391 -22.0376 -22.0279 -21.9933 -21.9774 -21.9387 -21.9261 -21.8917
   -21.8792 -21.8464 -21.8427 -21.8131 -21.5731 -21.5441 -21.5029 -21.4610
   -21.4182 -21.4116 -21.4064 -21.4045 -21.3769 -21.3619 -21.3167 -21.2854
   -19.0926  -6.7904  -3.0899  -3.0416  -2.0061  -1.3437  -1.0983  -0.7490
    -0.5463  -0.1205  -0.0539   0.3550   0.3712   0.5107   0.7748   0.8564
     0.9767   1.0130   1.0582   1.1703   1.2344   1.2608   1.3252   1.4061
     1.4359   1.5440   1.5528   1.6039   1.6511   1.7110   1.7923

          k = 0.0466-0.0807 0.0000 ( 29103 PWs)   bands (ev):

   -42.1071 -42.1066 -42.0964 -42.0755 -42.0591 -42.0590 -42.0581 -42.0372
   -41.4991 -41.4990 -41.4868 -41.4607 -22.1448 -22.1238 -22.1081 -22.1072
   -22.1034 -22.0750 -22.0727 -22.0716 -22.0709 -22.0653 -22.0572 -22.0551
   -22.0501 -22.0447 -22.0323 -22.0145 -22.0141 -22.0129 -21.8946 -21.8823
   -21.8800 -21.8525 -21.8497 -21.8497 -21.5269 -21.5261 -21.4827 -21.4760
   -21.4757 -21.4140 -21.4137 -21.4050 -21.3766 -21.3308 -21.3191 -21.3189
   -19.0921  -6.7882  -3.0823  -3.0500  -1.4448  -1.4206  -1.3964  -0.6313
    -0.5769  -0.5144   0.3698   0.3840   0.5309   0.6978   0.7664   0.7724
     1.0680   1.1054   1.1293   1.1958   1.2274   1.2903   1.2941   1.4213
     1.4619   1.4626   1.4723   1.5556   1.6487   1.6602   1.6831

          k = 0.0466-0.0538 0.0000 ( 29098 PWs)   bands (ev):

   -42.1137 -42.1028 -42.0932 -42.0760 -42.0680 -42.0573 -42.0494 -42.0387
   -41.5055 -41.4946 -41.4847 -41.4608 -22.1762 -22.1395 -22.1263 -22.1175
   -22.1139 -22.0978 -22.0859 -22.0848 -22.0818 -22.0740 -22.0644 -22.0530
   -22.0391 -22.0376 -22.0279 -21.9933 -21.9773 -21.9387 -21.9261 -21.8917
   -21.8791 -21.8464 -21.8427 -21.8132 -21.5732 -21.5440 -21.5028 -21.4610
   -21.4182 -21.4115 -21.4064 -21.4046 -21.3769 -21.3619 -21.3167 -21.2854
   -19.0926  -6.7904  -3.0899  -3.0416  -2.0061  -1.3437  -1.0983  -0.7490
    -0.5463  -0.1205  -0.0539   0.3550   0.3712   0.5107   0.7748   0.8564
     0.9767   1.0130   1.0582   1.1703   1.2344   1.2608   1.3252   1.4061
     1.4359   1.5440   1.5528   1.6039   1.6511   1.7110   1.7923

          k =-0.0699 0.0404 0.0000 ( 29048 PWs)   bands (ev):

   -42.1122 -42.1061 -42.0907 -42.0766 -42.0643 -42.0638 -42.0429 -42.0423
   -41.5044 -41.4971 -41.4831 -41.4610 -22.1806 -22.1402 -22.1334 -22.1270
   -22.1119 -22.1091 -22.0892 -22.0792 -22.0775 -22.0770 -22.0432 -22.0431
   -22.0336 -22.0183 -21.9883 -21.9829 -21.9823 -21.9758 -21.9500 -21.9493
   -21.8594 -21.8438 -21.8177 -21.8156 -21.5741 -21.5614 -21.4539 -21.4483
   -21.4244 -21.4176 -21.4141 -21.4080 -21.4038 -21.3765 -21.2973 -21.2834
   -19.0926  -6.7904  -3.0971  -3.0344  -1.7984  -1.7578  -0.9490  -0.8643
    -0.1251  -0.1155   0.0220   0.1012   0.3122   0.3236   0.9750   0.9969
     1.0259   1.0389   1.0849   1.1062   1.2689   1.2696   1.3271   1.3747
     1.3900   1.4032   1.4671   1.6320   1.6471   1.7503   1.7756

          k =-0.0699 0.0673 0.0000 ( 29098 PWs)   bands (ev):

   -42.1137 -42.1028 -42.0932 -42.0760 -42.0680 -42.0573 -42.0494 -42.0387
   -41.5055 -41.4946 -41.4847 -41.4608 -22.1762 -22.1395 -22.1263 -22.1175
   -22.1139 -22.0978 -22.0859 -22.0848 -22.0818 -22.0740 -22.0644 -22.0530
   -22.0391 -22.0376 -22.0278 -21.9933 -21.9774 -21.9387 -21.9261 -21.8917
   -21.8791 -21.8464 -21.8427 -21.8131 -21.5732 -21.5440 -21.5028 -21.4610
   -21.4182 -21.4115 -21.4064 -21.4046 -21.3769 -21.3620 -21.3167 -21.2854
   -19.0926  -6.7904  -3.0899  -3.0416  -2.0061  -1.3437  -1.0983  -0.7490
    -0.5463  -0.1205  -0.0539   0.3550   0.3712   0.5107   0.7748   0.8564
     0.9767   1.0130   1.0582   1.1703   1.2344   1.2608   1.3252   1.4061
     1.4359   1.5440   1.5528   1.6039   1.6511   1.7110   1.7923

          k =-0.0699 0.0942 0.0000 ( 29098 PWs)   bands (ev):

   -42.1137 -42.1027 -42.0932 -42.0760 -42.0680 -42.0573 -42.0494 -42.0387
   -41.5055 -41.4946 -41.4847 -41.4608 -22.1762 -22.1395 -22.1263 -22.1175
   -22.1139 -22.0978 -22.0859 -22.0848 -22.0818 -22.0740 -22.0644 -22.0530
   -22.0391 -22.0376 -22.0279 -21.9933 -21.9774 -21.9387 -21.9261 -21.8917
   -21.8792 -21.8464 -21.8427 -21.8131 -21.5731 -21.5441 -21.5029 -21.4610
   -21.4182 -21.4116 -21.4064 -21.4045 -21.3769 -21.3619 -21.3167 -21.2854
   -19.0926  -6.7904  -3.0899  -3.0416  -2.0061  -1.3437  -1.0983  -0.7490
    -0.5463  -0.1205  -0.0539   0.3550   0.3712   0.5107   0.7748   0.8564
     0.9767   1.0130   1.0582   1.1703   1.2344   1.2608   1.3252   1.4061
     1.4359   1.5440   1.5528   1.6039   1.6511   1.7110   1.7923

          k =-0.0699-0.0404 0.0000 ( 29048 PWs)   bands (ev):

   -42.1123 -42.1060 -42.0908 -42.0766 -42.0644 -42.0637 -42.0430 -42.0422
   -41.5043 -41.4972 -41.4830 -41.4610 -22.1806 -22.1402 -22.1334 -22.1270
   -22.1120 -22.1089 -22.0891 -22.0791 -22.0776 -22.0770 -22.0431 -22.0431
   -22.0336 -22.0182 -21.9884 -21.9828 -21.9824 -21.9758 -21.9499 -21.9494
   -21.8595 -21.8437 -21.8178 -21.8155 -21.5740 -21.5615 -21.4539 -21.4484
   -21.4243 -21.4176 -21.4142 -21.4081 -21.4037 -21.3765 -21.2972 -21.2835
   -19.0926  -6.7904  -3.0971  -3.0344  -1.7984  -1.7578  -0.9490  -0.8643
    -0.1251  -0.1155   0.0220   0.1012   0.3122   0.3236   0.9750   0.9969
     1.0258   1.0389   1.0849   1.1062   1.2689   1.2696   1.3271   1.3747
     1.3900   1.4032   1.4670   1.6320   1.6470   1.7503   1.7756

     the Fermi energy is     1.2591 ev

!    total energy              =   -1158.21617367 Ry
     Harris-Foulkes estimate   =   -1158.21618378 Ry
     estimated scf accuracy    <       0.00000198 Ry

     The total energy is the sum of the following terms:

     one-electron contribution =   -5621.73989703 Ry
     hartree contribution      =    2806.78565220 Ry
     xc contribution           =    -347.24593476 Ry
     ewald contribution        =    2004.11352134 Ry
     electric field correction =       0.00007511 Ry
     smearing contrib. (-TS)   =      -0.12959053 Ry

     convergence has been achieved in  15 iterations
 
 BEEF-vdW xc energy contributions
           1 :   -302.717672997650     
           2 :    271.625603746297     
           3 :   -218.215069531972     
           4 :    155.742516443498     
           5 :   -96.4330850594952     
           6 :    47.8568577462261     
           7 :   -12.4620745001634     
           8 :   -10.5646327664472     
           9 :    22.9720520492502     
          10 :   -26.1875105149180     
          11 :    21.4747813706036     
          12 :   -10.8025861817168     
          13 :   -2.63060423712608     
          14 :    14.8441784885528     
          15 :   -22.3403042061794     
          16 :    23.3996555700586     
          17 :   -18.5807453164166     
          18 :    10.1437332489490     
          19 :  -0.847390654026867     
          20 :   -7.11394719416739     
          21 :    12.5299520905862     
          22 :   -15.0002634295497     
          23 :    14.5776289962963     
          24 :   -11.5991499498946     
          25 :    6.75447803546257     
          26 :   -1.16343750494127     
          27 :   -3.78739499237884     
          28 :    6.87932926853534     
          29 :   -7.54363893819601     
          30 :    6.07626452925848     
          31 :   -29.0692446692815     
          32 :   -19.8473922428012     

     Forces acting on atoms (Ry/au):


     negative rho (up, down):  2.881E-04 0.000E+00
     atom    1 type  1   force =     0.00004144    0.00001058    0.00417466
     atom    2 type  1   force =    -0.00003828   -0.00015638    0.00456983
     atom    3 type  1   force =    -0.00014171    0.00005502    0.00457658
     atom    4 type  1   force =     0.00014654    0.00009909    0.00456706
     atom    5 type  1   force =    -0.00110344    0.00062875    0.00284237
     atom    6 type  1   force =     0.00109848    0.00069490    0.00284997
     atom    7 type  1   force =     0.00005204   -0.00002013   -0.00557367
     atom    8 type  1   force =    -0.00005730   -0.00130331    0.00284622
     atom    9 type  1   force =     0.01761669    0.01015394    0.02152264
     atom   10 type  1   force =    -0.01760344    0.01018098    0.02151671
     atom   11 type  1   force =     0.00002619   -0.02034193    0.02150871
     atom   12 type  1   force =    -0.00003448    0.00000283   -0.01679905
     atom   13 type  2   force =    -0.00000233   -0.00000305   -0.11481541
     atom   14 type  3   force =    -0.00000040   -0.00000129    0.04621339

     Total force =     0.135019     Total SCF correction =     0.002264


     entering subroutine stress ...


     negative rho (up, down):  2.881E-04 0.000E+00
          total   stress  (Ry/bohr**3)                   (kbar)     P=   -4.73
  -0.00002528  -0.00000000  -0.00000000         -3.72     -0.00     -0.00
  -0.00000000  -0.00002528  -0.00000000         -0.00     -3.72     -0.00
  -0.00000000  -0.00000000  -0.00004599         -0.00     -0.00     -6.77


     BFGS Geometry Optimization

     number of scf cycles    =   1
     number of bfgs steps    =   0

     energy   new            =   -1158.2161736699 Ry

     new trust radius        =       0.1148154110 bohr
     new conv_thr            =       0.0000099958 Ry


ATOMIC_POSITIONS (crystal)
Y1       0.166666667   0.166666667   0.386999750    0   0   0
Y1       0.666666667   0.166666667   0.386999750    0   0   0
Y1       0.166666667   0.666666667   0.386999750    0   0   0
Y1       0.666666667   0.666666667   0.386999750    0   0   0
Y1       0.833333333   0.333333333   0.500000000    0   0   0
Y1       0.333333333   0.333333333   0.500000000    0   0   0
Y1       0.833333333   0.833333333   0.500000000    0   0   0
Y1       0.333333333   0.833333333   0.500000000    0   0   0
Y1       0.000869669   0.000867483   0.613441015
Y1       0.498262674   0.000869793   0.613440894
Y1       0.000870875   0.498262126   0.613440730
Y1       0.499997328   0.500000242   0.612656219
O1       0.166666625   0.166666406   0.675045687
H1       0.166666692   0.166666556   0.715108395



     Writing output data file calc.save
     Check: negative starting charge=   -0.000622
     NEW-OLD atomic charge density approx. for the potential
     Check: negative starting charge=   -0.000614

     negative rho (up, down):  5.793E-04 0.000E+00
 
     Adding external electric field

     Computed dipole along edir(3) : 
        Dipole                0.2151 Ry au,          0.5467 Debye
        Dipole field          0.0003 Ry au
 
        Potential amp.       -0.0333 Ry
        Total length         47.6094 bohr
 

     total cpu time spent up to now is      687.6 secs

     per-process dynamical memory:   117.0 Mb

     Self-consistent Calculation

     iteration #  1     ecut=    36.75 Ry     beta=0.30
     Davidson diagonalization with overlap
     ethr =  1.00E-06,  avg # of iterations = 11.2

     negative rho (up, down):  3.467E-04 0.000E+00
 
     Adding external electric field

     Computed dipole along edir(3) : 
        Dipole                0.9059 Ry au,          2.3025 Debye
        Dipole field          0.0015 Ry au
 
        Potential amp.       -0.1403 Ry
        Total length         47.6094 bohr
 

     total cpu time spent up to now is      734.4 secs

     total energy              =   -1158.20748903 Ry
     Harris-Foulkes estimate   =   -1158.22271492 Ry
     estimated scf accuracy    <       0.03457167 Ry

     iteration #  2     ecut=    36.75 Ry     beta=0.30
     Davidson diagonalization with overlap
     ethr =  2.49E-05,  avg # of iterations =  8.3

     negative rho (up, down):  2.398E-04 0.000E+00
 
     Adding external electric field

     Computed dipole along edir(3) : 
        Dipole                0.2827 Ry au,          0.7185 Debye
        Dipole field          0.0005 Ry au
 
        Potential amp.       -0.0438 Ry
        Total length         47.6094 bohr
 

     total cpu time spent up to now is      775.8 secs

     total energy              =   -1158.04560866 Ry
     Harris-Foulkes estimate   =   -1158.40426682 Ry
     estimated scf accuracy    <      16.35936157 Ry

     iteration #  3     ecut=    36.75 Ry     beta=0.30
     Davidson diagonalization with overlap
     ethr =  2.49E-05,  avg # of iterations =  8.7

     negative rho (up, down):  2.039E-04 0.000E+00
 
     Adding external electric field

     Computed dipole along edir(3) : 
        Dipole                0.2514 Ry au,          0.6389 Debye
        Dipole field          0.0004 Ry au
 
        Potential amp.       -0.0389 Ry
        Total length         47.6094 bohr
 

     total cpu time spent up to now is      817.7 secs

     total energy              =   -1158.21943215 Ry
     Harris-Foulkes estimate   =   -1158.22124288 Ry
     estimated scf accuracy    <       0.00680567 Ry

     iteration #  4     ecut=    36.75 Ry     beta=0.30
     Davidson diagonalization with overlap
     ethr =  4.90E-06,  avg # of iterations =  7.8

     negative rho (up, down):  2.090E-04 0.000E+00
 
     Adding external electric field

     Computed dipole along edir(3) : 
        Dipole                0.2592 Ry au,          0.6588 Debye
        Dipole field          0.0004 Ry au
 
        Potential amp.       -0.0401 Ry
        Total length         47.6094 bohr
 

     total cpu time spent up to now is      856.5 secs

     total energy              =   -1158.21898698 Ry
     Harris-Foulkes estimate   =   -1158.22199758 Ry
     estimated scf accuracy    <       0.03446890 Ry

     iteration #  5     ecut=    36.75 Ry     beta=0.30
     Davidson diagonalization with overlap
     ethr =  4.90E-06,  avg # of iterations =  6.8

     negative rho (up, down):  2.134E-04 0.000E+00
 
     Adding external electric field

     Computed dipole along edir(3) : 
        Dipole                0.2672 Ry au,          0.6790 Debye
        Dipole field          0.0004 Ry au
 
        Potential amp.       -0.0414 Ry
        Total length         47.6094 bohr
 

     total cpu time spent up to now is      893.3 secs

     total energy              =   -1158.22041910 Ry
     Harris-Foulkes estimate   =   -1158.22066337 Ry
     estimated scf accuracy    <       0.00144814 Ry

     iteration #  6     ecut=    36.75 Ry     beta=0.30
     Davidson diagonalization with overlap
     ethr =  1.04E-06,  avg # of iterations =  4.8

     negative rho (up, down):  2.230E-04 0.000E+00
 
     Adding external electric field

     Computed dipole along edir(3) : 
        Dipole                0.2629 Ry au,          0.6682 Debye
        Dipole field          0.0004 Ry au
 
        Potential amp.       -0.0407 Ry
        Total length         47.6094 bohr
 

     total cpu time spent up to now is      928.3 secs

     total energy              =   -1158.22054425 Ry
     Harris-Foulkes estimate   =   -1158.22057382 Ry
     estimated scf accuracy    <       0.00017465 Ry

     iteration #  7     ecut=    36.75 Ry     beta=0.30
     Davidson diagonalization with overlap
     ethr =  1.26E-07,  avg # of iterations =  8.6

     negative rho (up, down):  2.379E-04 0.000E+00
 
     Adding external electric field

     Computed dipole along edir(3) : 
        Dipole                0.2570 Ry au,          0.6533 Debye
        Dipole field          0.0004 Ry au
 
        Potential amp.       -0.0398 Ry
        Total length         47.6094 bohr
 

     total cpu time spent up to now is      967.1 secs

     total energy              =   -1158.22057415 Ry
     Harris-Foulkes estimate   =   -1158.22057657 Ry
     estimated scf accuracy    <       0.00002993 Ry

     iteration #  8     ecut=    36.75 Ry     beta=0.30
     Davidson diagonalization with overlap
     ethr =  2.15E-08,  avg # of iterations =  6.5

     negative rho (up, down):  2.818E-04 0.000E+00

     negative rho (up, down):  2.818E-04 0.000E+00

     negative rho (up, down):  2.818E-04 0.000E+00

     negative rho (up, down):  2.818E-04 0.000E+00

     negative rho (up, down):  2.818E-04 0.000E+00

     negative rho (up, down):  2.818E-04 0.000E+00

     negative rho (up, down):  2.818E-04 0.000E+00

     negative rho (up, down):  2.818E-04 0.000E+00

     negative rho (up, down):  2.818E-04 0.000E+00

     negative rho (up, down):  2.818E-04 0.000E+00

     negative rho (up, down):  2.818E-04 0.000E+00

     negative rho (up, down):  2.818E-04 0.000E+00

     negative rho (up, down):  2.818E-04 0.000E+00

     negative rho (up, down):  2.818E-04 0.000E+00

     negative rho (up, down):  2.818E-04 0.000E+00

     negative rho (up, down):  2.818E-04 0.000E+00

     negative rho (up, down):  2.818E-04 0.000E+00

     negative rho (up, down):  2.818E-04 0.000E+00

     negative rho (up, down):  2.818E-04 0.000E+00

     negative rho (up, down):  2.818E-04 0.000E+00

     negative rho (up, down):  2.818E-04 0.000E+00

     negative rho (up, down):  2.818E-04 0.000E+00

     negative rho (up, down):  2.818E-04 0.000E+00

     negative rho (up, down):  2.818E-04 0.000E+00

     negative rho (up, down):  2.818E-04 0.000E+00

     negative rho (up, down):  2.818E-04 0.000E+00

     negative rho (up, down):  2.818E-04 0.000E+00

     negative rho (up, down):  2.818E-04 0.000E+00

     negative rho (up, down):  2.818E-04 0.000E+00

     negative rho (up, down):  2.818E-04 0.000E+00

     negative rho (up, down):  2.818E-04 0.000E+00

     negative rho (up, down):  2.818E-04 0.000E+00

     negative rho (up, down):  2.818E-04 0.000E+00

     negative rho (up, down):  2.818E-04 0.000E+00

     negative rho (up, down):  2.818E-04 0.000E+00
 
     Adding external electric field

     Computed dipole along edir(3) : 
        Dipole                0.2588 Ry au,          0.6578 Debye
        Dipole field          0.0004 Ry au
 
        Potential amp.       -0.0401 Ry
        Total length         47.6094 bohr
 

     total cpu time spent up to now is     1086.2 secs

     End of self-consistent calculation

          k = 0.0000 0.0000 0.0000 ( 28997 PWs)   bands (ev):

   -42.1065 -42.0692 -42.0691 -42.0599 -42.0334 -42.0183 -42.0166 -42.0165
   -41.4969 -41.4574 -41.4574 -41.4449 -22.2703 -22.1930 -22.1930 -22.1649
   -22.1619 -22.1619 -22.1528 -22.0828 -22.0662 -22.0627 -22.0627 -22.0159
   -22.0139 -22.0138 -21.8813 -21.8739 -21.8739 -21.8411 -21.8411 -21.8386
   -21.7724 -21.7724 -21.7413 -21.7413 -21.6198 -21.6148 -21.6147 -21.4076
   -21.3806 -21.3806 -21.3656 -21.3183 -21.3158 -21.3158 -21.2189 -21.2189
   -18.7853  -6.7622  -3.2299  -3.2298  -2.9567  -2.0073  -1.0026  -0.3182
    -0.3182  -0.2607  -0.2088  -0.1590  -0.1590   0.1548   0.1548   0.1750
     0.6055   0.6056   0.6674   1.0474   1.0474   1.1829   1.4523   1.5469
     1.8778   1.9838   1.9838   1.9927   2.0636   2.0636   2.3606

          k = 0.0000 0.0269 0.0000 ( 29019 PWs)   bands (ev):

   -42.1040 -42.0711 -42.0692 -42.0571 -42.0340 -42.0203 -42.0175 -42.0166
   -41.4941 -41.4594 -41.4574 -41.4457 -22.2506 -22.1771 -22.1705 -22.1493
   -22.1467 -22.1452 -22.1358 -22.0793 -22.0675 -22.0623 -22.0610 -22.0204
   -22.0156 -22.0144 -21.8963 -21.8920 -21.8697 -21.8579 -21.8562 -21.8337
   -21.8022 -21.7790 -21.7712 -21.7480 -21.6050 -21.6009 -21.5919 -21.4042
   -21.3813 -21.3799 -21.3652 -21.3336 -21.3316 -21.3102 -21.2475 -21.2255
   -18.7842  -6.7575  -3.2474  -3.2265  -2.7989  -1.8560  -0.8534  -0.5267
    -0.2673  -0.2462  -0.1960  -0.0903  -0.0654   0.2288   0.3068   0.3435
     0.6738   0.6872   0.7429   1.0787   1.0827   1.2137   1.4688   1.5453
     1.8081   1.8301   1.8961   1.9068   2.0176   2.0335   2.3147

          k = 0.0000 0.0538 0.0000 ( 29058 PWs)   bands (ev):

   -42.0972 -42.0768 -42.0692 -42.0493 -42.0353 -42.0279 -42.0177 -42.0166
   -41.4867 -41.4659 -41.4574 -41.4468 -22.2053 -22.1377 -22.1294 -22.1116
   -22.1094 -22.1039 -22.0818 -22.0669 -22.0604 -22.0588 -22.0575 -22.0330
   -22.0171 -22.0157 -21.9376 -21.9368 -21.8983 -21.8964 -21.8788 -21.8535
   -21.8509 -21.8158 -21.7960 -21.7663 -21.5712 -21.5663 -21.5242 -21.3971
   -21.3840 -21.3788 -21.3723 -21.3702 -21.3636 -21.3241 -21.2926 -21.2434
   -18.7819  -6.7480  -3.2679  -3.2198  -2.3716  -1.4436  -1.0729  -0.4643
    -0.3765  -0.1540  -0.1383   0.1495   0.1806   0.3464   0.6875   0.6931
     0.8596   0.9051   0.9409   1.1540   1.1802   1.2774   1.4005   1.4868
     1.6424   1.6507   1.6775   1.7490   1.7879   1.7888   2.0270

          k = 0.0000-0.0807 0.0000 ( 29048 PWs)   bands (ev):

   -42.0910 -42.0824 -42.0692 -42.0392 -42.0380 -42.0358 -42.0177 -42.0166
   -41.4787 -41.4735 -41.4574 -41.4472 -22.1776 -22.1117 -22.1099 -22.0953
   -22.0857 -22.0840 -22.0601 -22.0556 -22.0535 -22.0517 -22.0230 -22.0168
   -22.0157 -21.9897 -21.9665 -21.9579 -21.9562 -21.9366 -21.9251 -21.9231
   -21.8393 -21.8105 -21.7913 -21.7909 -21.5483 -21.5421 -21.4288 -21.4255
   -21.3992 -21.3945 -21.3915 -21.3864 -21.3777 -21.3635 -21.2716 -21.2647
   -18.7808  -6.7434  -3.2752  -3.2165  -1.7738  -1.7322  -0.9245  -0.8381
    -0.0986  -0.0886   0.0483   0.1235   0.3365   0.3517   1.0014   1.0230
     1.0527   1.0649   1.1087   1.1314   1.2956   1.2965   1.3482   1.3999
     1.4162   1.4310   1.4877   1.6522   1.6814   1.7754   1.8042

          k = 0.0233-0.0135 0.0000 ( 29019 PWs)   bands (ev):

   -42.1040 -42.0711 -42.0692 -42.0571 -42.0340 -42.0203 -42.0174 -42.0166
   -41.4941 -41.4595 -41.4574 -41.4457 -22.2506 -22.1772 -22.1705 -22.1494
   -22.1466 -22.1452 -22.1358 -22.0793 -22.0675 -22.0623 -22.0610 -22.0204
   -22.0156 -22.0144 -21.8963 -21.8920 -21.8697 -21.8579 -21.8563 -21.8337
   -21.8022 -21.7790 -21.7712 -21.7480 -21.6050 -21.6009 -21.5919 -21.4042
   -21.3813 -21.3799 -21.3652 -21.3336 -21.3316 -21.3102 -21.2475 -21.2255
   -18.7842  -6.7575  -3.2474  -3.2265  -2.7989  -1.8560  -0.8534  -0.5267
    -0.2673  -0.2462  -0.1960  -0.0903  -0.0654   0.2288   0.3068   0.3435
     0.6738   0.6872   0.7429   1.0787   1.0827   1.2137   1.4688   1.5453
     1.8081   1.8300   1.8961   1.9068   2.0176   2.0335   2.3147

          k = 0.0233 0.0135 0.0000 ( 29019 PWs)   bands (ev):

   -42.1040 -42.0711 -42.0691 -42.0571 -42.0340 -42.0203 -42.0175 -42.0165
   -41.4941 -41.4594 -41.4574 -41.4457 -22.2506 -22.1772 -22.1705 -22.1493
   -22.1467 -22.1452 -22.1358 -22.0793 -22.0675 -22.0623 -22.0610 -22.0204
   -22.0156 -22.0144 -21.8963 -21.8921 -21.8697 -21.8579 -21.8562 -21.8337
   -21.8022 -21.7790 -21.7712 -21.7480 -21.6050 -21.6009 -21.5919 -21.4042
   -21.3812 -21.3799 -21.3652 -21.3336 -21.3316 -21.3102 -21.2475 -21.2255
   -18.7842  -6.7575  -3.2474  -3.2265  -2.7989  -1.8560  -0.8534  -0.5267
    -0.2673  -0.2462  -0.1960  -0.0903  -0.0654   0.2288   0.3068   0.3435
     0.6738   0.6872   0.7429   1.0787   1.0827   1.2137   1.4688   1.5453
     1.8081   1.8301   1.8961   1.9068   2.0176   2.0335   2.3147

          k = 0.0233 0.0404 0.0000 ( 29087 PWs)   bands (ev):

   -42.0992 -42.0745 -42.0696 -42.0518 -42.0349 -42.0231 -42.0220 -42.0146
   -41.4890 -41.4627 -41.4587 -41.4463 -22.2171 -22.1461 -22.1321 -22.1313
   -22.1275 -22.1007 -22.0993 -22.0752 -22.0675 -22.0659 -22.0551 -22.0257
   -22.0245 -22.0115 -21.9473 -21.9089 -21.8851 -21.8784 -21.8513 -21.8433
   -21.8417 -21.8244 -21.7928 -21.7621 -21.5855 -21.5598 -21.5575 -21.3991
   -21.3833 -21.3814 -21.3794 -21.3645 -21.3189 -21.3181 -21.2984 -21.2393
   -18.7825  -6.7504  -3.2614  -3.2238  -2.5081  -1.5725  -0.6863  -0.6736
    -0.5515  -0.1794  -0.1546   0.1098   0.1967   0.3991   0.5016   0.5757
     0.7999   0.8299   0.8870   1.1382   1.1456   1.2646   1.4618   1.4884
     1.6625   1.6868   1.7617   1.8020   1.8539   1.9078   2.0666

          k = 0.0233-0.0942 0.0000 ( 29098 PWs)   bands (ev):

   -42.0918 -42.0805 -42.0703 -42.0426 -42.0357 -42.0318 -42.0239 -42.0132
   -41.4805 -41.4696 -41.4605 -41.4462 -22.1734 -22.1146 -22.0983 -22.0886
   -22.0875 -22.0728 -22.0610 -22.0591 -22.0566 -22.0497 -22.0400 -22.0275
   -22.0132 -22.0121 -22.0023 -21.9678 -21.9509 -21.9132 -21.8971 -21.8662
   -21.8549 -21.8172 -21.8160 -21.7877 -21.5496 -21.5223 -21.4798 -21.4383
   -21.3925 -21.3859 -21.3838 -21.3791 -21.3638 -21.3405 -21.2937 -21.2642
   -18.7808  -6.7434  -3.2689  -3.2227  -1.9816  -1.3179  -1.0734  -0.7224
    -0.5202  -0.0951  -0.0289   0.3809   0.3967   0.5377   0.8004   0.8836
     0.9992   1.0389   1.0872   1.1965   1.2556   1.2860   1.3508   1.4302
     1.4605   1.5703   1.5781   1.6290   1.6784   1.7392   1.8171

          k = 0.0233-0.0673 0.0000 ( 29098 PWs)   bands (ev):

   -42.0918 -42.0805 -42.0703 -42.0426 -42.0357 -42.0318 -42.0239 -42.0132
   -41.4805 -41.4696 -41.4605 -41.4462 -22.1734 -22.1146 -22.0983 -22.0886
   -22.0875 -22.0728 -22.0610 -22.0591 -22.0566 -22.0497 -22.0400 -22.0275
   -22.0132 -22.0121 -22.0023 -21.9678 -21.9509 -21.9132 -21.8971 -21.8662
   -21.8549 -21.8172 -21.8160 -21.7877 -21.5496 -21.5223 -21.4798 -21.4383
   -21.3925 -21.3859 -21.3838 -21.3791 -21.3638 -21.3405 -21.2937 -21.2642
   -18.7808  -6.7434  -3.2689  -3.2227  -1.9816  -1.3179  -1.0734  -0.7224
    -0.5202  -0.0951  -0.0289   0.3809   0.3967   0.5377   0.8004   0.8836
     0.9992   1.0389   1.0872   1.1965   1.2556   1.2860   1.3508   1.4302
     1.4605   1.5703   1.5780   1.6290   1.6784   1.7392   1.8171

          k = 0.0233-0.0404 0.0000 ( 29087 PWs)   bands (ev):

   -42.0992 -42.0745 -42.0696 -42.0518 -42.0349 -42.0232 -42.0219 -42.0146
   -41.4890 -41.4628 -41.4587 -41.4463 -22.2171 -22.1461 -22.1321 -22.1313
   -22.1275 -22.1007 -22.0993 -22.0752 -22.0675 -22.0659 -22.0551 -22.0257
   -22.0245 -22.0116 -21.9473 -21.9089 -21.8851 -21.8784 -21.8513 -21.8433
   -21.8417 -21.8244 -21.7928 -21.7621 -21.5855 -21.5598 -21.5575 -21.3991
   -21.3833 -21.3814 -21.3794 -21.3645 -21.3189 -21.3181 -21.2984 -21.2393
   -18.7825  -6.7504  -3.2614  -3.2238  -2.5081  -1.5725  -0.6864  -0.6736
    -0.5515  -0.1793  -0.1546   0.1098   0.1967   0.3991   0.5016   0.5757
     0.7999   0.8299   0.8870   1.1382   1.1456   1.2646   1.4618   1.4884
     1.6625   1.6868   1.7617   1.8020   1.8539   1.9078   2.0666

          k = 0.0466-0.0269 0.0000 ( 29058 PWs)   bands (ev):

   -42.0972 -42.0768 -42.0692 -42.0493 -42.0353 -42.0279 -42.0176 -42.0166
   -41.4867 -41.4659 -41.4574 -41.4468 -22.2053 -22.1377 -22.1294 -22.1116
   -22.1093 -22.1039 -22.0818 -22.0669 -22.0604 -22.0588 -22.0575 -22.0330
   -22.0171 -22.0157 -21.9376 -21.9368 -21.8983 -21.8965 -21.8788 -21.8535
   -21.8509 -21.8158 -21.7960 -21.7663 -21.5712 -21.5663 -21.5242 -21.3971
   -21.3840 -21.3788 -21.3723 -21.3702 -21.3636 -21.3241 -21.2926 -21.2434
   -18.7819  -6.7480  -3.2679  -3.2198  -2.3716  -1.4436  -1.0729  -0.4643
    -0.3765  -0.1540  -0.1383   0.1495   0.1806   0.3464   0.6875   0.6931
     0.8596   0.9051   0.9409   1.1540   1.1802   1.2774   1.4005   1.4868
     1.6424   1.6507   1.6775   1.7490   1.7879   1.7888   2.0270

          k = 0.0466 0.0000 0.0000 ( 29087 PWs)   bands (ev):

   -42.0992 -42.0746 -42.0696 -42.0518 -42.0349 -42.0232 -42.0219 -42.0146
   -41.4890 -41.4627 -41.4587 -41.4463 -22.2171 -22.1461 -22.1321 -22.1313
   -22.1275 -22.1007 -22.0993 -22.0752 -22.0675 -22.0659 -22.0551 -22.0257
   -22.0245 -22.0115 -21.9473 -21.9089 -21.8851 -21.8784 -21.8513 -21.8433
   -21.8417 -21.8244 -21.7928 -21.7621 -21.5855 -21.5598 -21.5575 -21.3991
   -21.3833 -21.3814 -21.3794 -21.3645 -21.3189 -21.3181 -21.2984 -21.2393
   -18.7825  -6.7504  -3.2614  -3.2238  -2.5081  -1.5725  -0.6863  -0.6736
    -0.5515  -0.1793  -0.1546   0.1098   0.1967   0.3991   0.5016   0.5757
     0.7999   0.8299   0.8870   1.1382   1.1456   1.2646   1.4618   1.4884
     1.6625   1.6868   1.7617   1.8020   1.8539   1.9078   2.0666

          k = 0.0466 0.0269 0.0000 ( 29058 PWs)   bands (ev):

   -42.0972 -42.0768 -42.0692 -42.0493 -42.0353 -42.0279 -42.0177 -42.0165
   -41.4867 -41.4659 -41.4574 -41.4468 -22.2053 -22.1377 -22.1294 -22.1115
   -22.1094 -22.1039 -22.0818 -22.0669 -22.0604 -22.0588 -22.0575 -22.0330
   -22.0171 -22.0157 -21.9376 -21.9369 -21.8983 -21.8964 -21.8788 -21.8535
   -21.8509 -21.8158 -21.7960 -21.7663 -21.5712 -21.5663 -21.5242 -21.3971
   -21.3840 -21.3789 -21.3723 -21.3702 -21.3636 -21.3241 -21.2926 -21.2434
   -18.7819  -6.7480  -3.2680  -3.2198  -2.3716  -1.4436  -1.0729  -0.4643
    -0.3765  -0.1540  -0.1383   0.1495   0.1806   0.3464   0.6875   0.6931
     0.8596   0.9051   0.9409   1.1539   1.1802   1.2774   1.4005   1.4868
     1.6424   1.6507   1.6775   1.7490   1.7879   1.7888   2.0270

          k = 0.0466-0.1076 0.0000 ( 29098 PWs)   bands (ev):

   -42.0918 -42.0805 -42.0703 -42.0426 -42.0357 -42.0318 -42.0239 -42.0132
   -41.4805 -41.4696 -41.4605 -41.4462 -22.1734 -22.1146 -22.0983 -22.0886
   -22.0875 -22.0728 -22.0610 -22.0591 -22.0566 -22.0497 -22.0400 -22.0275
   -22.0132 -22.0121 -22.0023 -21.9678 -21.9509 -21.9132 -21.8971 -21.8662
   -21.8548 -21.8172 -21.8160 -21.7877 -21.5496 -21.5223 -21.4798 -21.4383
   -21.3925 -21.3859 -21.3838 -21.3791 -21.3638 -21.3405 -21.2937 -21.2642
   -18.7808  -6.7434  -3.2689  -3.2227  -1.9816  -1.3179  -1.0734  -0.7224
    -0.5202  -0.0951  -0.0289   0.3809   0.3967   0.5377   0.8004   0.8836
     0.9992   1.0389   1.0872   1.1965   1.2556   1.2860   1.3508   1.4302
     1.4605   1.5703   1.5781   1.6290   1.6784   1.7392   1.8171

          k = 0.0466-0.0807 0.0000 ( 29103 PWs)   bands (ev):

   -42.0868 -42.0840 -42.0717 -42.0359 -42.0345 -42.0327 -42.0326 -42.0117
   -41.4734 -41.4734 -41.4646 -41.4455 -22.1466 -22.0901 -22.0857 -22.0840
   -22.0793 -22.0480 -22.0475 -22.0465 -22.0452 -22.0399 -22.0318 -22.0272
   -22.0259 -22.0128 -22.0066 -21.9892 -21.9889 -21.9868 -21.8752 -21.8510
   -21.8485 -21.8259 -21.8247 -21.8247 -21.5035 -21.5026 -21.4578 -21.4556
   -21.4549 -21.3879 -21.3877 -21.3802 -21.3634 -21.3050 -21.2990 -21.2988
   -18.7802  -6.7410  -3.2637  -3.2292  -1.4194  -1.3956  -1.3696  -0.6064
    -0.5491  -0.4909   0.3937   0.4109   0.5506   0.7247   0.7917   0.8014
     1.0890   1.1310   1.1456   1.2212   1.2535   1.3132   1.3276   1.4438
     1.4865   1.4912   1.5013   1.5798   1.6728   1.6939   1.7101

          k = 0.0466-0.0538 0.0000 ( 29098 PWs)   bands (ev):

   -42.0918 -42.0805 -42.0703 -42.0426 -42.0357 -42.0318 -42.0239 -42.0132
   -41.4805 -41.4696 -41.4605 -41.4462 -22.1734 -22.1146 -22.0983 -22.0886
   -22.0875 -22.0728 -22.0610 -22.0591 -22.0566 -22.0497 -22.0400 -22.0275
   -22.0132 -22.0121 -22.0023 -21.9678 -21.9509 -21.9132 -21.8971 -21.8662
   -21.8549 -21.8172 -21.8160 -21.7877 -21.5496 -21.5223 -21.4798 -21.4383
   -21.3925 -21.3859 -21.3838 -21.3791 -21.3638 -21.3405 -21.2937 -21.2642
   -18.7808  -6.7434  -3.2689  -3.2227  -1.9816  -1.3179  -1.0734  -0.7224
    -0.5202  -0.0951  -0.0289   0.3809   0.3967   0.5377   0.8004   0.8836
     0.9992   1.0389   1.0872   1.1965   1.2556   1.2860   1.3508   1.4302
     1.4605   1.5703   1.5780   1.6290   1.6784   1.7392   1.8171

          k =-0.0699 0.0404 0.0000 ( 29048 PWs)   bands (ev):

   -42.0910 -42.0824 -42.0692 -42.0392 -42.0380 -42.0358 -42.0177 -42.0166
   -41.4787 -41.4735 -41.4574 -41.4472 -22.1776 -22.1117 -22.1099 -22.0953
   -22.0858 -22.0840 -22.0601 -22.0556 -22.0535 -22.0517 -22.0230 -22.0168
   -22.0157 -21.9897 -21.9665 -21.9579 -21.9562 -21.9366 -21.9251 -21.9232
   -21.8393 -21.8105 -21.7913 -21.7909 -21.5483 -21.5421 -21.4287 -21.4255
   -21.3992 -21.3945 -21.3915 -21.3864 -21.3777 -21.3635 -21.2715 -21.2647
   -18.7808  -6.7434  -3.2752  -3.2165  -1.7738  -1.7322  -0.9245  -0.8380
    -0.0986  -0.0886   0.0483   0.1235   0.3365   0.3517   1.0014   1.0230
     1.0527   1.0649   1.1087   1.1314   1.2957   1.2965   1.3482   1.3999
     1.4162   1.4310   1.4877   1.6522   1.6814   1.7754   1.8042

          k =-0.0699 0.0673 0.0000 ( 29098 PWs)   bands (ev):

   -42.0918 -42.0805 -42.0703 -42.0426 -42.0357 -42.0318 -42.0239 -42.0132
   -41.4805 -41.4696 -41.4605 -41.4462 -22.1734 -22.1146 -22.0983 -22.0886
   -22.0875 -22.0728 -22.0610 -22.0591 -22.0566 -22.0497 -22.0400 -22.0275
   -22.0132 -22.0121 -22.0023 -21.9678 -21.9509 -21.9132 -21.8971 -21.8662
   -21.8549 -21.8172 -21.8160 -21.7877 -21.5496 -21.5223 -21.4798 -21.4383
   -21.3925 -21.3859 -21.3838 -21.3791 -21.3638 -21.3405 -21.2937 -21.2642
   -18.7808  -6.7434  -3.2689  -3.2227  -1.9816  -1.3179  -1.0734  -0.7224
    -0.5202  -0.0951  -0.0289   0.3809   0.3967   0.5377   0.8004   0.8836
     0.9992   1.0389   1.0872   1.1965   1.2556   1.2860   1.3508   1.4302
     1.4605   1.5703   1.5781   1.6290   1.6784   1.7392   1.8171

          k =-0.0699 0.0942 0.0000 ( 29098 PWs)   bands (ev):

   -42.0918 -42.0805 -42.0703 -42.0426 -42.0357 -42.0318 -42.0239 -42.0132
   -41.4805 -41.4696 -41.4605 -41.4462 -22.1734 -22.1146 -22.0983 -22.0886
   -22.0875 -22.0728 -22.0610 -22.0591 -22.0566 -22.0497 -22.0400 -22.0275
   -22.0132 -22.0121 -22.0023 -21.9678 -21.9509 -21.9132 -21.8971 -21.8662
   -21.8548 -21.8172 -21.8160 -21.7877 -21.5496 -21.5223 -21.4798 -21.4383
   -21.3925 -21.3859 -21.3838 -21.3791 -21.3638 -21.3405 -21.2937 -21.2642
   -18.7808  -6.7434  -3.2689  -3.2227  -1.9816  -1.3179  -1.0734  -0.7224
    -0.5202  -0.0951  -0.0289   0.3809   0.3967   0.5377   0.8004   0.8836
     0.9992   1.0389   1.0872   1.1965   1.2556   1.2860   1.3508   1.4302
     1.4605   1.5703   1.5781   1.6290   1.6784   1.7392   1.8171

          k =-0.0699-0.0404 0.0000 ( 29048 PWs)   bands (ev):

   -42.0910 -42.0824 -42.0692 -42.0393 -42.0380 -42.0358 -42.0177 -42.0166
   -41.4787 -41.4735 -41.4574 -41.4472 -22.1775 -22.1117 -22.1099 -22.0953
   -22.0857 -22.0840 -22.0602 -22.0556 -22.0535 -22.0517 -22.0230 -22.0168
   -22.0157 -21.9897 -21.9664 -21.9579 -21.9561 -21.9366 -21.9251 -21.9231
   -21.8393 -21.8105 -21.7913 -21.7910 -21.5483 -21.5421 -21.4288 -21.4254
   -21.3992 -21.3945 -21.3915 -21.3864 -21.3777 -21.3635 -21.2716 -21.2646
   -18.7808  -6.7434  -3.2752  -3.2165  -1.7738  -1.7322  -0.9245  -0.8381
    -0.0986  -0.0886   0.0483   0.1235   0.3365   0.3517   1.0014   1.0230
     1.0527   1.0649   1.1087   1.1314   1.2956   1.2965   1.3482   1.3999
     1.4162   1.4310   1.4877   1.6522   1.6814   1.7754   1.8042

     the Fermi energy is     1.2844 ev

!    total energy              =   -1158.22058117 Ry
     Harris-Foulkes estimate   =   -1158.22057598 Ry
     estimated scf accuracy    <       0.00000739 Ry

     The total energy is the sum of the following terms:

     one-electron contribution =   -5625.38913486 Ry
     hartree contribution      =    2808.65314498 Ry
     xc contribution           =    -347.17598023 Ry
     ewald contribution        =    2005.82127158 Ry
     electric field correction =       0.00010896 Ry
     smearing contrib. (-TS)   =      -0.12999160 Ry

     convergence has been achieved in   8 iterations
 
 BEEF-vdW xc energy contributions
           1 :   -302.657453480613     
           2 :    271.578571249872     
           3 :   -218.177456129911     
           4 :    155.700013777238     
           5 :   -96.3768869517697     
           6 :    47.7909710386703     
           7 :   -12.3988079988993     
           8 :   -10.6146194732938     
           9 :    23.0058834439242     
          10 :   -26.2080655956016     
          11 :    21.4848216500159     
          12 :   -10.8026111918747     
          13 :   -2.63924410078687     
          14 :    14.8581049365233     
          15 :   -22.3569110302851     
          16 :    23.4184550743540     
          17 :   -18.6030846071167     
          18 :    10.1724334792420     
          19 :  -0.883374106762460     
          20 :   -7.07566774911521     
          21 :    12.4982972710245     
          22 :   -14.9808743317176     
          23 :    14.5677433076806     
          24 :   -11.5892852570644     
          25 :    6.73586160720180     
          26 :   -1.13599858161461     
          27 :   -3.81397120814103     
          28 :    6.89420362585651     
          29 :   -7.54463692433649     
          30 :    6.07130439513872     
          31 :   -29.0658202014523     
          32 :   -19.8459729801232     

     Forces acting on atoms (Ry/au):


     negative rho (up, down):  2.818E-04 0.000E+00
     atom    1 type  1   force =    -0.00000214   -0.00000154    0.00397684
     atom    2 type  1   force =    -0.00000026   -0.00072783    0.00451418
     atom    3 type  1   force =    -0.00063399    0.00036331    0.00450212
     atom    4 type  1   force =     0.00063175    0.00036655    0.00451625
     atom    5 type  1   force =    -0.00048755    0.00028142    0.00280593
     atom    6 type  1   force =     0.00048817    0.00027377    0.00280565
     atom    7 type  1   force =    -0.00000554    0.00000466   -0.00479856
     atom    8 type  1   force =     0.00000254   -0.00056406    0.00280255
     atom    9 type  1   force =     0.01417198    0.00819188    0.01891278
     atom   10 type  1   force =    -0.01416014    0.00817614    0.01892574
     atom   11 type  1   force =    -0.00000687   -0.01636241    0.01892323
     atom   12 type  1   force =     0.00000228   -0.00000270   -0.01638571
     atom   13 type  2   force =     0.00000042    0.00000058    0.04001465
     atom   14 type  3   force =    -0.00000065    0.00000024   -0.10151564

     Total force =     0.118542     Total SCF correction =     0.002936


     entering subroutine stress ...


     negative rho (up, down):  2.818E-04 0.000E+00
          total   stress  (Ry/bohr**3)                   (kbar)     P=   -6.30
  -0.00002402  -0.00000000   0.00000000         -3.53     -0.00      0.00
  -0.00000000  -0.00002402   0.00000000         -0.00     -3.53      0.00
   0.00000000   0.00000000  -0.00008034          0.00      0.00    -11.82


     number of scf cycles    =   2
     number of bfgs steps    =   1

     energy   old            =   -1158.2161736699 Ry
     energy   new            =   -1158.2205811737 Ry

     CASE: energy  _new < energy  _old

     new trust radius        =       0.0584577195 bohr
     new conv_thr            =       0.0000001000 Ry


ATOMIC_POSITIONS (crystal)
Y1       0.166666667   0.166666667   0.386999750    0   0   0
Y1       0.666666667   0.166666667   0.386999750    0   0   0
Y1       0.166666667   0.666666667   0.386999750    0   0   0
Y1       0.666666667   0.666666667   0.386999750    0   0   0
Y1       0.833333333   0.333333333   0.500000000    0   0   0
Y1       0.333333333   0.333333333   0.500000000    0   0   0
Y1       0.833333333   0.833333333   0.500000000    0   0   0
Y1       0.333333333   0.833333333   0.500000000    0   0   0
Y1       0.001670468   0.001668452   0.613871097
Y1       0.496661975   0.001670558   0.613871129
Y1       0.001671948   0.496660541   0.613870872
Y1       0.499996639   0.500000155   0.612296300
O1       0.166666615   0.166666355   0.674853821
H1       0.166666659   0.166666534   0.713911231



     Writing output data file calc.save
     Check: negative starting charge=   -0.000614
     NEW-OLD atomic charge density approx. for the potential
     Check: negative starting charge=   -0.000614

     negative rho (up, down):  3.002E-04 0.000E+00
 
     Adding external electric field

     Computed dipole along edir(3) : 
        Dipole                0.2590 Ry au,          0.6583 Debye
        Dipole field          0.0004 Ry au
 
        Potential amp.       -0.0401 Ry
        Total length         47.6094 bohr
 

     total cpu time spent up to now is     1232.2 secs

     per-process dynamical memory:   117.0 Mb

     Self-consistent Calculation

     iteration #  1     ecut=    36.75 Ry     beta=0.30
     Davidson diagonalization with overlap
     ethr =  1.00E-06,  avg # of iterations =  7.0

     negative rho (up, down):  2.924E-04 0.000E+00
 
     Adding external electric field

     Computed dipole along edir(3) : 
        Dipole                0.3286 Ry au,          0.8351 Debye
        Dipole field          0.0005 Ry au
 
        Potential amp.       -0.0509 Ry
        Total length         47.6094 bohr
 

     total cpu time spent up to now is     1284.0 secs

     total energy              =   -1158.22715265 Ry
     Harris-Foulkes estimate   =   -1158.22775090 Ry
     estimated scf accuracy    <       0.00164278 Ry

     iteration #  2     ecut=    36.75 Ry     beta=0.30
     Davidson diagonalization with overlap
     ethr =  1.18E-06,  avg # of iterations =  8.1

     negative rho (up, down):  2.883E-04 0.000E+00
 
     Adding external electric field

     Computed dipole along edir(3) : 
        Dipole                0.2398 Ry au,          0.6095 Debye
        Dipole field          0.0004 Ry au
 
        Potential amp.       -0.0371 Ry
        Total length         47.6094 bohr
 

     total cpu time spent up to now is     1329.6 secs

     total energy              =   -1158.22400261 Ry
     Harris-Foulkes estimate   =   -1158.23062227 Ry
     estimated scf accuracy    <       0.26608717 Ry

     iteration #  3     ecut=    36.75 Ry     beta=0.30
     Davidson diagonalization with overlap
     ethr =  1.18E-06,  avg # of iterations =  7.9

     negative rho (up, down):  2.861E-04 0.000E+00
 
     Adding external electric field

     Computed dipole along edir(3) : 
        Dipole                0.2621 Ry au,          0.6663 Debye
        Dipole field          0.0004 Ry au
 
        Potential amp.       -0.0406 Ry
        Total length         47.6094 bohr
 

     total cpu time spent up to now is     1373.9 secs

     total energy              =   -1158.22733224 Ry
     Harris-Foulkes estimate   =   -1158.22783147 Ry
     estimated scf accuracy    <       0.01083077 Ry

     iteration #  4     ecut=    36.75 Ry     beta=0.30
     Davidson diagonalization with overlap
     ethr =  1.18E-06,  avg # of iterations =  7.5

     negative rho (up, down):  2.847E-04 0.000E+00
 
     Adding external electric field

     Computed dipole along edir(3) : 
        Dipole                0.2624 Ry au,          0.6670 Debye
        Dipole field          0.0004 Ry au
 
        Potential amp.       -0.0406 Ry
        Total length         47.6094 bohr
 

     total cpu time spent up to now is     1415.6 secs

     total energy              =   -1158.22752839 Ry
     Harris-Foulkes estimate   =   -1158.22768453 Ry
     estimated scf accuracy    <       0.00125703 Ry

     iteration #  5     ecut=    36.75 Ry     beta=0.30
     Davidson diagonalization with overlap
     ethr =  9.04E-07,  avg # of iterations =  4.6

     negative rho (up, down):  2.829E-04 0.000E+00
 
     Adding external electric field

     Computed dipole along edir(3) : 
        Dipole                0.2611 Ry au,          0.6638 Debye
        Dipole field          0.0004 Ry au
 
        Potential amp.       -0.0404 Ry
        Total length         47.6094 bohr
 

     total cpu time spent up to now is     1451.4 secs

     total energy              =   -1158.22760546 Ry
     Harris-Foulkes estimate   =   -1158.22762616 Ry
     estimated scf accuracy    <       0.00013199 Ry

     iteration #  6     ecut=    36.75 Ry     beta=0.30
     Davidson diagonalization with overlap
     ethr =  9.50E-08,  avg # of iterations =  7.3

     negative rho (up, down):  2.815E-04 0.000E+00
 
     Adding external electric field

     Computed dipole along edir(3) : 
        Dipole                0.2607 Ry au,          0.6627 Debye
        Dipole field          0.0004 Ry au
 
        Potential amp.       -0.0404 Ry
        Total length         47.6094 bohr
 

     total cpu time spent up to now is     1491.5 secs

     total energy              =   -1158.22762003 Ry
     Harris-Foulkes estimate   =   -1158.22762425 Ry
     estimated scf accuracy    <       0.00003780 Ry

     iteration #  7     ecut=    36.75 Ry     beta=0.30
     Davidson diagonalization with overlap
     ethr =  2.72E-08,  avg # of iterations =  4.2

     negative rho (up, down):  2.811E-04 0.000E+00
 
     Adding external electric field

     Computed dipole along edir(3) : 
        Dipole                0.2588 Ry au,          0.6578 Debye
        Dipole field          0.0004 Ry au
 
        Potential amp.       -0.0401 Ry
        Total length         47.6094 bohr
 

     total cpu time spent up to now is     1528.7 secs

     total energy              =   -1158.22762335 Ry
     Harris-Foulkes estimate   =   -1158.22762486 Ry
     estimated scf accuracy    <       0.00000548 Ry

     iteration #  8     ecut=    36.75 Ry     beta=0.30
     Davidson diagonalization with overlap
     ethr =  3.94E-09,  avg # of iterations =  7.2

     negative rho (up, down):  2.809E-04 0.000E+00
 
     Adding external electric field

     Computed dipole along edir(3) : 
        Dipole                0.2588 Ry au,          0.6579 Debye
        Dipole field          0.0004 Ry au
 
        Potential amp.       -0.0401 Ry
        Total length         47.6094 bohr
 

     total cpu time spent up to now is     1568.4 secs

     total energy              =   -1158.22762401 Ry
     Harris-Foulkes estimate   =   -1158.22762416 Ry
     estimated scf accuracy    <       0.00000232 Ry

     iteration #  9     ecut=    36.75 Ry     beta=0.30
     Davidson diagonalization with overlap
     ethr =  1.67E-09,  avg # of iterations =  5.2

     negative rho (up, down):  2.807E-04 0.000E+00
 
     Adding external electric field

     Computed dipole along edir(3) : 
        Dipole                0.2582 Ry au,          0.6563 Debye
        Dipole field          0.0004 Ry au
 
        Potential amp.       -0.0400 Ry
        Total length         47.6094 bohr
 

     total cpu time spent up to now is     1605.2 secs

     total energy              =   -1158.22762425 Ry
     Harris-Foulkes estimate   =   -1158.22762472 Ry
     estimated scf accuracy    <       0.00000031 Ry

     iteration # 10     ecut=    36.75 Ry     beta=0.30
[...]
   -19.9205  -7.9554  -4.5288  -4.4817  -1.9699  -1.3047  -1.0402  -0.7075
    -0.4868  -0.0659   0.0056   0.3845   0.4190   0.5415   0.8112   0.8865
     0.9922   1.0485   1.0945   1.1934   1.2548   1.2835   1.3659   1.4283
     1.4769   1.5850   1.5873   1.6461   1.6994   1.7779   1.8355

          k = 0.0233-0.0673 0.0000 ( 29098 PWs)   bands (ev):

   -42.0440 -42.0359 -42.0298 -42.0224 -42.0207 -42.0117 -42.0097 -41.8341
   -41.4530 -41.4133 -41.4032 -41.3924 -22.4833 -22.0879 -22.0740 -22.0623
   -22.0558 -22.0512 -22.0388 -22.0274 -22.0235 -22.0210 -22.0098 -22.0056
   -22.0001 -21.9655 -21.9450 -21.9130 -21.8984 -21.8883 -21.8627 -21.8224
   -21.8146 -21.7848 -21.7413 -21.6862 -21.5084 -21.4691 -21.4349 -21.3896
   -21.3677 -21.3356 -21.3257 -21.3178 -21.3152 -21.2898 -21.2488 -21.2128
   -19.9205  -7.9554  -4.5288  -4.4817  -1.9699  -1.3047  -1.0402  -0.7075
    -0.4868  -0.0659   0.0056   0.3845   0.4190   0.5415   0.8112   0.8865
     0.9922   1.0485   1.0945   1.1934   1.2548   1.2835   1.3659   1.4283
     1.4769   1.5850   1.5873   1.6461   1.6994   1.7779   1.8355

          k = 0.0233-0.0404 0.0000 ( 29087 PWs)   bands (ev):

   -42.0516 -42.0417 -42.0250 -42.0170 -42.0169 -42.0116 -42.0107 -41.8338
   -41.4559 -41.4146 -41.3985 -41.3929 -22.5167 -22.1273 -22.1007 -22.0989
   -22.0935 -22.0688 -22.0615 -22.0557 -22.0382 -22.0299 -22.0254 -22.0158
   -22.0050 -21.9089 -21.8991 -21.8933 -21.8414 -21.8398 -21.8381 -21.8221
   -21.8211 -21.7594 -21.7124 -21.6707 -21.5429 -21.5195 -21.4929 -21.3721
   -21.3365 -21.3267 -21.3182 -21.3166 -21.2747 -21.2712 -21.2455 -21.1898
   -19.9292  -7.9644  -4.5182  -4.4871  -2.4986  -1.5358  -0.6737  -0.6594
    -0.5081  -0.1501  -0.1223   0.1125   0.2091   0.4297   0.5211   0.6051
     0.8210   0.8524   0.9065   1.1422   1.1660   1.2937   1.4550   1.4753
     1.6791   1.6999   1.7773   1.8561   1.8588   1.9152   2.0756

          k = 0.0466-0.0269 0.0000 ( 29058 PWs)   bands (ev):

   -42.0494 -42.0400 -42.0273 -42.0187 -42.0159 -42.0116 -42.0115 -41.8339
   -41.4549 -41.4147 -41.3991 -41.3932 -22.5062 -22.1116 -22.1075 -22.0891
   -22.0657 -22.0638 -22.0505 -22.0451 -22.0382 -22.0272 -22.0259 -22.0148
   -22.0067 -21.9066 -21.8936 -21.8920 -21.8918 -21.8838 -21.8476 -21.8135
   -21.8025 -21.7636 -21.7324 -21.6702 -21.5342 -21.5096 -21.4720 -21.3707
   -21.3340 -21.3266 -21.3184 -21.3172 -21.3150 -21.2716 -21.2472 -21.1931
   -19.9263  -7.9614  -4.5230  -4.4841  -2.3617  -1.4093  -1.0565  -0.4323
    -0.3347  -0.1411  -0.1282   0.1780   0.1911   0.3714   0.6936   0.7181
     0.8721   0.9258   0.9623   1.1717   1.1835   1.2896   1.4074   1.4697
     1.6577   1.6618   1.6964   1.7666   1.7701   1.8558   2.0270

          k = 0.0466 0.0000 0.0000 ( 29087 PWs)   bands (ev):

   -42.0516 -42.0417 -42.0250 -42.0170 -42.0169 -42.0116 -42.0107 -41.8338
   -41.4559 -41.4146 -41.3985 -41.3929 -22.5167 -22.1273 -22.1007 -22.0989
   -22.0935 -22.0688 -22.0615 -22.0557 -22.0382 -22.0299 -22.0254 -22.0158
   -22.0050 -21.9089 -21.8991 -21.8933 -21.8414 -21.8398 -21.8381 -21.8221
   -21.8211 -21.7594 -21.7124 -21.6707 -21.5429 -21.5195 -21.4929 -21.3721
   -21.3365 -21.3267 -21.3182 -21.3166 -21.2747 -21.2712 -21.2455 -21.1898
   -19.9292  -7.9644  -4.5182  -4.4871  -2.4986  -1.5358  -0.6737  -0.6594
    -0.5081  -0.1501  -0.1223   0.1125   0.2091   0.4297   0.5211   0.6051
     0.8210   0.8524   0.9065   1.1422   1.1660   1.2937   1.4550   1.4753
     1.6791   1.6999   1.7773   1.8561   1.8588   1.9152   2.0756

          k = 0.0466 0.0269 0.0000 ( 29058 PWs)   bands (ev):

   -42.0494 -42.0400 -42.0273 -42.0187 -42.0159 -42.0116 -42.0115 -41.8339
   -41.4549 -41.4147 -41.3991 -41.3932 -22.5062 -22.1116 -22.1075 -22.0891
   -22.0657 -22.0638 -22.0505 -22.0451 -22.0382 -22.0272 -22.0259 -22.0148
   -22.0067 -21.9066 -21.8936 -21.8920 -21.8918 -21.8838 -21.8476 -21.8135
   -21.8025 -21.7636 -21.7324 -21.6702 -21.5342 -21.5096 -21.4720 -21.3707
   -21.3340 -21.3266 -21.3184 -21.3172 -21.3150 -21.2716 -21.2472 -21.1931
   -19.9263  -7.9614  -4.5230  -4.4841  -2.3617  -1.4093  -1.0565  -0.4323
    -0.3347  -0.1411  -0.1282   0.1780   0.1911   0.3714   0.6936   0.7181
     0.8721   0.9258   0.9623   1.1717   1.1835   1.2896   1.4074   1.4697
     1.6577   1.6618   1.6964   1.7667   1.7701   1.8558   2.0270

          k = 0.0466-0.1076 0.0000 ( 29098 PWs)   bands (ev):

   -42.0440 -42.0359 -42.0298 -42.0224 -42.0207 -42.0117 -42.0097 -41.8341
   -41.4530 -41.4133 -41.4032 -41.3924 -22.4833 -22.0879 -22.0740 -22.0623
   -22.0558 -22.0512 -22.0388 -22.0274 -22.0235 -22.0210 -22.0098 -22.0056
   -22.0001 -21.9655 -21.9450 -21.9130 -21.8984 -21.8883 -21.8627 -21.8224
   -21.8146 -21.7848 -21.7413 -21.6862 -21.5084 -21.4691 -21.4349 -21.3896
   -21.3677 -21.3356 -21.3257 -21.3177 -21.3152 -21.2898 -21.2488 -21.2128
   -19.9205  -7.9554  -4.5288  -4.4817  -1.9699  -1.3047  -1.0402  -0.7075
    -0.4868  -0.0659   0.0056   0.3845   0.4190   0.5415   0.8112   0.8865
     0.9922   1.0485   1.0945   1.1934   1.2548   1.2835   1.3659   1.4283
     1.4769   1.5850   1.5873   1.6461   1.6994   1.7779   1.8355

          k = 0.0466-0.0807 0.0000 ( 29103 PWs)   bands (ev):

   -42.0405 -42.0326 -42.0276 -42.0276 -42.0253 -42.0120 -42.0085 -41.8343
   -41.4521 -41.4093 -41.4088 -41.3918 -22.4707 -22.0597 -22.0578 -22.0438
   -22.0428 -22.0414 -22.0346 -22.0330 -22.0239 -22.0212 -22.0044 -21.9894
   -21.9881 -21.9822 -21.9782 -21.9327 -21.9247 -21.8996 -21.8404 -21.8237
   -21.8229 -21.8199 -21.7201 -21.7142 -21.4633 -21.4622 -21.4099 -21.4009
   -21.4004 -21.3663 -21.3255 -21.3179 -21.3149 -21.2595 -21.2578 -21.2396
   -19.9176  -7.9523  -4.5304  -4.4817  -1.4108  -1.3768  -1.3556  -0.5838
    -0.5228  -0.4448   0.4054   0.4535   0.5560   0.7168   0.7898   0.8017
     1.0793   1.1149   1.1275   1.2373   1.2393   1.3168   1.3423   1.4503
     1.4897   1.5179   1.5256   1.5901   1.6948   1.7134   1.7947

          k = 0.0466-0.0538 0.0000 ( 29098 PWs)   bands (ev):

   -42.0440 -42.0359 -42.0298 -42.0224 -42.0207 -42.0117 -42.0097 -41.8341
   -41.4530 -41.4133 -41.4032 -41.3924 -22.4833 -22.0879 -22.0740 -22.0623
   -22.0558 -22.0512 -22.0388 -22.0274 -22.0235 -22.0210 -22.0098 -22.0056
   -22.0001 -21.9655 -21.9450 -21.9130 -21.8984 -21.8883 -21.8627 -21.8224
   -21.8146 -21.7848 -21.7413 -21.6862 -21.5084 -21.4691 -21.4349 -21.3896
   -21.3677 -21.3356 -21.3257 -21.3178 -21.3152 -21.2898 -21.2488 -21.2128
   -19.9205  -7.9554  -4.5288  -4.4817  -1.9699  -1.3047  -1.0402  -0.7075
    -0.4868  -0.0659   0.0056   0.3845   0.4190   0.5415   0.8112   0.8865
     0.9922   1.0485   1.0945   1.1934   1.2548   1.2835   1.3659   1.4283
     1.4769   1.5850   1.5873   1.6461   1.6994   1.7779   1.8355

          k =-0.0699 0.0404 0.0000 ( 29048 PWs)   bands (ev):

   -42.0431 -42.0357 -42.0329 -42.0228 -42.0167 -42.0116 -42.0115 -41.8341
   -41.4529 -41.4143 -41.4015 -41.3932 -22.4837 -22.0868 -22.0825 -22.0719
   -22.0588 -22.0559 -22.0385 -22.0248 -22.0189 -22.0152 -22.0073 -21.9969
   -21.9606 -21.9507 -21.9357 -21.9253 -21.9200 -21.9171 -21.8970 -21.7975
   -21.7914 -21.7856 -21.7644 -21.6762 -21.5137 -21.4785 -21.4049 -21.3691
   -21.3678 -21.3441 -21.3397 -21.3261 -21.3156 -21.3152 -21.2326 -21.2082
   -19.9205  -7.9554  -4.5308  -4.4797  -1.7635  -1.7169  -0.9027  -0.7906
    -0.0897  -0.0750   0.0885   0.1463   0.3508   0.3634   0.9873   1.0305
     1.0490   1.0704   1.1279   1.1496   1.2747   1.2768   1.3492   1.3988
     1.4473   1.4604   1.4828   1.6477   1.7293   1.7995   1.8349

          k =-0.0699 0.0673 0.0000 ( 29098 PWs)   bands (ev):

   -42.0440 -42.0359 -42.0298 -42.0224 -42.0207 -42.0117 -42.0097 -41.8341
   -41.4530 -41.4133 -41.4032 -41.3924 -22.4833 -22.0879 -22.0740 -22.0623
   -22.0558 -22.0512 -22.0388 -22.0274 -22.0235 -22.0210 -22.0098 -22.0056
   -22.0001 -21.9655 -21.9450 -21.9130 -21.8984 -21.8883 -21.8627 -21.8224
   -21.8146 -21.7848 -21.7413 -21.6862 -21.5084 -21.4691 -21.4349 -21.3896
   -21.3677 -21.3356 -21.3257 -21.3177 -21.3152 -21.2898 -21.2488 -21.2128
   -19.9205  -7.9554  -4.5288  -4.4817  -1.9699  -1.3047  -1.0402  -0.7075
    -0.4868  -0.0659   0.0056   0.3845   0.4190   0.5415   0.8112   0.8865
     0.9922   1.0485   1.0945   1.1934   1.2548   1.2835   1.3659   1.4283
     1.4769   1.5850   1.5873   1.6461   1.6994   1.7779   1.8355

          k =-0.0699 0.0942 0.0000 ( 29098 PWs)   bands (ev):

   -42.0440 -42.0359 -42.0298 -42.0224 -42.0207 -42.0117 -42.0097 -41.8341
   -41.4530 -41.4133 -41.4032 -41.3924 -22.4833 -22.0879 -22.0740 -22.0623
   -22.0558 -22.0512 -22.0388 -22.0274 -22.0235 -22.0210 -22.0098 -22.0056
   -22.0001 -21.9655 -21.9450 -21.9130 -21.8984 -21.8883 -21.8627 -21.8224
   -21.8146 -21.7848 -21.7413 -21.6862 -21.5084 -21.4691 -21.4349 -21.3896
   -21.3677 -21.3356 -21.3257 -21.3177 -21.3152 -21.2898 -21.2488 -21.2128
   -19.9205  -7.9554  -4.5288  -4.4817  -1.9699  -1.3047  -1.0402  -0.7075
    -0.4868  -0.0659   0.0056   0.3845   0.4190   0.5415   0.8112   0.8865
     0.9922   1.0485   1.0945   1.1934   1.2548   1.2835   1.3659   1.4283
     1.4769   1.5850   1.5873   1.6461   1.6994   1.7779   1.8355

          k =-0.0699-0.0404 0.0000 ( 29048 PWs)   bands (ev):

   -42.0431 -42.0357 -42.0329 -42.0228 -42.0167 -42.0116 -42.0115 -41.8341
   -41.4529 -41.4143 -41.4014 -41.3932 -22.4837 -22.0868 -22.0825 -22.0719
   -22.0588 -22.0559 -22.0385 -22.0248 -22.0189 -22.0152 -22.0073 -21.9969
   -21.9606 -21.9507 -21.9357 -21.9253 -21.9200 -21.9171 -21.8970 -21.7975
   -21.7914 -21.7856 -21.7644 -21.6762 -21.5137 -21.4785 -21.4049 -21.3691
   -21.3678 -21.3441 -21.3397 -21.3261 -21.3156 -21.3152 -21.2325 -21.2082
   -19.9205  -7.9554  -4.5308  -4.4797  -1.7635  -1.7169  -0.9027  -0.7906
    -0.0897  -0.0750   0.0885   0.1463   0.3508   0.3634   0.9873   1.0305
     1.0490   1.0704   1.1279   1.1496   1.2747   1.2768   1.3492   1.3988
     1.4473   1.4604   1.4828   1.6477   1.7293   1.7995   1.8349

     the Fermi energy is     1.2928 ev

!    total energy              =   -1158.25553869 Ry
     Harris-Foulkes estimate   =   -1158.25553894 Ry
     estimated scf accuracy    <       0.00000008 Ry

     The total energy is the sum of the following terms:

     one-electron contribution =   -5731.21320963 Ry
     hartree contribution      =    2861.49498832 Ry
     xc contribution           =    -347.37064588 Ry
     ewald contribution        =    2058.96283597 Ry
     electric field correction =       0.00010891 Ry
     smearing contrib. (-TS)   =      -0.12961637 Ry

     convergence has been achieved in  10 iterations
 
 BEEF-vdW xc energy contributions
           1 :   -302.856814345755     
           2 :    271.845025459763     
           3 :   -218.490141688199     
           4 :    155.965054774982     
           5 :   -96.5099229869437     
           6 :    47.7828875118555     
           7 :   -12.3181724758131     
           8 :   -10.6779093019720     
           9 :    23.0041747527004     
          10 :   -26.1569018662308     
          11 :    21.4370054558669     
          12 :   -10.8035286395757     
          13 :   -2.58275488954064     
          14 :    14.7776006447021     
          15 :   -22.2972025753919     
          16 :    23.4074039777834     
          17 :   -18.6346149399982     
          18 :    10.2137921643196     
          19 :  -0.901325359470320     
          20 :   -7.09141860978616     
          21 :    12.5329619135852     
          22 :   -15.0119668073389     
          23 :    14.5840870114167     
          24 :   -11.5953940444194     
          25 :    6.74172271561815     
          26 :   -1.14540076102674     
          27 :   -3.80571227735982     
          28 :    6.89359119158803     
          29 :   -7.55218434230471     
          30 :    6.07944294336511     
          31 :   -29.0790046198307     
          32 :   -19.8721678526373     

     Forces acting on atoms (Ry/au):


     negative rho (up, down):  2.608E-04 0.000E+00
     atom    1 type  1   force =     0.00000022    0.00000041    0.00441518
     atom    2 type  1   force =    -0.00000028   -0.00131146    0.00446873
     atom    3 type  1   force =    -0.00113597    0.00065526    0.00446843
     atom    4 type  1   force =     0.00113609    0.00065549    0.00446844
     atom    5 type  1   force =     0.00105126   -0.00060702   -0.00391009
     atom    6 type  1   force =    -0.00105109   -0.00060705   -0.00390993
     atom    7 type  1   force =     0.00000043   -0.00000023   -0.00589013
     atom    8 type  1   force =     0.00000013    0.00121364   -0.00390981
     atom    9 type  1   force =    -0.00004789   -0.00002717   -0.00013171
     atom   10 type  1   force =     0.00004497   -0.00002617   -0.00013155
     atom   11 type  1   force =    -0.00000052    0.00005370   -0.00013253
     atom   12 type  1   force =     0.00000142    0.00000087    0.00006379
     atom   13 type  2   force =     0.00000128   -0.00000011    0.00086165
     atom   14 type  3   force =    -0.00000006   -0.00000016   -0.00073048

     Total force =     0.001158     Total SCF correction =     0.000280
     SCF correction compared to forces is large: reduce conv_thr to get better values


     entering subroutine stress ...


     negative rho (up, down):  2.608E-04 0.000E+00
          total   stress  (Ry/bohr**3)                   (kbar)     P=   -1.35
  -0.00000639   0.00000000  -0.00000000         -0.94      0.00     -0.00
   0.00000000  -0.00000639  -0.00000000          0.00     -0.94     -0.00
  -0.00000000  -0.00000000  -0.00001479         -0.00     -0.00     -2.18


     bfgs converged in  23 scf cycles and  22 bfgs steps
     (criteria: energy <  1.0E+00, force <  1.9E-03)

     End of BFGS Geometry Optimization

     Final energy   =   -1158.2555386869 Ry
Begin final coordinates

ATOMIC_POSITIONS (crystal)
Y1       0.166666667   0.166666667   0.386999750    0   0   0
Y1       0.666666667   0.166666667   0.386999750    0   0   0
Y1       0.166666667   0.666666667   0.386999750    0   0   0
Y1       0.666666667   0.666666667   0.386999750    0   0   0
Y1       0.833333333   0.333333333   0.500000000    0   0   0
Y1       0.333333333   0.333333333   0.500000000    0   0   0
Y1       0.833333333   0.833333333   0.500000000    0   0   0
Y1       0.333333333   0.833333333   0.500000000    0   0   0
Y1       0.001858859   0.001857718   0.613197991
Y1       0.496286361   0.001857253   0.613198237
Y1       0.001859149   0.496283915   0.613198200
Y1       0.500000324   0.499998962   0.605150091
O1       0.166666623   0.166666222   0.660055721
H1       0.166666439   0.166666518   0.697892244
End final coordinates



     Writing output data file calc.save
 
     init_run     :     19.73s CPU     20.32s WALL (       1 calls)
     electrons    :  10701.68s CPU  11680.91s WALL (      23 calls)
     update_pot   :    107.15s CPU    112.02s WALL (      22 calls)
     forces       :    612.37s CPU    661.71s WALL (      23 calls)
     stress       :   1757.03s CPU   1903.23s WALL (      23 calls)

     Called by init_run:
     wfcinit      :      8.15s CPU      8.32s WALL (       1 calls)
     potinit      :      3.25s CPU      3.47s WALL (       1 calls)

     Called by electrons:
     c_bands      :   3914.88s CPU   4261.40s WALL (     256 calls)
     sum_band     :   2131.58s CPU   2347.90s WALL (     256 calls)
     v_of_rho     :    707.71s CPU    771.17s WALL (     273 calls)
     newd         :   1863.82s CPU   1888.94s WALL (     273 calls)
     mix_rho      :     25.52s CPU     26.05s WALL (     256 calls)
     vdW_energy   :    398.00s CPU    440.19s WALL (    1101 calls)
     vdW_ffts     :   1039.89s CPU   1073.88s WALL (    2248 calls)
     vdW_v        :    386.62s CPU    397.20s WALL (    1101 calls)

     Called by c_bands:
     init_us_2    :     25.14s CPU     25.28s WALL (    2795 calls)
     cegterg      :   3261.27s CPU   3341.54s WALL (    1280 calls)

     Called by *egterg:
     h_psi        :   2244.02s CPU   2285.18s WALL (    8264 calls)
     s_psi        :    208.43s CPU    209.04s WALL (    8264 calls)
     g_psi        :     13.24s CPU     13.27s WALL (    6979 calls)
     cdiaghg      :    222.28s CPU    223.89s WALL (    8119 calls)

     Called by h_psi:
     add_vuspsi   :    214.00s CPU    214.57s WALL (    8264 calls)

     General routines
     calbec       :    315.71s CPU    320.92s WALL (    9774 calls)
     fft          :   1604.17s CPU   1700.68s WALL (   66433 calls)
     ffts         :      1.60s CPU      1.71s WALL (     529 calls)
     fftw         :   1283.26s CPU   1327.21s WALL (  649966 calls)
     interpolate  :     16.72s CPU     17.46s WALL (     529 calls)
     davcio       :      0.00s CPU      0.04s WALL (       5 calls)
 
     Parallel routines
     fft_scatter  :   1649.77s CPU   1783.32s WALL (  716928 calls)
 
     PWSCF        :     3h42m CPU        4h 2m WALL

 
   This run was terminated on:  23:17:33  24Apr2018            

=------------------------------------------------------------------------------=
   JOB DONE.
=------------------------------------------------------------------------------=
Job  /afs/slac/g/suncat/bin/suncat-tsmpirun -x LD_LIBRARY_PATH -wdir /scratch/qe207121_czWoY pw.x -npool 4 -in pw.inp

TID   HOST_NAME   COMMAND_LINE            STATUS            TERMINATION_TIME
===== ========== ================  =======================  ===================
00000 suncat0055 pw.x -npool 4 -i  Done                     04/24/2018 23:17:33
00001 suncat0055 pw.x -npool 4 -i  Done                     04/24/2018 23:17:33
00002 suncat0055 pw.x -npool 4 -i  Done                     04/24/2018 23:17:33
00003 suncat0055 pw.x -npool 4 -i  Done                     04/24/2018 23:17:33
00004 suncat0055 pw.x -npool 4 -i  Done                     04/24/2018 23:17:33
00005 suncat0055 pw.x -npool 4 -i  Done                     04/24/2018 23:17:33
00006 suncat0055 pw.x -npool 4 -i  Done                     04/24/2018 23:17:33
00007 suncat0055 pw.x -npool 4 -i  Done                     04/24/2018 23:17:33
00008 suncat0195 pw.x -npool 4 -i  Done                     04/24/2018 23:17:33
00009 suncat0195 pw.x -npool 4 -i  Done                     04/24/2018 23:17:33
00010 suncat0195 pw.x -npool 4 -i  Done                     04/24/2018 23:17:33
00011 suncat0195 pw.x -npool 4 -i  Done                     04/24/2018 23:17:33
00012 suncat0195 pw.x -npool 4 -i  Done                     04/24/2018 23:17:33
00013 suncat0195 pw.x -npool 4 -i  Done                     04/24/2018 23:17:33
00014 suncat0195 pw.x -npool 4 -i  Done                     04/24/2018 23:17:33
00015 suncat0195 pw.x -npool 4 -i  Done                     04/24/2018 23:17:33
00016 suncat0183 pw.x -npool 4 -i  Done                     04/24/2018 23:17:33
00017 suncat0183 pw.x -npool 4 -i  Done                     04/24/2018 23:17:33
00018 suncat0183 pw.x -npool 4 -i  Done                     04/24/2018 23:17:33
00019 suncat0183 pw.x -npool 4 -i  Done                     04/24/2018 23:17:33
00020 suncat0183 pw.x -npool 4 -i  Done                     04/24/2018 23:17:33
00021 suncat0183 pw.x -npool 4 -i  Done                     04/24/2018 23:17:33
00022 suncat0183 pw.x -npool 4 -i  Done                     04/24/2018 23:17:33
00023 suncat0183 pw.x -npool 4 -i  Done                     04/24/2018 23:17:33
00024 suncat0177 pw.x -npool 4 -i  Done                     04/24/2018 23:17:33
00025 suncat0177 pw.x -npool 4 -i  Done                     04/24/2018 23:17:33
00026 suncat0177 pw.x -npool 4 -i  Done                     04/24/2018 23:17:33
00027 suncat0177 pw.x -npool 4 -i  Done                     04/24/2018 23:17:33
00028 suncat0177 pw.x -npool 4 -i  Done                     04/24/2018 23:17:33
00029 suncat0177 pw.x -npool 4 -i  Done                     04/24/2018 23:17:33
00030 suncat0177 pw.x -npool 4 -i  Done                     04/24/2018 23:17:33
00031 suncat0177 pw.x -npool 4 -i  Done                     04/24/2018 23:17:33
