  python dir          : /u/if/mamunm/src/espresso
  espresso dir        : /nfs/slac/g/suncatfs/sw/espv18/espresso-dynpy-beef/bin
  pseudo dir          : /u/if/mamunm/psp/gbrv1.5pbe
  ase-espresso py git : GITVERSION



     Program PWSCF v.5.1rc2 (svn rev. 11289) starts on  2May2018 at 21:54:56 

     This program is part of the open-source Quantum ESPRESSO suite
     for quantum simulation of materials; please cite
         "P. Giannozzi et al., J. Phys.:Condens. Matter 21 395502 (2009);
          URL http://www.quantum-espresso.org", 
     in publications or presentations arising from this work. More details at
     http://www.quantum-espresso.org/quote

     Parallel version (MPI), running on    32 processors
     K-points division:     npool     =       4
     R & G space division:  proc/nbgrp/npool/nimage =       8
     Reading input from pw.inp
     Message from routine read_cards :
     DEPRECATED: no units specified in CELL_PARAMETERS card

     Current dimensions of program PWSCF are:
     Max number of different atomic species (ntypx) = 10
     Max number of k-points (npk) =  40000
     Max angular momentum in pseudopotentials (lmaxx) =  3
     Presently stress not available with electric field


     **************************************************************************
     Initializing libbeef V0.1.1 with the BEEF-vdW functional.
     Citation: Wellendorff et al., PRB 85, 235149 (2012).
     **************************************************************************


     IMPORTANT: XC functional enforced from input :
     Exchange-correlation      = BEEF-VDW ( 1  4 27 13 2)
     Any further DFT definition will be discarded
     Please, verify this is what you really want


     Subspace diagonalization in iterative solution of the eigenvalue problem:
     a serial algorithm will be used

 
     Parallelization info
     --------------------
     sticks:   dense  smooth     PW     G-vecs:    dense   smooth      PW
     Min         354     143     40                67132    16991    2682
     Max         355     144     43                67159    17028    2691
     Sum        2839    1147    337               537229   136073   21493
 


     bravais-lattice index     =            0
     lattice parameter (alat)  =       1.8897  a.u.
     unit-cell volume          =    4515.4205 (a.u.)^3
     number of atoms/cell      =           13
     number of atomic types    =            2
     number of electrons       =       241.00
     number of Kohn-Sham states=          130
     kinetic-energy cutoff     =      36.7493  Ry
     charge density cutoff     =     367.4932  Ry
     convergence threshold     =      1.0E-05
     mixing beta               =       0.3000
     number of iterations used =           10  plain     mixing
     Exchange-correlation      = BEEF-VDW ( 1  4 27 13 2)
     nstep                     =           50


     celldm(1)=   1.889726  celldm(2)=   0.000000  celldm(3)=   0.000000
     celldm(4)=   0.000000  celldm(5)=   0.000000  celldm(6)=   0.000000

     crystal axes: (cart. coord. in units of alat)
               a(1) = (   5.606773   0.000000   0.000000 )  
               a(2) = (   2.803387   4.855608   0.000000 )  
               a(3) = (   0.000000   0.000000  24.577911 )  

     reciprocal axes: (cart. coord. in units 2 pi/alat)
               b(1) = (  0.178356 -0.102974  0.000000 )  
               b(2) = (  0.000000  0.205947  0.000000 )  
               b(3) = (  0.000000  0.000000  0.040687 )  


     PseudoPot. # 1 for Zn read from file:
     /u/if/mamunm/psp/gbrv1.5pbe/Zn.UPF
     MD5 check sum: df62231357ef9e81f77b2b3087fa5675
     Pseudo is Ultrasoft, Zval = 20.0
     Generated by new atomic code, or converted to UPF format
     Using radial grid of  943 points,  6 beta functions with: 
                l(1) =   0
                l(2) =   0
                l(3) =   1
                l(4) =   1
                l(5) =   2
                l(6) =   2
     Q(r) pseudized with  8 coefficients,  rinner =    1.100   1.100   1.100
                                                       1.100   1.100

     PseudoPot. # 2 for H  read from file:
     /u/if/mamunm/psp/gbrv1.5pbe/H.UPF
     MD5 check sum: 761ae9a214b05c3daf00ab9f6b793d6f
     Pseudo is Ultrasoft, Zval =  1.0
     Generated by new atomic code, or converted to UPF format
     Using radial grid of  615 points,  2 beta functions with: 
                l(1) =   0
                l(2) =   0
     Q(r) pseudized with  8 coefficients,  rinner =    0.700

     vdW kernel table read from file vdW_kernel_table
     MD5 check sum: 095c7af220d748ca6e76c0b4c6cfb241

     atomic species   valence    mass     pseudopotential
        Zn1           20.00    65.38000     Zn( 1.00)
        H1             1.00     1.00800     H ( 1.00)

     No symmetry found



   Cartesian axes

     site n.     atom                  positions (alat units)
         1           Zn1 tau(   1) = (   1.4016933   0.8092680  10.0000000  )
         2           Zn1 tau(   2) = (   4.2050800   0.8092680  10.0000000  )
         3           Zn1 tau(   3) = (   2.8033867   3.2370721  10.0000000  )
         4           Zn1 tau(   4) = (   5.6067733   3.2370721  10.0000000  )
         5           Zn1 tau(   5) = (   5.6067733   1.6185360  12.2889556  )
         6           Zn1 tau(   6) = (   2.8033867   1.6185360  12.2889556  )
         7           Zn1 tau(   7) = (   7.0084667   4.0463401  12.2889556  )
         8           Zn1 tau(   8) = (   4.2050800   4.0463401  12.2889556  )
         9           Zn1 tau(   9) = (   0.0000000   0.0000000  14.5779113  )
        10           Zn1 tau(  10) = (   2.8033867   0.0000000  14.5779113  )
        11           Zn1 tau(  11) = (   1.4016933   2.4278041  14.5779113  )
        12           Zn1 tau(  12) = (   4.2050800   2.4278041  14.5779113  )
        13           H1  tau(  13) = (   1.4016933   0.8092680  15.5724113  )

     number of k points=    20  Fermi-Dirac smearing, width (Ry)=  0.0110
                       cart. coord. in units 2pi/alat
        k(    1) = (   0.0000000   0.0000000   0.0000000), wk =   0.0555556
        k(    2) = (   0.0000000   0.0343246   0.0000000), wk =   0.1111111
        k(    3) = (   0.0000000   0.0686491   0.0000000), wk =   0.1111111
        k(    4) = (   0.0000000  -0.1029737   0.0000000), wk =   0.0555556
        k(    5) = (   0.0297260  -0.0171623   0.0000000), wk =   0.1111111
        k(    6) = (   0.0297260   0.0171623   0.0000000), wk =   0.1111111
        k(    7) = (   0.0297260   0.0514869   0.0000000), wk =   0.1111111
        k(    8) = (   0.0297260  -0.1201360   0.0000000), wk =   0.1111111
        k(    9) = (   0.0297260  -0.0858114   0.0000000), wk =   0.1111111
        k(   10) = (   0.0297260  -0.0514869   0.0000000), wk =   0.1111111
        k(   11) = (   0.0594519  -0.0343246   0.0000000), wk =   0.1111111
        k(   12) = (   0.0594519   0.0000000   0.0000000), wk =   0.1111111
        k(   13) = (   0.0594519   0.0343246   0.0000000), wk =   0.1111111
        k(   14) = (   0.0594519  -0.1372983   0.0000000), wk =   0.1111111
        k(   15) = (   0.0594519  -0.1029737   0.0000000), wk =   0.1111111
        k(   16) = (   0.0594519  -0.0686491   0.0000000), wk =   0.1111111
        k(   17) = (  -0.0891779   0.0514869   0.0000000), wk =   0.0555556
        k(   18) = (  -0.0891779   0.0858114   0.0000000), wk =   0.1111111
        k(   19) = (  -0.0891779   0.1201360   0.0000000), wk =   0.1111111
        k(   20) = (  -0.0891779  -0.0514869   0.0000000), wk =   0.0555556

     Dense  grid:   537229 G-vectors     FFT dimensions: (  72,  72, 288)

     Smooth grid:   136073 G-vectors     FFT dimensions: (  45,  45, 180)

     Largest allocated arrays     est. size (Mb)     dimensions
        Kohn-Sham Wavefunctions         4.29 Mb     (    2163,  130)
        NL pseudopotentials             7.20 Mb     (    2163,  218)
        Each V/rho on FFT grid          2.85 Mb     (  186624)
        Each G-vector array             0.51 Mb     (   67157)
        G-vector shells                 0.14 Mb     (   17773)
     Largest temporary arrays     est. size (Mb)     dimensions
        Auxiliary wavefunctions        17.16 Mb     (    2163,  520)
        Each subspace H/S matrix        4.13 Mb     (     520,  520)
        Each <psi_i|beta_j> matrix      0.43 Mb     (     218,  130)
        Arrays for rho mixing          28.48 Mb     (  186624,   10)

     Initial potential from superposition of free atoms
     Check: negative starting charge=   -0.000863

     starting charge  240.99830, renormalised to  241.00000

     negative rho (up, down):  8.626E-04 0.000E+00


     ************************************************************************
     *
     * You are using vdW-DF for exchange-correlation in this calculation.
     * Please cite the following three references that made this development
     * possible:
     *
     *   M. Dion, H. Rydberg, E. Schroder, D. C. Langreth, and
     *   B. I. Lundqvist, Phys. Rev. Lett. 92, 246401 (2004).
     *
     *   T. Thonhauser, V. R. Cooper, S. Li, A. Puzder, P. Hyldgaard, and
     *   D. C. Langreth, Phys. Rev. B 76, 125112 (2007).
     *
     *   G. Roman-Perez and J. M. Soler, Phys. Rev. Lett. 103, 096102 (2009).
     *
     *
     * If you are using vdW-DF2, please also cite:
     *
     *   K. Lee, E. D. Murray, L. Kong, B. I. Lundqvist, and
     *   D. C. Langreth, Phys. Rev. B 82, 081101(R) (2010).
     *
     *
     * If you are calculating the stress with vdW-DF, please also cite:
     *
     *   R. Sabatini, E. Kucukbenli, B. Kolb, T. Thonhauser, and
     *   S. de Gironcoli, J. Phys.: Condens. Matter 24, 424209 (2012).
     *
     ************************************************************************

     Carrying out vdW-DF run using the following parameters:

     Nqs =      20    Nr_points =    1024   r_max =   100.000
     q_mesh =
               0.00001000     0.04494208     0.09755937     0.15916263
               0.23128650     0.31572767     0.41458969     0.53033537
               0.66584808     0.82450364     1.01025438     1.22772762
               1.48234092     1.78043706     2.12944203     2.53805004
               3.01644009     3.57652955     4.23227104     5.00000000

     Gradients computed in reciprocal space

     ************************************************************************


 
     Adding external electric field

     Computed dipole along edir(3) : 
        Dipole                0.0000 Ry au,          0.0000 Debye
        Dipole field          0.0000 Ry au
 
        Potential amp.       -0.0000 Ry
        Total length         45.2844 bohr
 
     Starting wfc are  157 randomized atomic wfcs

     total cpu time spent up to now is       11.6 secs

     per-process dynamical memory:    89.0 Mb

     Self-consistent Calculation

     iteration #  1     ecut=    36.75 Ry     beta=0.30
     Davidson diagonalization with overlap
     ethr =  1.00E-02,  avg # of iterations =  2.0

     Threshold (ethr) on eigenvalues was too large:
     Diagonalizing with lowered threshold

     Davidson diagonalization with overlap
     ethr =  8.97E-05,  avg # of iterations =  3.5

     negative rho (up, down):  9.151E-04 0.000E+00
 
     Adding external electric field

     Computed dipole along edir(3) : 
        Dipole               -0.2817 Ry au,         -0.7159 Debye
        Dipole field         -0.0008 Ry au
 
        Potential amp.        0.0710 Ry
        Total length         45.2844 bohr
 

     total cpu time spent up to now is       48.9 secs

     total energy              =   -5554.39628784 Ry
     Harris-Foulkes estimate   =   -5554.45390407 Ry
     estimated scf accuracy    <       0.23079386 Ry

     iteration #  2     ecut=    36.75 Ry     beta=0.30
     Davidson diagonalization with overlap
     ethr =  9.58E-05,  avg # of iterations =  3.0

     negative rho (up, down):  1.001E-03 0.000E+00
 
     Adding external electric field

     Computed dipole along edir(3) : 
        Dipole                0.3745 Ry au,          0.9519 Debye
        Dipole field          0.0010 Ry au
 
        Potential amp.       -0.0944 Ry
        Total length         45.2844 bohr
 

     total cpu time spent up to now is       72.1 secs

     total energy              =   -5554.37562170 Ry
     Harris-Foulkes estimate   =   -5554.43731041 Ry
     estimated scf accuracy    <       0.28032445 Ry

     iteration #  3     ecut=    36.75 Ry     beta=0.30
     Davidson diagonalization with overlap
     ethr =  9.58E-05,  avg # of iterations =  4.6

     negative rho (up, down):  1.006E-03 0.000E+00
 
     Adding external electric field

     Computed dipole along edir(3) : 
        Dipole               -0.0333 Ry au,         -0.0846 Debye
        Dipole field         -0.0001 Ry au
 
        Potential amp.        0.0084 Ry
        Total length         45.2844 bohr
 

     total cpu time spent up to now is       94.0 secs

     total energy              =   -5554.38201598 Ry
     Harris-Foulkes estimate   =   -5554.46265235 Ry
     estimated scf accuracy    <       0.85795762 Ry

     iteration #  4     ecut=    36.75 Ry     beta=0.30
     Davidson diagonalization with overlap
     ethr =  9.58E-05,  avg # of iterations =  3.9

     negative rho (up, down):  1.000E-03 0.000E+00
 
     Adding external electric field

     Computed dipole along edir(3) : 
        Dipole                0.0038 Ry au,          0.0097 Debye
        Dipole field          0.0000 Ry au
 
        Potential amp.       -0.0010 Ry
        Total length         45.2844 bohr
 

     total cpu time spent up to now is      115.3 secs

     total energy              =   -5554.42161396 Ry
     Harris-Foulkes estimate   =   -5554.42262018 Ry
     estimated scf accuracy    <       0.01279397 Ry

     iteration #  5     ecut=    36.75 Ry     beta=0.30
     Davidson diagonalization with overlap
     ethr =  5.31E-06,  avg # of iterations =  3.1

     negative rho (up, down):  1.020E-03 0.000E+00
 
     Adding external electric field

     Computed dipole along edir(3) : 
        Dipole                0.0141 Ry au,          0.0357 Debye
        Dipole field          0.0000 Ry au
 
        Potential amp.       -0.0035 Ry
        Total length         45.2844 bohr
 

     total cpu time spent up to now is      136.7 secs

     total energy              =   -5554.42261344 Ry
     Harris-Foulkes estimate   =   -5554.42314522 Ry
     estimated scf accuracy    <       0.00538355 Ry

     iteration #  6     ecut=    36.75 Ry     beta=0.30
     Davidson diagonalization with overlap
     ethr =  2.23E-06,  avg # of iterations =  3.1

     negative rho (up, down):  1.039E-03 0.000E+00
 
     Adding external electric field

     Computed dipole along edir(3) : 
        Dipole                0.0130 Ry au,          0.0330 Debye
        Dipole field          0.0000 Ry au
 
        Potential amp.       -0.0033 Ry
        Total length         45.2844 bohr
 

     total cpu time spent up to now is      157.6 secs

     total energy              =   -5554.42329616 Ry
     Harris-Foulkes estimate   =   -5554.42313591 Ry
     estimated scf accuracy    <       0.00057995 Ry

     iteration #  7     ecut=    36.75 Ry     beta=0.30
     Davidson diagonalization with overlap
     ethr =  2.41E-07,  avg # of iterations =  2.0

     negative rho (up, down):  1.041E-03 0.000E+00
 
     Adding external electric field

     Computed dipole along edir(3) : 
        Dipole                0.0113 Ry au,          0.0287 Debye
        Dipole field          0.0000 Ry au
 
        Potential amp.       -0.0028 Ry
        Total length         45.2844 bohr
 

     total cpu time spent up to now is      177.7 secs

     total energy              =   -5554.42336727 Ry
     Harris-Foulkes estimate   =   -5554.42334563 Ry
     estimated scf accuracy    <       0.00003691 Ry

     iteration #  8     ecut=    36.75 Ry     beta=0.30
     Davidson diagonalization with overlap
     ethr =  1.53E-08,  avg # of iterations =  3.0

     negative rho (up, down):  1.053E-03 0.000E+00

     negative rho (up, down):  1.053E-03 0.000E+00

     negative rho (up, down):  1.053E-03 0.000E+00

     negative rho (up, down):  1.053E-03 0.000E+00

     negative rho (up, down):  1.053E-03 0.000E+00

     negative rho (up, down):  1.053E-03 0.000E+00

     negative rho (up, down):  1.053E-03 0.000E+00

     negative rho (up, down):  1.053E-03 0.000E+00

     negative rho (up, down):  1.053E-03 0.000E+00

     negative rho (up, down):  1.053E-03 0.000E+00

     negative rho (up, down):  1.053E-03 0.000E+00

     negative rho (up, down):  1.053E-03 0.000E+00

     negative rho (up, down):  1.053E-03 0.000E+00

     negative rho (up, down):  1.053E-03 0.000E+00

     negative rho (up, down):  1.053E-03 0.000E+00

     negative rho (up, down):  1.053E-03 0.000E+00

     negative rho (up, down):  1.053E-03 0.000E+00

     negative rho (up, down):  1.053E-03 0.000E+00

     negative rho (up, down):  1.053E-03 0.000E+00

     negative rho (up, down):  1.053E-03 0.000E+00

     negative rho (up, down):  1.053E-03 0.000E+00

     negative rho (up, down):  1.053E-03 0.000E+00

     negative rho (up, down):  1.053E-03 0.000E+00

     negative rho (up, down):  1.053E-03 0.000E+00

     negative rho (up, down):  1.053E-03 0.000E+00

     negative rho (up, down):  1.053E-03 0.000E+00

     negative rho (up, down):  1.053E-03 0.000E+00

     negative rho (up, down):  1.053E-03 0.000E+00

     negative rho (up, down):  1.053E-03 0.000E+00

     negative rho (up, down):  1.053E-03 0.000E+00

     negative rho (up, down):  1.053E-03 0.000E+00

     negative rho (up, down):  1.053E-03 0.000E+00

     negative rho (up, down):  1.053E-03 0.000E+00

     negative rho (up, down):  1.053E-03 0.000E+00

     negative rho (up, down):  1.053E-03 0.000E+00
 
     Adding external electric field

     Computed dipole along edir(3) : 
        Dipole                0.0128 Ry au,          0.0326 Debye
        Dipole field          0.0000 Ry au
 
        Potential amp.       -0.0032 Ry
        Total length         45.2844 bohr
 

     total cpu time spent up to now is      247.0 secs

     End of self-consistent calculation

          k = 0.0000 0.0000 0.0000 ( 16931 PWs)   bands (ev):

  -126.3367-126.3117-126.3108-126.3108-126.2431-126.2422-126.2422-126.1047
  -126.1038-126.1038-126.0830-126.0685 -80.5213 -80.5136 -80.5136 -80.4921
   -80.4921 -80.4912 -80.4883 -80.4864 -80.4857 -80.4856 -80.4787 -80.4787
   -80.4298 -80.4278 -80.4278 -80.4238 -80.4216 -80.4216 -80.4155 -80.4123
   -80.4123 -80.2955 -80.2946 -80.2946 -80.2820 -80.2803 -80.2803 -80.2734
   -80.2696 -80.2696 -80.2683 -80.2552 -80.2552 -80.2483 -80.2431 -80.2431
    -9.1675  -8.2736  -7.8796  -7.8796  -7.8765  -7.8528  -7.8088  -7.7982
    -7.7982  -7.7756  -7.7173  -7.7173  -7.6050  -7.5802  -7.5802  -7.4173
    -7.3489  -7.3489  -7.3322  -7.3322  -7.3286  -7.2978  -7.2978  -7.2917
    -7.2387  -7.2387  -7.2343  -7.2160  -7.2160  -7.1090  -7.1090  -6.9622
    -6.9622  -6.9592  -6.9592  -6.9467  -6.9325  -6.9130  -6.9130  -6.8708
    -6.8351  -6.8351  -6.7964  -6.7964  -6.7547  -6.7543  -6.7543  -6.7246
    -6.7172  -6.7172  -6.7167  -6.6915  -6.6915  -6.6804  -6.6804  -6.6625
    -6.6447  -6.5948  -6.5948  -6.5190  -6.5074  -6.5074  -4.6380  -2.8404
    -2.1368  -2.1368  -1.9804  -1.7715  -1.7715  -1.4978  -0.8421  -0.7544
    -0.7544  -0.1479   0.3026   0.3026   1.5306   2.1256   2.1256   2.5778
     2.6206   2.6206

          k = 0.0000 0.0343 0.0000 ( 16966 PWs)   bands (ev):

  -126.3367-126.3117-126.3109-126.3108-126.2430-126.2422-126.2422-126.1047
  -126.1039-126.1038-126.0830-126.0685 -80.5214 -80.5134 -80.5132 -80.4924
   -80.4919 -80.4905 -80.4888 -80.4865 -80.4857 -80.4857 -80.4795 -80.4789
   -80.4297 -80.4279 -80.4278 -80.4233 -80.4214 -80.4212 -80.4160 -80.4131
   -80.4126 -80.2956 -80.2946 -80.2946 -80.2813 -80.2799 -80.2798 -80.2739
   -80.2703 -80.2698 -80.2684 -80.2553 -80.2553 -80.2484 -80.2434 -80.2433
    -8.9943  -8.1887  -7.8558  -7.8289  -7.8251  -7.8000  -7.7672  -7.7670
    -7.7580  -7.7262  -7.6963  -7.6840  -7.5731  -7.5462  -7.5323  -7.4117
    -7.3522  -7.3426  -7.3391  -7.3138  -7.2991  -7.2960  -7.2930  -7.2723
    -7.2609  -7.2322  -7.2267  -7.2211  -7.1958  -7.1342  -7.0829  -7.0302
    -6.9987  -6.9948  -6.9692  -6.9600  -6.9469  -6.9444  -6.9164  -6.8905
    -6.8593  -6.8526  -6.8244  -6.8085  -6.7900  -6.7856  -6.7754  -6.7750
    -6.7404  -6.7349  -6.7242  -6.7156  -6.7130  -6.6873  -6.6843  -6.6795
    -6.6406  -6.6359  -6.5676  -6.5590  -6.5480  -6.5133  -4.6329  -3.9379
    -3.0645  -2.8710  -2.5684  -1.8620  -1.2588  -1.0112  -0.6487  -0.6458
    -0.1323   0.3936   0.8609   1.0783   1.5582   1.5857   2.1588   2.6858
     3.3999   3.5528

          k = 0.0000 0.0686 0.0000 ( 16996 PWs)   bands (ev):

  -126.3367-126.3115-126.3110-126.3108-126.2429-126.2423-126.2422-126.1045
  -126.1040-126.1038-126.0830-126.0685 -80.5214 -80.5131 -80.5124 -80.4933
   -80.4914 -80.4896 -80.4888 -80.4862 -80.4861 -80.4857 -80.4815 -80.4791
   -80.4293 -80.4281 -80.4278 -80.4225 -80.4205 -80.4201 -80.4169 -80.4152
   -80.4128 -80.2955 -80.2949 -80.2946 -80.2804 -80.2785 -80.2784 -80.2749
   -80.2724 -80.2701 -80.2684 -80.2555 -80.2554 -80.2485 -80.2440 -80.2435
    -8.5193  -8.0022  -7.8071  -7.7096  -7.6980  -7.6916  -7.6839  -7.6793
    -7.6641  -7.6498  -7.6029  -7.5880  -7.4989  -7.4616  -7.4265  -7.4202
    -7.3822  -7.3496  -7.3460  -7.3065  -7.2827  -7.2614  -7.2528  -7.2421
    -7.2156  -7.2138  -7.2129  -7.1904  -7.1694  -7.1481  -7.1241  -7.0995
    -7.0734  -7.0628  -7.0309  -7.0225  -6.9899  -6.9490  -6.9459  -6.9201
    -6.9071  -6.9049  -6.8859  -6.8843  -6.8566  -6.8456  -6.8374  -6.8235
    -6.8194  -6.8033  -6.7982  -6.7794  -6.7768  -6.7576  -6.7204  -6.7113
    -6.6846  -6.6722  -6.6464  -6.6291  -6.6182  -6.1942  -5.6923  -4.5113
    -3.6671  -3.3809  -3.3223  -2.2451  -1.7190  -1.4140  -0.5534   0.4134
     0.6885   1.0296   1.2386   1.9022   2.5798   2.7713   3.1915   3.3499
     4.0697   4.2981

          k = 0.0000-0.1030 0.0000 ( 17028 PWs)   bands (ev):

  -126.3367-126.3114-126.3111-126.3108-126.2428-126.2425-126.2422-126.1044
  -126.1041-126.1038-126.0830-126.0685 -80.5215 -80.5130 -80.5120 -80.4938
   -80.4906 -80.4905 -80.4875 -80.4864 -80.4857 -80.4857 -80.4833 -80.4792
   -80.4291 -80.4283 -80.4278 -80.4223 -80.4188 -80.4187 -80.4182 -80.4175
   -80.4129 -80.2954 -80.2950 -80.2946 -80.2802 -80.2774 -80.2764 -80.2761
   -80.2747 -80.2701 -80.2684 -80.2557 -80.2554 -80.2485 -80.2444 -80.2435
    -8.1125  -7.8800  -7.8048  -7.6614  -7.6497  -7.6386  -7.6351  -7.5856
    -7.5673  -7.5518  -7.5477  -7.5271  -7.5072  -7.4301  -7.4183  -7.4083
    -7.3989  -7.3403  -7.3258  -7.3234  -7.2971  -7.2654  -7.2560  -7.2447
    -7.2101  -7.1869  -7.1675  -7.1669  -7.1516  -7.1154  -7.1118  -7.0991
    -7.0656  -7.0611  -7.0522  -7.0468  -7.0196  -6.9863  -6.9855  -6.9567
    -6.9537  -6.9460  -6.9455  -6.9236  -6.9069  -6.8874  -6.8865  -6.8728
    -6.8469  -6.8291  -6.8250  -6.7981  -6.7928  -6.7800  -6.7648  -6.7204
    -6.7090  -6.6786  -6.6786  -6.6677  -6.6380  -6.6253  -5.6667  -5.1779
    -3.8394  -3.5435  -3.1986  -2.4170  -1.9887  -1.8775  -0.3249   0.6970
     0.8315   0.9165   2.6806   2.9316   2.9403   3.0876   3.5042   4.0538
     4.1005   4.1781

          k = 0.0297-0.0172 0.0000 ( 16966 PWs)   bands (ev):

  -126.3367-126.3117-126.3109-126.3108-126.2430-126.2422-126.2422-126.1047
  -126.1039-126.1038-126.0830-126.0685 -80.5214 -80.5134 -80.5132 -80.4924
   -80.4919 -80.4905 -80.4888 -80.4865 -80.4857 -80.4857 -80.4795 -80.4789
   -80.4297 -80.4279 -80.4278 -80.4233 -80.4214 -80.4212 -80.4160 -80.4131
   -80.4126 -80.2956 -80.2946 -80.2946 -80.2813 -80.2799 -80.2798 -80.2739
   -80.2703 -80.2698 -80.2684 -80.2553 -80.2553 -80.2484 -80.2434 -80.2433
    -8.9943  -8.1887  -7.8558  -7.8289  -7.8251  -7.8000  -7.7672  -7.7670
    -7.7580  -7.7262  -7.6963  -7.6840  -7.5731  -7.5462  -7.5323  -7.4117
    -7.3522  -7.3426  -7.3391  -7.3138  -7.2991  -7.2960  -7.2930  -7.2723
    -7.2609  -7.2322  -7.2267  -7.2211  -7.1958  -7.1342  -7.0829  -7.0302
    -6.9987  -6.9949  -6.9692  -6.9600  -6.9469  -6.9444  -6.9164  -6.8905
    -6.8593  -6.8526  -6.8244  -6.8085  -6.7900  -6.7856  -6.7754  -6.7750
    -6.7404  -6.7349  -6.7242  -6.7156  -6.7130  -6.6873  -6.6843  -6.6795
    -6.6406  -6.6359  -6.5676  -6.5590  -6.5480  -6.5133  -4.6329  -3.9379
    -3.0645  -2.8710  -2.5684  -1.8620  -1.2588  -1.0112  -0.6487  -0.6458
    -0.1323   0.3936   0.8609   1.0783   1.5582   1.5857   2.1588   2.6858
     3.3999   3.5528

          k = 0.0297 0.0172 0.0000 ( 16966 PWs)   bands (ev):

  -126.3367-126.3117-126.3109-126.3108-126.2430-126.2422-126.2422-126.1047
  -126.1039-126.1038-126.0830-126.0685 -80.5214 -80.5134 -80.5132 -80.4924
   -80.4919 -80.4905 -80.4888 -80.4865 -80.4857 -80.4857 -80.4795 -80.4789
   -80.4297 -80.4279 -80.4278 -80.4233 -80.4214 -80.4212 -80.4160 -80.4131
   -80.4126 -80.2956 -80.2946 -80.2946 -80.2813 -80.2799 -80.2798 -80.2739
   -80.2703 -80.2698 -80.2684 -80.2553 -80.2553 -80.2484 -80.2434 -80.2433
    -8.9943  -8.1887  -7.8558  -7.8289  -7.8251  -7.8000  -7.7672  -7.7670
    -7.7580  -7.7262  -7.6963  -7.6840  -7.5731  -7.5462  -7.5323  -7.4117
    -7.3522  -7.3426  -7.3391  -7.3138  -7.2991  -7.2960  -7.2930  -7.2723
    -7.2609  -7.2322  -7.2267  -7.2211  -7.1958  -7.1342  -7.0829  -7.0302
    -6.9987  -6.9949  -6.9692  -6.9600  -6.9469  -6.9444  -6.9164  -6.8905
    -6.8593  -6.8526  -6.8244  -6.8085  -6.7900  -6.7856  -6.7754  -6.7750
    -6.7404  -6.7349  -6.7242  -6.7156  -6.7130  -6.6873  -6.6843  -6.6795
    -6.6406  -6.6359  -6.5676  -6.5590  -6.5480  -6.5133  -4.6329  -3.9379
    -3.0645  -2.8710  -2.5684  -1.8620  -1.2588  -1.0112  -0.6487  -0.6458
    -0.1323   0.3936   0.8609   1.0783   1.5582   1.5857   2.1588   2.6858
     3.3999   3.5528

          k = 0.0297 0.0515 0.0000 ( 16978 PWs)   bands (ev):

  -126.3367-126.3116-126.3110-126.3108-126.2429-126.2423-126.2422-126.1046
  -126.1040-126.1038-126.0830-126.0685 -80.5214 -80.5132 -80.5127 -80.4929
   -80.4918 -80.4894 -80.4893 -80.4862 -80.4860 -80.4857 -80.4808 -80.4791
   -80.4293 -80.4281 -80.4278 -80.4226 -80.4212 -80.4203 -80.4167 -80.4142
   -80.4129 -80.2954 -80.2948 -80.2946 -80.2805 -80.2795 -80.2787 -80.2747
   -80.2715 -80.2701 -80.2684 -80.2554 -80.2553 -80.2484 -80.2438 -80.2434
    -8.6665  -8.0502  -7.7858  -7.7810  -7.7233  -7.7190  -7.7097  -7.7079
    -7.6927  -7.6602  -7.6320  -7.6110  -7.5108  -7.4935  -7.4480  -7.4301
    -7.3795  -7.3381  -7.3269  -7.3171  -7.2980  -7.2685  -7.2658  -7.2444
    -7.2326  -7.2203  -7.2169  -7.2075  -7.1800  -7.1554  -7.0978  -7.0865
    -7.0654  -7.0412  -7.0381  -7.0125  -6.9647  -6.9442  -6.9255  -6.9201
    -6.9027  -6.8759  -6.8732  -6.8547  -6.8393  -6.8235  -6.8157  -6.8060
    -6.7921  -6.7796  -6.7672  -6.7558  -6.7504  -6.7461  -6.7056  -6.6946
    -6.6859  -6.6745  -6.6478  -6.6171  -6.6098  -6.2866  -4.9902  -4.7000
    -4.1242  -3.1808  -3.0129  -1.7462  -1.3734  -1.1333  -0.3894  -0.3514
    -0.0748   0.5830   1.6575   1.9806   2.3159   2.8092   3.0680   3.1413
     3.1784   3.8032

          k = 0.0297-0.1201 0.0000 ( 16986 PWs)   bands (ev):

  -126.3367-126.3114-126.3111-126.3108-126.2428-126.2425-126.2422-126.1044
  -126.1041-126.1038-126.0830-126.0685 -80.5214 -80.5128 -80.5122 -80.4934
   -80.4912 -80.4903 -80.4876 -80.4863 -80.4857 -80.4857 -80.4829 -80.4794
   -80.4290 -80.4283 -80.4278 -80.4218 -80.4202 -80.4186 -80.4183 -80.4161
   -80.4132 -80.2953 -80.2950 -80.2946 -80.2797 -80.2782 -80.2766 -80.2761
   -80.2736 -80.2704 -80.2684 -80.2556 -80.2554 -80.2485 -80.2442 -80.2436
    -8.1609  -7.8631  -7.7363  -7.6556  -7.6382  -7.6268  -7.6230  -7.6152
    -7.5985  -7.5737  -7.5554  -7.5400  -7.4767  -7.4598  -7.4422  -7.4065
    -7.3777  -7.3472  -7.3178  -7.2943  -7.2879  -7.2812  -7.2673  -7.2526
    -7.2153  -7.2006  -7.1925  -7.1870  -7.1656  -7.1448  -7.1294  -7.1007
    -7.0954  -7.0819  -7.0715  -7.0515  -7.0197  -7.0053  -6.9747  -6.9644
    -6.9553  -6.9336  -6.9273  -6.9120  -6.8991  -6.8795  -6.8713  -6.8559
    -6.8389  -6.8326  -6.8111  -6.8013  -6.7843  -6.7610  -6.7354  -6.7335
    -6.7141  -6.6933  -6.6851  -6.6729  -6.6443  -6.1921  -5.7498  -5.0947
    -4.7010  -3.7242  -3.0544  -2.1061  -1.6963  -1.0357  -0.2367   0.1879
     0.4957   1.2720   1.9828   2.3760   2.6141   2.7707   3.6714   3.8234
     4.1996   4.5008

          k = 0.0297-0.0858 0.0000 ( 16986 PWs)   bands (ev):

  -126.3367-126.3114-126.3111-126.3108-126.2428-126.2425-126.2422-126.1044
  -126.1041-126.1038-126.0830-126.0685 -80.5214 -80.5128 -80.5122 -80.4934
   -80.4912 -80.4903 -80.4876 -80.4863 -80.4858 -80.4857 -80.4829 -80.4794
   -80.4290 -80.4283 -80.4278 -80.4218 -80.4202 -80.4186 -80.4183 -80.4161
   -80.4132 -80.2953 -80.2950 -80.2946 -80.2797 -80.2782 -80.2766 -80.2761
   -80.2736 -80.2704 -80.2684 -80.2556 -80.2554 -80.2485 -80.2442 -80.2436
    -8.1609  -7.8631  -7.7363  -7.6556  -7.6382  -7.6268  -7.6230  -7.6152
    -7.5985  -7.5737  -7.5554  -7.5400  -7.4767  -7.4598  -7.4422  -7.4065
    -7.3777  -7.3472  -7.3178  -7.2943  -7.2879  -7.2812  -7.2673  -7.2526
    -7.2153  -7.2006  -7.1925  -7.1870  -7.1656  -7.1448  -7.1294  -7.1007
    -7.0954  -7.0819  -7.0715  -7.0515  -7.0197  -7.0053  -6.9747  -6.9644
    -6.9553  -6.9336  -6.9273  -6.9120  -6.8991  -6.8795  -6.8713  -6.8559
    -6.8389  -6.8326  -6.8111  -6.8013  -6.7843  -6.7610  -6.7354  -6.7335
    -6.7141  -6.6933  -6.6851  -6.6729  -6.6443  -6.1921  -5.7498  -5.0947
    -4.7010  -3.7242  -3.0544  -2.1061  -1.6963  -1.0357  -0.2367   0.1879
     0.4957   1.2720   1.9828   2.3760   2.6141   2.7707   3.6714   3.8234
     4.1996   4.5008

          k = 0.0297-0.0515 0.0000 ( 16978 PWs)   bands (ev):

  -126.3367-126.3116-126.3110-126.3108-126.2429-126.2423-126.2422-126.1046
  -126.1040-126.1038-126.0830-126.0685 -80.5214 -80.5132 -80.5127 -80.4929
   -80.4918 -80.4894 -80.4893 -80.4862 -80.4860 -80.4857 -80.4808 -80.4791
   -80.4293 -80.4281 -80.4278 -80.4226 -80.4212 -80.4203 -80.4167 -80.4142
   -80.4129 -80.2954 -80.2948 -80.2946 -80.2805 -80.2795 -80.2787 -80.2747
   -80.2715 -80.2701 -80.2684 -80.2554 -80.2553 -80.2484 -80.2438 -80.2434
    -8.6665  -8.0502  -7.7858  -7.7810  -7.7233  -7.7190  -7.7097  -7.7079
    -7.6927  -7.6602  -7.6320  -7.6110  -7.5108  -7.4935  -7.4480  -7.4301
    -7.3794  -7.3381  -7.3269  -7.3171  -7.2980  -7.2685  -7.2658  -7.2444
    -7.2326  -7.2203  -7.2169  -7.2075  -7.1800  -7.1554  -7.0978  -7.0865
    -7.0654  -7.0412  -7.0381  -7.0125  -6.9647  -6.9442  -6.9255  -6.9201
    -6.9027  -6.8759  -6.8732  -6.8547  -6.8393  -6.8235  -6.8157  -6.8060
    -6.7921  -6.7796  -6.7672  -6.7558  -6.7504  -6.7461  -6.7056  -6.6946
    -6.6860  -6.6745  -6.6478  -6.6171  -6.6098  -6.2866  -4.9902  -4.7000
    -4.1242  -3.1808  -3.0129  -1.7462  -1.3734  -1.1333  -0.3894  -0.3514
    -0.0748   0.5830   1.6575   1.9806   2.3159   2.8092   3.0680   3.1413
     3.1784   3.8032

          k = 0.0595-0.0343 0.0000 ( 16996 PWs)   bands (ev):

  -126.3367-126.3115-126.3110-126.3108-126.2429-126.2423-126.2422-126.1045
  -126.1040-126.1038-126.0830-126.0685 -80.5214 -80.5131 -80.5124 -80.4933
   -80.4914 -80.4896 -80.4888 -80.4862 -80.4861 -80.4857 -80.4815 -80.4791
   -80.4293 -80.4281 -80.4278 -80.4225 -80.4205 -80.4201 -80.4169 -80.4152
   -80.4128 -80.2955 -80.2949 -80.2946 -80.2804 -80.2785 -80.2784 -80.2749
   -80.2724 -80.2701 -80.2684 -80.2555 -80.2554 -80.2485 -80.2440 -80.2435
    -8.5193  -8.0022  -7.8071  -7.7096  -7.6980  -7.6916  -7.6839  -7.6793
    -7.6641  -7.6498  -7.6029  -7.5880  -7.4989  -7.4616  -7.4265  -7.4202
    -7.3822  -7.3496  -7.3460  -7.3065  -7.2827  -7.2614  -7.2528  -7.2421
    -7.2156  -7.2138  -7.2129  -7.1904  -7.1694  -7.1481  -7.1241  -7.0995
    -7.0734  -7.0628  -7.0309  -7.0225  -6.9899  -6.9490  -6.9459  -6.9201
    -6.9071  -6.9049  -6.8859  -6.8843  -6.8566  -6.8456  -6.8374  -6.8235
    -6.8194  -6.8033  -6.7982  -6.7794  -6.7768  -6.7576  -6.7204  -6.7113
    -6.6846  -6.6722  -6.6464  -6.6292  -6.6182  -6.1942  -5.6923  -4.5113
    -3.6671  -3.3809  -3.3223  -2.2451  -1.7190  -1.4140  -0.5534   0.4134
     0.6885   1.0296   1.2386   1.9022   2.5798   2.7713   3.1915   3.3499
     4.0697   4.2981

          k = 0.0595 0.0000 0.0000 ( 16978 PWs)   bands (ev):

  -126.3367-126.3116-126.3110-126.3108-126.2429-126.2423-126.2422-126.1046
  -126.1040-126.1038-126.0830-126.0685 -80.5214 -80.5132 -80.5127 -80.4929
   -80.4918 -80.4894 -80.4893 -80.4862 -80.4860 -80.4857 -80.4808 -80.4791
   -80.4293 -80.4281 -80.4278 -80.4226 -80.4212 -80.4203 -80.4167 -80.4142
   -80.4129 -80.2954 -80.2948 -80.2946 -80.2805 -80.2795 -80.2787 -80.2747
   -80.2715 -80.2701 -80.2684 -80.2554 -80.2553 -80.2484 -80.2438 -80.2434
    -8.6665  -8.0502  -7.7858  -7.7810  -7.7233  -7.7190  -7.7097  -7.7079
    -7.6927  -7.6602  -7.6320  -7.6110  -7.5108  -7.4935  -7.4480  -7.4301
    -7.3795  -7.3381  -7.3269  -7.3171  -7.2980  -7.2685  -7.2658  -7.2444
    -7.2326  -7.2203  -7.2169  -7.2075  -7.1800  -7.1554  -7.0978  -7.0865
    -7.0654  -7.0412  -7.0381  -7.0125  -6.9647  -6.9442  -6.9255  -6.9201
    -6.9027  -6.8759  -6.8732  -6.8547  -6.8393  -6.8235  -6.8157  -6.8060
    -6.7921  -6.7796  -6.7672  -6.7558  -6.7504  -6.7461  -6.7056  -6.6946
    -6.6859  -6.6745  -6.6478  -6.6171  -6.6098  -6.2866  -4.9902  -4.7000
    -4.1242  -3.1808  -3.0129  -1.7462  -1.3734  -1.1333  -0.3894  -0.3514
    -0.0748   0.5830   1.6575   1.9806   2.3159   2.8092   3.0680   3.1413
     3.1784   3.8032

          k = 0.0595 0.0343 0.0000 ( 16996 PWs)   bands (ev):

  -126.3367-126.3115-126.3110-126.3108-126.2429-126.2423-126.2422-126.1045
  -126.1040-126.1038-126.0830-126.0685 -80.5214 -80.5131 -80.5124 -80.4933
   -80.4914 -80.4896 -80.4888 -80.4862 -80.4861 -80.4857 -80.4815 -80.4791
   -80.4293 -80.4281 -80.4278 -80.4225 -80.4205 -80.4201 -80.4169 -80.4152
   -80.4128 -80.2955 -80.2949 -80.2946 -80.2804 -80.2785 -80.2784 -80.2749
   -80.2724 -80.2701 -80.2684 -80.2555 -80.2554 -80.2485 -80.2440 -80.2435
    -8.5193  -8.0022  -7.8071  -7.7096  -7.6980  -7.6916  -7.6839  -7.6793
    -7.6641  -7.6498  -7.6029  -7.5880  -7.4989  -7.4616  -7.4265  -7.4202
    -7.3822  -7.3496  -7.3460  -7.3065  -7.2827  -7.2614  -7.2528  -7.2421
    -7.2156  -7.2138  -7.2129  -7.1904  -7.1694  -7.1481  -7.1241  -7.0995
    -7.0734  -7.0628  -7.0309  -7.0225  -6.9899  -6.9490  -6.9459  -6.9201
    -6.9071  -6.9049  -6.8859  -6.8843  -6.8566  -6.8456  -6.8374  -6.8235
    -6.8194  -6.8033  -6.7982  -6.7794  -6.7768  -6.7576  -6.7204  -6.7113
    -6.6846  -6.6722  -6.6464  -6.6291  -6.6182  -6.1942  -5.6923  -4.5113
    -3.6671  -3.3809  -3.3223  -2.2451  -1.7190  -1.4140  -0.5534   0.4134
     0.6885   1.0296   1.2386   1.9022   2.5798   2.7713   3.1915   3.3499
     4.0697   4.2981

          k = 0.0595-0.1373 0.0000 ( 16986 PWs)   bands (ev):

  -126.3367-126.3114-126.3111-126.3108-126.2428-126.2425-126.2422-126.1044
  -126.1041-126.1038-126.0830-126.0685 -80.5214 -80.5128 -80.5122 -80.4934
   -80.4912 -80.4903 -80.4876 -80.4863 -80.4857 -80.4857 -80.4829 -80.4794
   -80.4290 -80.4283 -80.4278 -80.4218 -80.4202 -80.4186 -80.4183 -80.4161
   -80.4132 -80.2953 -80.2950 -80.2946 -80.2797 -80.2782 -80.2766 -80.2761
   -80.2736 -80.2704 -80.2684 -80.2556 -80.2554 -80.2485 -80.2442 -80.2436
    -8.1609  -7.8631  -7.7363  -7.6556  -7.6382  -7.6268  -7.6230  -7.6152
    -7.5986  -7.5737  -7.5554  -7.5400  -7.4767  -7.4598  -7.4422  -7.4065
    -7.3777  -7.3472  -7.3178  -7.2943  -7.2879  -7.2812  -7.2673  -7.2526
    -7.2153  -7.2006  -7.1925  -7.1870  -7.1656  -7.1448  -7.1294  -7.1007
    -7.0954  -7.0819  -7.0715  -7.0515  -7.0197  -7.0053  -6.9747  -6.9644
    -6.9553  -6.9336  -6.9273  -6.9120  -6.8991  -6.8795  -6.8713  -6.8559
    -6.8389  -6.8326  -6.8111  -6.8013  -6.7843  -6.7610  -6.7354  -6.7335
    -6.7141  -6.6933  -6.6851  -6.6729  -6.6443  -6.1921  -5.7498  -5.0947
    -4.7010  -3.7242  -3.0544  -2.1061  -1.6963  -1.0357  -0.2367   0.1879
     0.4957   1.2720   1.9828   2.3760   2.6141   2.7707   3.6714   3.8234
     4.1996   4.5008

          k = 0.0595-0.1030 0.0000 ( 17004 PWs)   bands (ev):

  -126.3367-126.3113-126.3113-126.3108-126.2426-126.2426-126.2422-126.1043
  -126.1043-126.1038-126.0830-126.0686 -80.5214 -80.5124 -80.5124 -80.4932
   -80.4911 -80.4911 -80.4867 -80.4866 -80.4858 -80.4845 -80.4845 -80.4797
   -80.4286 -80.4285 -80.4278 -80.4204 -80.4203 -80.4202 -80.4170 -80.4169
   -80.4139 -80.2951 -80.2951 -80.2947 -80.2782 -80.2781 -80.2781 -80.2748
   -80.2748 -80.2710 -80.2684 -80.2556 -80.2556 -80.2484 -80.2441 -80.2441
    -7.9572  -7.6696  -7.6554  -7.6447  -7.5755  -7.5723  -7.5603  -7.5582
    -7.5433  -7.5405  -7.5347  -7.5180  -7.5169  -7.5085  -7.4943  -7.4917
    -7.3960  -7.3916  -7.3222  -7.2982  -7.2835  -7.2563  -7.2498  -7.2291
    -7.2202  -7.2071  -7.1684  -7.1666  -7.1551  -7.1544  -7.1511  -7.1257
    -7.1168  -7.1043  -7.0899  -7.0788  -7.0740  -7.0695  -7.0089  -7.0046
    -6.9807  -6.9612  -6.9191  -6.9157  -6.9073  -6.9065  -6.8912  -6.8595
    -6.8389  -6.8354  -6.8250  -6.7863  -6.7457  -6.7444  -6.7325  -6.7296
    -6.7222  -6.7193  -6.7112  -6.6942  -6.3666  -6.1830  -6.1742  -5.2848
    -4.6280  -4.6277  -2.9287  -1.9154  -1.8956   0.0005   0.2756   0.3115
     0.5263   1.4850   1.5228   1.6448   2.0511   2.2692   3.7917   4.2436
     4.4578   4.6737

          k = 0.0595-0.0686 0.0000 ( 16986 PWs)   bands (ev):

  -126.3367-126.3114-126.3111-126.3108-126.2428-126.2425-126.2422-126.1044
  -126.1041-126.1038-126.0830-126.0685 -80.5214 -80.5128 -80.5122 -80.4934
   -80.4912 -80.4903 -80.4876 -80.4863 -80.4858 -80.4857 -80.4829 -80.4794
   -80.4290 -80.4283 -80.4278 -80.4218 -80.4202 -80.4186 -80.4183 -80.4161
   -80.4132 -80.2953 -80.2950 -80.2946 -80.2797 -80.2782 -80.2766 -80.2761
   -80.2736 -80.2704 -80.2684 -80.2556 -80.2554 -80.2485 -80.2442 -80.2436
    -8.1609  -7.8631  -7.7363  -7.6556  -7.6382  -7.6268  -7.6230  -7.6152
    -7.5985  -7.5737  -7.5554  -7.5400  -7.4767  -7.4598  -7.4422  -7.4065
    -7.3777  -7.3472  -7.3178  -7.2943  -7.2879  -7.2812  -7.2673  -7.2526
    -7.2153  -7.2006  -7.1925  -7.1870  -7.1656  -7.1448  -7.1294  -7.1007
    -7.0954  -7.0819  -7.0715  -7.0515  -7.0197  -7.0053  -6.9747  -6.9644
    -6.9553  -6.9336  -6.9273  -6.9120  -6.8991  -6.8795  -6.8713  -6.8559
    -6.8389  -6.8326  -6.8111  -6.8013  -6.7843  -6.7610  -6.7354  -6.7335
    -6.7141  -6.6933  -6.6851  -6.6729  -6.6443  -6.1921  -5.7498  -5.0947
    -4.7010  -3.7242  -3.0544  -2.1061  -1.6963  -1.0357  -0.2367   0.1879
     0.4957   1.2720   1.9828   2.3760   2.6141   2.7707   3.6714   3.8234
     4.1996   4.5008

          k =-0.0892 0.0515 0.0000 ( 17028 PWs)   bands (ev):

  -126.3367-126.3114-126.3111-126.3108-126.2428-126.2425-126.2422-126.1044
  -126.1041-126.1038-126.0830-126.0685 -80.5215 -80.5130 -80.5120 -80.4938
   -80.4907 -80.4905 -80.4876 -80.4864 -80.4857 -80.4857 -80.4833 -80.4792
   -80.4291 -80.4283 -80.4278 -80.4223 -80.4188 -80.4187 -80.4182 -80.4175
   -80.4129 -80.2954 -80.2950 -80.2946 -80.2802 -80.2774 -80.2764 -80.2761
   -80.2747 -80.2701 -80.2684 -80.2557 -80.2554 -80.2485 -80.2444 -80.2435
    -8.1125  -7.8800  -7.8048  -7.6614  -7.6497  -7.6386  -7.6351  -7.5856
    -7.5673  -7.5518  -7.5477  -7.5272  -7.5072  -7.4301  -7.4183  -7.4083
    -7.3989  -7.3403  -7.3258  -7.3234  -7.2971  -7.2654  -7.2560  -7.2447
    -7.2101  -7.1869  -7.1675  -7.1669  -7.1516  -7.1154  -7.1118  -7.0991
    -7.0656  -7.0611  -7.0522  -7.0468  -7.0196  -6.9863  -6.9855  -6.9567
    -6.9537  -6.9460  -6.9455  -6.9236  -6.9069  -6.8874  -6.8865  -6.8728
    -6.8469  -6.8291  -6.8250  -6.7981  -6.7928  -6.7800  -6.7648  -6.7204
    -6.7090  -6.6786  -6.6786  -6.6677  -6.6380  -6.6253  -5.6667  -5.1779
    -3.8394  -3.5435  -3.1986  -2.4170  -1.9887  -1.8775  -0.3249   0.6970
     0.8315   0.9165   2.6806   2.9316   2.9403   3.0876   3.5042   4.0538
     4.1005   4.1781

          k =-0.0892 0.0858 0.0000 ( 16986 PWs)   bands (ev):

  -126.3367-126.3114-126.3111-126.3108-126.2428-126.2425-126.2422-126.1044
  -126.1041-126.1038-126.0830-126.0685 -80.5214 -80.5128 -80.5122 -80.4934
   -80.4912 -80.4903 -80.4876 -80.4863 -80.4858 -80.4857 -80.4829 -80.4794
   -80.4290 -80.4283 -80.4278 -80.4218 -80.4202 -80.4186 -80.4183 -80.4161
   -80.4132 -80.2953 -80.2950 -80.2946 -80.2797 -80.2782 -80.2766 -80.2761
   -80.2736 -80.2704 -80.2684 -80.2556 -80.2554 -80.2485 -80.2442 -80.2436
    -8.1609  -7.8631  -7.7363  -7.6556  -7.6382  -7.6268  -7.6230  -7.6152
    -7.5985  -7.5737  -7.5554  -7.5400  -7.4767  -7.4598  -7.4422  -7.4065
    -7.3777  -7.3472  -7.3178  -7.2943  -7.2879  -7.2812  -7.2673  -7.2526
    -7.2153  -7.2006  -7.1925  -7.1870  -7.1656  -7.1448  -7.1294  -7.1007
    -7.0954  -7.0819  -7.0715  -7.0515  -7.0197  -7.0053  -6.9747  -6.9644
    -6.9553  -6.9336  -6.9273  -6.9120  -6.8991  -6.8795  -6.8713  -6.8559
    -6.8389  -6.8326  -6.8111  -6.8013  -6.7843  -6.7610  -6.7354  -6.7335
    -6.7141  -6.6933  -6.6851  -6.6729  -6.6443  -6.1921  -5.7498  -5.0947
    -4.7010  -3.7242  -3.0544  -2.1061  -1.6963  -1.0357  -0.2367   0.1879
     0.4957   1.2720   1.9828   2.3760   2.6141   2.7707   3.6714   3.8234
     4.1996   4.5008

          k =-0.0892 0.1201 0.0000 ( 16986 PWs)   bands (ev):

  -126.3367-126.3114-126.3111-126.3108-126.2428-126.2425-126.2422-126.1044
  -126.1041-126.1038-126.0830-126.0685 -80.5214 -80.5128 -80.5122 -80.4934
   -80.4912 -80.4903 -80.4876 -80.4863 -80.4858 -80.4857 -80.4829 -80.4794
   -80.4290 -80.4283 -80.4278 -80.4218 -80.4202 -80.4186 -80.4183 -80.4161
   -80.4132 -80.2953 -80.2950 -80.2946 -80.2797 -80.2782 -80.2766 -80.2761
   -80.2736 -80.2704 -80.2684 -80.2556 -80.2554 -80.2485 -80.2442 -80.2436
    -8.1609  -7.8631  -7.7363  -7.6556  -7.6382  -7.6268  -7.6230  -7.6152
    -7.5986  -7.5737  -7.5554  -7.5400  -7.4767  -7.4598  -7.4422  -7.4065
    -7.3777  -7.3472  -7.3178  -7.2943  -7.2879  -7.2812  -7.2673  -7.2526
    -7.2153  -7.2006  -7.1925  -7.1870  -7.1656  -7.1448  -7.1294  -7.1007
    -7.0954  -7.0819  -7.0715  -7.0515  -7.0197  -7.0053  -6.9747  -6.9644
    -6.9553  -6.9336  -6.9273  -6.9120  -6.8991  -6.8795  -6.8713  -6.8559
    -6.8389  -6.8326  -6.8111  -6.8013  -6.7843  -6.7610  -6.7354  -6.7335
    -6.7141  -6.6933  -6.6851  -6.6729  -6.6443  -6.1921  -5.7498  -5.0947
    -4.7010  -3.7242  -3.0544  -2.1061  -1.6963  -1.0357  -0.2367   0.1879
     0.4957   1.2720   1.9828   2.3760   2.6141   2.7707   3.6714   3.8234
     4.1996   4.5008

          k =-0.0892-0.0515 0.0000 ( 17028 PWs)   bands (ev):

  -126.3367-126.3114-126.3111-126.3108-126.2428-126.2425-126.2422-126.1044
  -126.1041-126.1038-126.0830-126.0685 -80.5215 -80.5130 -80.5120 -80.4938
   -80.4906 -80.4905 -80.4875 -80.4864 -80.4857 -80.4857 -80.4833 -80.4792
   -80.4291 -80.4283 -80.4278 -80.4223 -80.4188 -80.4187 -80.4182 -80.4175
   -80.4129 -80.2954 -80.2950 -80.2946 -80.2802 -80.2774 -80.2764 -80.2761
   -80.2747 -80.2701 -80.2684 -80.2557 -80.2554 -80.2485 -80.2444 -80.2435
    -8.1125  -7.8800  -7.8048  -7.6614  -7.6497  -7.6386  -7.6351  -7.5856
    -7.5673  -7.5518  -7.5477  -7.5271  -7.5072  -7.4301  -7.4183  -7.4083
    -7.3989  -7.3403  -7.3258  -7.3234  -7.2971  -7.2654  -7.2560  -7.2447
    -7.2101  -7.1869  -7.1675  -7.1669  -7.1516  -7.1154  -7.1118  -7.0991
    -7.0656  -7.0611  -7.0522  -7.0468  -7.0196  -6.9863  -6.9855  -6.9567
    -6.9537  -6.9460  -6.9455  -6.9236  -6.9069  -6.8874  -6.8865  -6.8728
    -6.8469  -6.8291  -6.8250  -6.7981  -6.7928  -6.7800  -6.7648  -6.7204
    -6.7090  -6.6786  -6.6786  -6.6677  -6.6380  -6.6253  -5.6667  -5.1779
    -3.8394  -3.5435  -3.1986  -2.4170  -1.9887  -1.8775  -0.3249   0.6970
     0.8315   0.9165   2.6806   2.9316   2.9403   3.0876   3.5042   4.0538
     4.1005   4.1781

     the Fermi energy is     0.4265 ev

!    total energy              =   -5554.42337668 Ry
     Harris-Foulkes estimate   =   -5554.42337247 Ry
     estimated scf accuracy    <       0.00000762 Ry

     The total energy is the sum of the following terms:

     one-electron contribution =  -35535.03860374 Ry
     hartree contribution      =   17746.27032637 Ry
     xc contribution           =    -521.60957988 Ry
     ewald contribution        =   12755.97977162 Ry
     electric field correction =       0.00000046 Ry
     smearing contrib. (-TS)   =      -0.02529151 Ry

     convergence has been achieved in   8 iterations
 
 BEEF-vdW xc energy contributions
           1 :   -463.487180454019     
           2 :    420.071401761095     
           3 :   -347.258560310623     
           4 :    266.192825753421     
           5 :   -195.569925635108     
           6 :    144.600558533758     
           7 :   -111.780222791762     
           8 :    89.1777603681702     
           9 :   -68.9251935001812     
          10 :    47.8184779724941     
          11 :   -27.7456631824797     
          12 :    12.6150616120034     
          13 :   -4.56158331380510     
          14 :    2.17753672485526     
          15 :   -1.66793792096229     
          16 :  -0.359469113834962     
          17 :    4.72617935693432     
          18 :   -9.63473417657258     
          19 :    12.5065714255181     
          20 :   -12.1364871369821     
          21 :    9.54946377786086     
          22 :   -7.08033060705520     
          23 :    6.55254642323450     
          24 :   -8.01146456487675     
          25 :    9.90549887070927     
          26 :   -10.4417922023330     
          27 :    8.98705318483286     
          28 :   -6.45658536110909     
          29 :    4.49086394270887     
          30 :   -4.15244842221875     
          31 :   -35.8208993089916     
          32 :   -24.4267904104022     

     Forces acting on atoms (Ry/au):

     atom    1 type  1   force =     0.00000375    0.00000109   -0.00365129
     atom    2 type  1   force =    -0.00000205   -0.00010284   -0.00889753
     atom    3 type  1   force =    -0.00008989    0.00005016   -0.00890076
     atom    4 type  1   force =     0.00009097    0.00005424   -0.00890157
     atom    5 type  1   force =     0.00504749   -0.00291617    0.00396318
     atom    6 type  1   force =    -0.00504582   -0.00291365    0.00396432
     atom    7 type  1   force =     0.00000118   -0.00000207   -0.00528599
     atom    8 type  1   force =    -0.00000229    0.00582648    0.00396524
     atom    9 type  1   force =    -0.00976850   -0.00564070    0.00816957
     atom   10 type  1   force =     0.00976765   -0.00563890    0.00817107
     atom   11 type  1   force =     0.00000167    0.01128053    0.00817075
     atom   12 type  1   force =    -0.00000405    0.00000143    0.00254105
     atom   13 type  2   force =    -0.00000013    0.00000040   -0.00330805

     Total force =     0.024482     Total SCF correction =     0.016334
     SCF correction compared to forces is large: reduce conv_thr to get better values


     entering subroutine stress ...

          total   stress  (Ry/bohr**3)                   (kbar)     P=   -7.06
  -0.00009749  -0.00000000   0.00000000        -14.34     -0.00      0.00
  -0.00000000  -0.00009749   0.00000000         -0.00    -14.34      0.00
   0.00000000   0.00000000   0.00005094          0.00      0.00      7.49


     BFGS Geometry Optimization

     number of scf cycles    =   1
     number of bfgs steps    =   0

     energy   new            =   -5554.4233766785 Ry

     new trust radius        =       0.0139287982 bohr
     new conv_thr            =       0.0000099958 Ry


ATOMIC_POSITIONS (crystal)
Zn1      0.166666667   0.166666667   0.406869400    0   0   0
Zn1      0.666666667   0.166666667   0.406869400    0   0   0
Zn1      0.166666667   0.666666667   0.406869400    0   0   0
Zn1      0.666666667   0.666666667   0.406869400    0   0   0
Zn1      0.833333333   0.333333333   0.500000000    0   0   0
Zn1      0.333333333   0.333333333   0.500000000    0   0   0
Zn1      0.833333333   0.833333333   0.500000000    0   0   0
Zn1      0.333333333   0.833333333   0.500000000    0   0   0
Zn1     -0.000614599  -0.000614738   0.593306496
Zn1      0.501229160  -0.000614543   0.593306528
Zn1     -0.000614533   0.501229382   0.593306521
Zn1      0.499999540   0.500000155   0.593185311
H1       0.166666632   0.166666710   0.633522538



     Writing output data file calc.save
     Check: negative starting charge=   -0.000863
     NEW-OLD atomic charge density approx. for the potential
     Check: negative starting charge=   -0.000865

     negative rho (up, down):  1.058E-03 0.000E+00
 
     Adding external electric field

     Computed dipole along edir(3) : 
        Dipole                0.0128 Ry au,          0.0326 Debye
        Dipole field          0.0000 Ry au
 
        Potential amp.       -0.0032 Ry
        Total length         45.2844 bohr
 

     total cpu time spent up to now is      298.4 secs

     per-process dynamical memory:   123.3 Mb

     Self-consistent Calculation

     iteration #  1     ecut=    36.75 Ry     beta=0.30
     Davidson diagonalization with overlap
     ethr =  1.00E-06,  avg # of iterations =  3.0

     Threshold (ethr) on eigenvalues was too large:
     Diagonalizing with lowered threshold

     Davidson diagonalization with overlap
     ethr =  3.19E-08,  avg # of iterations =  1.0

     negative rho (up, down):  1.057E-03 0.000E+00
 
     Adding external electric field

     Computed dipole along edir(3) : 
        Dipole               -0.0079 Ry au,         -0.0201 Debye
        Dipole field         -0.0000 Ry au
 
        Potential amp.        0.0020 Ry
        Total length         45.2844 bohr
 

     total cpu time spent up to now is      341.9 secs

     total energy              =   -5554.42378343 Ry
     Harris-Foulkes estimate   =   -5554.42382054 Ry
     estimated scf accuracy    <       0.00007685 Ry

     iteration #  2     ecut=    36.75 Ry     beta=0.30
     Davidson diagonalization with overlap
     ethr =  3.19E-08,  avg # of iterations =  3.0

     negative rho (up, down):  1.056E-03 0.000E+00
 
     Adding external electric field

     Computed dipole along edir(3) : 
        Dipole                0.0114 Ry au,          0.0289 Debye
        Dipole field          0.0000 Ry au
 
        Potential amp.       -0.0029 Ry
        Total length         45.2844 bohr
 

     total cpu time spent up to now is      364.3 secs

     total energy              =   -5554.42373804 Ry
     Harris-Foulkes estimate   =   -5554.42388480 Ry
     estimated scf accuracy    <       0.00149421 Ry

     iteration #  3     ecut=    36.75 Ry     beta=0.30
     Davidson diagonalization with overlap
     ethr =  3.19E-08,  avg # of iterations =  2.6

     negative rho (up, down):  1.056E-03 0.000E+00
 
     Adding external electric field

     Computed dipole along edir(3) : 
        Dipole                0.0101 Ry au,          0.0256 Debye
        Dipole field          0.0000 Ry au
 
        Potential amp.       -0.0025 Ry
        Total length         45.2844 bohr
 

     total cpu time spent up to now is      385.1 secs

     total energy              =   -5554.42381228 Ry
     Harris-Foulkes estimate   =   -5554.42381498 Ry
     estimated scf accuracy    <       0.00001525 Ry

     iteration #  4     ecut=    36.75 Ry     beta=0.30
     Davidson diagonalization with overlap
     ethr =  6.33E-09,  avg # of iterations =  2.2

     negative rho (up, down):  1.054E-03 0.000E+00

     negative rho (up, down):  1.054E-03 0.000E+00

     negative rho (up, down):  1.054E-03 0.000E+00

     negative rho (up, down):  1.054E-03 0.000E+00

     negative rho (up, down):  1.054E-03 0.000E+00

     negative rho (up, down):  1.054E-03 0.000E+00

     negative rho (up, down):  1.054E-03 0.000E+00

     negative rho (up, down):  1.054E-03 0.000E+00

     negative rho (up, down):  1.054E-03 0.000E+00

     negative rho (up, down):  1.054E-03 0.000E+00

     negative rho (up, down):  1.054E-03 0.000E+00

     negative rho (up, down):  1.054E-03 0.000E+00

     negative rho (up, down):  1.054E-03 0.000E+00

     negative rho (up, down):  1.054E-03 0.000E+00

     negative rho (up, down):  1.054E-03 0.000E+00

     negative rho (up, down):  1.054E-03 0.000E+00

     negative rho (up, down):  1.054E-03 0.000E+00

     negative rho (up, down):  1.054E-03 0.000E+00

     negative rho (up, down):  1.054E-03 0.000E+00

     negative rho (up, down):  1.054E-03 0.000E+00

     negative rho (up, down):  1.054E-03 0.000E+00

     negative rho (up, down):  1.054E-03 0.000E+00

     negative rho (up, down):  1.054E-03 0.000E+00

     negative rho (up, down):  1.054E-03 0.000E+00

     negative rho (up, down):  1.054E-03 0.000E+00

     negative rho (up, down):  1.054E-03 0.000E+00

     negative rho (up, down):  1.054E-03 0.000E+00

     negative rho (up, down):  1.054E-03 0.000E+00

     negative rho (up, down):  1.054E-03 0.000E+00

     negative rho (up, down):  1.054E-03 0.000E+00

     negative rho (up, down):  1.054E-03 0.000E+00

     negative rho (up, down):  1.054E-03 0.000E+00

     negative rho (up, down):  1.054E-03 0.000E+00

     negative rho (up, down):  1.054E-03 0.000E+00

     negative rho (up, down):  1.054E-03 0.000E+00
 
     Adding external electric field

     Computed dipole along edir(3) : 
        Dipole                0.0111 Ry au,          0.0282 Debye
        Dipole field          0.0000 Ry au
 
        Potential amp.       -0.0028 Ry
        Total length         45.2844 bohr
 

     total cpu time spent up to now is      453.5 secs

     End of self-consistent calculation

          k = 0.0000 0.0000 0.0000 ( 16931 PWs)   bands (ev):

  -126.3308-126.3055-126.3046-126.3046-126.2348-126.2339-126.2339-126.0991
  -126.0982-126.0982-126.0803-126.0630 -80.5154 -80.5076 -80.5076 -80.4859
   -80.4859 -80.4851 -80.4822 -80.4802 -80.4794 -80.4794 -80.4726 -80.4726
   -80.4212 -80.4193 -80.4193 -80.4156 -80.4137 -80.4137 -80.4075 -80.4040
   -80.4040 -80.2899 -80.2890 -80.2890 -80.2765 -80.2748 -80.2748 -80.2680
   -80.2654 -80.2641 -80.2641 -80.2528 -80.2528 -80.2429 -80.2377 -80.2377
    -9.1584  -8.2643  -7.8728  -7.8728  -7.8694  -7.8465  -7.8024  -7.7916
    -7.7916  -7.7674  -7.7094  -7.7094  -7.6001  -7.5752  -7.5752  -7.4101
    -7.3419  -7.3419  -7.3257  -7.3257  -7.3230  -7.2926  -7.2926  -7.2867
    -7.2320  -7.2320  -7.2261  -7.2092  -7.2092  -7.1038  -7.1038  -6.9554
    -6.9554  -6.9526  -6.9526  -6.9387  -6.9260  -6.9067  -6.9067  -6.8662
    -6.8297  -6.8297  -6.7916  -6.7916  -6.7491  -6.7486  -6.7486  -6.7199
    -6.7116  -6.7116  -6.7110  -6.6860  -6.6860  -6.6756  -6.6756  -6.6546
    -6.6403  -6.5898  -6.5898  -6.5138  -6.5022  -6.5022  -4.6297  -2.8442
    -2.1322  -2.1322  -1.9777  -1.7622  -1.7622  -1.4919  -0.8477  -0.7466
    -0.7466  -0.1481   0.2998   0.2998   1.5372   2.1246   2.1246   2.5773
     2.6230   2.6230

          k = 0.0000 0.0343 0.0000 ( 16966 PWs)   bands (ev):

  -126.3308-126.3055-126.3047-126.3046-126.2348-126.2340-126.2339-126.0991
  -126.0983-126.0982-126.0803-126.0630 -80.5155 -80.5075 -80.5072 -80.4863
   -80.4858 -80.4843 -80.4826 -80.4802 -80.4795 -80.4794 -80.4733 -80.4728
   -80.4211 -80.4194 -80.4194 -80.4151 -80.4134 -80.4132 -80.4080 -80.4048
   -80.4043 -80.2900 -80.2890 -80.2890 -80.2759 -80.2744 -80.2744 -80.2685
   -80.2655 -80.2649 -80.2643 -80.2529 -80.2529 -80.2430 -80.2380 -80.2378
    -8.9849  -8.1784  -7.8489  -7.8220  -7.8178  -7.7929  -7.7607  -7.7603
    -7.7506  -7.7202  -7.6882  -7.6758  -7.5681  -7.5410  -7.5272  -7.4039
    -7.3459  -7.3364  -7.3327  -7.3078  -7.2925  -7.2899  -7.2875  -7.2674
    -7.2541  -7.2249  -7.2204  -7.2141  -7.1887  -7.1288  -7.0775  -7.0238
    -6.9922  -6.9879  -6.9621  -6.9539  -6.9407  -6.9384  -6.9101  -6.8847
    -6.8543  -6.8468  -6.8198  -6.8033  -6.7847  -6.7798  -6.7702  -6.7696
    -6.7347  -6.7295  -6.7186  -6.7107  -6.7067  -6.6814  -6.6790  -6.6746
    -6.6358  -6.6310  -6.5625  -6.5538  -6.5429  -6.5085  -4.6240  -3.9337
    -3.0646  -2.8645  -2.5688  -1.8602  -1.2540  -1.0078  -0.6449  -0.6381
    -0.1321   0.3981   0.8592   1.0765   1.5586   1.5878   2.1602   2.6889
     3.3982   3.5547

          k = 0.0000 0.0686 0.0000 ( 16996 PWs)   bands (ev):

  -126.3308-126.3053-126.3048-126.3046-126.2346-126.2341-126.2339-126.0989
  -126.0984-126.0982-126.0803-126.0630 -80.5156 -80.5072 -80.5064 -80.4872
   -80.4852 -80.4834 -80.4826 -80.4800 -80.4798 -80.4795 -80.4754 -80.4730
   -80.4207 -80.4197 -80.4194 -80.4144 -80.4125 -80.4121 -80.4090 -80.4069
   -80.4046 -80.2899 -80.2893 -80.2890 -80.2750 -80.2731 -80.2730 -80.2695
   -80.2670 -80.2656 -80.2646 -80.2531 -80.2529 -80.2430 -80.2385 -80.2380
    -8.5082  -7.9901  -7.8000  -7.7025  -7.6903  -7.6840  -7.6757  -7.6731
    -7.6574  -7.6418  -7.5942  -7.5827  -7.4939  -7.4549  -7.4196  -7.4144
    -7.3753  -7.3436  -7.3397  -7.3008  -7.2770  -7.2556  -7.2448  -7.2361
    -7.2096  -7.2074  -7.2067  -7.1839  -7.1642  -7.1408  -7.1186  -7.0933
    -7.0676  -7.0571  -7.0241  -7.0162  -6.9840  -6.9424  -6.9407  -6.9140
    -6.9015  -6.8993  -6.8812  -6.8785  -6.8506  -6.8410  -6.8325  -6.8179
    -6.8143  -6.7983  -6.7936  -6.7745  -6.7717  -6.7525  -6.7146  -6.7058
    -6.6797  -6.6675  -6.6413  -6.6239  -6.6130  -6.1874  -5.6887  -4.5051
    -3.6665  -3.3743  -3.3199  -2.2469  -1.7151  -1.4150  -0.5484   0.4098
     0.6926   1.0344   1.2412   1.9042   2.5806   2.7739   3.1943   3.3545
     4.0711   4.3015

          k = 0.0000-0.1030 0.0000 ( 17028 PWs)   bands (ev):

  -126.3308-126.3052-126.3049-126.3046-126.2345-126.2342-126.2339-126.0988
  -126.0985-126.0982-126.0803-126.0630 -80.5156 -80.5070 -80.5061 -80.4876
   -80.4845 -80.4843 -80.4813 -80.4801 -80.4795 -80.4794 -80.4772 -80.4731
   -80.4206 -80.4198 -80.4193 -80.4142 -80.4109 -80.4106 -80.4102 -80.4092
   -80.4046 -80.2898 -80.2894 -80.2890 -80.2747 -80.2719 -80.2709 -80.2706
   -80.2693 -80.2656 -80.2646 -80.2533 -80.2530 -80.2430 -80.2389 -80.2380
    -8.0955  -7.8728  -7.7955  -7.6547  -7.6414  -7.6307  -7.6267  -7.5795
    -7.5585  -7.5455  -7.5401  -7.5211  -7.4997  -7.4240  -7.4122  -7.4015
    -7.3920  -7.3342  -7.3190  -7.3156  -7.2910  -7.2604  -7.2505  -7.2392
    -7.2053  -7.1795  -7.1629  -7.1600  -7.1449  -7.1083  -7.1059  -7.0942
    -7.0588  -7.0550  -7.0459  -7.0411  -7.0148  -6.9802  -6.9795  -6.9515
    -6.9486  -6.9418  -6.9384  -6.9185  -6.9008  -6.8825  -6.8810  -6.8678
    -6.8424  -6.8240  -6.8200  -6.7932  -6.7878  -6.7749  -6.7591  -6.7142
    -6.7038  -6.6752  -6.6738  -6.6631  -6.6327  -6.6202  -5.6589  -5.1797
    -3.8350  -3.5368  -3.1917  -2.4214  -1.9937  -1.8737  -0.3152   0.6974
     0.8276   0.9145   2.6839   2.9370   2.9490   3.0926   3.5121   4.0573
     4.0975   4.1752

          k = 0.0297-0.0172 0.0000 ( 16966 PWs)   bands (ev):

  -126.3308-126.3055-126.3047-126.3046-126.2348-126.2340-126.2339-126.0991
  -126.0983-126.0982-126.0803-126.0630 -80.5155 -80.5075 -80.5072 -80.4863
   -80.4858 -80.4843 -80.4826 -80.4802 -80.4795 -80.4794 -80.4733 -80.4728
   -80.4211 -80.4194 -80.4194 -80.4151 -80.4134 -80.4132 -80.4080 -80.4048
   -80.4043 -80.2900 -80.2890 -80.2890 -80.2759 -80.2744 -80.2744 -80.2685
   -80.2655 -80.2649 -80.2643 -80.2529 -80.2529 -80.2430 -80.2380 -80.2378
    -8.9849  -8.1784  -7.8489  -7.8220  -7.8178  -7.7929  -7.7607  -7.7603
    -7.7506  -7.7202  -7.6882  -7.6758  -7.5681  -7.5410  -7.5272  -7.4039
    -7.3459  -7.3364  -7.3327  -7.3078  -7.2925  -7.2899  -7.2875  -7.2674
    -7.2541  -7.2249  -7.2204  -7.2141  -7.1887  -7.1288  -7.0775  -7.0238
    -6.9922  -6.9879  -6.9621  -6.9539  -6.9407  -6.9384  -6.9101  -6.8847
    -6.8543  -6.8468  -6.8198  -6.8033  -6.7847  -6.7798  -6.7702  -6.7696
    -6.7347  -6.7295  -6.7186  -6.7107  -6.7067  -6.6814  -6.6790  -6.6746
    -6.6358  -6.6310  -6.5625  -6.5538  -6.5429  -6.5085  -4.6240  -3.9337
    -3.0646  -2.8645  -2.5688  -1.8602  -1.2540  -1.0078  -0.6449  -0.6381
    -0.1321   0.3981   0.8592   1.0765   1.5586   1.5878   2.1602   2.6889
     3.3982   3.5547

          k = 0.0297 0.0172 0.0000 ( 16966 PWs)   bands (ev):

  -126.3308-126.3055-126.3047-126.3046-126.2348-126.2340-126.2339-126.0991
  -126.0983-126.0982-126.0803-126.0630 -80.5155 -80.5075 -80.5072 -80.4863
   -80.4858 -80.4843 -80.4826 -80.4802 -80.4795 -80.4794 -80.4733 -80.4728
   -80.4211 -80.4194 -80.4194 -80.4151 -80.4134 -80.4132 -80.4080 -80.4048
   -80.4043 -80.2900 -80.2890 -80.2890 -80.2759 -80.2744 -80.2744 -80.2685
   -80.2655 -80.2649 -80.2643 -80.2529 -80.2529 -80.2430 -80.2380 -80.2378
    -8.9849  -8.1784  -7.8489  -7.8220  -7.8178  -7.7929  -7.7607  -7.7603
    -7.7506  -7.7202  -7.6882  -7.6758  -7.5681  -7.5410  -7.5272  -7.4039
    -7.3459  -7.3364  -7.3327  -7.3078  -7.2925  -7.2899  -7.2875  -7.2674
    -7.2541  -7.2249  -7.2204  -7.2141  -7.1887  -7.1288  -7.0775  -7.0238
    -6.9922  -6.9879  -6.9621  -6.9539  -6.9407  -6.9384  -6.9101  -6.8847
    -6.8543  -6.8468  -6.8198  -6.8033  -6.7847  -6.7798  -6.7702  -6.7696
    -6.7347  -6.7295  -6.7186  -6.7107  -6.7067  -6.6814  -6.6790  -6.6746
    -6.6358  -6.6310  -6.5625  -6.5538  -6.5429  -6.5085  -4.6240  -3.9337
    -3.0646  -2.8645  -2.5688  -1.8602  -1.2540  -1.0078  -0.6449  -0.6381
    -0.1321   0.3981   0.8592   1.0765   1.5586   1.5878   2.1602   2.6889
     3.3982   3.5547

          k = 0.0297 0.0515 0.0000 ( 16978 PWs)   bands (ev):

  -126.3308-126.3054-126.3048-126.3046-126.2347-126.2340-126.2339-126.0990
  -126.0984-126.0982-126.0803-126.0630 -80.5155 -80.5072 -80.5067 -80.4867
   -80.4856 -80.4832 -80.4831 -80.4800 -80.4797 -80.4795 -80.4747 -80.4730
   -80.4208 -80.4196 -80.4194 -80.4144 -80.4133 -80.4123 -80.4087 -80.4060
   -80.4046 -80.2898 -80.2892 -80.2890 -80.2750 -80.2740 -80.2732 -80.2692
   -80.2661 -80.2655 -80.2646 -80.2530 -80.2529 -80.2430 -80.2383 -80.2380
    -8.6561  -8.0385  -7.7788  -7.7738  -7.7160  -7.7121  -7.7023  -7.7001
    -7.6861  -7.6518  -7.6247  -7.6048  -7.5056  -7.4881  -7.4423  -7.4224
    -7.3733  -7.3321  -7.3213  -7.3100  -7.2922  -7.2623  -7.2588  -7.2394
    -7.2256  -7.2140  -7.2106  -7.2009  -7.1739  -7.1490  -7.0917  -7.0809
    -7.0587  -7.0353  -7.0314  -7.0066  -6.9585  -6.9379  -6.9195  -6.9144
    -6.8968  -6.8705  -6.8679  -6.8493  -6.8335  -6.8187  -6.8107  -6.8009
    -6.7863  -6.7741  -6.7626  -6.7503  -6.7453  -6.7411  -6.7006  -6.6894
    -6.6805  -6.6696  -6.6427  -6.6119  -6.6047  -6.2810  -4.9829  -4.6959
    -4.1178  -3.1833  -3.0140  -1.7420  -1.3664  -1.1255  -0.3940  -0.3521
    -0.0727   0.5830   1.6653   1.9839   2.3216   2.8121   3.0700   3.1375
     3.1770   3.8048

          k = 0.0297-0.1201 0.0000 ( 16986 PWs)   bands (ev):

  -126.3308-126.3052-126.3049-126.3046-126.2345-126.2342-126.2339-126.0988
  -126.0985-126.0982-126.0803-126.0630 -80.5155 -80.5068 -80.5062 -80.4873
   -80.4851 -80.4841 -80.4814 -80.4800 -80.4795 -80.4794 -80.4768 -80.4733
   -80.4205 -80.4198 -80.4194 -80.4137 -80.4122 -80.4106 -80.4102 -80.4080
   -80.4050 -80.2897 -80.2894 -80.2890 -80.2742 -80.2728 -80.2711 -80.2707
   -80.2681 -80.2656 -80.2649 -80.2532 -80.2530 -80.2430 -80.2387 -80.2381
    -8.1458  -7.8517  -7.7287  -7.6486  -7.6304  -7.6187  -7.6154  -7.6083
    -7.5917  -7.5662  -7.5476  -7.5330  -7.4698  -7.4530  -7.4363  -7.4002
    -7.3715  -7.3413  -7.3108  -7.2872  -7.2820  -7.2750  -7.2621  -7.2476
    -7.2095  -7.1945  -7.1857  -7.1805  -7.1611  -7.1393  -7.1233  -7.0951
    -7.0900  -7.0754  -7.0653  -7.0451  -7.0136  -6.9998  -6.9696  -6.9588
    -6.9499  -6.9279  -6.9217  -6.9060  -6.8932  -6.8746  -6.8660  -6.8510
    -6.8334  -6.8278  -6.8061  -6.7965  -6.7793  -6.7560  -6.7300  -6.7281
    -6.7088  -6.6885  -6.6801  -6.6678  -6.6392  -6.1850  -5.7453  -5.0906
    -4.6998  -3.7218  -3.0522  -2.1066  -1.6920  -1.0365  -0.2356   0.1922
     0.5017   1.2727   1.9813   2.3788   2.6153   2.7754   3.6721   3.8294
     4.2000   4.5032

          k = 0.0297-0.0858 0.0000 ( 16986 PWs)   bands (ev):

  -126.3308-126.3052-126.3049-126.3046-126.2345-126.2342-126.2339-126.0988
  -126.0985-126.0982-126.0803-126.0630 -80.5155 -80.5068 -80.5062 -80.4873
   -80.4851 -80.4841 -80.4814 -80.4800 -80.4795 -80.4794 -80.4768 -80.4733
   -80.4205 -80.4198 -80.4194 -80.4137 -80.4122 -80.4106 -80.4102 -80.4080
   -80.4050 -80.2897 -80.2894 -80.2890 -80.2742 -80.2728 -80.2711 -80.2707
   -80.2681 -80.2656 -80.2649 -80.2532 -80.2530 -80.2430 -80.2387 -80.2381
    -8.1458  -7.8517  -7.7287  -7.6486  -7.6304  -7.6187  -7.6154  -7.6083
    -7.5917  -7.5662  -7.5476  -7.5330  -7.4698  -7.4530  -7.4363  -7.4002
    -7.3715  -7.3413  -7.3108  -7.2872  -7.2820  -7.2750  -7.2621  -7.2476
    -7.2095  -7.1945  -7.1857  -7.1805  -7.1611  -7.1393  -7.1233  -7.0951
    -7.0900  -7.0754  -7.0653  -7.0451  -7.0136  -6.9998  -6.9696  -6.9588
    -6.9499  -6.9279  -6.9217  -6.9060  -6.8932  -6.8746  -6.8660  -6.8510
    -6.8334  -6.8278  -6.8061  -6.7965  -6.7793  -6.7560  -6.7300  -6.7281
    -6.7088  -6.6885  -6.6801  -6.6678  -6.6392  -6.1850  -5.7453  -5.0906
    -4.6998  -3.7218  -3.0522  -2.1066  -1.6920  -1.0365  -0.2356   0.1922
     0.5017   1.2727   1.9813   2.3788   2.6153   2.7754   3.6721   3.8294
     4.2000   4.5032

          k = 0.0297-0.0515 0.0000 ( 16978 PWs)   bands (ev):

  -126.3308-126.3054-126.3048-126.3046-126.2347-126.2340-126.2339-126.0990
  -126.0984-126.0982-126.0803-126.0630 -80.5155 -80.5072 -80.5067 -80.4867
   -80.4856 -80.4832 -80.4831 -80.4800 -80.4797 -80.4795 -80.4747 -80.4730
   -80.4208 -80.4196 -80.4194 -80.4144 -80.4133 -80.4123 -80.4087 -80.4060
   -80.4046 -80.2898 -80.2892 -80.2890 -80.2750 -80.2740 -80.2732 -80.2692
   -80.2661 -80.2655 -80.2646 -80.2530 -80.2529 -80.2430 -80.2383 -80.2380
    -8.6561  -8.0385  -7.7788  -7.7738  -7.7160  -7.7121  -7.7023  -7.7001
    -7.6861  -7.6518  -7.6247  -7.6048  -7.5056  -7.4881  -7.4423  -7.4224
    -7.3733  -7.3321  -7.3213  -7.3100  -7.2922  -7.2623  -7.2588  -7.2394
    -7.2256  -7.2140  -7.2106  -7.2009  -7.1739  -7.1490  -7.0917  -7.0809
    -7.0587  -7.0353  -7.0314  -7.0066  -6.9585  -6.9379  -6.9195  -6.9144
    -6.8968  -6.8705  -6.8679  -6.8493  -6.8335  -6.8187  -6.8107  -6.8009
    -6.7863  -6.7741  -6.7626  -6.7503  -6.7453  -6.7411  -6.7006  -6.6894
    -6.6805  -6.6696  -6.6427  -6.6119  -6.6047  -6.2810  -4.9829  -4.6960
    -4.1178  -3.1833  -3.0140  -1.7420  -1.3664  -1.1255  -0.3940  -0.3521
    -0.0727   0.5830   1.6653   1.9839   2.3216   2.8121   3.0700   3.1375
     3.1770   3.8048

          k = 0.0595-0.0343 0.0000 ( 16996 PWs)   bands (ev):

  -126.3308-126.3053-126.3048-126.3046-126.2346-126.2341-126.2339-126.0989
  -126.0984-126.0982-126.0803-126.0630 -80.5156 -80.5072 -80.5064 -80.4872
   -80.4852 -80.4834 -80.4826 -80.4800 -80.4798 -80.4795 -80.4754 -80.4730
   -80.4207 -80.4197 -80.4194 -80.4144 -80.4125 -80.4121 -80.4090 -80.4069
   -80.4046 -80.2899 -80.2893 -80.2890 -80.2750 -80.2731 -80.2730 -80.2695
   -80.2670 -80.2656 -80.2646 -80.2531 -80.2529 -80.2430 -80.2385 -80.2380
    -8.5082  -7.9901  -7.8000  -7.7025  -7.6903  -7.6840  -7.6757  -7.6731
    -7.6574  -7.6418  -7.5942  -7.5827  -7.4939  -7.4549  -7.4196  -7.4144
    -7.3753  -7.3436  -7.3397  -7.3008  -7.2770  -7.2556  -7.2448  -7.2361
    -7.2096  -7.2074  -7.2067  -7.1839  -7.1642  -7.1408  -7.1186  -7.0933
    -7.0676  -7.0571  -7.0241  -7.0162  -6.9840  -6.9424  -6.9407  -6.9140
    -6.9015  -6.8993  -6.8812  -6.8785  -6.8506  -6.8410  -6.8325  -6.8179
    -6.8143  -6.7983  -6.7936  -6.7745  -6.7717  -6.7525  -6.7146  -6.7058
    -6.6797  -6.6675  -6.6413  -6.6239  -6.6130  -6.1874  -5.6887  -4.5051
    -3.6665  -3.3743  -3.3199  -2.2469  -1.7151  -1.4150  -0.5484   0.4098
     0.6926   1.0344   1.2412   1.9042   2.5806   2.7739   3.1943   3.3545
     4.0710   4.3015

          k = 0.0595 0.0000 0.0000 ( 16978 PWs)   bands (ev):

  -126.3308-126.3054-126.3048-126.3046-126.2347-126.2340-126.2339-126.0990
  -126.0984-126.0982-126.0803-126.0630 -80.5155 -80.5072 -80.5067 -80.4867
   -80.4856 -80.4832 -80.4831 -80.4800 -80.4797 -80.4795 -80.4747 -80.4730
   -80.4208 -80.4196 -80.4194 -80.4144 -80.4133 -80.4123 -80.4087 -80.4060
   -80.4046 -80.2898 -80.2892 -80.2890 -80.2750 -80.2740 -80.2732 -80.2692
   -80.2661 -80.2655 -80.2646 -80.2530 -80.2529 -80.2430 -80.2383 -80.2380
    -8.6561  -8.0385  -7.7788  -7.7738  -7.7160  -7.7121  -7.7023  -7.7001
    -7.6861  -7.6518  -7.6247  -7.6048  -7.5056  -7.4881  -7.4423  -7.4224
    -7.3733  -7.3321  -7.3213  -7.3100  -7.2922  -7.2623  -7.2588  -7.2394
    -7.2256  -7.2140  -7.2106  -7.2009  -7.1739  -7.1490  -7.0917  -7.0809
    -7.0587  -7.0353  -7.0314  -7.0066  -6.9585  -6.9379  -6.9195  -6.9144
    -6.8968  -6.8705  -6.8679  -6.8493  -6.8335  -6.8187  -6.8107  -6.8009
    -6.7863  -6.7741  -6.7626  -6.7503  -6.7453  -6.7411  -6.7006  -6.6894
    -6.6805  -6.6696  -6.6427  -6.6119  -6.6047  -6.2810  -4.9829  -4.6959
    -4.1178  -3.1833  -3.0140  -1.7420  -1.3664  -1.1255  -0.3940  -0.3521
    -0.0727   0.5830   1.6653   1.9839   2.3216   2.8121   3.0700   3.1375
     3.1770   3.8048

          k = 0.0595 0.0343 0.0000 ( 16996 PWs)   bands (ev):

  -126.3308-126.3053-126.3048-126.3046-126.2346-126.2341-126.2339-126.0989
  -126.0984-126.0982-126.0803-126.0630 -80.5156 -80.5072 -80.5064 -80.4872
   -80.4852 -80.4834 -80.4826 -80.4800 -80.4798 -80.4795 -80.4754 -80.4730
   -80.4207 -80.4197 -80.4194 -80.4144 -80.4125 -80.4121 -80.4090 -80.4069
   -80.4046 -80.2899 -80.2893 -80.2890 -80.2750 -80.2731 -80.2730 -80.2695
   -80.2670 -80.2656 -80.2646 -80.2531 -80.2529 -80.2430 -80.2385 -80.2380
    -8.5082  -7.9901  -7.8000  -7.7025  -7.6903  -7.6840  -7.6757  -7.6731
    -7.6574  -7.6418  -7.5942  -7.5827  -7.4939  -7.4549  -7.4196  -7.4144
    -7.3753  -7.3436  -7.3397  -7.3008  -7.2770  -7.2556  -7.2448  -7.2361
    -7.2096  -7.2074  -7.2067  -7.1839  -7.1642  -7.1408  -7.1186  -7.0933
    -7.0676  -7.0571  -7.0241  -7.0162  -6.9840  -6.9424  -6.9407  -6.9140
    -6.9015  -6.8993  -6.8812  -6.8785  -6.8506  -6.8410  -6.8325  -6.8179
    -6.8143  -6.7983  -6.7936  -6.7745  -6.7717  -6.7525  -6.7146  -6.7058
    -6.6797  -6.6675  -6.6413  -6.6239  -6.6130  -6.1874  -5.6887  -4.5051
    -3.6665  -3.3743  -3.3199  -2.2469  -1.7151  -1.4150  -0.5484   0.4098
     0.6926   1.0344   1.2412   1.9042   2.5806   2.7739   3.1943   3.3545
     4.0711   4.3015

          k = 0.0595-0.1373 0.0000 ( 16986 PWs)   bands (ev):

  -126.3308-126.3052-126.3049-126.3046-126.2345-126.2342-126.2339-126.0988
  -126.0985-126.0982-126.0803-126.0630 -80.5155 -80.5068 -80.5062 -80.4873
   -80.4851 -80.4841 -80.4814 -80.4800 -80.4795 -80.4794 -80.4768 -80.4733
   -80.4205 -80.4198 -80.4194 -80.4137 -80.4122 -80.4106 -80.4102 -80.4080
   -80.4050 -80.2897 -80.2894 -80.2890 -80.2742 -80.2728 -80.2711 -80.2707
   -80.2681 -80.2656 -80.2649 -80.2532 -80.2530 -80.2430 -80.2387 -80.2381
    -8.1458  -7.8517  -7.7287  -7.6486  -7.6304  -7.6187  -7.6154  -7.6083
    -7.5917  -7.5662  -7.5476  -7.5330  -7.4698  -7.4530  -7.4363  -7.4002
    -7.3715  -7.3413  -7.3108  -7.2872  -7.2820  -7.2750  -7.2621  -7.2476
    -7.2095  -7.1945  -7.1857  -7.1805  -7.1611  -7.1393  -7.1233  -7.0951
    -7.0900  -7.0754  -7.0653  -7.0451  -7.0136  -6.9998  -6.9696  -6.9588
    -6.9499  -6.9279  -6.9217  -6.9060  -6.8932  -6.8746  -6.8660  -6.8510
    -6.8334  -6.8278  -6.8061  -6.7965  -6.7793  -6.7560  -6.7300  -6.7281
    -6.7088  -6.6885  -6.6801  -6.6678  -6.6392  -6.1850  -5.7453  -5.0906
    -4.6998  -3.7218  -3.0522  -2.1066  -1.6920  -1.0365  -0.2356   0.1922
     0.5017   1.2727   1.9813   2.3788   2.6153   2.7754   3.6721   3.8294
     4.2000   4.5032

          k = 0.0595-0.1030 0.0000 ( 17004 PWs)   bands (ev):

  -126.3308-126.3051-126.3051-126.3046-126.2344-126.2343-126.2339-126.0987
  -126.0987-126.0982-126.0803-126.0630 -80.5155 -80.5064 -80.5064 -80.4871
   -80.4850 -80.4850 -80.4804 -80.4803 -80.4795 -80.4783 -80.4783 -80.4736
   -80.4201 -80.4200 -80.4194 -80.4123 -80.4123 -80.4122 -80.4089 -80.4088
   -80.4056 -80.2895 -80.2895 -80.2890 -80.2728 -80.2727 -80.2727 -80.2693
   -80.2693 -80.2655 -80.2655 -80.2532 -80.2532 -80.2430 -80.2386 -80.2386
    -7.9346  -7.6667  -7.6463  -7.6332  -7.5687  -7.5647  -7.5524  -7.5502
    -7.5369  -7.5325  -7.5283  -7.5107  -7.5103  -7.5027  -7.4877  -7.4847
    -7.3895  -7.3849  -7.3159  -7.2958  -7.2751  -7.2498  -7.2441  -7.2225
    -7.2144  -7.2016  -7.1641  -7.1614  -7.1495  -7.1485  -7.1458  -7.1209
    -7.1102  -7.0987  -7.0847  -7.0731  -7.0683  -7.0636  -7.0039  -6.9995
    -6.9759  -6.9538  -6.9135  -6.9095  -6.9019  -6.9014  -6.8855  -6.8536
    -6.8338  -6.8300  -6.8205  -6.7810  -6.7410  -6.7388  -6.7275  -6.7242
    -6.7171  -6.7140  -6.7059  -6.6893  -6.3576  -6.1774  -6.1719  -5.2777
    -4.6347  -4.6244  -2.9190  -1.9230  -1.8963   0.0031   0.2821   0.3192
     0.5361   1.4790   1.5236   1.6474   2.0516   2.2710   3.7961   4.2453
     4.4614   4.6653

          k = 0.0595-0.0686 0.0000 ( 16986 PWs)   bands (ev):

  -126.3308-126.3052-126.3049-126.3046-126.2345-126.2342-126.2339-126.0988
  -126.0985-126.0982-126.0803-126.0630 -80.5155 -80.5068 -80.5062 -80.4873
   -80.4850 -80.4841 -80.4814 -80.4800 -80.4795 -80.4794 -80.4768 -80.4733
   -80.4205 -80.4198 -80.4194 -80.4137 -80.4122 -80.4106 -80.4102 -80.4080
   -80.4050 -80.2897 -80.2894 -80.2890 -80.2742 -80.2728 -80.2711 -80.2707
   -80.2681 -80.2656 -80.2649 -80.2532 -80.2530 -80.2430 -80.2387 -80.2381
    -8.1458  -7.8517  -7.7287  -7.6486  -7.6304  -7.6187  -7.6154  -7.6083
    -7.5917  -7.5662  -7.5476  -7.5330  -7.4698  -7.4530  -7.4363  -7.4002
    -7.3715  -7.3413  -7.3108  -7.2872  -7.2820  -7.2750  -7.2621  -7.2476
    -7.2095  -7.1945  -7.1857  -7.1805  -7.1611  -7.1393  -7.1233  -7.0951
    -7.0900  -7.0754  -7.0653  -7.0451  -7.0136  -6.9998  -6.9696  -6.9588
    -6.9499  -6.9279  -6.9217  -6.9060  -6.8932  -6.8746  -6.8660  -6.8510
    -6.8334  -6.8278  -6.8061  -6.7965  -6.7793  -6.7560  -6.7300  -6.7281
    -6.7088  -6.6885  -6.6801  -6.6678  -6.6392  -6.1850  -5.7453  -5.0906
    -4.6998  -3.7218  -3.0522  -2.1066  -1.6920  -1.0365  -0.2356   0.1922
     0.5017   1.2727   1.9813   2.3788   2.6153   2.7754   3.6721   3.8294
     4.2000   4.5032

          k =-0.0892 0.0515 0.0000 ( 17028 PWs)   bands (ev):

  -126.3308-126.3052-126.3049-126.3046-126.2345-126.2342-126.2339-126.0988
  -126.0985-126.0982-126.0803-126.0630 -80.5156 -80.5070 -80.5061 -80.4876
   -80.4845 -80.4843 -80.4813 -80.4801 -80.4795 -80.4794 -80.4772 -80.4731
   -80.4206 -80.4198 -80.4193 -80.4142 -80.4109 -80.4106 -80.4102 -80.4092
   -80.4046 -80.2898 -80.2894 -80.2890 -80.2747 -80.2719 -80.2709 -80.2706
   -80.2693 -80.2656 -80.2646 -80.2533 -80.2530 -80.2430 -80.2389 -80.2380
    -8.0955  -7.8728  -7.7955  -7.6547  -7.6414  -7.6307  -7.6267  -7.5795
    -7.5585  -7.5455  -7.5401  -7.5211  -7.4997  -7.4240  -7.4122  -7.4015
    -7.3920  -7.3342  -7.3190  -7.3156  -7.2910  -7.2604  -7.2505  -7.2392
    -7.2053  -7.1795  -7.1629  -7.1600  -7.1449  -7.1083  -7.1059  -7.0942
    -7.0588  -7.0550  -7.0459  -7.0411  -7.0148  -6.9802  -6.9795  -6.9516
    -6.9486  -6.9418  -6.9384  -6.9185  -6.9008  -6.8825  -6.8810  -6.8678
    -6.8424  -6.8240  -6.8200  -6.7932  -6.7878  -6.7749  -6.7591  -6.7142
    -6.7038  -6.6752  -6.6738  -6.6631  -6.6327  -6.6202  -5.6589  -5.1797
    -3.8350  -3.5368  -3.1917  -2.4214  -1.9937  -1.8737  -0.3152   0.6974
     0.8276   0.9145   2.6839   2.9370   2.9490   3.0926   3.5121   4.0573
     4.0975   4.1752

          k =-0.0892 0.0858 0.0000 ( 16986 PWs)   bands (ev):

  -126.3308-126.3052-126.3049-126.3046-126.2345-126.2342-126.2339-126.0988
  -126.0985-126.0982-126.0803-126.0630 -80.5155 -80.5068 -80.5062 -80.4873
   -80.4851 -80.4841 -80.4814 -80.4800 -80.4795 -80.4794 -80.4768 -80.4733
   -80.4205 -80.4198 -80.4194 -80.4137 -80.4122 -80.4106 -80.4102 -80.4080
   -80.4050 -80.2897 -80.2894 -80.2890 -80.2742 -80.2728 -80.2711 -80.2707
   -80.2681 -80.2656 -80.2649 -80.2532 -80.2530 -80.2430 -80.2387 -80.2381
    -8.1458  -7.8517  -7.7287  -7.6486  -7.6304  -7.6187  -7.6154  -7.6083
    -7.5917  -7.5662  -7.5476  -7.5330  -7.4698  -7.4530  -7.4363  -7.4002
    -7.3715  -7.3413  -7.3108  -7.2872  -7.2820  -7.2750  -7.2621  -7.2476
    -7.2095  -7.1945  -7.1857  -7.1805  -7.1611  -7.1393  -7.1233  -7.0951
    -7.0900  -7.0754  -7.0653  -7.0451  -7.0136  -6.9998  -6.9696  -6.9588
    -6.9499  -6.9279  -6.9217  -6.9060  -6.8932  -6.8746  -6.8660  -6.8510
    -6.8334  -6.8278  -6.8061  -6.7965  -6.7793  -6.7560  -6.7300  -6.7281
    -6.7088  -6.6885  -6.6801  -6.6678  -6.6392  -6.1850  -5.7453  -5.0906
    -4.6998  -3.7218  -3.0522  -2.1066  -1.6920  -1.0365  -0.2356   0.1922
     0.5017   1.2727   1.9813   2.3788   2.6153   2.7754   3.6721   3.8294
     4.2000   4.5032

          k =-0.0892 0.1201 0.0000 ( 16986 PWs)   bands (ev):

  -126.3308-126.3052-126.3049-126.3046-126.2345-126.2342-126.2339-126.0988
  -126.0985-126.0982-126.0803-126.0630 -80.5155 -80.5068 -80.5062 -80.4873
   -80.4851 -80.4841 -80.4814 -80.4800 -80.4795 -80.4794 -80.4768 -80.4733
   -80.4205 -80.4198 -80.4194 -80.4137 -80.4122 -80.4106 -80.4102 -80.4080
   -80.4050 -80.2897 -80.2894 -80.2890 -80.2742 -80.2728 -80.2711 -80.2707
   -80.2681 -80.2656 -80.2649 -80.2532 -80.2530 -80.2430 -80.2387 -80.2381
    -8.1458  -7.8517  -7.7287  -7.6486  -7.6304  -7.6187  -7.6154  -7.6083
    -7.5917  -7.5662  -7.5476  -7.5330  -7.4698  -7.4530  -7.4363  -7.4002
    -7.3715  -7.3413  -7.3108  -7.2872  -7.2820  -7.2750  -7.2621  -7.2476
    -7.2095  -7.1945  -7.1857  -7.1805  -7.1611  -7.1393  -7.1233  -7.0951
    -7.0900  -7.0754  -7.0653  -7.0451  -7.0136  -6.9998  -6.9696  -6.9588
    -6.9499  -6.9279  -6.9217  -6.9060  -6.8932  -6.8746  -6.8660  -6.8510
    -6.8334  -6.8278  -6.8061  -6.7965  -6.7793  -6.7560  -6.7300  -6.7281
    -6.7088  -6.6885  -6.6801  -6.6678  -6.6392  -6.1850  -5.7453  -5.0906
    -4.6998  -3.7218  -3.0522  -2.1066  -1.6920  -1.0365  -0.2356   0.1922
     0.5017   1.2727   1.9813   2.3788   2.6153   2.7754   3.6721   3.8294
     4.2000   4.5032

          k =-0.0892-0.0515 0.0000 ( 17028 PWs)   bands (ev):

  -126.3308-126.3052-126.3049-126.3046-126.2345-126.2342-126.2339-126.0988
  -126.0985-126.0982-126.0803-126.0630 -80.5156 -80.5070 -80.5061 -80.4876
   -80.4845 -80.4843 -80.4813 -80.4801 -80.4795 -80.4794 -80.4772 -80.4731
   -80.4206 -80.4198 -80.4193 -80.4142 -80.4109 -80.4106 -80.4102 -80.4092
   -80.4046 -80.2898 -80.2894 -80.2890 -80.2747 -80.2719 -80.2709 -80.2706
   -80.2693 -80.2656 -80.2646 -80.2533 -80.2530 -80.2430 -80.2389 -80.2380
    -8.0955  -7.8728  -7.7955  -7.6547  -7.6414  -7.6307  -7.6267  -7.5795
    -7.5585  -7.5455  -7.5401  -7.5211  -7.4997  -7.4240  -7.4122  -7.4015
    -7.3920  -7.3342  -7.3190  -7.3156  -7.2910  -7.2604  -7.2505  -7.2392
    -7.2053  -7.1795  -7.1629  -7.1600  -7.1449  -7.1083  -7.1059  -7.0942
    -7.0588  -7.0550  -7.0459  -7.0411  -7.0148  -6.9802  -6.9795  -6.9515
    -6.9486  -6.9418  -6.9384  -6.9185  -6.9008  -6.8825  -6.8810  -6.8678
    -6.8424  -6.8240  -6.8200  -6.7932  -6.7878  -6.7749  -6.7591  -6.7142
    -6.7038  -6.6752  -6.6738  -6.6631  -6.6327  -6.6202  -5.6589  -5.1797
    -3.8350  -3.5368  -3.1917  -2.4214  -1.9937  -1.8737  -0.3152   0.6974
     0.8276   0.9145   2.6839   2.9370   2.9490   3.0926   3.5121   4.0573
     4.0975   4.1752

     the Fermi energy is     0.4294 ev

!    total energy              =   -5554.42381377 Ry
     Harris-Foulkes estimate   =   -5554.42381379 Ry
     estimated scf accuracy    <       0.00000087 Ry

     The total energy is the sum of the following terms:

     one-electron contribution =  -35518.96117675 Ry
     hartree contribution      =   17738.13555508 Ry
     xc contribution           =    -521.59962019 Ry
     ewald contribution        =   12748.02675167 Ry
     electric field correction =       0.00000034 Ry
     smearing contrib. (-TS)   =      -0.02532392 Ry

[...]
  -126.0747-126.0745-126.0459-126.0392 -80.4552 -80.4486 -80.4472 -80.4394
   -80.4372 -80.4360 -80.4359 -80.4334 -80.4327 -80.4325 -80.4293 -80.4269
   -80.3573 -80.3564 -80.3561 -80.3520 -80.3478 -80.3469 -80.3426 -80.3424
   -80.3402 -80.2664 -80.2658 -80.2656 -80.2510 -80.2498 -80.2487 -80.2463
   -80.2422 -80.2398 -80.2304 -80.2204 -80.2181 -80.2179 -80.2145 -80.2139
    -8.3778  -7.9599  -7.7261  -7.6188  -7.6157  -7.6143  -7.6045  -7.5968
    -7.5827  -7.5650  -7.5229  -7.5096  -7.4485  -7.4076  -7.3695  -7.3482
    -7.3196  -7.2893  -7.2865  -7.2540  -7.2311  -7.2163  -7.1910  -7.1821
    -7.1684  -7.1557  -7.1403  -7.1317  -7.1163  -7.0715  -7.0692  -7.0413
    -7.0327  -7.0128  -6.9768  -6.9673  -6.9416  -6.9152  -6.8884  -6.8821
    -6.8729  -6.8598  -6.8466  -6.8361  -6.8145  -6.8097  -6.7893  -6.7866
    -6.7843  -6.7705  -6.7605  -6.7443  -6.7395  -6.7038  -6.6848  -6.6685
    -6.6478  -6.6357  -6.6158  -6.5973  -6.5838  -6.1438  -5.5976  -4.4965
    -3.6559  -3.2579  -3.2483  -2.2926  -1.6618  -1.4182  -0.5131   0.3399
     0.7126   1.1396   1.3062   1.9019   2.5730   2.8026   3.1387   3.4550
     4.0965   4.2821

          k = 0.0595-0.1373 0.0000 ( 16986 PWs)   bands (ev):

  -126.2707-126.2583-126.2580-126.2577-126.1701-126.1696-126.1693-126.0751
  -126.0748-126.0745-126.0459-126.0392 -80.4552 -80.4479 -80.4464 -80.4401
   -80.4374 -80.4366 -80.4343 -80.4332 -80.4329 -80.4325 -80.4308 -80.4271
   -80.3571 -80.3564 -80.3561 -80.3511 -80.3477 -80.3463 -80.3437 -80.3426
   -80.3407 -80.2662 -80.2659 -80.2656 -80.2504 -80.2493 -80.2473 -80.2470
   -80.2436 -80.2401 -80.2304 -80.2204 -80.2182 -80.2180 -80.2147 -80.2141
    -8.0482  -7.7792  -7.6502  -7.5637  -7.5593  -7.5432  -7.5393  -7.5315
    -7.5138  -7.4972  -7.4704  -7.4595  -7.3958  -7.3889  -7.3748  -7.3536
    -7.3191  -7.2937  -7.2449  -7.2336  -7.2249  -7.2208  -7.2120  -7.2051
    -7.1785  -7.1519  -7.1328  -7.1243  -7.1137  -7.1027  -7.0777  -7.0617
    -7.0550  -7.0284  -7.0122  -6.9905  -6.9747  -6.9572  -6.9392  -6.9221
    -6.9137  -6.8939  -6.8891  -6.8692  -6.8488  -6.8395  -6.8286  -6.8187
    -6.7926  -6.7832  -6.7762  -6.7637  -6.7460  -6.7187  -6.7001  -6.6942
    -6.6799  -6.6573  -6.6491  -6.6345  -6.6113  -6.0935  -5.7223  -5.0081
    -4.6846  -3.7103  -3.0387  -2.1474  -1.5903  -1.0871  -0.2459   0.2439
     0.6161   1.2759   1.9429   2.4246   2.5871   2.8746   3.5990   3.9356
     4.1836   4.4964

          k = 0.0595-0.1030 0.0000 ( 17004 PWs)   bands (ev):

  -126.2707-126.2582-126.2582-126.2577-126.1700-126.1696-126.1694-126.0749
  -126.0749-126.0745-126.0459-126.0392 -80.4552 -80.4469 -80.4469 -80.4401
   -80.4375 -80.4375 -80.4331 -80.4330 -80.4325 -80.4324 -80.4324 -80.4275
   -80.3570 -80.3565 -80.3561 -80.3504 -80.3480 -80.3466 -80.3429 -80.3429
   -80.3417 -80.2660 -80.2660 -80.2656 -80.2496 -80.2488 -80.2488 -80.2451
   -80.2451 -80.2406 -80.2304 -80.2204 -80.2182 -80.2182 -80.2145 -80.2145
    -7.8754  -7.5741  -7.5447  -7.5323  -7.4936  -7.4883  -7.4807  -7.4784
    -7.4700  -7.4561  -7.4533  -7.4363  -7.4363  -7.4318  -7.4318  -7.3972
    -7.3242  -7.3088  -7.2801  -7.2780  -7.2138  -7.2012  -7.1957  -7.1830
    -7.1766  -7.1382  -7.1374  -7.1321  -7.1088  -7.1050  -7.0942  -7.0810
    -7.0603  -7.0575  -7.0488  -7.0355  -7.0270  -7.0122  -6.9800  -6.9729
    -6.9606  -6.8975  -6.8797  -6.8706  -6.8592  -6.8531  -6.8458  -6.8176
    -6.8052  -6.7904  -6.7758  -6.7526  -6.7112  -6.7105  -6.6929  -6.6928
    -6.6895  -6.6875  -6.6721  -6.6508  -6.2533  -6.1151  -6.0997  -5.2813
    -4.6564  -4.5692  -2.8498  -2.0481  -1.9497   0.0373   0.3995   0.4689
     0.6301   1.3985   1.5053   1.7229   2.0809   2.2873   3.8168   4.2152
     4.3868   4.4786

          k = 0.0595-0.0686 0.0000 ( 16986 PWs)   bands (ev):

  -126.2707-126.2583-126.2580-126.2577-126.1701-126.1696-126.1693-126.0751
  -126.0748-126.0745-126.0459-126.0392 -80.4552 -80.4479 -80.4464 -80.4401
   -80.4374 -80.4366 -80.4343 -80.4332 -80.4329 -80.4325 -80.4308 -80.4271
   -80.3571 -80.3564 -80.3561 -80.3511 -80.3477 -80.3463 -80.3437 -80.3426
   -80.3407 -80.2662 -80.2659 -80.2656 -80.2504 -80.2493 -80.2473 -80.2470
   -80.2436 -80.2401 -80.2304 -80.2204 -80.2182 -80.2180 -80.2147 -80.2141
    -8.0482  -7.7792  -7.6502  -7.5637  -7.5593  -7.5432  -7.5393  -7.5315
    -7.5138  -7.4972  -7.4704  -7.4595  -7.3958  -7.3889  -7.3748  -7.3536
    -7.3191  -7.2937  -7.2449  -7.2336  -7.2249  -7.2208  -7.2120  -7.2051
    -7.1785  -7.1519  -7.1328  -7.1243  -7.1137  -7.1027  -7.0777  -7.0617
    -7.0550  -7.0284  -7.0122  -6.9905  -6.9747  -6.9572  -6.9392  -6.9221
    -6.9137  -6.8939  -6.8891  -6.8692  -6.8488  -6.8395  -6.8286  -6.8187
    -6.7926  -6.7832  -6.7762  -6.7637  -6.7460  -6.7187  -6.7001  -6.6942
    -6.6799  -6.6573  -6.6491  -6.6345  -6.6113  -6.0935  -5.7223  -5.0081
    -4.6846  -3.7103  -3.0387  -2.1474  -1.5903  -1.0871  -0.2460   0.2439
     0.6161   1.2759   1.9429   2.4246   2.5871   2.8746   3.5990   3.9356
     4.1836   4.4964

          k =-0.0892 0.0515 0.0000 ( 17028 PWs)   bands (ev):

  -126.2707-126.2583-126.2580-126.2577-126.1701-126.1696-126.1693-126.0751
  -126.0748-126.0745-126.0459-126.0392 -80.4553 -80.4483 -80.4459 -80.4407
   -80.4375 -80.4360 -80.4343 -80.4333 -80.4329 -80.4324 -80.4312 -80.4269
   -80.3572 -80.3565 -80.3561 -80.3513 -80.3472 -80.3460 -80.3439 -80.3435
   -80.3402 -80.2663 -80.2659 -80.2655 -80.2509 -80.2488 -80.2473 -80.2467
   -80.2443 -80.2399 -80.2304 -80.2204 -80.2183 -80.2180 -80.2148 -80.2140
    -8.0182  -7.7717  -7.7232  -7.5702  -7.5678  -7.5601  -7.5493  -7.4958
    -7.4829  -7.4751  -7.4691  -7.4582  -7.4250  -7.3699  -7.3554  -7.3386
    -7.3371  -7.2670  -7.2487  -7.2472  -7.2335  -7.2220  -7.2085  -7.1947
    -7.1811  -7.1454  -7.1026  -7.0958  -7.0826  -7.0812  -7.0666  -7.0613
    -7.0121  -7.0029  -6.9963  -6.9905  -6.9815  -6.9575  -6.9278  -6.9260
    -6.9160  -6.9039  -6.8931  -6.8857  -6.8604  -6.8444  -6.8379  -6.8295
    -6.7984  -6.7913  -6.7843  -6.7645  -6.7567  -6.7451  -6.7044  -6.6815
    -6.6772  -6.6430  -6.6263  -6.6204  -6.6059  -6.5900  -5.6415  -5.1631
    -3.7810  -3.4130  -3.1316  -2.5237  -2.0093  -1.8239  -0.2394   0.6519
     0.7443   0.8888   2.7325   3.0453   3.0829   3.2278   3.5855   3.9613
     4.0239   4.1448

          k =-0.0892 0.0858 0.0000 ( 16986 PWs)   bands (ev):

  -126.2707-126.2583-126.2580-126.2577-126.1701-126.1696-126.1693-126.0751
  -126.0748-126.0745-126.0459-126.0392 -80.4552 -80.4479 -80.4464 -80.4401
   -80.4374 -80.4366 -80.4343 -80.4332 -80.4329 -80.4325 -80.4308 -80.4271
   -80.3571 -80.3564 -80.3561 -80.3511 -80.3477 -80.3463 -80.3437 -80.3426
   -80.3407 -80.2662 -80.2659 -80.2656 -80.2504 -80.2493 -80.2473 -80.2470
   -80.2436 -80.2401 -80.2304 -80.2204 -80.2182 -80.2180 -80.2147 -80.2141
    -8.0482  -7.7792  -7.6502  -7.5637  -7.5593  -7.5432  -7.5393  -7.5315
    -7.5138  -7.4972  -7.4704  -7.4595  -7.3958  -7.3889  -7.3748  -7.3536
    -7.3191  -7.2937  -7.2449  -7.2336  -7.2249  -7.2208  -7.2120  -7.2051
    -7.1785  -7.1519  -7.1328  -7.1243  -7.1137  -7.1027  -7.0777  -7.0617
    -7.0550  -7.0284  -7.0122  -6.9905  -6.9747  -6.9572  -6.9392  -6.9221
    -6.9137  -6.8939  -6.8891  -6.8692  -6.8488  -6.8395  -6.8286  -6.8187
    -6.7926  -6.7832  -6.7762  -6.7637  -6.7460  -6.7187  -6.7001  -6.6942
    -6.6799  -6.6573  -6.6491  -6.6345  -6.6113  -6.0935  -5.7223  -5.0081
    -4.6846  -3.7103  -3.0387  -2.1474  -1.5903  -1.0871  -0.2459   0.2439
     0.6161   1.2759   1.9429   2.4246   2.5871   2.8746   3.5990   3.9356
     4.1836   4.4964

          k =-0.0892 0.1201 0.0000 ( 16986 PWs)   bands (ev):

  -126.2707-126.2583-126.2580-126.2577-126.1701-126.1696-126.1693-126.0751
  -126.0748-126.0745-126.0459-126.0392 -80.4552 -80.4479 -80.4464 -80.4401
   -80.4374 -80.4366 -80.4343 -80.4332 -80.4329 -80.4325 -80.4308 -80.4271
   -80.3571 -80.3564 -80.3561 -80.3511 -80.3477 -80.3463 -80.3437 -80.3426
   -80.3407 -80.2662 -80.2659 -80.2656 -80.2504 -80.2493 -80.2473 -80.2470
   -80.2436 -80.2401 -80.2304 -80.2204 -80.2182 -80.2180 -80.2147 -80.2141
    -8.0482  -7.7792  -7.6502  -7.5637  -7.5593  -7.5432  -7.5393  -7.5315
    -7.5138  -7.4972  -7.4704  -7.4595  -7.3958  -7.3889  -7.3748  -7.3536
    -7.3191  -7.2937  -7.2449  -7.2336  -7.2249  -7.2208  -7.2120  -7.2051
    -7.1785  -7.1519  -7.1328  -7.1243  -7.1137  -7.1027  -7.0777  -7.0617
    -7.0550  -7.0284  -7.0122  -6.9905  -6.9747  -6.9572  -6.9392  -6.9221
    -6.9137  -6.8939  -6.8891  -6.8692  -6.8488  -6.8395  -6.8286  -6.8187
    -6.7926  -6.7832  -6.7762  -6.7637  -6.7460  -6.7187  -6.7001  -6.6942
    -6.6799  -6.6573  -6.6491  -6.6345  -6.6113  -6.0935  -5.7223  -5.0081
    -4.6846  -3.7103  -3.0387  -2.1475  -1.5903  -1.0871  -0.2459   0.2439
     0.6161   1.2759   1.9429   2.4246   2.5871   2.8746   3.5990   3.9356
     4.1836   4.4964

          k =-0.0892-0.0515 0.0000 ( 17028 PWs)   bands (ev):

  -126.2707-126.2583-126.2580-126.2577-126.1701-126.1696-126.1693-126.0751
  -126.0748-126.0745-126.0459-126.0392 -80.4553 -80.4483 -80.4459 -80.4407
   -80.4375 -80.4360 -80.4343 -80.4333 -80.4329 -80.4324 -80.4312 -80.4269
   -80.3572 -80.3565 -80.3561 -80.3513 -80.3472 -80.3460 -80.3439 -80.3435
   -80.3402 -80.2663 -80.2659 -80.2655 -80.2509 -80.2488 -80.2473 -80.2467
   -80.2443 -80.2399 -80.2304 -80.2204 -80.2183 -80.2180 -80.2148 -80.2140
    -8.0182  -7.7717  -7.7232  -7.5702  -7.5678  -7.5601  -7.5493  -7.4958
    -7.4829  -7.4751  -7.4691  -7.4582  -7.4250  -7.3699  -7.3554  -7.3386
    -7.3371  -7.2670  -7.2487  -7.2472  -7.2335  -7.2220  -7.2085  -7.1947
    -7.1811  -7.1454  -7.1026  -7.0958  -7.0826  -7.0812  -7.0666  -7.0613
    -7.0121  -7.0029  -6.9963  -6.9905  -6.9815  -6.9575  -6.9278  -6.9260
    -6.9160  -6.9039  -6.8931  -6.8857  -6.8604  -6.8444  -6.8379  -6.8295
    -6.7984  -6.7913  -6.7843  -6.7645  -6.7567  -6.7451  -6.7044  -6.6815
    -6.6772  -6.6430  -6.6263  -6.6204  -6.6059  -6.5900  -5.6415  -5.1631
    -3.7810  -3.4130  -3.1316  -2.5237  -2.0093  -1.8239  -0.2394   0.6519
     0.7443   0.8888   2.7325   3.0453   3.0829   3.2278   3.5855   3.9613
     4.0239   4.1448

     the Fermi energy is     0.4717 ev

!    total energy              =   -5554.42813081 Ry
     Harris-Foulkes estimate   =   -5554.42813076 Ry
     estimated scf accuracy    <       0.00000003 Ry

     The total energy is the sum of the following terms:

     one-electron contribution =  -35059.15358405 Ry
     hartree contribution      =   17508.62115420 Ry
     xc contribution           =    -521.55267956 Ry
     ewald contribution        =   12517.68243254 Ry
     electric field correction =       0.00000222 Ry
     smearing contrib. (-TS)   =      -0.02545616 Ry

     convergence has been achieved in   6 iterations
 
 BEEF-vdW xc energy contributions
           1 :   -463.425621469287     
           2 :    419.964051709993     
           3 :   -347.096113426096     
           4 :    266.009857179268     
           5 :   -195.416574671184     
           6 :    144.501962484428     
           7 :   -111.717801151295     
           8 :    89.1077034500349     
           9 :   -68.8186721125762     
          10 :    47.6897292176186     
          11 :   -27.6435487116991     
          12 :    12.5838974963713     
          13 :   -4.60256780880758     
          14 :    2.24265198870785     
          15 :   -1.69330012636601     
          16 :  -0.405696883932819     
          17 :    4.81923751273700     
          18 :   -9.71271148348512     
          19 :    12.5192624909574     
          20 :   -12.0857008462248     
          21 :    9.48878679159202     
          22 :   -7.07279565130261     
          23 :    6.61868170902460     
          24 :   -8.10894883295902     
          25 :    9.95807564641234     
          26 :   -10.3966825916687     
          27 :    8.85729267489228     
          28 :   -6.31625571573528     
          29 :    4.42720351125473     
          30 :   -4.21050700342778     
          31 :   -35.8153518669803     
          32 :   -24.4098325445499     

     Forces acting on atoms (Ry/au):

     atom    1 type  1   force =    -0.00000003   -0.00000005   -0.00538884
     atom    2 type  1   force =    -0.00000002   -0.00052295   -0.00977970
     atom    3 type  1   force =    -0.00045281    0.00026150   -0.00978002
     atom    4 type  1   force =     0.00045280    0.00026150   -0.00977987
     atom    5 type  1   force =     0.00534304   -0.00308474    0.01029674
     atom    6 type  1   force =    -0.00534306   -0.00308474    0.01029663
     atom    7 type  1   force =    -0.00000001    0.00000003    0.00130286
     atom    8 type  1   force =    -0.00000002    0.00616963    0.01029651
     atom    9 type  1   force =    -0.00111562   -0.00064363    0.00027109
     atom   10 type  1   force =     0.00111571   -0.00064393    0.00027107
     atom   11 type  1   force =    -0.00000022    0.00128780    0.00027100
     atom   12 type  1   force =     0.00000032   -0.00000050    0.00015378
     atom   13 type  2   force =    -0.00000007    0.00000008    0.00156875

     Total force =     0.002772     Total SCF correction =     0.000740
     SCF correction compared to forces is large: reduce conv_thr to get better values


     entering subroutine stress ...

          total   stress  (Ry/bohr**3)                   (kbar)     P=  -16.90
  -0.00016486   0.00000000  -0.00000000        -24.25      0.00     -0.00
   0.00000000  -0.00016486   0.00000000          0.00    -24.25      0.00
  -0.00000000   0.00000000  -0.00001502         -0.00      0.00     -2.21


     bfgs converged in  18 scf cycles and  17 bfgs steps
     (criteria: energy <  1.0E+00, force <  1.9E-03)

     End of BFGS Geometry Optimization

     Final energy   =   -5554.4281308105 Ry
Begin final coordinates

ATOMIC_POSITIONS (crystal)
Zn1      0.166666667   0.166666667   0.406869400    0   0   0
Zn1      0.666666667   0.166666667   0.406869400    0   0   0
Zn1      0.166666667   0.666666667   0.406869400    0   0   0
Zn1      0.666666667   0.666666667   0.406869400    0   0   0
Zn1      0.833333333   0.333333333   0.500000000    0   0   0
Zn1      0.333333333   0.333333333   0.500000000    0   0   0
Zn1      0.833333333   0.833333333   0.500000000    0   0   0
Zn1      0.333333333   0.833333333   0.500000000    0   0   0
Zn1     -0.005001684  -0.005002351   0.599118716
Zn1      0.510003640  -0.005002033   0.599118697
Zn1     -0.005001979   0.510004233   0.599118751
Zn1      0.499999340   0.500000594   0.592558144
H1       0.166666612   0.166666753   0.634085876
End final coordinates



     Writing output data file calc.save
 
     init_run     :     10.29s CPU     10.67s WALL (       1 calls)
     electrons    :   3341.33s CPU   3507.77s WALL (      18 calls)
     update_pot   :     36.12s CPU     38.42s WALL (      17 calls)
     forces       :    202.55s CPU    209.43s WALL (      18 calls)
     stress       :    692.97s CPU    727.04s WALL (      18 calls)

     Called by init_run:
     wfcinit      :      4.78s CPU      4.86s WALL (       1 calls)
     potinit      :      1.80s CPU      2.02s WALL (       1 calls)

     Called by electrons:
     c_bands      :   1402.29s CPU   1452.29s WALL (     119 calls)
     sum_band     :    576.92s CPU    611.38s WALL (     119 calls)
     v_of_rho     :    166.12s CPU    178.72s WALL (     119 calls)
     newd         :    403.00s CPU    405.24s WALL (     119 calls)
     mix_rho      :      5.22s CPU      5.31s WALL (     119 calls)
     vdW_energy   :    145.57s CPU    162.34s WALL (     731 calls)
     vdW_ffts     :    356.03s CPU    366.27s WALL (    1498 calls)
     vdW_v        :    143.51s CPU    150.32s WALL (     731 calls)

     Called by c_bands:
     init_us_2    :      5.87s CPU      5.94s WALL (    1375 calls)
     cegterg      :   1326.66s CPU   1359.40s WALL (     595 calls)

     Called by *egterg:
     h_psi        :    836.36s CPU    853.50s WALL (    2249 calls)
     s_psi        :     66.84s CPU     67.10s WALL (    2249 calls)
     g_psi        :      4.44s CPU      4.46s WALL (    1649 calls)
     cdiaghg      :    147.62s CPU    148.90s WALL (    2069 calls)

     Called by h_psi:
     add_vuspsi   :     68.43s CPU     68.64s WALL (    2249 calls)

     General routines
     calbec       :    113.13s CPU    115.41s WALL (    3024 calls)
     fft          :    550.65s CPU    585.49s WALL (   43691 calls)
     ffts         :      0.40s CPU      0.43s WALL (     238 calls)
     fftw         :    545.84s CPU    563.41s WALL (  433166 calls)
     interpolate  :      4.25s CPU      4.32s WALL (     238 calls)
     davcio       :      0.00s CPU      0.04s WALL (       5 calls)
 
     Parallel routines
     fft_scatter  :    615.48s CPU    665.12s WALL (  477095 calls)
 
     PWSCF        :     1h12m CPU        1h16m WALL

 
   This run was terminated on:  23:11: 6   2May2018            

=------------------------------------------------------------------------------=
   JOB DONE.
=------------------------------------------------------------------------------=
Job  /afs/slac/g/suncat/bin/suncat-tsmpirun -x LD_LIBRARY_PATH -wdir /scratch/qe270404_Do6Lz pw.x -npool 4 -in pw.inp

TID   HOST_NAME   COMMAND_LINE            STATUS            TERMINATION_TIME
===== ========== ================  =======================  ===================
00000 suncat0010 pw.x -npool 4 -i  Done                     05/02/2018 23:11:06
00001 suncat0010 pw.x -npool 4 -i  Done                     05/02/2018 23:11:06
00002 suncat0010 pw.x -npool 4 -i  Done                     05/02/2018 23:11:06
00003 suncat0010 pw.x -npool 4 -i  Done                     05/02/2018 23:11:06
00004 suncat0010 pw.x -npool 4 -i  Done                     05/02/2018 23:11:06
00005 suncat0010 pw.x -npool 4 -i  Done                     05/02/2018 23:11:06
00006 suncat0010 pw.x -npool 4 -i  Done                     05/02/2018 23:11:06
00007 suncat0010 pw.x -npool 4 -i  Done                     05/02/2018 23:11:06
00008 suncat0191 pw.x -npool 4 -i  Done                     05/02/2018 23:11:06
00009 suncat0191 pw.x -npool 4 -i  Done                     05/02/2018 23:11:06
00010 suncat0191 pw.x -npool 4 -i  Done                     05/02/2018 23:11:06
00011 suncat0191 pw.x -npool 4 -i  Done                     05/02/2018 23:11:06
00012 suncat0191 pw.x -npool 4 -i  Done                     05/02/2018 23:11:06
00013 suncat0191 pw.x -npool 4 -i  Done                     05/02/2018 23:11:06
00014 suncat0191 pw.x -npool 4 -i  Done                     05/02/2018 23:11:06
00015 suncat0191 pw.x -npool 4 -i  Done                     05/02/2018 23:11:06
00016 suncat0145 pw.x -npool 4 -i  Done                     05/02/2018 23:11:06
00017 suncat0145 pw.x -npool 4 -i  Done                     05/02/2018 23:11:06
00018 suncat0145 pw.x -npool 4 -i  Done                     05/02/2018 23:11:06
00019 suncat0145 pw.x -npool 4 -i  Done                     05/02/2018 23:11:06
00020 suncat0145 pw.x -npool 4 -i  Done                     05/02/2018 23:11:06
00021 suncat0145 pw.x -npool 4 -i  Done                     05/02/2018 23:11:06
00022 suncat0145 pw.x -npool 4 -i  Done                     05/02/2018 23:11:06
00023 suncat0145 pw.x -npool 4 -i  Done                     05/02/2018 23:11:06
00024 suncat0143 pw.x -npool 4 -i  Done                     05/02/2018 23:11:06
00025 suncat0143 pw.x -npool 4 -i  Done                     05/02/2018 23:11:06
00026 suncat0143 pw.x -npool 4 -i  Done                     05/02/2018 23:11:06
00027 suncat0143 pw.x -npool 4 -i  Done                     05/02/2018 23:11:06
00028 suncat0143 pw.x -npool 4 -i  Done                     05/02/2018 23:11:06
00029 suncat0143 pw.x -npool 4 -i  Done                     05/02/2018 23:11:06
00030 suncat0143 pw.x -npool 4 -i  Done                     05/02/2018 23:11:06
00031 suncat0143 pw.x -npool 4 -i  Done                     05/02/2018 23:11:06
