  python dir          : /u/if/mamunm/src/espresso
  espresso dir        : /nfs/slac/g/suncatfs/sw/espv18/espresso-dynpy-beef/bin
  pseudo dir          : /u/if/mamunm/psp/gbrv1.5pbe
  ase-espresso py git : GITVERSION



     Program PWSCF v.5.1rc2 (svn rev. 11289) starts on  2May2018 at 15:43:43 

     This program is part of the open-source Quantum ESPRESSO suite
     for quantum simulation of materials; please cite
         "P. Giannozzi et al., J. Phys.:Condens. Matter 21 395502 (2009);
          URL http://www.quantum-espresso.org", 
     in publications or presentations arising from this work. More details at
     http://www.quantum-espresso.org/quote

     Parallel version (MPI), running on    32 processors
     K-points division:     npool     =       4
     R & G space division:  proc/nbgrp/npool/nimage =       8
     Reading input from pw.inp
     Message from routine read_cards :
     DEPRECATED: no units specified in CELL_PARAMETERS card

     Current dimensions of program PWSCF are:
     Max number of different atomic species (ntypx) = 10
     Max number of k-points (npk) =  40000
     Max angular momentum in pseudopotentials (lmaxx) =  3
     Presently stress not available with electric field


     **************************************************************************
     Initializing libbeef V0.1.1 with the BEEF-vdW functional.
     Citation: Wellendorff et al., PRB 85, 235149 (2012).
     **************************************************************************


     IMPORTANT: XC functional enforced from input :
     Exchange-correlation      = BEEF-VDW ( 1  4 27 13 2)
     Any further DFT definition will be discarded
     Please, verify this is what you really want


     Subspace diagonalization in iterative solution of the eigenvalue problem:
     a serial algorithm will be used

 
     Parallelization info
     --------------------
     sticks:   dense  smooth     PW     G-vecs:    dense   smooth      PW
     Min         469     188     53                90947    23011    3531
     Max         471     189     55                90959    23054    3542
     Sum        3757    1507    433               727599   184247   28311
 


     bravais-lattice index     =            0
     lattice parameter (alat)  =       1.8897  a.u.
     unit-cell volume          =    6116.8020 (a.u.)^3
     number of atoms/cell      =           13
     number of atomic types    =            2
     number of electrons       =       138.00
     number of Kohn-Sham states=           79
     kinetic-energy cutoff     =      36.7493  Ry
     charge density cutoff     =     367.4932  Ry
     convergence threshold     =      1.0E-05
     mixing beta               =       0.3000
     number of iterations used =           10  plain     mixing
     Exchange-correlation      = BEEF-VDW ( 1  4 27 13 2)
     nstep                     =           50


     celldm(1)=   1.889726  celldm(2)=   0.000000  celldm(3)=   0.000000
     celldm(4)=   0.000000  celldm(5)=   0.000000  celldm(6)=   0.000000

     crystal axes: (cart. coord. in units of alat)
               a(1) = (   6.437465   0.000000   0.000000 )  
               a(2) = (   3.218732   5.575008   0.000000 )  
               a(3) = (   0.000000   0.000000  25.256168 )  

     reciprocal axes: (cart. coord. in units 2 pi/alat)
               b(1) = (  0.155341 -0.089686  0.000000 )  
               b(2) = (  0.000000  0.179372  0.000000 )  
               b(3) = (  0.000000  0.000000  0.039594 )  


     PseudoPot. # 1 for Sc read from file:
     /u/if/mamunm/psp/gbrv1.5pbe/Sc.UPF
     MD5 check sum: db30a2753ba66ef00f23801d899b7e7f
     Pseudo is Ultrasoft + core correction, Zval = 11.0
     Generated by new atomic code, or converted to UPF format
     Using radial grid of  849 points,  6 beta functions with: 
                l(1) =   0
                l(2) =   0
                l(3) =   1
                l(4) =   1
                l(5) =   2
                l(6) =   2
     Q(r) pseudized with  6 coefficients,  rinner =    1.200   1.200   1.200
                                                       1.200   1.200

     PseudoPot. # 2 for O  read from file:
     /u/if/mamunm/psp/gbrv1.5pbe/O.UPF
     MD5 check sum: 734c27235a0248c51dbae37a1fbe46ec
     Pseudo is Ultrasoft + core correction, Zval =  6.0
     Generated by new atomic code, or converted to UPF format
     Using radial grid of  737 points,  5 beta functions with: 
                l(1) =   0
                l(2) =   0
                l(3) =   1
                l(4) =   1
                l(5) =   2
     Q(r) pseudized with  8 coefficients,  rinner =    0.900   0.900   0.900
                                                       0.900   0.900

     vdW kernel table read from file vdW_kernel_table
     MD5 check sum: 095c7af220d748ca6e76c0b4c6cfb241

     atomic species   valence    mass     pseudopotential
        Sc1           11.00    44.95591     Sc( 1.00)
        O1             6.00    15.99900     O ( 1.00)

     No symmetry found



   Cartesian axes

     site n.     atom                  positions (alat units)
         1           Sc1 tau(   1) = (   1.6093662   0.9291680  10.0000000  )
         2           Sc1 tau(   2) = (   4.8280986   0.9291680  10.0000000  )
         3           Sc1 tau(   3) = (   3.2187324   3.7166720  10.0000000  )
         4           Sc1 tau(   4) = (   6.4374648   3.7166720  10.0000000  )
         5           Sc1 tau(   5) = (   6.4374648   1.8583360  12.6280840  )
         6           Sc1 tau(   6) = (   3.2187324   1.8583360  12.6280840  )
         7           Sc1 tau(   7) = (   8.0468310   4.6458400  12.6280840  )
         8           Sc1 tau(   8) = (   4.8280986   4.6458400  12.6280840  )
         9           Sc1 tau(   9) = (   0.0000000   0.0000000  15.2561680  )
        10           Sc1 tau(  10) = (   3.2187324   0.0000000  15.2561680  )
        11           Sc1 tau(  11) = (   1.6093662   2.7875040  15.2561680  )
        12           Sc1 tau(  12) = (   4.8280986   2.7875040  15.2561680  )
        13           O1  tau(  13) = (   3.2187324   1.8583360  16.7901680  )

     number of k points=    20  Fermi-Dirac smearing, width (Ry)=  0.0110
                       cart. coord. in units 2pi/alat
        k(    1) = (   0.0000000   0.0000000   0.0000000), wk =   0.0555556
        k(    2) = (   0.0000000   0.0298953   0.0000000), wk =   0.1111111
        k(    3) = (   0.0000000   0.0597906   0.0000000), wk =   0.1111111
        k(    4) = (   0.0000000  -0.0896860   0.0000000), wk =   0.0555556
        k(    5) = (   0.0258901  -0.0149477   0.0000000), wk =   0.1111111
        k(    6) = (   0.0258901   0.0149477   0.0000000), wk =   0.1111111
        k(    7) = (   0.0258901   0.0448430   0.0000000), wk =   0.1111111
        k(    8) = (   0.0258901  -0.1046336   0.0000000), wk =   0.1111111
        k(    9) = (   0.0258901  -0.0747383   0.0000000), wk =   0.1111111
        k(   10) = (   0.0258901  -0.0448430   0.0000000), wk =   0.1111111
        k(   11) = (   0.0517802  -0.0298953   0.0000000), wk =   0.1111111
        k(   12) = (   0.0517802   0.0000000   0.0000000), wk =   0.1111111
        k(   13) = (   0.0517802   0.0298953   0.0000000), wk =   0.1111111
        k(   14) = (   0.0517802  -0.1195813   0.0000000), wk =   0.1111111
        k(   15) = (   0.0517802  -0.0896860   0.0000000), wk =   0.1111111
        k(   16) = (   0.0517802  -0.0597906   0.0000000), wk =   0.1111111
        k(   17) = (  -0.0776703   0.0448430   0.0000000), wk =   0.0555556
        k(   18) = (  -0.0776703   0.0747383   0.0000000), wk =   0.1111111
        k(   19) = (  -0.0776703   0.1046336   0.0000000), wk =   0.1111111
        k(   20) = (  -0.0776703  -0.0448430   0.0000000), wk =   0.0555556

     Dense  grid:   727599 G-vectors     FFT dimensions: (  75,  75, 300)

     Smooth grid:   184247 G-vectors     FFT dimensions: (  48,  48, 192)

     Largest allocated arrays     est. size (Mb)     dimensions
        Kohn-Sham Wavefunctions         3.51 Mb     (    2914,   79)
        NL pseudopotentials            10.18 Mb     (    2914,  229)
        Each V/rho on FFT grid          3.26 Mb     (  213750)
        Each G-vector array             0.69 Mb     (   90950)
        G-vector shells                 0.18 Mb     (   23259)
     Largest temporary arrays     est. size (Mb)     dimensions
        Auxiliary wavefunctions        14.05 Mb     (    2914,  316)
        Each subspace H/S matrix        1.52 Mb     (     316,  316)
        Each <psi_i|beta_j> matrix      0.28 Mb     (     229,   79)
        Arrays for rho mixing          32.62 Mb     (  213750,   10)

     Initial potential from superposition of free atoms
     Check: negative starting charge=   -0.000421

     starting charge  137.97117, renormalised to  138.00000

     negative rho (up, down):  4.206E-04 0.000E+00


     ************************************************************************
     *
     * You are using vdW-DF for exchange-correlation in this calculation.
     * Please cite the following three references that made this development
     * possible:
     *
     *   M. Dion, H. Rydberg, E. Schroder, D. C. Langreth, and
     *   B. I. Lundqvist, Phys. Rev. Lett. 92, 246401 (2004).
     *
     *   T. Thonhauser, V. R. Cooper, S. Li, A. Puzder, P. Hyldgaard, and
     *   D. C. Langreth, Phys. Rev. B 76, 125112 (2007).
     *
     *   G. Roman-Perez and J. M. Soler, Phys. Rev. Lett. 103, 096102 (2009).
     *
     *
     * If you are using vdW-DF2, please also cite:
     *
     *   K. Lee, E. D. Murray, L. Kong, B. I. Lundqvist, and
     *   D. C. Langreth, Phys. Rev. B 82, 081101(R) (2010).
     *
     *
     * If you are calculating the stress with vdW-DF, please also cite:
     *
     *   R. Sabatini, E. Kucukbenli, B. Kolb, T. Thonhauser, and
     *   S. de Gironcoli, J. Phys.: Condens. Matter 24, 424209 (2012).
     *
     ************************************************************************

     Carrying out vdW-DF run using the following parameters:

     Nqs =      20    Nr_points =    1024   r_max =   100.000
     q_mesh =
               0.00001000     0.04494208     0.09755937     0.15916263
               0.23128650     0.31572767     0.41458969     0.53033537
               0.66584808     0.82450364     1.01025438     1.22772762
               1.48234092     1.78043706     2.12944203     2.53805004
               3.01644009     3.57652955     4.23227104     5.00000000

     Gradients computed in reciprocal space

     ************************************************************************


 
     Adding external electric field

     Computed dipole along edir(3) : 
        Dipole               -0.0098 Ry au,         -0.0250 Debye
        Dipole field         -0.0000 Ry au
 
        Potential amp.        0.0019 Ry
        Total length         46.5341 bohr
 
     Starting wfc are  160 randomized atomic wfcs

     total cpu time spent up to now is       15.6 secs

     per-process dynamical memory:    97.1 Mb

     Self-consistent Calculation

     iteration #  1     ecut=    36.75 Ry     beta=0.30
     Davidson diagonalization with overlap
     ethr =  1.00E-02,  avg # of iterations =  2.0

     negative rho (up, down):  1.726E-04 0.000E+00
 
     Adding external electric field

     Computed dipole along edir(3) : 
        Dipole               -3.6883 Ry au,         -9.3746 Debye
        Dipole field         -0.0076 Ry au
 
        Potential amp.        0.7052 Ry
        Total length         46.5341 bohr
 

     total cpu time spent up to now is       35.3 secs

     total energy              =   -1167.81466323 Ry
     Harris-Foulkes estimate   =   -1170.97335277 Ry
     estimated scf accuracy    <       6.72636313 Ry

     iteration #  2     ecut=    36.75 Ry     beta=0.30
     Davidson diagonalization with overlap
     ethr =  4.87E-03,  avg # of iterations =  9.6

     negative rho (up, down):  4.470E-04 0.000E+00
 
     Adding external electric field

     Computed dipole along edir(3) : 
        Dipole                1.9663 Ry au,          4.9979 Debye
        Dipole field          0.0040 Ry au
 
        Potential amp.       -0.3760 Ry
        Total length         46.5341 bohr
 

     total cpu time spent up to now is       65.3 secs

     total energy              =   -1159.08780765 Ry
     Harris-Foulkes estimate   =   -1180.23120735 Ry
     estimated scf accuracy    <     513.99131207 Ry

     iteration #  3     ecut=    36.75 Ry     beta=0.30
     Davidson diagonalization with overlap
     ethr =  4.87E-03,  avg # of iterations =  9.1

     negative rho (up, down):  6.163E-04 0.000E+00
 
     Adding external electric field

     Computed dipole along edir(3) : 
        Dipole                0.3523 Ry au,          0.8955 Debye
        Dipole field          0.0007 Ry au
 
        Potential amp.       -0.0674 Ry
        Total length         46.5341 bohr
 

     total cpu time spent up to now is       97.2 secs

     total energy              =   -1166.82059599 Ry
     Harris-Foulkes estimate   =   -1176.56544936 Ry
     estimated scf accuracy    <     275.17266632 Ry

     iteration #  4     ecut=    36.75 Ry     beta=0.30
     Davidson diagonalization with overlap
     ethr =  4.87E-03,  avg # of iterations =  7.0

     negative rho (up, down):  4.002E-04 0.000E+00
 
     Adding external electric field

     Computed dipole along edir(3) : 
        Dipole                0.2203 Ry au,          0.5599 Debye
        Dipole field          0.0005 Ry au
 
        Potential amp.       -0.0421 Ry
        Total length         46.5341 bohr
 

     total cpu time spent up to now is      123.1 secs

     total energy              =   -1170.24342962 Ry
     Harris-Foulkes estimate   =   -1170.36729620 Ry
     estimated scf accuracy    <       4.05296261 Ry

     iteration #  5     ecut=    36.75 Ry     beta=0.30
     Davidson diagonalization with overlap
     ethr =  2.94E-03,  avg # of iterations =  2.9

     negative rho (up, down):  2.826E-04 0.000E+00
 
     Adding external electric field

     Computed dipole along edir(3) : 
        Dipole                0.0579 Ry au,          0.1473 Debye
        Dipole field          0.0001 Ry au
 
        Potential amp.       -0.0111 Ry
        Total length         46.5341 bohr
 

     total cpu time spent up to now is      144.5 secs

     total energy              =   -1170.27093652 Ry
     Harris-Foulkes estimate   =   -1170.32369808 Ry
     estimated scf accuracy    <       1.18235882 Ry

     iteration #  6     ecut=    36.75 Ry     beta=0.30
     Davidson diagonalization with overlap
     ethr =  8.57E-04,  avg # of iterations =  8.7

     negative rho (up, down):  2.072E-04 0.000E+00
 
     Adding external electric field

     Computed dipole along edir(3) : 
        Dipole               -0.1284 Ry au,         -0.3263 Debye
        Dipole field         -0.0003 Ry au
 
        Potential amp.        0.0245 Ry
        Total length         46.5341 bohr
 

     total cpu time spent up to now is      171.3 secs

     total energy              =   -1170.34250900 Ry
     Harris-Foulkes estimate   =   -1170.37564336 Ry
     estimated scf accuracy    <       0.21267595 Ry

     iteration #  7     ecut=    36.75 Ry     beta=0.30
     Davidson diagonalization with overlap
     ethr =  1.54E-04,  avg # of iterations = 11.4

     negative rho (up, down):  2.060E-04 0.000E+00
 
     Adding external electric field

     Computed dipole along edir(3) : 
        Dipole               -0.1462 Ry au,         -0.3715 Debye
        Dipole field         -0.0003 Ry au
 
        Potential amp.        0.0279 Ry
        Total length         46.5341 bohr
 

     total cpu time spent up to now is      197.9 secs

     total energy              =   -1170.36078891 Ry
     Harris-Foulkes estimate   =   -1170.36780247 Ry
     estimated scf accuracy    <       0.12801086 Ry

     iteration #  8     ecut=    36.75 Ry     beta=0.30
     Davidson diagonalization with overlap
     ethr =  9.28E-05,  avg # of iterations =  5.4

     negative rho (up, down):  2.321E-04 0.000E+00
 
     Adding external electric field

     Computed dipole along edir(3) : 
        Dipole               -0.2173 Ry au,         -0.5523 Debye
        Dipole field         -0.0004 Ry au
 
        Potential amp.        0.0415 Ry
        Total length         46.5341 bohr
 

     total cpu time spent up to now is      220.4 secs

     total energy              =   -1170.35888334 Ry
     Harris-Foulkes estimate   =   -1170.36526794 Ry
     estimated scf accuracy    <       0.22544139 Ry

     iteration #  9     ecut=    36.75 Ry     beta=0.30
     Davidson diagonalization with overlap
     ethr =  9.28E-05,  avg # of iterations =  1.9

     negative rho (up, down):  2.700E-04 0.000E+00
 
     Adding external electric field

     Computed dipole along edir(3) : 
        Dipole               -0.2869 Ry au,         -0.7291 Debye
        Dipole field         -0.0006 Ry au
 
        Potential amp.        0.0548 Ry
        Total length         46.5341 bohr
 

     total cpu time spent up to now is      241.1 secs

     total energy              =   -1170.35448660 Ry
     Harris-Foulkes estimate   =   -1170.36103264 Ry
     estimated scf accuracy    <       0.19754269 Ry

     iteration # 10     ecut=    36.75 Ry     beta=0.30
     Davidson diagonalization with overlap
     ethr =  9.28E-05,  avg # of iterations =  1.1

     negative rho (up, down):  2.667E-04 0.000E+00
 
     Adding external electric field

     Computed dipole along edir(3) : 
        Dipole               -0.3018 Ry au,         -0.7671 Debye
        Dipole field         -0.0006 Ry au
 
        Potential amp.        0.0577 Ry
        Total length         46.5341 bohr
 

     total cpu time spent up to now is      261.9 secs

     total energy              =   -1170.35706600 Ry
     Harris-Foulkes estimate   =   -1170.35784976 Ry
     estimated scf accuracy    <       0.01478731 Ry

     iteration # 11     ecut=    36.75 Ry     beta=0.30
     Davidson diagonalization with overlap
     ethr =  1.07E-05,  avg # of iterations = 10.3

     negative rho (up, down):  2.479E-04 0.000E+00
 
     Adding external electric field

     Computed dipole along edir(3) : 
        Dipole               -0.2894 Ry au,         -0.7356 Debye
        Dipole field         -0.0006 Ry au
 
        Potential amp.        0.0553 Ry
        Total length         46.5341 bohr
 

     total cpu time spent up to now is      291.1 secs

     total energy              =   -1170.35880701 Ry
     Harris-Foulkes estimate   =   -1170.36010346 Ry
     estimated scf accuracy    <       0.00725235 Ry

     iteration # 12     ecut=    36.75 Ry     beta=0.30
     Davidson diagonalization with overlap
     ethr =  5.26E-06,  avg # of iterations =  5.8

     negative rho (up, down):  2.592E-04 0.000E+00
 
     Adding external electric field

     Computed dipole along edir(3) : 
        Dipole               -0.3166 Ry au,         -0.8048 Debye
        Dipole field         -0.0007 Ry au
 
        Potential amp.        0.0605 Ry
        Total length         46.5341 bohr
 

     total cpu time spent up to now is      315.0 secs

     total energy              =   -1170.35902660 Ry
     Harris-Foulkes estimate   =   -1170.35937581 Ry
     estimated scf accuracy    <       0.00709279 Ry

     iteration # 13     ecut=    36.75 Ry     beta=0.30
     Davidson diagonalization with overlap
     ethr =  5.14E-06,  avg # of iterations =  5.3

     negative rho (up, down):  2.511E-04 0.000E+00
 
     Adding external electric field

     Computed dipole along edir(3) : 
        Dipole               -0.3141 Ry au,         -0.7983 Debye
        Dipole field         -0.0006 Ry au
 
        Potential amp.        0.0600 Ry
        Total length         46.5341 bohr
 

     total cpu time spent up to now is      338.6 secs

     total energy              =   -1170.35929268 Ry
     Harris-Foulkes estimate   =   -1170.35954352 Ry
     estimated scf accuracy    <       0.00177940 Ry

     iteration # 14     ecut=    36.75 Ry     beta=0.30
     Davidson diagonalization with overlap
     ethr =  1.29E-06,  avg # of iterations =  5.7

     negative rho (up, down):  2.651E-04 0.000E+00
 
     Adding external electric field

     Computed dipole along edir(3) : 
        Dipole               -0.3122 Ry au,         -0.7934 Debye
        Dipole field         -0.0006 Ry au
 
        Potential amp.        0.0597 Ry
        Total length         46.5341 bohr
 

     total cpu time spent up to now is      366.7 secs

     total energy              =   -1170.35948239 Ry
     Harris-Foulkes estimate   =   -1170.35945656 Ry
     estimated scf accuracy    <       0.00080078 Ry

     iteration # 15     ecut=    36.75 Ry     beta=0.30
     Davidson diagonalization with overlap
     ethr =  5.80E-07,  avg # of iterations =  5.6

     negative rho (up, down):  2.811E-04 0.000E+00
 
     Adding external electric field

     Computed dipole along edir(3) : 
        Dipole               -0.3221 Ry au,         -0.8188 Debye
        Dipole field         -0.0007 Ry au
 
        Potential amp.        0.0616 Ry
        Total length         46.5341 bohr
 

     total cpu time spent up to now is      393.9 secs

     total energy              =   -1170.35945495 Ry
     Harris-Foulkes estimate   =   -1170.35952531 Ry
     estimated scf accuracy    <       0.00044568 Ry

     iteration # 16     ecut=    36.75 Ry     beta=0.30
     Davidson diagonalization with overlap
     ethr =  3.23E-07,  avg # of iterations =  4.7

     negative rho (up, down):  2.890E-04 0.000E+00
 
     Adding external electric field

     Computed dipole along edir(3) : 
        Dipole               -0.3234 Ry au,         -0.8220 Debye
        Dipole field         -0.0007 Ry au
 
        Potential amp.        0.0618 Ry
        Total length         46.5341 bohr
 

     total cpu time spent up to now is      420.5 secs

     total energy              =   -1170.35947897 Ry
     Harris-Foulkes estimate   =   -1170.35948634 Ry
     estimated scf accuracy    <       0.00007530 Ry

     iteration # 17     ecut=    36.75 Ry     beta=0.30
     Davidson diagonalization with overlap
     ethr =  5.46E-08,  avg # of iterations =  8.4

     negative rho (up, down):  2.909E-04 0.000E+00
 
     Adding external electric field

     Computed dipole along edir(3) : 
        Dipole               -0.3235 Ry au,         -0.8222 Debye
        Dipole field         -0.0007 Ry au
 
        Potential amp.        0.0618 Ry
        Total length         46.5341 bohr
 

     total cpu time spent up to now is      452.1 secs

     total energy              =   -1170.35949779 Ry
     Harris-Foulkes estimate   =   -1170.35949699 Ry
     estimated scf accuracy    <       0.00001216 Ry

     iteration # 18     ecut=    36.75 Ry     beta=0.30
     Davidson diagonalization with overlap
     ethr =  8.81E-09,  avg # of iterations =  5.7

     negative rho (up, down):  2.900E-04 0.000E+00

     negative rho (up, down):  2.900E-04 0.000E+00

     negative rho (up, down):  2.900E-04 0.000E+00

     negative rho (up, down):  2.900E-04 0.000E+00

     negative rho (up, down):  2.900E-04 0.000E+00

     negative rho (up, down):  2.900E-04 0.000E+00

     negative rho (up, down):  2.900E-04 0.000E+00

     negative rho (up, down):  2.900E-04 0.000E+00

     negative rho (up, down):  2.900E-04 0.000E+00

     negative rho (up, down):  2.900E-04 0.000E+00

     negative rho (up, down):  2.900E-04 0.000E+00

     negative rho (up, down):  2.900E-04 0.000E+00

     negative rho (up, down):  2.900E-04 0.000E+00

     negative rho (up, down):  2.900E-04 0.000E+00

     negative rho (up, down):  2.900E-04 0.000E+00

     negative rho (up, down):  2.900E-04 0.000E+00

     negative rho (up, down):  2.900E-04 0.000E+00

     negative rho (up, down):  2.900E-04 0.000E+00

     negative rho (up, down):  2.900E-04 0.000E+00

     negative rho (up, down):  2.900E-04 0.000E+00

     negative rho (up, down):  2.900E-04 0.000E+00

     negative rho (up, down):  2.900E-04 0.000E+00

     negative rho (up, down):  2.900E-04 0.000E+00

     negative rho (up, down):  2.900E-04 0.000E+00

     negative rho (up, down):  2.900E-04 0.000E+00

     negative rho (up, down):  2.900E-04 0.000E+00

     negative rho (up, down):  2.900E-04 0.000E+00

     negative rho (up, down):  2.900E-04 0.000E+00

     negative rho (up, down):  2.900E-04 0.000E+00

     negative rho (up, down):  2.900E-04 0.000E+00

     negative rho (up, down):  2.900E-04 0.000E+00

     negative rho (up, down):  2.900E-04 0.000E+00

     negative rho (up, down):  2.900E-04 0.000E+00

     negative rho (up, down):  2.900E-04 0.000E+00

     negative rho (up, down):  2.900E-04 0.000E+00
 
     Adding external electric field

     Computed dipole along edir(3) : 
        Dipole               -0.3175 Ry au,         -0.8069 Debye
        Dipole field         -0.0007 Ry au
 
        Potential amp.        0.0607 Ry
        Total length         46.5341 bohr
 

     total cpu time spent up to now is      539.0 secs

     End of self-consistent calculation

          k = 0.0000 0.0000 0.0000 ( 23031 PWs)   bands (ev):

   -49.8196 -49.7078 -49.7018 -49.6712 -49.6708 -49.6650 -49.6600 -49.6598
   -49.2627 -49.2197 -49.2192 -49.2144 -28.5587 -28.4826 -28.4824 -28.4334
   -28.4206 -28.4205 -28.4158 -28.3887 -28.3370 -28.3365 -28.3362 -28.3197
   -28.3117 -28.3114 -28.2018 -28.2017 -28.1879 -28.1607 -28.1606 -28.1602
   -28.0819 -28.0819 -28.0792 -28.0790 -27.9815 -27.9812 -27.9802 -27.8300
   -27.8074 -27.8069 -27.8051 -27.7493 -27.7397 -27.7394 -27.6663 -27.6663
   -16.3276  -4.4909  -3.4085  -2.4363  -2.4363  -2.3896  -1.9231  -1.2491
    -1.2198  -1.2198  -1.1055  -1.1054  -1.0568  -0.7642  -0.7642  -0.5212
    -0.3160  -0.3160  -0.2777  -0.0247   0.0126   0.0127   0.3315   0.7062
     0.8532   0.8645   0.8645   1.0708   1.1285   1.1286   1.3634

          k = 0.0000 0.0299 0.0000 ( 23008 PWs)   bands (ev):

   -49.8190 -49.7048 -49.7004 -49.6732 -49.6709 -49.6664 -49.6616 -49.6598
   -49.2598 -49.2216 -49.2197 -49.2150 -28.5578 -28.4720 -28.4637 -28.4216
   -28.4084 -28.4057 -28.3973 -28.3835 -28.3380 -28.3349 -28.3344 -28.3165
   -28.3151 -28.3125 -28.2173 -28.2054 -28.1916 -28.1741 -28.1735 -28.1553
   -28.1054 -28.0999 -28.0872 -28.0827 -27.9704 -27.9698 -27.9616 -27.8273
   -27.8078 -27.8069 -27.8047 -27.7595 -27.7518 -27.7368 -27.6885 -27.6714
   -16.3270  -4.3369  -3.2768  -2.4673  -2.4269  -2.3283  -1.8011  -1.5744
    -1.2504  -1.2447  -1.1314  -1.0227  -0.9614  -0.6579  -0.6210  -0.4490
    -0.2724  -0.2518  -0.1894   0.0273   0.0598   0.0953   0.3439   0.6469
     0.7421   0.7936   0.7988   1.0222   1.0776   1.0827   1.2500

          k = 0.0000 0.0598 0.0000 ( 22962 PWs)   bands (ev):

   -49.8178 -49.6970 -49.6962 -49.6782 -49.6735 -49.6709 -49.6628 -49.6598
   -49.2517 -49.2293 -49.2197 -49.2154 -28.5560 -28.4475 -28.4165 -28.3935
   -28.3785 -28.3760 -28.3703 -28.3462 -28.3374 -28.3332 -28.3301 -28.3252
   -28.3158 -28.3002 -28.2538 -28.2267 -28.2064 -28.2050 -28.1871 -28.1689
   -28.1526 -28.1411 -28.1016 -28.0907 -27.9432 -27.9425 -27.9072 -27.8212
   -27.8109 -27.8068 -27.8038 -27.7882 -27.7815 -27.7484 -27.7236 -27.6855
   -16.3258  -3.8965  -2.9360  -2.6242  -2.4084  -2.2356  -2.1336  -1.4907
    -1.3350  -1.2581  -1.2281  -0.8372  -0.8061  -0.5499  -0.2832  -0.2550
    -0.1320  -0.0970  -0.0015   0.1686   0.1743   0.2574   0.3148   0.5594
     0.5845   0.5853   0.6177   0.8644   0.8762   0.8987   0.9731

          k = 0.0000-0.0897 0.0000 ( 23032 PWs)   bands (ev):

   -49.8172 -49.6938 -49.6870 -49.6828 -49.6818 -49.6709 -49.6630 -49.6598
   -49.2422 -49.2388 -49.2197 -49.2155 -28.5552 -28.4328 -28.3875 -28.3646
   -28.3585 -28.3583 -28.3536 -28.3513 -28.3387 -28.3287 -28.3272 -28.3187
   -28.3183 -28.2568 -28.2536 -28.2472 -28.2405 -28.2275 -28.2257 -28.1978
   -28.1834 -28.1234 -28.1194 -28.0952 -27.9243 -27.9240 -27.8333 -27.8278
   -27.8156 -27.8136 -27.8130 -27.8031 -27.8014 -27.8008 -27.7054 -27.7038
   -16.3251  -3.2764  -3.2148  -2.5970  -2.4824  -2.3993  -1.9444  -1.7936
    -1.2612  -1.2570  -0.9329  -0.8123  -0.7153  -0.6871  -0.0274  -0.0128
     0.0044   0.0343   0.0636   0.1364   0.3010   0.3101   0.3284   0.4105
     0.4385   0.5123   0.6726   0.7081   0.7355   0.7468   0.8088

          k = 0.0259-0.0149 0.0000 ( 23008 PWs)   bands (ev):

   -49.8190 -49.7048 -49.7004 -49.6729 -49.6712 -49.6665 -49.6613 -49.6600
   -49.2598 -49.2220 -49.2193 -49.2151 -28.5578 -28.4718 -28.4638 -28.4216
   -28.4083 -28.4058 -28.3973 -28.3835 -28.3379 -28.3347 -28.3346 -28.3165
   -28.3149 -28.3127 -28.2173 -28.2056 -28.1913 -28.1740 -28.1736 -28.1553
   -28.1054 -28.0997 -28.0872 -28.0829 -27.9707 -27.9695 -27.9616 -27.8273
   -27.8080 -27.8064 -27.8049 -27.7594 -27.7520 -27.7367 -27.6885 -27.6714
   -16.3270  -4.3369  -3.2768  -2.4673  -2.4269  -2.3283  -1.8011  -1.5744
    -1.2504  -1.2447  -1.1314  -1.0227  -0.9614  -0.6579  -0.6210  -0.4490
    -0.2723  -0.2519  -0.1894   0.0273   0.0599   0.0953   0.3439   0.6469
     0.7421   0.7936   0.7988   1.0222   1.0776   1.0827   1.2500

          k = 0.0259 0.0149 0.0000 ( 23008 PWs)   bands (ev):

   -49.8190 -49.7048 -49.7004 -49.6730 -49.6710 -49.6664 -49.6615 -49.6598
   -49.2598 -49.2219 -49.2194 -49.2150 -28.5578 -28.4719 -28.4638 -28.4216
   -28.4083 -28.4057 -28.3973 -28.3835 -28.3379 -28.3348 -28.3345 -28.3165
   -28.3150 -28.3126 -28.2173 -28.2055 -28.1914 -28.1740 -28.1735 -28.1553
   -28.1054 -28.0998 -28.0872 -28.0828 -27.9706 -27.9696 -27.9616 -27.8273
   -27.8080 -27.8066 -27.8048 -27.7594 -27.7519 -27.7368 -27.6885 -27.6714
   -16.3270  -4.3369  -3.2768  -2.4673  -2.4269  -2.3283  -1.8011  -1.5744
    -1.2504  -1.2447  -1.1314  -1.0227  -0.9614  -0.6579  -0.6210  -0.4490
    -0.2723  -0.2519  -0.1894   0.0273   0.0598   0.0953   0.3439   0.6469
     0.7421   0.7936   0.7988   1.0222   1.0776   1.0827   1.2500

          k = 0.0259 0.0448 0.0000 ( 23004 PWs)   bands (ev):

   -49.8181 -49.6992 -49.6977 -49.6769 -49.6708 -49.6694 -49.6657 -49.6583
   -49.2542 -49.2249 -49.2227 -49.2143 -28.5565 -28.4527 -28.4308 -28.4026
   -28.3913 -28.3755 -28.3694 -28.3665 -28.3397 -28.3368 -28.3297 -28.3249
   -28.3140 -28.3035 -28.2508 -28.2150 -28.2033 -28.2010 -28.1625 -28.1621
   -28.1476 -28.1338 -28.0983 -28.0906 -27.9560 -27.9362 -27.9336 -27.8229
   -27.8093 -27.8077 -27.8035 -27.7937 -27.7466 -27.7410 -27.7284 -27.6822
   -16.3261  -4.0391  -3.0367  -2.5055  -2.4481  -2.2264  -1.8369  -1.8014
    -1.5112  -1.1719  -1.1235  -0.8890  -0.7348  -0.5116  -0.4652  -0.3413
    -0.1838  -0.1273  -0.0485   0.1197   0.1621   0.2155   0.3217   0.5782
     0.5992   0.6068   0.7564   0.8990   0.9271   0.9813   0.9835

          k = 0.0259-0.1046 0.0000 ( 23012 PWs)   bands (ev):

   -49.8172 -49.6934 -49.6895 -49.6825 -49.6774 -49.6706 -49.6687 -49.6570
   -49.2448 -49.2333 -49.2250 -49.2131 -28.5552 -28.4257 -28.3871 -28.3751
   -28.3628 -28.3591 -28.3488 -28.3434 -28.3398 -28.3316 -28.3243 -28.3167
   -28.3026 -28.2977 -28.2698 -28.2617 -28.2326 -28.2182 -28.1930 -28.1810
   -28.1764 -28.1421 -28.1184 -28.1007 -27.9273 -27.9062 -27.8719 -27.8395
   -27.8170 -27.8121 -27.8079 -27.8023 -27.7943 -27.7615 -27.7243 -27.7018
   -16.3251  -3.4884  -2.8298  -2.6496  -2.4759  -2.3504  -2.0198  -1.8971
    -1.5672  -1.1560  -1.0091  -0.6897  -0.5593  -0.4754  -0.2174  -0.1608
    -0.0185   0.0139   0.1132   0.1914   0.2594   0.3147   0.3715   0.4526
     0.5052   0.5537   0.5800   0.7037   0.7214   0.7611   0.7999

          k = 0.0259-0.0747 0.0000 ( 23012 PWs)   bands (ev):

   -49.8172 -49.6935 -49.6895 -49.6824 -49.6775 -49.6706 -49.6687 -49.6570
   -49.2448 -49.2333 -49.2249 -49.2131 -28.5552 -28.4257 -28.3871 -28.3751
   -28.3628 -28.3591 -28.3488 -28.3434 -28.3398 -28.3316 -28.3243 -28.3167
   -28.3026 -28.2977 -28.2699 -28.2617 -28.2325 -28.2182 -28.1930 -28.1810
   -28.1764 -28.1421 -28.1184 -28.1007 -27.9273 -27.9062 -27.8719 -27.8395
   -27.8170 -27.8121 -27.8078 -27.8024 -27.7944 -27.7615 -27.7243 -27.7017
   -16.3251  -3.4884  -2.8298  -2.6496  -2.4759  -2.3504  -2.0198  -1.8971
    -1.5672  -1.1560  -1.0091  -0.6897  -0.5593  -0.4754  -0.2174  -0.1608
    -0.0185   0.0139   0.1133   0.1914   0.2594   0.3147   0.3715   0.4526
     0.5052   0.5536   0.5800   0.7037   0.7214   0.7611   0.7999

          k = 0.0259-0.0448 0.0000 ( 23004 PWs)   bands (ev):

   -49.8181 -49.6992 -49.6977 -49.6768 -49.6709 -49.6695 -49.6656 -49.6584
   -49.2542 -49.2251 -49.2225 -49.2143 -28.5565 -28.4526 -28.4308 -28.4026
   -28.3913 -28.3755 -28.3694 -28.3664 -28.3397 -28.3368 -28.3297 -28.3248
   -28.3140 -28.3035 -28.2509 -28.2150 -28.2033 -28.2009 -28.1624 -28.1621
   -28.1476 -28.1337 -28.0983 -28.0907 -27.9560 -27.9361 -27.9336 -27.8229
   -27.8095 -27.8076 -27.8036 -27.7937 -27.7466 -27.7409 -27.7284 -27.6822
   -16.3261  -4.0391  -3.0367  -2.5055  -2.4481  -2.2264  -1.8369  -1.8014
    -1.5112  -1.1719  -1.1235  -0.8890  -0.7348  -0.5116  -0.4652  -0.3413
    -0.1838  -0.1274  -0.0485   0.1196   0.1621   0.2155   0.3217   0.5782
     0.5992   0.6068   0.7564   0.8990   0.9271   0.9813   0.9836

          k = 0.0518-0.0299 0.0000 ( 22962 PWs)   bands (ev):

   -49.8178 -49.6971 -49.6962 -49.6778 -49.6736 -49.6712 -49.6626 -49.6600
   -49.2517 -49.2295 -49.2193 -49.2157 -28.5560 -28.4473 -28.4167 -28.3936
   -28.3783 -28.3762 -28.3703 -28.3461 -28.3373 -28.3330 -28.3304 -28.3249
   -28.3160 -28.3004 -28.2539 -28.2269 -28.2062 -28.2052 -28.1867 -28.1688
   -28.1523 -28.1410 -28.1016 -28.0910 -27.9436 -27.9422 -27.9072 -27.8212
   -27.8110 -27.8063 -27.8041 -27.7879 -27.7818 -27.7485 -27.7236 -27.6854
   -16.3258  -3.8965  -2.9359  -2.6242  -2.4084  -2.2355  -2.1336  -1.4907
    -1.3350  -1.2581  -1.2282  -0.8373  -0.8061  -0.5499  -0.2832  -0.2549
    -0.1320  -0.0970  -0.0015   0.1687   0.1743   0.2574   0.3147   0.5594
     0.5844   0.5854   0.6176   0.8644   0.8763   0.8987   0.9731

          k = 0.0518 0.0000 0.0000 ( 23004 PWs)   bands (ev):

   -49.8181 -49.6992 -49.6978 -49.6766 -49.6710 -49.6696 -49.6655 -49.6584
   -49.2542 -49.2253 -49.2221 -49.2144 -28.5565 -28.4526 -28.4308 -28.4027
   -28.3913 -28.3755 -28.3694 -28.3664 -28.3396 -28.3367 -28.3298 -28.3246
   -28.3142 -28.3036 -28.2511 -28.2150 -28.2032 -28.2008 -28.1624 -28.1621
   -28.1476 -28.1336 -28.0983 -28.0908 -27.9560 -27.9360 -27.9337 -27.8230
   -27.8097 -27.8072 -27.8036 -27.7937 -27.7467 -27.7408 -27.7284 -27.6822
   -16.3261  -4.0391  -3.0367  -2.5055  -2.4482  -2.2264  -1.8370  -1.8013
    -1.5112  -1.1719  -1.1235  -0.8890  -0.7348  -0.5116  -0.4652  -0.3413
    -0.1838  -0.1274  -0.0485   0.1196   0.1621   0.2155   0.3217   0.5782
     0.5992   0.6068   0.7564   0.8990   0.9271   0.9813   0.9836

          k = 0.0518 0.0299 0.0000 ( 22962 PWs)   bands (ev):

   -49.8178 -49.6971 -49.6962 -49.6780 -49.6735 -49.6711 -49.6627 -49.6599
   -49.2517 -49.2294 -49.2194 -49.2156 -28.5560 -28.4474 -28.4166 -28.3936
   -28.3784 -28.3761 -28.3703 -28.3462 -28.3373 -28.3331 -28.3303 -28.3250
   -28.3159 -28.3003 -28.2538 -28.2268 -28.2063 -28.2051 -28.1868 -28.1688
   -28.1524 -28.1411 -28.1016 -28.0909 -27.9435 -27.9423 -27.9072 -27.8212
   -27.8110 -27.8065 -27.8040 -27.7881 -27.7817 -27.7484 -27.7236 -27.6855
   -16.3258  -3.8965  -2.9359  -2.6242  -2.4084  -2.2356  -2.1336  -1.4907
    -1.3350  -1.2581  -1.2282  -0.8373  -0.8061  -0.5499  -0.2832  -0.2549
    -0.1320  -0.0970  -0.0015   0.1687   0.1743   0.2574   0.3148   0.5594
     0.5844   0.5853   0.6176   0.8644   0.8762   0.8987   0.9731

          k = 0.0518-0.1196 0.0000 ( 23012 PWs)   bands (ev):

   -49.8172 -49.6935 -49.6895 -49.6823 -49.6775 -49.6707 -49.6687 -49.6570
   -49.2448 -49.2334 -49.2249 -49.2132 -28.5552 -28.4256 -28.3872 -28.3751
   -28.3628 -28.3591 -28.3488 -28.3434 -28.3397 -28.3316 -28.3243 -28.3168
   -28.3027 -28.2977 -28.2697 -28.2617 -28.2328 -28.2183 -28.1928 -28.1809
   -28.1763 -28.1421 -28.1184 -28.1008 -27.9273 -27.9062 -27.8719 -27.8394
   -27.8170 -27.8122 -27.8078 -27.8023 -27.7944 -27.7615 -27.7243 -27.7017
   -16.3251  -3.4884  -2.8298  -2.6495  -2.4759  -2.3504  -2.0198  -1.8971
    -1.5672  -1.1560  -1.0091  -0.6897  -0.5593  -0.4754  -0.2174  -0.1608
    -0.0185   0.0139   0.1132   0.1915   0.2594   0.3147   0.3715   0.4526
     0.5052   0.5536   0.5800   0.7037   0.7214   0.7610   0.7999

          k = 0.0518-0.0897 0.0000 ( 23028 PWs)   bands (ev):

   -49.8169 -49.6884 -49.6880 -49.6828 -49.6773 -49.6770 -49.6704 -49.6555
   -49.2366 -49.2361 -49.2318 -49.2118 -28.5548 -28.3910 -28.3893 -28.3669
   -28.3567 -28.3522 -28.3484 -28.3440 -28.3213 -28.3209 -28.3191 -28.3128
   -28.3045 -28.2803 -28.2789 -28.2785 -28.2625 -28.2558 -28.1883 -28.1841
   -28.1495 -28.1494 -28.1456 -28.1105 -27.8903 -27.8901 -27.8585 -27.8517
   -27.8501 -27.8129 -27.8113 -27.8103 -27.8015 -27.7322 -27.7319 -27.7266
   -16.3248  -2.9390  -2.8803  -2.8684  -2.4189  -2.3823  -2.3407  -1.7128
    -1.5860  -1.5459  -0.6274  -0.5978  -0.4077  -0.3318  -0.3159  -0.2575
     0.0668   0.0880   0.2161   0.2194   0.2667   0.3641   0.4106   0.4427
     0.4829   0.4870   0.5193   0.5995   0.6601   0.7291   0.7554

          k = 0.0518-0.0598 0.0000 ( 23012 PWs)   bands (ev):

   -49.8172 -49.6936 -49.6894 -49.6821 -49.6775 -49.6707 -49.6686 -49.6570
   -49.2447 -49.2335 -49.2247 -49.2132 -28.5552 -28.4256 -28.3872 -28.3752
   -28.3628 -28.3591 -28.3488 -28.3433 -28.3397 -28.3315 -28.3244 -28.3168
   -28.3028 -28.2978 -28.2698 -28.2617 -28.2328 -28.2183 -28.1927 -28.1809
   -28.1762 -28.1420 -28.1184 -28.1009 -27.9273 -27.9061 -27.8719 -27.8394
   -27.8170 -27.8122 -27.8077 -27.8024 -27.7944 -27.7615 -27.7243 -27.7017
   -16.3251  -3.4884  -2.8298  -2.6495  -2.4759  -2.3504  -2.0198  -1.8971
    -1.5672  -1.1560  -1.0091  -0.6897  -0.5593  -0.4754  -0.2174  -0.1608
    -0.0185   0.0139   0.1132   0.1915   0.2594   0.3147   0.3715   0.4526
     0.5053   0.5536   0.5800   0.7037   0.7214   0.7611   0.7999

          k =-0.0777 0.0448 0.0000 ( 23032 PWs)   bands (ev):

   -49.8172 -49.6941 -49.6869 -49.6830 -49.6812 -49.6712 -49.6628 -49.6600
   -49.2417 -49.2394 -49.2193 -49.2159 -28.5552 -28.4326 -28.3878 -28.3646
   -28.3584 -28.3583 -28.3537 -28.3512 -28.3383 -28.3285 -28.3274 -28.3190
   -28.3186 -28.2568 -28.2537 -28.2474 -28.2408 -28.2273 -28.2259 -28.1972
   -28.1830 -28.1232 -28.1196 -28.0955 -27.9247 -27.9236 -27.8329 -27.8283
   -27.8153 -27.8133 -27.8131 -27.8033 -27.8013 -27.8010 -27.7058 -27.7033
   -16.3251  -3.2763  -3.2149  -2.5970  -2.4824  -2.3994  -1.9444  -1.7936
    -1.2613  -1.2570  -0.9328  -0.8124  -0.7154  -0.6870  -0.0273  -0.0128
     0.0044   0.0343   0.0636   0.1364   0.3010   0.3101   0.3284   0.4105
     0.4384   0.5123   0.6724   0.7082   0.7356   0.7469   0.8088

          k =-0.0777 0.0747 0.0000 ( 23012 PWs)   bands (ev):

   -49.8172 -49.6937 -49.6894 -49.6820 -49.6776 -49.6708 -49.6686 -49.6570
   -49.2447 -49.2336 -49.2247 -49.2132 -28.5552 -28.4256 -28.3872 -28.3752
   -28.3628 -28.3591 -28.3488 -28.3432 -28.3397 -28.3315 -28.3244 -28.3169
   -28.3028 -28.2978 -28.2700 -28.2617 -28.2326 -28.2182 -28.1926 -28.1810
   -28.1762 -28.1420 -28.1184 -28.1009 -27.9273 -27.9061 -27.8719 -27.8394
   -27.8170 -27.8122 -27.8076 -27.8024 -27.7945 -27.7615 -27.7243 -27.7017
   -16.3251  -3.4884  -2.8298  -2.6495  -2.4759  -2.3504  -2.0198  -1.8971
    -1.5672  -1.1560  -1.0091  -0.6897  -0.5593  -0.4754  -0.2174  -0.1608
    -0.0185   0.0139   0.1133   0.1915   0.2594   0.3147   0.3715   0.4526
     0.5053   0.5535   0.5800   0.7037   0.7214   0.7611   0.7999

          k =-0.0777 0.1046 0.0000 ( 23012 PWs)   bands (ev):

   -49.8172 -49.6936 -49.6895 -49.6821 -49.6775 -49.6707 -49.6686 -49.6570
   -49.2447 -49.2335 -49.2248 -49.2132 -28.5552 -28.4256 -28.3871 -28.3751
   -28.3628 -28.3591 -28.3488 -28.3433 -28.3397 -28.3316 -28.3244 -28.3168
   -28.3028 -28.2978 -28.2700 -28.2617 -28.2324 -28.2182 -28.1928 -28.1810
   -28.1763 -28.1421 -28.1184 -28.1009 -27.9273 -27.9061 -27.8719 -27.8395
   -27.8170 -27.8122 -27.8077 -27.8024 -27.7944 -27.7615 -27.7243 -27.7017
   -16.3251  -3.4884  -2.8298  -2.6495  -2.4759  -2.3504  -2.0198  -1.8971
    -1.5672  -1.1560  -1.0091  -0.6897  -0.5593  -0.4754  -0.2174  -0.1608
    -0.0185   0.0139   0.1133   0.1915   0.2594   0.3147   0.3715   0.4526
     0.5053   0.5536   0.5800   0.7037   0.7214   0.7611   0.7999

          k =-0.0777-0.0448 0.0000 ( 23032 PWs)   bands (ev):

   -49.8172 -49.6940 -49.6870 -49.6829 -49.6814 -49.6711 -49.6629 -49.6599
   -49.2419 -49.2391 -49.2194 -49.2157 -28.5552 -28.4327 -28.3877 -28.3646
   -28.3585 -28.3583 -28.3536 -28.3512 -28.3385 -28.3286 -28.3273 -28.3189
   -28.3184 -28.2568 -28.2536 -28.2473 -28.2407 -28.2275 -28.2257 -28.1974
   -28.1831 -28.1233 -28.1195 -28.0954 -27.9245 -27.9238 -27.8331 -27.8281
   -27.8154 -27.8133 -27.8131 -27.8032 -27.8011 -27.8011 -27.7057 -27.7035
   -16.3251  -3.2764  -3.2149  -2.5970  -2.4824  -2.3994  -1.9444  -1.7936
    -1.2612  -1.2570  -0.9328  -0.8123  -0.7154  -0.6871  -0.0274  -0.0128
     0.0044   0.0343   0.0636   0.1364   0.3010   0.3101   0.3284   0.4105
     0.4385   0.5123   0.6725   0.7082   0.7355   0.7468   0.8088

     the Fermi energy is     0.2397 ev

!    total energy              =   -1170.35949743 Ry
     Harris-Foulkes estimate   =   -1170.35950679 Ry
     estimated scf accuracy    <       0.00000386 Ry

     The total energy is the sum of the following terms:

     one-electron contribution =   -7437.25300701 Ry
     hartree contribution      =    3702.69407113 Ry
     xc contribution           =    -173.90078556 Ry
     ewald contribution        =    2738.22608802 Ry
     electric field correction =       0.00020703 Ry
     smearing contrib. (-TS)   =      -0.12607104 Ry

     convergence has been achieved in  18 iterations
 
 BEEF-vdW xc energy contributions
           1 :   -147.387595742317     
           2 :    129.566991878256     
           3 :   -101.817303732935     
           4 :    74.8590294495270     
           5 :   -56.1766424170025     
           6 :    47.0575888719364     
           7 :   -43.9404802854885     
           8 :    42.1651668518999     
           9 :   -39.1255987212630     
          10 :    35.0104921920841     
          11 :   -31.4069051272822     
          12 :    29.3795504446632     
          13 :   -28.5710873580117     
          14 :    27.7548637854460     
          15 :   -26.0720605707403     
          16 :    23.7592655486729     
          17 :   -21.7880248784457     
          18 :    20.8764599849408     
          19 :   -20.8426210840449     
          20 :    20.8377967169206     
          21 :   -20.1469438510493     
          22 :    18.7830640257056     
          23 :   -17.3835536142364     
          24 :    16.5804891500413     
          25 :   -16.4502818092100     
          26 :    16.5088539311175     
          27 :   -16.1984662123555     
          28 :    15.3880391602189     
          29 :   -14.4412820375726     
          30 :    13.8329666967063     
          31 :   -17.3533555379317     
          32 :   -12.3830936713439     

     Forces acting on atoms (Ry/au):


     negative rho (up, down):  2.900E-04 0.000E+00
     atom    1 type  1   force =     0.00012385    0.00012615    0.00188718
     atom    2 type  1   force =    -0.00012050    0.00010740    0.00193838
     atom    3 type  1   force =    -0.00001788   -0.00018587    0.00187282
     atom    4 type  1   force =     0.00001601   -0.00005156    0.00156898
     atom    5 type  1   force =    -0.00001020   -0.00322270    0.00471790
     atom    6 type  1   force =     0.00001150    0.00001599   -0.01560398
     atom    7 type  1   force =     0.00280675    0.00160585    0.00470900
     atom    8 type  1   force =    -0.00280010    0.00159663    0.00472749
     atom    9 type  1   force =    -0.00000662    0.00004118   -0.01076624
     atom   10 type  1   force =     0.00000418    0.05385456    0.05268794
     atom   11 type  1   force =     0.04661024   -0.02694739    0.05265472
     atom   12 type  1   force =    -0.04661016   -0.02695353    0.05266592
     atom   13 type  2   force =    -0.00000706    0.00001329   -0.15306010

     Total force =     0.201404     Total SCF correction =     0.001821


     entering subroutine stress ...


     negative rho (up, down):  2.900E-04 0.000E+00
          total   stress  (Ry/bohr**3)                   (kbar)     P=   -4.99
  -0.00000729   0.00000000   0.00000001         -1.07      0.00      0.00
   0.00000000  -0.00000729  -0.00000000          0.00     -1.07     -0.00
   0.00000001  -0.00000000  -0.00008715          0.00     -0.00    -12.82


     BFGS Geometry Optimization

     number of scf cycles    =   1
     number of bfgs steps    =   0

     energy   new            =   -1170.3594974291 Ry

     new trust radius        =       0.1530601050 bohr
     new conv_thr            =       0.0000099958 Ry


ATOMIC_POSITIONS (crystal)
Sc1      0.166666667   0.166666667   0.395942884    0   0   0
Sc1      0.666666667   0.166666667   0.395942884    0   0   0
Sc1      0.166666667   0.666666667   0.395942884    0   0   0
Sc1      0.666666667   0.666666667   0.395942884    0   0   0
Sc1      0.833333333   0.333333333   0.500000000    0   0   0
Sc1      0.333333333   0.333333333   0.500000000    0   0   0
Sc1      0.833333333   0.833333333   0.500000000    0   0   0
Sc1      0.333333333   0.833333333   0.500000000    0   0   0
Sc1     -0.000002498   0.000003909   0.603831537
Sc1      0.497444419   0.005111850   0.605161054
Sc1      0.005110406   0.497442166   0.605160358
Sc1      0.497447726   0.497441583   0.605160593
O1       0.333332123   0.333334595   0.661587778



     Writing output data file calc.save
     Check: negative starting charge=   -0.000421
     NEW-OLD atomic charge density approx. for the potential
     Check: negative starting charge=   -0.000416

     negative rho (up, down):  6.616E-04 0.000E+00
 
     Adding external electric field

     Computed dipole along edir(3) : 
        Dipole               -0.3171 Ry au,         -0.8060 Debye
        Dipole field         -0.0007 Ry au
 
        Potential amp.        0.0606 Ry
        Total length         46.5341 bohr
 

     total cpu time spent up to now is      638.7 secs

     per-process dynamical memory:    86.2 Mb

     Self-consistent Calculation

     iteration #  1     ecut=    36.75 Ry     beta=0.30
     Davidson diagonalization with overlap
     ethr =  1.00E-06,  avg # of iterations = 16.4

     negative rho (up, down):  3.953E-04 0.000E+00
 
     Adding external electric field

     Computed dipole along edir(3) : 
        Dipole               -0.0609 Ry au,         -0.1548 Debye
        Dipole field         -0.0001 Ry au
 
        Potential amp.        0.0116 Ry
        Total length         46.5341 bohr
 

     total cpu time spent up to now is      684.5 secs

     total energy              =   -1170.39527512 Ry
     Harris-Foulkes estimate   =   -1170.39999970 Ry
     estimated scf accuracy    <       0.01055332 Ry

     iteration #  2     ecut=    36.75 Ry     beta=0.30
     Davidson diagonalization with overlap
     ethr =  7.65E-06,  avg # of iterations =  8.8

     negative rho (up, down):  3.299E-04 0.000E+00
 
     Adding external electric field

     Computed dipole along edir(3) : 
        Dipole               -0.2781 Ry au,         -0.7068 Debye
        Dipole field         -0.0006 Ry au
 
        Potential amp.        0.0532 Ry
        Total length         46.5341 bohr
 

     total cpu time spent up to now is      715.9 secs

     total energy              =   -1170.36526599 Ry
     Harris-Foulkes estimate   =   -1170.42956756 Ry
     estimated scf accuracy    <       2.93545739 Ry

     iteration #  3     ecut=    36.75 Ry     beta=0.30
     Davidson diagonalization with overlap
     ethr =  7.65E-06,  avg # of iterations = 10.1

     negative rho (up, down):  3.078E-04 0.000E+00
 
     Adding external electric field

     Computed dipole along edir(3) : 
        Dipole               -0.2551 Ry au,         -0.6484 Debye
        Dipole field         -0.0005 Ry au
 
        Potential amp.        0.0488 Ry
        Total length         46.5341 bohr
 

     total cpu time spent up to now is      748.3 secs

     total energy              =   -1170.39685690 Ry
     Harris-Foulkes estimate   =   -1170.39866546 Ry
     estimated scf accuracy    <       0.01525555 Ry

     iteration #  4     ecut=    36.75 Ry     beta=0.30
     Davidson diagonalization with overlap
     ethr =  7.65E-06,  avg # of iterations =  8.8

     negative rho (up, down):  2.967E-04 0.000E+00
 
     Adding external electric field

     Computed dipole along edir(3) : 
        Dipole               -0.2437 Ry au,         -0.6195 Debye
        Dipole field         -0.0005 Ry au
 
        Potential amp.        0.0466 Ry
        Total length         46.5341 bohr
 

     total cpu time spent up to now is      777.1 secs

     total energy              =   -1170.39695173 Ry
     Harris-Foulkes estimate   =   -1170.39893419 Ry
     estimated scf accuracy    <       0.01952921 Ry

     iteration #  5     ecut=    36.75 Ry     beta=0.30
     Davidson diagonalization with overlap
     ethr =  7.65E-06,  avg # of iterations =  6.8

     negative rho (up, down):  2.561E-04 0.000E+00
 
     Adding external electric field

     Computed dipole along edir(3) : 
        Dipole               -0.2406 Ry au,         -0.6116 Debye
        Dipole field         -0.0005 Ry au
 
        Potential amp.        0.0460 Ry
        Total length         46.5341 bohr
 

     total cpu time spent up to now is      803.6 secs

     total energy              =   -1170.39773250 Ry
     Harris-Foulkes estimate   =   -1170.39796653 Ry
     estimated scf accuracy    <       0.00108367 Ry

     iteration #  6     ecut=    36.75 Ry     beta=0.30
     Davidson diagonalization with overlap
     ethr =  7.85E-07,  avg # of iterations =  7.8

     negative rho (up, down):  2.456E-04 0.000E+00
 
     Adding external electric field

     Computed dipole along edir(3) : 
        Dipole               -0.2386 Ry au,         -0.6065 Debye
        Dipole field         -0.0005 Ry au
 
        Potential amp.        0.0456 Ry
        Total length         46.5341 bohr
 

     total cpu time spent up to now is      832.6 secs

     total energy              =   -1170.39793865 Ry
     Harris-Foulkes estimate   =   -1170.39801515 Ry
     estimated scf accuracy    <       0.00052451 Ry

     iteration #  7     ecut=    36.75 Ry     beta=0.30
     Davidson diagonalization with overlap
     ethr =  3.80E-07,  avg # of iterations =  6.6

     negative rho (up, down):  2.495E-04 0.000E+00
 
     Adding external electric field

     Computed dipole along edir(3) : 
        Dipole               -0.2366 Ry au,         -0.6013 Debye
        Dipole field         -0.0005 Ry au
 
        Potential amp.        0.0452 Ry
        Total length         46.5341 bohr
 

     total cpu time spent up to now is      858.9 secs

     total energy              =   -1170.39796832 Ry
     Harris-Foulkes estimate   =   -1170.39799627 Ry
     estimated scf accuracy    <       0.00021280 Ry

     iteration #  8     ecut=    36.75 Ry     beta=0.30
     Davidson diagonalization with overlap
     ethr =  1.54E-07,  avg # of iterations =  6.2

     negative rho (up, down):  2.577E-04 0.000E+00
 
     Adding external electric field

     Computed dipole along edir(3) : 
        Dipole               -0.2361 Ry au,         -0.6001 Debye
        Dipole field         -0.0005 Ry au
 
        Potential amp.        0.0451 Ry
        Total length         46.5341 bohr
 

     total cpu time spent up to now is      887.3 secs

     total energy              =   -1170.39799265 Ry
     Harris-Foulkes estimate   =   -1170.39799384 Ry
     estimated scf accuracy    <       0.00003247 Ry

     iteration #  9     ecut=    36.75 Ry     beta=0.30
     Davidson diagonalization with overlap
     ethr =  2.35E-08,  avg # of iterations =  8.8

     negative rho (up, down):  2.663E-04 0.000E+00
 
     Adding external electric field

     Computed dipole along edir(3) : 
        Dipole               -0.2370 Ry au,         -0.6023 Debye
        Dipole field         -0.0005 Ry au
 
        Potential amp.        0.0453 Ry
        Total length         46.5341 bohr
 

     total cpu time spent up to now is      917.1 secs

     total energy              =   -1170.39799539 Ry
     Harris-Foulkes estimate   =   -1170.39799582 Ry
     estimated scf accuracy    <       0.00001433 Ry

     iteration # 10     ecut=    36.75 Ry     beta=0.30
     Davidson diagonalization with overlap
     ethr =  1.04E-08,  avg # of iterations =  5.3

     negative rho (up, down):  2.921E-04 0.000E+00

     negative rho (up, down):  2.921E-04 0.000E+00

     negative rho (up, down):  2.921E-04 0.000E+00

     negative rho (up, down):  2.921E-04 0.000E+00

     negative rho (up, down):  2.921E-04 0.000E+00

     negative rho (up, down):  2.921E-04 0.000E+00

     negative rho (up, down):  2.921E-04 0.000E+00

     negative rho (up, down):  2.921E-04 0.000E+00

     negative rho (up, down):  2.921E-04 0.000E+00

     negative rho (up, down):  2.921E-04 0.000E+00

     negative rho (up, down):  2.921E-04 0.000E+00

     negative rho (up, down):  2.921E-04 0.000E+00

     negative rho (up, down):  2.921E-04 0.000E+00

     negative rho (up, down):  2.921E-04 0.000E+00

     negative rho (up, down):  2.921E-04 0.000E+00

     negative rho (up, down):  2.921E-04 0.000E+00

     negative rho (up, down):  2.921E-04 0.000E+00

     negative rho (up, down):  2.921E-04 0.000E+00

     negative rho (up, down):  2.921E-04 0.000E+00

     negative rho (up, down):  2.921E-04 0.000E+00

     negative rho (up, down):  2.921E-04 0.000E+00

     negative rho (up, down):  2.921E-04 0.000E+00

     negative rho (up, down):  2.921E-04 0.000E+00

     negative rho (up, down):  2.921E-04 0.000E+00

     negative rho (up, down):  2.921E-04 0.000E+00

     negative rho (up, down):  2.921E-04 0.000E+00

     negative rho (up, down):  2.921E-04 0.000E+00

     negative rho (up, down):  2.921E-04 0.000E+00

     negative rho (up, down):  2.921E-04 0.000E+00

     negative rho (up, down):  2.921E-04 0.000E+00

     negative rho (up, down):  2.921E-04 0.000E+00

     negative rho (up, down):  2.921E-04 0.000E+00

     negative rho (up, down):  2.921E-04 0.000E+00

     negative rho (up, down):  2.921E-04 0.000E+00

     negative rho (up, down):  2.921E-04 0.000E+00
 
     Adding external electric field

     Computed dipole along edir(3) : 
        Dipole               -0.2397 Ry au,         -0.6093 Debye
        Dipole field         -0.0005 Ry au
 
        Potential amp.        0.0458 Ry
        Total length         46.5341 bohr
 

     total cpu time spent up to now is     1007.6 secs

     End of self-consistent calculation

          k = 0.0000 0.0000 0.0000 ( 23031 PWs)   bands (ev):

   -49.7193 -49.6267 -49.6174 -49.5966 -49.5955 -49.5740 -49.5707 -49.5693
   -49.1922 -49.1528 -49.1504 -49.1312 -28.4580 -28.3960 -28.3955 -28.3645
   -28.3307 -28.3300 -28.3277 -28.3009 -28.2568 -28.2527 -28.2515 -28.2397
   -28.2287 -28.2275 -28.1171 -28.1169 -28.1139 -28.0709 -28.0704 -28.0701
   -28.0049 -28.0042 -27.9918 -27.9918 -27.9090 -27.9081 -27.9067 -27.7610
   -27.7409 -27.7387 -27.7183 -27.6808 -27.6646 -27.6633 -27.5927 -27.5927
   -16.6471  -4.4041  -3.3578  -2.7690  -2.7689  -2.5736  -1.8906  -1.1575
    -1.1310  -1.1309  -1.0212  -1.0211  -0.9684  -0.6845  -0.6845  -0.4233
    -0.2239  -0.2237  -0.1822   0.0653   0.1035   0.1038   0.4192   0.7653
     0.9373   0.9531   0.9531   1.1528   1.1924   1.1924   1.4546

          k = 0.0000 0.0299 0.0000 ( 23008 PWs)   bands (ev):

   -49.7185 -49.6256 -49.6144 -49.5974 -49.5965 -49.5758 -49.5707 -49.5705
   -49.1893 -49.1548 -49.1504 -49.1320 -28.4569 -28.3844 -28.3775 -28.3518
   -28.3176 -28.3168 -28.3077 -28.2957 -28.2543 -28.2510 -28.2502 -28.2406
   -28.2313 -28.2296 -28.1327 -28.1270 -28.1116 -28.0839 -28.0837 -28.0652
   -28.0251 -28.0154 -28.0086 -27.9971 -27.8972 -27.8969 -27.8887 -27.7583
   -27.7414 -27.7381 -27.7182 -27.6898 -27.6768 -27.6618 -27.6149 -27.5979
   -16.6463  -4.2521  -3.2437  -2.7799  -2.7608  -2.5144  -1.7544  -1.4960
    -1.1621  -1.1565  -1.0525  -0.9398  -0.8749  -0.5736  -0.5387  -0.3545
    -0.1843  -0.1603  -0.0913   0.1197   0.1507   0.1887   0.4304   0.7079
     0.8281   0.8803   0.8881   1.0994   1.1465   1.1490   1.3490

          k = 0.0000 0.0598 0.0000 ( 22962 PWs)   bands (ev):

   -49.7169 -49.6228 -49.6061 -49.6019 -49.5966 -49.5833 -49.5715 -49.5707
   -49.1816 -49.1611 -49.1504 -49.1335 -28.4548 -28.3581 -28.3367 -28.3149
   -28.2875 -28.2874 -28.2820 -28.2592 -28.2514 -28.2476 -28.2448 -28.2370
   -28.2328 -28.2322 -28.1725 -28.1524 -28.1158 -28.1158 -28.1040 -28.0803
   -28.0757 -28.0509 -28.0172 -28.0115 -27.8702 -27.8697 -27.8345 -27.7525
   -27.7434 -27.7378 -27.7180 -27.7179 -27.7064 -27.6743 -27.6497 -27.6119
   -16.6447  -3.8211  -2.9987  -2.8083  -2.7445  -2.3362  -2.1648  -1.4244
    -1.2755  -1.1712  -1.1479  -0.7553  -0.7205  -0.4672  -0.1981  -0.1639
    -0.0473  -0.0061   0.0938   0.2599   0.2721   0.3402   0.4086   0.6320
     0.6715   0.6751   0.7057   0.9252   0.9562   0.9755   1.0633

          k = 0.0000-0.0897 0.0000 ( 23032 PWs)   bands (ev):

   -49.7161 -49.6207 -49.6048 -49.5966 -49.5956 -49.5937 -49.5716 -49.5707
   -49.1728 -49.1693 -49.1504 -49.1342 -28.4538 -28.3418 -28.3172 -28.2743
   -28.2719 -28.2673 -28.2657 -28.2613 -28.2497 -28.2463 -28.2440 -28.2373
   -28.2338 -28.1921 -28.1678 -28.1640 -28.1636 -28.1370 -28.1369 -28.1162
   -28.0995 -28.0319 -28.0308 -28.0219 -27.8523 -27.8502 -27.7629 -27.7559
   -27.7466 -27.7434 -27.7431 -27.7326 -27.7231 -27.7175 -27.6323 -27.6296
   -16.6439  -3.2762  -3.1585  -2.7365  -2.7324  -2.6391  -1.9575  -1.7978
    -1.1735  -1.1707  -0.8612  -0.7388  -0.6345  -0.6030   0.0621   0.0750
     0.0948   0.1191   0.1483   0.2259   0.3916   0.4011   0.4182   0.5008
     0.5247   0.6062   0.7464   0.8014   0.8339   0.8428   0.8580

          k = 0.0259-0.0149 0.0000 ( 23008 PWs)   bands (ev):

   -49.7185 -49.6255 -49.6144 -49.5985 -49.5956 -49.5754 -49.5722 -49.5695
   -49.1893 -49.1536 -49.1517 -49.1319 -28.4569 -28.3848 -28.3770 -28.3518
   -28.3183 -28.3161 -28.3078 -28.2957 -28.2547 -28.2510 -28.2499 -28.2403
   -28.2326 -28.2286 -28.1325 -28.1263 -28.1125 -28.0842 -28.0833 -28.0653
   -28.0257 -28.0154 -28.0080 -27.9971 -27.8981 -27.8960 -27.8887 -27.7583
   -27.7406 -27.7390 -27.7181 -27.6903 -27.6757 -27.6624 -27.6149 -27.5978
   -16.6463  -4.2521  -3.2437  -2.7799  -2.7607  -2.5145  -1.7544  -1.4960
    -1.1620  -1.1566  -1.0526  -0.9396  -0.8750  -0.5735  -0.5387  -0.3546
    -0.1845  -0.1601  -0.0913   0.1197   0.1505   0.1889   0.4304   0.7079
     0.8281   0.8804   0.8880   1.0994   1.1465   1.1491   1.3489

          k = 0.0259 0.0149 0.0000 ( 23008 PWs)   bands (ev):

   -49.7185 -49.6256 -49.6144 -49.5982 -49.5958 -49.5756 -49.5718 -49.5697
   -49.1893 -49.1541 -49.1512 -49.1319 -28.4569 -28.3847 -28.3772 -28.3518
   -28.3181 -28.3163 -28.3078 -28.2957 -28.2546 -28.2509 -28.2500 -28.2404
   -28.2323 -28.2288 -28.1326 -28.1265 -28.1122 -28.0840 -28.0835 -28.0653
   -28.0255 -28.0154 -28.0082 -27.9971 -27.8978 -27.8963 -27.8887 -27.7583
   -27.7409 -27.7386 -27.7182 -27.6902 -27.6760 -27.6622 -27.6149 -27.5979
   -16.6463  -4.2521  -3.2437  -2.7799  -2.7608  -2.5145  -1.7544  -1.4960
    -1.1620  -1.1566  -1.0526  -0.9397  -0.8750  -0.5735  -0.5387  -0.3546
    -0.1844  -0.1601  -0.0913   0.1197   0.1505   0.1888   0.4304   0.7079
     0.8281   0.8804   0.8880   1.0994   1.1465   1.1491   1.3490

          k = 0.0259 0.0448 0.0000 ( 23004 PWs)   bands (ev):

   -49.7173 -49.6235 -49.6087 -49.6012 -49.5961 -49.5791 -49.5754 -49.5684
   -49.1840 -49.1582 -49.1514 -49.1330 -28.4553 -28.3649 -28.3440 -28.3304
   -28.3014 -28.2873 -28.2794 -28.2772 -28.2557 -28.2496 -28.2451 -28.2393
   -28.2370 -28.2295 -28.1693 -28.1284 -28.1250 -28.1159 -28.0723 -28.0721
   -28.0602 -28.0565 -28.0166 -28.0083 -27.8830 -27.8627 -27.8613 -27.7542
   -27.7425 -27.7378 -27.7219 -27.7179 -27.6746 -27.6657 -27.6544 -27.6086
   -16.6451  -3.9597  -3.0562  -2.7836  -2.7646  -2.3891  -1.7637  -1.7320
    -1.4579  -1.0966  -1.0512  -0.7966  -0.6477  -0.4275  -0.3812  -0.2504
    -0.0982  -0.0369   0.0506   0.2114   0.2540   0.3112   0.4060   0.6463
     0.6864   0.6956   0.8430   0.9556   1.0022   1.0538   1.0814

          k = 0.0259-0.1046 0.0000 ( 23012 PWs)   bands (ev):

   -49.7161 -49.6202 -49.6060 -49.5989 -49.5959 -49.5875 -49.5782 -49.5669
   -49.1752 -49.1653 -49.1527 -49.1336 -28.4538 -28.3360 -28.3119 -28.2876
   -28.2746 -28.2692 -28.2644 -28.2563 -28.2506 -28.2440 -28.2409 -28.2310
   -28.2279 -28.2090 -28.2026 -28.1720 -28.1585 -28.1287 -28.1122 -28.0967
   -28.0907 -28.0519 -28.0286 -28.0271 -27.8544 -27.8335 -27.7994 -27.7667
   -27.7487 -27.7443 -27.7373 -27.7217 -27.7176 -27.6871 -27.6505 -27.6282
   -16.6439  -3.4347  -2.9420  -2.7878  -2.7382  -2.4384  -2.0607  -1.8519
    -1.5234  -1.0827  -0.9431  -0.5980  -0.4821  -0.3868  -0.1291  -0.0744
     0.0681   0.1012   0.2072   0.2730   0.3493   0.4090   0.4570   0.5442
     0.5879   0.6432   0.6678   0.7614   0.7960   0.8470   0.8870

          k = 0.0259-0.0747 0.0000 ( 23012 PWs)   bands (ev):

   -49.7161 -49.6201 -49.6061 -49.5989 -49.5958 -49.5874 -49.5783 -49.5669
   -49.1753 -49.1650 -49.1528 -49.1335 -28.4538 -28.3360 -28.3119 -28.2876
   -28.2746 -28.2692 -28.2644 -28.2563 -28.2506 -28.2439 -28.2409 -28.2310
   -28.2278 -28.2090 -28.2023 -28.1720 -28.1588 -28.1287 -28.1122 -28.0967
   -28.0907 -28.0519 -28.0286 -28.0270 -27.8544 -27.8335 -27.7994 -27.7665
   -27.7487 -27.7442 -27.7374 -27.7218 -27.7176 -27.6871 -27.6505 -27.6282
   -16.6439  -3.4347  -2.9420  -2.7878  -2.7382  -2.4384  -2.0607  -1.8519
    -1.5234  -1.0827  -0.9431  -0.5980  -0.4821  -0.3867  -0.1290  -0.0744
     0.0680   0.1012   0.2072   0.2730   0.3493   0.4090   0.4569   0.5442
     0.5879   0.6433   0.6679   0.7614   0.7960   0.8468   0.8871

          k = 0.0259-0.0448 0.0000 ( 23004 PWs)   bands (ev):

   -49.7173 -49.6234 -49.6087 -49.6016 -49.5959 -49.5788 -49.5757 -49.5683
   -49.1841 -49.1577 -49.1519 -49.1329 -28.4554 -28.3650 -28.3440 -28.3304
   -28.3014 -28.2873 -28.2793 -28.2773 -28.2560 -28.2493 -28.2451 -28.2395
   -28.2368 -28.2294 -28.1691 -28.1286 -28.1250 -28.1160 -28.0723 -28.0722
   -28.0603 -28.0566 -28.0164 -28.0082 -27.8830 -27.8629 -27.8611 -27.7542
   -27.7421 -27.7382 -27.7219 -27.7179 -27.6745 -27.6658 -27.6543 -27.6086
   -16.6451  -3.9597  -3.0562  -2.7836  -2.7646  -2.3891  -1.7637  -1.7320
    -1.4579  -1.0967  -1.0512  -0.7966  -0.6478  -0.4275  -0.3812  -0.2504
    -0.0982  -0.0368   0.0506   0.2114   0.2539   0.3113   0.4061   0.6463
     0.6864   0.6956   0.8430   0.9556   1.0023   1.0538   1.0812

          k = 0.0518-0.0299 0.0000 ( 22962 PWs)   bands (ev):

   -49.7169 -49.6224 -49.6061 -49.6033 -49.5956 -49.5830 -49.5729 -49.5695
   -49.1819 -49.1593 -49.1523 -49.1331 -28.4548 -28.3587 -28.3361 -28.3148
   -28.2883 -28.2867 -28.2820 -28.2598 -28.2515 -28.2467 -28.2448 -28.2382
   -28.2327 -28.2311 -28.1723 -28.1517 -28.1165 -28.1150 -28.1050 -28.0807
   -28.0762 -28.0510 -28.0163 -28.0115 -27.8718 -27.8680 -27.8345 -27.7528
   -27.7417 -27.7394 -27.7193 -27.7178 -27.7047 -27.6744 -27.6501 -27.6117
   -16.6447  -3.8211  -2.9987  -2.8083  -2.7445  -2.3362  -2.1647  -1.4246
    -1.2754  -1.1714  -1.1478  -0.7549  -0.7208  -0.4672  -0.1982  -0.1641
    -0.0473  -0.0061   0.0938   0.2598   0.2721   0.3402   0.4088   0.6319
     0.6719   0.6748   0.7057   0.9253   0.9560   0.9758   1.0629

          k = 0.0518 0.0000 0.0000 ( 23004 PWs)   bands (ev):

   -49.7173 -49.6232 -49.6087 -49.6022 -49.5954 -49.5782 -49.5764 -49.5681
   -49.1842 -49.1560 -49.1536 -49.1327 -28.4554 -28.3652 -28.3438 -28.3303
   -28.3014 -28.2874 -28.2791 -28.2775 -28.2565 -28.2485 -28.2452 -28.2401
   -28.2366 -28.2292 -28.1685 -28.1289 -28.1250 -28.1163 -28.0725 -28.0720
   -28.0605 -28.0567 -28.0160 -28.0082 -27.8830 -27.8635 -27.8605 -27.7543
   -27.7407 -27.7397 -27.7219 -27.7178 -27.6741 -27.6663 -27.6543 -27.6086
   -16.6451  -3.9597  -3.0562  -2.7836  -2.7646  -2.3891  -1.7636  -1.7321
    -1.4579  -1.0967  -1.0510  -0.7966  -0.6478  -0.4275  -0.3812  -0.2505
    -0.0982  -0.0368   0.0506   0.2115   0.2537   0.3113   0.4061   0.6463
     0.6864   0.6956   0.8431   0.9556   1.0025   1.0539   1.0808

          k = 0.0518 0.0299 0.0000 ( 22962 PWs)   bands (ev):

   -49.7169 -49.6225 -49.6061 -49.6029 -49.5959 -49.5831 -49.5725 -49.5698
   -49.1818 -49.1599 -49.1517 -49.1332 -28.4548 -28.3585 -28.3363 -28.3148
   -28.2881 -28.2869 -28.2820 -28.2596 -28.2515 -28.2470 -28.2448 -28.2378
   -28.2328 -28.2313 -28.1724 -28.1519 -28.1163 -28.1152 -28.1047 -28.0806
   -28.0761 -28.0510 -28.0166 -28.0115 -27.8714 -27.8684 -27.8345 -27.7527
   -27.7424 -27.7387 -27.7190 -27.7178 -27.7052 -27.6744 -27.6499 -27.6118
   -16.6447  -3.8211  -2.9987  -2.8083  -2.7445  -2.3362  -2.1647  -1.4245
    -1.2755  -1.1714  -1.1479  -0.7550  -0.7207  -0.4672  -0.1982  -0.1640
    -0.0473  -0.0061   0.0938   0.2599   0.2721   0.3402   0.4087   0.6320
     0.6718   0.6749   0.7057   0.9253   0.9560   0.9757   1.0630

          k = 0.0518-0.1196 0.0000 ( 23012 PWs)   bands (ev):

   -49.7161 -49.6199 -49.6066 -49.5990 -49.5956 -49.5873 -49.5785 -49.5669
   -49.1756 -49.1641 -49.1535 -49.1334 -28.4538 -28.3363 -28.3116 -28.2874
   -28.2747 -28.2692 -28.2646 -28.2561 -28.2507 -28.2439 -28.2412 -28.2307
   -28.2275 -28.2091 -28.2028 -28.1721 -28.1579 -28.1286 -28.1127 -28.0971
   -28.0907 -28.0520 -28.0285 -28.0267 -27.8545 -27.8332 -27.7994 -27.7670
   -27.7490 -27.7433 -27.7381 -27.7213 -27.7176 -27.6872 -27.6507 -27.6280
   -16.6439  -3.4347  -2.9419  -2.7878  -2.7382  -2.4384  -2.0606  -1.8519
    -1.5234  -1.0827  -0.9432  -0.5980  -0.4820  -0.3868  -0.1291  -0.0744
     0.0681   0.1012   0.2073   0.2729   0.3492   0.4090   0.4570   0.5444
     0.5879   0.6434   0.6677   0.7614   0.7959   0.8471   0.8868

          k = 0.0518-0.0897 0.0000 ( 23028 PWs)   bands (ev):

   -49.7157 -49.6171 -49.6102 -49.5952 -49.5916 -49.5880 -49.5867 -49.5654
   -49.1699 -49.1672 -49.1565 -49.1331 -28.4533 -28.3016 -28.2993 -28.2930
   -28.2695 -28.2646 -28.2594 -28.2553 -28.2435 -28.2310 -28.2303 -28.2288
   -28.2238 -28.2052 -28.1912 -28.1893 -28.1887 -28.1753 -28.1151 -28.0984
   -28.0594 -28.0587 -28.0566 -28.0366 -27.8180 -27.8170 -27.7901 -27.7763
   -27.7748 -27.7461 -27.7431 -27.7389 -27.7174 -27.6571 -27.6565 -27.6557
   -16.6435  -3.0403  -2.9355  -2.8938  -2.5683  -2.4732  -2.4574  -1.6793
    -1.5508  -1.5098  -0.5449  -0.5251  -0.3281  -0.2378  -0.2284  -0.1705
     0.1591   0.1683   0.3022   0.3045   0.3478   0.4612   0.4786   0.5270
     0.5659   0.5828   0.6117   0.6581   0.7817   0.7952   0.8442

          k = 0.0518-0.0598 0.0000 ( 23012 PWs)   bands (ev):

   -49.7161 -49.6197 -49.6070 -49.5990 -49.5954 -49.5871 -49.5786 -49.5668
   -49.1759 -49.1634 -49.1542 -49.1333 -28.4538 -28.3365 -28.3114 -28.2875
   -28.2748 -28.2693 -28.2648 -28.2560 -28.2508 -28.2437 -28.2412 -28.2306
   -28.2273 -28.2090 -28.2026 -28.1721 -28.1580 -28.1287 -28.1130 -28.0974
   -28.0907 -28.0520 -28.0285 -28.0265 -27.8546 -27.8331 -27.7994 -27.7670
   -27.7492 -27.7426 -27.7387 -27.7213 -27.7175 -27.6871 -27.6508 -27.6280
   -16.6439  -3.4347  -2.9419  -2.7878  -2.7383  -2.4384  -2.0606  -1.8519
    -1.5234  -1.0827  -0.9432  -0.5980  -0.4820  -0.3868  -0.1292  -0.0744
     0.0680   0.1012   0.2073   0.2729   0.3492   0.4090   0.4570   0.5444
     0.5878   0.6435   0.6677   0.7613   0.7959   0.8470   0.8868

          k =-0.0777 0.0448 0.0000 ( 23032 PWs)   bands (ev):

   -49.7161 -49.6199 -49.6066 -49.5964 -49.5956 -49.5926 -49.5730 -49.5696
   -49.1750 -49.1656 -49.1524 -49.1336 -28.4538 -28.3425 -28.3164 -28.2741
   -28.2726 -28.2684 -28.2652 -28.2613 -28.2500 -28.2454 -28.2432 -28.2386
   -28.2328 -28.1916 -28.1670 -28.1648 -28.1627 -28.1381 -28.1359 -28.1176
   -28.1007 -28.0330 -28.0297 -28.0210 -27.8543 -27.8480 -27.7648 -27.7528
   -27.7486 -27.7451 -27.7396 -27.7344 -27.7222 -27.7173 -27.6344 -27.6278
   -16.6439  -3.2765  -3.1581  -2.7364  -2.7327  -2.6390  -1.9575  -1.7978
    -1.1733  -1.1709  -0.8617  -0.7385  -0.6340  -0.6034   0.0618   0.0750
     0.0949   0.1190   0.1486   0.2258   0.3917   0.4010   0.4181   0.5010
     0.5250   0.6063   0.7473   0.8011   0.8336   0.8423   0.8579

          k =-0.0777 0.0747 0.0000 ( 23012 PWs)   bands (ev):

   -49.7161 -49.6195 -49.6073 -49.5990 -49.5953 -49.5870 -49.5788 -49.5668
   -49.1760 -49.1627 -49.1547 -49.1332 -28.4538 -28.3365 -28.3114 -28.2876
   -28.2749 -28.2693 -28.2649 -28.2559 -28.2509 -28.2435 -28.2412 -28.2307
   -28.2271 -28.2090 -28.2020 -28.1720 -28.1586 -28.1287 -28.1131 -28.0974
   -28.0907 -28.0520 -28.0285 -28.0263 -27.8546 -27.8332 -27.7995 -27.7666
   -27.7494 -27.7423 -27.7391 -27.7215 -27.7175 -27.6870 -27.6508 -27.6280
   -16.6439  -3.4347  -2.9419  -2.7878  -2.7383  -2.4384  -2.0607  -1.8519
    -1.5233  -1.0827  -0.9432  -0.5980  -0.4820  -0.3868  -0.1291  -0.0744
     0.0679   0.1012   0.2072   0.2730   0.3492   0.4092   0.4570   0.5443
     0.5878   0.6436   0.6680   0.7613   0.7961   0.8466   0.8871

          k =-0.0777 0.1046 0.0000 ( 23012 PWs)   bands (ev):

   -49.7161 -49.6197 -49.6070 -49.5990 -49.5954 -49.5871 -49.5786 -49.5668
   -49.1759 -49.1633 -49.1543 -49.1333 -28.4538 -28.3364 -28.3115 -28.2876
   -28.2748 -28.2693 -28.2648 -28.2560 -28.2508 -28.2436 -28.2411 -28.2308
   -28.2273 -28.2090 -28.2019 -28.1720 -28.1589 -28.1287 -28.1128 -28.0972
   -28.0907 -28.0520 -28.0285 -28.0265 -27.8545 -27.8333 -27.7995 -27.7665
   -27.7492 -27.7429 -27.7385 -27.7216 -27.7175 -27.6870 -27.6507 -27.6280
   -16.6439  -3.4347  -2.9419  -2.7878  -2.7383  -2.4384  -2.0607  -1.8519
    -1.5233  -1.0827  -0.9432  -0.5980  -0.4820  -0.3868  -0.1291  -0.0744
     0.0679   0.1012   0.2072   0.2730   0.3492   0.4092   0.4569   0.5442
     0.5878   0.6435   0.6680   0.7613   0.7961   0.8465   0.8872

          k =-0.0777-0.0448 0.0000 ( 23032 PWs)   bands (ev):

   -49.7161 -49.6202 -49.6060 -49.5962 -49.5959 -49.5929 -49.5726 -49.5698
   -49.1745 -49.1666 -49.1518 -49.1338 -28.4538 -28.3422 -28.3167 -28.2741
   -28.2724 -28.2681 -28.2653 -28.2613 -28.2499 -28.2457 -28.2434 -28.2382
   -28.2331 -28.1918 -28.1672 -28.1646 -28.1629 -28.1378 -28.1362 -28.1172
   -28.1003 -28.0327 -28.0300 -28.0213 -27.8538 -27.8486 -27.7644 -27.7536
   -27.7484 -27.7445 -27.7405 -27.7338 -27.7225 -27.7174 -27.6338 -27.6283
   -16.6439  -3.2764  -3.1582  -2.7364  -2.7326  -2.6390  -1.9575  -1.7978
    -1.1734  -1.1708  -0.8616  -0.7386  -0.6341  -0.6033   0.0619   0.0750
     0.0949   0.1190   0.1485   0.2258   0.3916   0.4010   0.4181   0.5009
     0.5249   0.6063   0.7471   0.8012   0.8337   0.8425   0.8579

     the Fermi energy is     0.3278 ev

!    total energy              =   -1170.39799236 Ry
     Harris-Foulkes estimate   =   -1170.39799443 Ry
     estimated scf accuracy    <       0.00000763 Ry

     The total energy is the sum of the following terms:

     one-electron contribution =   -7437.16262877 Ry
     hartree contribution      =    3702.91833073 Ry
     xc contribution           =    -173.92903503 Ry
     ewald contribution        =    2737.90234509 Ry
     electric field correction =       0.00011804 Ry
     smearing contrib. (-TS)   =      -0.12712241 Ry

     convergence has been achieved in  10 iterations
 
 BEEF-vdW xc energy contributions
           1 :   -147.418292083358     
           2 :    129.610238194194     
           3 :   -101.869330023671     
           4 :    74.9043378492789     
           5 :   -56.2021425090115     
           6 :    47.0585446856662     
           7 :   -43.9180506678778     
           8 :    42.1248728585986     
           9 :   -39.0796628937283     
          10 :    34.9766444126065     
          11 :   -31.3987329552220     
          12 :    29.3960720383708     
          13 :   -28.5971087561607     
          14 :    27.7725476581582     
          15 :   -26.0730494600268     
          16 :    23.7477221306220     
          17 :   -21.7741905067792     
          18 :    20.8672955720412     
          19 :   -20.8372455060912     
          20 :    20.8313676607535     
          21 :   -20.1387595584982     
          22 :    18.7796486835018     
          23 :   -17.3923736463418     
          24 :    16.6007599934298     
          25 :   -16.4715084836294     
          26 :    16.5193526955196     
          27 :   -16.1951496835406     
          28 :    15.3772198222295     
          29 :   -14.4297418532364     
          30 :    13.8184747724897     
          31 :   -17.3549638317361     
          32 :   -12.3871742443683     

     Forces acting on atoms (Ry/au):


     negative rho (up, down):  2.921E-04 0.000E+00
     atom    1 type  1   force =     0.00058333    0.00000999    0.00202619
     atom    2 type  1   force =    -0.00058449    0.00009743    0.00201873
     atom    3 type  1   force =     0.00007177   -0.00037994    0.00206327
     atom    4 type  1   force =    -0.00007407    0.00028405    0.00203938
     atom    5 type  1   force =    -0.00000435   -0.00285698    0.00554525
     atom    6 type  1   force =     0.00000393    0.00001764   -0.01487814
     atom    7 type  1   force =     0.00248295    0.00142213    0.00553105
     atom    8 type  1   force =    -0.00248479    0.00142086    0.00553337
     atom    9 type  1   force =     0.00006171   -0.00023822   -0.01150560
     atom   10 type  1   force =    -0.00006331    0.04452516    0.04698340
     atom   11 type  1   force =     0.03876971   -0.02217876    0.04713572
     atom   12 type  1   force =    -0.03876771   -0.02210344    0.04709683
     atom   13 type  2   force =     0.00000534   -0.00001992   -0.13958945

     Total force =     0.179538     Total SCF correction =     0.003565


     entering subroutine stress ...


     negative rho (up, down):  2.921E-04 0.000E+00
          total   stress  (Ry/bohr**3)                   (kbar)     P=   -5.09
  -0.00001002   0.00000000  -0.00000001         -1.47      0.00     -0.00
   0.00000000  -0.00000998   0.00000003          0.00     -1.47      0.00
  -0.00000001   0.00000003  -0.00008385         -0.00      0.00    -12.34


     number of scf cycles    =   2
     number of bfgs steps    =   1

     energy   old            =   -1170.3594974291 Ry
     energy   new            =   -1170.3979923578 Ry

     CASE: energy  _new < energy  _old


     WARNING: bfgs curvature condition failed, Theta= 0.898
     new trust radius        =       0.1683661155 bohr
     new conv_thr            =       0.0000001000 Ry


ATOMIC_POSITIONS (crystal)
Sc1      0.166666667   0.166666667   0.395942884    0   0   0
Sc1      0.666666667   0.166666667   0.395942884    0   0   0
Sc1      0.166666667   0.666666667   0.395942884    0   0   0
Sc1      0.666666667   0.666666667   0.395942884    0   0   0
Sc1      0.833333333   0.333333333   0.500000000    0   0   0
Sc1      0.333333333   0.333333333   0.500000000    0   0   0
Sc1      0.833333333   0.833333333   0.500000000    0   0   0
Sc1      0.333333333   0.833333333   0.500000000    0   0   0
Sc1      0.000013676  -0.000018340   0.603547555
Sc1      0.494848603   0.010293045   0.606352702
Sc1      0.010304804   0.494859304   0.606355120
Sc1      0.494832784   0.494865870   0.606354570
O1       0.333333315   0.333332898   0.658060105



     Writing output data file calc.save
     Check: negative starting charge=   -0.000416
     NEW-OLD atomic charge density approx. for the potential
     Check: negative starting charge=   -0.000404

     negative rho (up, down):  6.754E-04 0.000E+00
 
     Adding external electric field

     Computed dipole along edir(3) : 
        Dipole               -0.2393 Ry au,         -0.6083 Debye
        Dipole field         -0.0005 Ry au
 
        Potential amp.        0.0458 Ry
        Total length         46.5341 bohr
 

     total cpu time spent up to now is     1105.2 secs

     per-process dynamical memory:    86.2 Mb

     Self-consistent Calculation

     iteration #  1     ecut=    36.75 Ry     beta=0.30
     Davidson diagonalization with overlap
     c_bands:  1 eigenvalues not converged
     c_bands:  1 eigenvalues not converged
     ethr =  1.00E-06,  avg # of iterations = 16.6

     negative rho (up, down):  3.987E-04 0.000E+00
 
     Adding external electric field

     Computed dipole along edir(3) : 
        Dipole                0.1337 Ry au,          0.3399 Debye
        Dipole field          0.0003 Ry au
 
        Potential amp.       -0.0256 Ry
        Total length         46.5341 bohr
 

     total cpu time spent up to now is     1149.4 secs

     total energy              =   -1170.42764440 Ry
     Harris-Foulkes estimate   =   -1170.43587899 Ry
     estimated scf accuracy    <       0.01822331 Ry

     iteration #  2     ecut=    36.75 Ry     beta=0.30
     Davidson diagonalization with overlap
     ethr =  1.32E-05,  avg # of iterations =  9.2

     negative rho (up, down):  3.452E-04 0.000E+00
 
     Adding external electric field

     Computed dipole along edir(3) : 
        Dipole               -0.1887 Ry au,         -0.4795 Debye
        Dipole field         -0.0004 Ry au
 
        Potential amp.        0.0361 Ry
        Total length         46.5341 bohr
 

     total cpu time spent up to now is     1179.9 secs

     total energy              =   -1170.36084920 Ry
     Harris-Foulkes estimate   =   -1170.50576495 Ry
     estimated scf accuracy    <       6.78478269 Ry

     iteration #  3     ecut=    36.75 Ry     beta=0.30
     Davidson diagonalization with overlap
     ethr =  1.32E-05,  avg # of iterations = 10.2

     negative rho (up, down):  3.344E-04 0.000E+00
 
     Adding external electric field

     Computed dipole along edir(3) : 
        Dipole               -0.1739 Ry au,         -0.4421 Debye
        Dipole field         -0.0004 Ry au
 
        Potential amp.        0.0333 Ry
        Total length         46.5341 bohr
 

     total cpu time spent up to now is     1211.4 secs

     total energy              =   -1170.43091407 Ry
     Harris-Foulkes estimate   =   -1170.43492856 Ry
     estimated scf accuracy    <       0.03068302 Ry

     iteration #  4     ecut=    36.75 Ry     beta=0.30
     Davidson diagonalization with overlap
     ethr =  1.32E-05,  avg # of iterations =  8.8

     negative rho (up, down):  3.136E-04 0.000E+00
 
     Adding external electric field

     Computed dipole along edir(3) : 
        Dipole               -0.1614 Ry au,         -0.4102 Debye
        Dipole field         -0.0003 Ry au
 
        Potential amp.        0.0309 Ry
        Total length         46.5341 bohr
 

     total cpu time spent up to now is     1238.9 secs

     total energy              =   -1170.43219223 Ry
     Harris-Foulkes estimate   =   -1170.43436098 Ry
     estimated scf accuracy    <       0.02018343 Ry

     iteration #  5     ecut=    36.75 Ry     beta=0.30
     Davidson diagonalization with overlap
     ethr =  1.32E-05,  avg # of iterations =  3.6

     negative rho (up, down):  2.557E-04 0.000E+00
 
     Adding external electric field

     Computed dipole along edir(3) : 
        Dipole               -0.1596 Ry au,         -0.4056 Debye
        Dipole field         -0.0003 Ry au
 
        Potential amp.        0.0305 Ry
        Total length         46.5341 bohr
 

     total cpu time spent up to now is     1262.6 secs

     total energy              =   -1170.43293442 Ry
     Harris-Foulkes estimate   =   -1170.43328943 Ry
     estimated scf accuracy    <       0.00191243 Ry

[...]
   -27.8323 -27.8227 -27.8071 -27.7811 -27.6747 -27.6656 -27.6361 -27.5827
   -27.5386 -27.4949 -27.4873 -27.4811 -27.4785 -27.4580 -27.4396 -27.3887
   -18.1318  -4.6405  -4.4994  -4.1789  -3.0460  -2.3119  -1.9407  -1.6393
    -1.3129  -0.8619  -0.7179  -0.3659  -0.2592  -0.1663   0.0794   0.1495
     0.2822   0.3012   0.4374   0.4718   0.5421   0.6163   0.6728   0.7407
     0.7992   0.8729   0.8883   0.9198   1.0076   1.0507   1.1195

          k = 0.0259-0.0747 0.0000 ( 23012 PWs)   bands (ev):

   -49.3891 -49.3827 -49.3752 -49.3671 -49.3625 -49.3572 -49.3454 -49.2890
   -49.0537 -48.9196 -48.9086 -48.8974 -28.2130 -28.0831 -28.0643 -28.0570
   -28.0510 -28.0440 -28.0392 -28.0324 -28.0266 -28.0217 -28.0154 -28.0107
   -28.0038 -27.9876 -27.9595 -27.9516 -27.9150 -27.9070 -27.8703 -27.8482
   -27.8323 -27.8227 -27.8071 -27.7811 -27.6747 -27.6656 -27.6361 -27.5827
   -27.5386 -27.4949 -27.4873 -27.4811 -27.4785 -27.4580 -27.4396 -27.3887
   -18.1318  -4.6406  -4.4994  -4.1789  -3.0460  -2.3119  -1.9407  -1.6393
    -1.3129  -0.8619  -0.7179  -0.3659  -0.2592  -0.1663   0.0794   0.1495
     0.2822   0.3012   0.4374   0.4718   0.5421   0.6163   0.6728   0.7407
     0.7992   0.8729   0.8883   0.9198   1.0076   1.0507   1.1195

          k = 0.0259-0.0448 0.0000 ( 23004 PWs)   bands (ev):

   -49.3969 -49.3907 -49.3684 -49.3621 -49.3621 -49.3530 -49.3464 -49.2884
   -49.0545 -48.9239 -48.9033 -48.8976 -28.2576 -28.0982 -28.0834 -28.0685
   -28.0651 -28.0635 -28.0574 -28.0542 -28.0422 -28.0364 -28.0310 -28.0216
   -28.0182 -28.0096 -27.9130 -27.9049 -27.8695 -27.8524 -27.8522 -27.8452
   -27.8365 -27.8040 -27.7873 -27.7662 -27.6967 -27.6773 -27.6670 -27.6109
   -27.5132 -27.4911 -27.4809 -27.4801 -27.4644 -27.4494 -27.4145 -27.3753
   -18.1383  -4.6173  -4.5109  -4.2248  -3.5912  -2.4553  -1.5480  -1.5080
    -1.2453  -0.8673  -0.8130  -0.5719  -0.4248  -0.1898  -0.1634  -0.0305
     0.1507   0.1931   0.3172   0.4289   0.4798   0.5755   0.6241   0.8357
     0.9166   0.9237   1.0417   1.0851   1.1722   1.2363   1.4062

          k = 0.0518-0.0299 0.0000 ( 22962 PWs)   bands (ev):

   -49.3947 -49.3884 -49.3706 -49.3645 -49.3618 -49.3521 -49.3473 -49.2886
   -49.0542 -48.9228 -48.9045 -48.8977 -28.2448 -28.0938 -28.0728 -28.0652
   -28.0617 -28.0586 -28.0537 -28.0443 -28.0338 -28.0310 -28.0284 -28.0194
   -28.0140 -28.0124 -27.9107 -27.9046 -27.8978 -27.8937 -27.8579 -27.8322
   -27.8304 -27.8211 -27.7905 -27.7673 -27.6929 -27.6671 -27.6619 -27.6023
   -27.5159 -27.4901 -27.4849 -27.4814 -27.4747 -27.4402 -27.4352 -27.3759
   -18.1361  -4.6310  -4.5021  -4.2071  -3.4535  -2.3284  -1.9897  -1.2116
    -1.0474  -0.9532  -0.8968  -0.5371  -0.4950  -0.2226   0.0063   0.0591
     0.1815   0.2242   0.3298   0.4878   0.4886   0.5817   0.6391   0.8164
     0.8986   0.9079   0.9250   1.0746   1.0753   1.2016   1.2985

          k = 0.0518 0.0000 0.0000 ( 23004 PWs)   bands (ev):

   -49.3969 -49.3907 -49.3684 -49.3621 -49.3621 -49.3530 -49.3464 -49.2884
   -49.0545 -48.9238 -48.9033 -48.8976 -28.2576 -28.0982 -28.0834 -28.0686
   -28.0651 -28.0635 -28.0574 -28.0542 -28.0423 -28.0364 -28.0310 -28.0216
   -28.0182 -28.0096 -27.9130 -27.9049 -27.8695 -27.8524 -27.8522 -27.8452
   -27.8365 -27.8040 -27.7873 -27.7662 -27.6968 -27.6773 -27.6670 -27.6109
   -27.5131 -27.4911 -27.4809 -27.4801 -27.4644 -27.4494 -27.4145 -27.3753
   -18.1383  -4.6174  -4.5109  -4.2249  -3.5912  -2.4553  -1.5480  -1.5080
    -1.2454  -0.8673  -0.8130  -0.5719  -0.4248  -0.1898  -0.1634  -0.0305
     0.1507   0.1931   0.3172   0.4289   0.4798   0.5755   0.6241   0.8357
     0.9166   0.9237   1.0417   1.0851   1.1722   1.2363   1.4061

          k = 0.0518 0.0299 0.0000 ( 22962 PWs)   bands (ev):

   -49.3947 -49.3884 -49.3706 -49.3645 -49.3619 -49.3521 -49.3473 -49.2886
   -49.0542 -48.9228 -48.9045 -48.8977 -28.2448 -28.0938 -28.0728 -28.0652
   -28.0617 -28.0586 -28.0537 -28.0443 -28.0338 -28.0310 -28.0284 -28.0194
   -28.0140 -28.0124 -27.9108 -27.9046 -27.8978 -27.8937 -27.8579 -27.8322
   -27.8305 -27.8211 -27.7905 -27.7673 -27.6929 -27.6671 -27.6619 -27.6023
   -27.5159 -27.4901 -27.4849 -27.4814 -27.4747 -27.4402 -27.4352 -27.3759
   -18.1361  -4.6310  -4.5021  -4.2071  -3.4535  -2.3284  -1.9897  -1.2116
    -1.0474  -0.9532  -0.8968  -0.5371  -0.4950  -0.2225   0.0063   0.0591
     0.1816   0.2242   0.3298   0.4878   0.4886   0.5817   0.6391   0.8164
     0.8986   0.9079   0.9250   1.0746   1.0753   1.2016   1.2985

          k = 0.0518-0.1196 0.0000 ( 23012 PWs)   bands (ev):

   -49.3891 -49.3827 -49.3752 -49.3671 -49.3625 -49.3572 -49.3454 -49.2890
   -49.0537 -48.9196 -48.9086 -48.8974 -28.2130 -28.0831 -28.0643 -28.0570
   -28.0510 -28.0440 -28.0392 -28.0324 -28.0266 -28.0217 -28.0154 -28.0107
   -28.0038 -27.9876 -27.9595 -27.9516 -27.9150 -27.9070 -27.8703 -27.8482
   -27.8323 -27.8227 -27.8071 -27.7811 -27.6747 -27.6656 -27.6361 -27.5827
   -27.5386 -27.4949 -27.4873 -27.4812 -27.4784 -27.4581 -27.4397 -27.3887
   -18.1318  -4.6406  -4.4994  -4.1789  -3.0460  -2.3119  -1.9407  -1.6393
    -1.3129  -0.8619  -0.7179  -0.3659  -0.2592  -0.1663   0.0794   0.1495
     0.2822   0.3012   0.4374   0.4718   0.5421   0.6162   0.6728   0.7408
     0.7992   0.8730   0.8882   0.9197   1.0076   1.0507   1.1195

          k = 0.0518-0.0897 0.0000 ( 23028 PWs)   bands (ev):

   -49.3839 -49.3797 -49.3790 -49.3646 -49.3646 -49.3631 -49.3441 -49.2892
   -49.0534 -48.9147 -48.9141 -48.8971 -28.1913 -28.0743 -28.0726 -28.0522
   -28.0491 -28.0364 -28.0355 -28.0235 -28.0125 -28.0107 -28.0041 -28.0013
   -27.9874 -27.9717 -27.9681 -27.9666 -27.9664 -27.9453 -27.8532 -27.8412
   -27.8403 -27.8316 -27.8062 -27.8054 -27.6651 -27.6462 -27.6445 -27.5483
   -27.5431 -27.5429 -27.4856 -27.4825 -27.4785 -27.4438 -27.4430 -27.4039
   -18.1296  -4.6390  -4.5030  -4.1676  -2.4721  -2.3972  -2.3594  -1.5017
    -1.3614  -1.2738  -0.3498  -0.3136  -0.0978  -0.0384  -0.0109   0.0941
     0.3405   0.3837   0.4824   0.5069   0.5199   0.6677   0.6849   0.7165
     0.7592   0.8048   0.8615   0.8826   0.9493   1.0429   1.0662

          k = 0.0518-0.0598 0.0000 ( 23012 PWs)   bands (ev):

   -49.3891 -49.3827 -49.3752 -49.3671 -49.3625 -49.3572 -49.3454 -49.2890
   -49.0537 -48.9196 -48.9086 -48.8974 -28.2130 -28.0831 -28.0643 -28.0570
   -28.0510 -28.0440 -28.0392 -28.0324 -28.0266 -28.0217 -28.0154 -28.0107
   -28.0038 -27.9876 -27.9595 -27.9516 -27.9150 -27.9070 -27.8703 -27.8482
   -27.8323 -27.8227 -27.8071 -27.7811 -27.6747 -27.6656 -27.6361 -27.5827
   -27.5386 -27.4949 -27.4873 -27.4812 -27.4784 -27.4580 -27.4397 -27.3887
   -18.1318  -4.6406  -4.4994  -4.1789  -3.0460  -2.3119  -1.9407  -1.6393
    -1.3129  -0.8619  -0.7179  -0.3659  -0.2592  -0.1663   0.0794   0.1495
     0.2822   0.3012   0.4374   0.4718   0.5421   0.6162   0.6728   0.7408
     0.7992   0.8730   0.8882   0.9197   1.0076   1.0507   1.1195

          k =-0.0777 0.0448 0.0000 ( 23032 PWs)   bands (ev):

   -49.3887 -49.3817 -49.3763 -49.3703 -49.3619 -49.3530 -49.3473 -49.2891
   -49.0537 -48.9199 -48.9080 -48.8977 -28.2151 -28.0807 -28.0671 -28.0549
   -28.0528 -28.0447 -28.0401 -28.0392 -28.0276 -28.0211 -28.0203 -28.0128
   -27.9931 -27.9506 -27.9464 -27.9394 -27.9371 -27.9171 -27.9140 -27.8492
   -27.8251 -27.8159 -27.8058 -27.7746 -27.6811 -27.6657 -27.6185 -27.5995
   -27.5144 -27.4934 -27.4924 -27.4864 -27.4793 -27.4763 -27.4369 -27.3821
   -18.1318  -4.6492  -4.4911  -4.1776  -2.8279  -2.7550  -1.8091  -1.6180
    -0.9506  -0.9188  -0.6570  -0.5128  -0.4160  -0.3608   0.2552   0.2679
     0.3093   0.3168   0.3874   0.4543   0.6001   0.6076   0.6355   0.6774
     0.7859   0.8097   0.9088   0.9429   1.0155   1.0850   1.1302

          k =-0.0777 0.0747 0.0000 ( 23012 PWs)   bands (ev):

   -49.3891 -49.3827 -49.3752 -49.3671 -49.3625 -49.3572 -49.3454 -49.2890
   -49.0537 -48.9195 -48.9086 -48.8974 -28.2130 -28.0831 -28.0643 -28.0570
   -28.0510 -28.0440 -28.0392 -28.0324 -28.0266 -28.0217 -28.0154 -28.0107
   -28.0038 -27.9876 -27.9595 -27.9516 -27.9150 -27.9070 -27.8703 -27.8482
   -27.8323 -27.8228 -27.8071 -27.7811 -27.6747 -27.6656 -27.6361 -27.5827
   -27.5386 -27.4949 -27.4873 -27.4812 -27.4784 -27.4581 -27.4397 -27.3887
   -18.1318  -4.6406  -4.4993  -4.1789  -3.0460  -2.3119  -1.9407  -1.6393
    -1.3129  -0.8619  -0.7180  -0.3659  -0.2592  -0.1663   0.0794   0.1495
     0.2822   0.3012   0.4374   0.4718   0.5421   0.6163   0.6728   0.7408
     0.7992   0.8730   0.8882   0.9197   1.0076   1.0507   1.1195

          k =-0.0777 0.1046 0.0000 ( 23012 PWs)   bands (ev):

   -49.3891 -49.3827 -49.3752 -49.3671 -49.3625 -49.3572 -49.3454 -49.2890
   -49.0537 -48.9195 -48.9086 -48.8974 -28.2130 -28.0831 -28.0643 -28.0570
   -28.0510 -28.0440 -28.0392 -28.0324 -28.0266 -28.0217 -28.0154 -28.0107
   -28.0038 -27.9876 -27.9595 -27.9516 -27.9150 -27.9070 -27.8703 -27.8482
   -27.8323 -27.8228 -27.8071 -27.7811 -27.6747 -27.6656 -27.6361 -27.5827
   -27.5386 -27.4949 -27.4873 -27.4812 -27.4784 -27.4581 -27.4397 -27.3887
   -18.1318  -4.6406  -4.4993  -4.1789  -3.0460  -2.3119  -1.9407  -1.6393
    -1.3129  -0.8619  -0.7180  -0.3659  -0.2592  -0.1663   0.0794   0.1495
     0.2822   0.3012   0.4374   0.4718   0.5421   0.6163   0.6728   0.7407
     0.7992   0.8730   0.8882   0.9198   1.0076   1.0507   1.1195

          k =-0.0777-0.0448 0.0000 ( 23032 PWs)   bands (ev):

   -49.3887 -49.3817 -49.3762 -49.3703 -49.3619 -49.3530 -49.3473 -49.2891
   -49.0537 -48.9199 -48.9080 -48.8977 -28.2151 -28.0807 -28.0671 -28.0549
   -28.0528 -28.0447 -28.0401 -28.0392 -28.0276 -28.0211 -28.0203 -28.0128
   -27.9931 -27.9506 -27.9464 -27.9394 -27.9371 -27.9171 -27.9140 -27.8492
   -27.8251 -27.8159 -27.8058 -27.7746 -27.6811 -27.6657 -27.6185 -27.5995
   -27.5144 -27.4934 -27.4924 -27.4864 -27.4793 -27.4763 -27.4369 -27.3821
   -18.1318  -4.6492  -4.4911  -4.1776  -2.8279  -2.7550  -1.8091  -1.6180
    -0.9506  -0.9188  -0.6570  -0.5128  -0.4160  -0.3608   0.2552   0.2679
     0.3093   0.3168   0.3874   0.4543   0.6001   0.6076   0.6355   0.6774
     0.7858   0.8097   0.9088   0.9429   1.0155   1.0850   1.1302

     the Fermi energy is     0.5463 ev

!    total energy              =   -1170.48933520 Ry
     Harris-Foulkes estimate   =   -1170.48933521 Ry
     estimated scf accuracy    <       0.00000002 Ry

     The total energy is the sum of the following terms:

     one-electron contribution =   -7554.36146819 Ry
     hartree contribution      =    3762.21550662 Ry
     xc contribution           =    -174.16204331 Ry
     ewald contribution        =    2795.94954919 Ry
     electric field correction =       0.00000031 Ry
     smearing contrib. (-TS)   =      -0.13087981 Ry

     convergence has been achieved in  13 iterations
 
 BEEF-vdW xc energy contributions
           1 :   -147.664231238334     
           2 :    129.940948997735     
           3 :   -102.249898586435     
           4 :    75.2107398019642     
           5 :   -56.3331709293153     
           6 :    47.0009719008695     
           7 :   -43.7340107177493     
           8 :    41.9032685494067     
           9 :   -38.8954613511687     
          10 :    34.8665352746439     
          11 :   -31.3481210198617     
          12 :    29.3497939099179     
          13 :   -28.5028690778284     
          14 :    27.6269569755380     
          15 :   -25.9220041113442     
          16 :    23.6371652833223     
          17 :   -21.7030093804628     
          18 :    20.7883222136227     
          19 :   -20.6998992375392     
          20 :    20.6243769268280     
          21 :   -19.8990102214794     
          22 :    18.5644493121004     
          23 :   -17.2390599779098     
          24 :    16.5042144948681     
          25 :   -16.3943033495854     
          26 :    16.4237328830377     
          27 :   -16.0689060571405     
          28 :    15.2330812777435     
          29 :   -14.2860922890581     
          30 :    13.6857889574413     
          31 :   -17.3688643153211     
          32 :   -12.4150046834348     

     Forces acting on atoms (Ry/au):


     negative rho (up, down):  2.609E-04 0.000E+00
     atom    1 type  1   force =     0.00182832    0.00105426    0.00179239
     atom    2 type  1   force =    -0.00182812    0.00105444    0.00179166
     atom    3 type  1   force =     0.00000030   -0.00211033    0.00179381
     atom    4 type  1   force =    -0.00000013    0.00000076    0.00238666
     atom    5 type  1   force =     0.00000016    0.00163750    0.00166938
     atom    6 type  1   force =    -0.00000058   -0.00000235   -0.01211850
     atom    7 type  1   force =    -0.00141726   -0.00081721    0.00167702
     atom    8 type  1   force =     0.00141732   -0.00081706    0.00167595
     atom    9 type  1   force =     0.00000142   -0.00003055   -0.00026821
     atom   10 type  1   force =    -0.00000363    0.00113337    0.00024341
     atom   11 type  1   force =     0.00102916   -0.00056487    0.00025019
     atom   12 type  1   force =    -0.00102466   -0.00055819    0.00025235
     atom   13 type  2   force =    -0.00000230    0.00002021   -0.00114612

     Total force =     0.002366     Total SCF correction =     0.000164


     entering subroutine stress ...


     negative rho (up, down):  2.609E-04 0.000E+00
          total   stress  (Ry/bohr**3)                   (kbar)     P=    4.08
   0.00004722   0.00000000  -0.00000000          6.95      0.00     -0.00
   0.00000000   0.00004723   0.00000001          0.00      6.95      0.00
  -0.00000000   0.00000001  -0.00001126         -0.00      0.00     -1.66


     bfgs converged in  21 scf cycles and  20 bfgs steps
     (criteria: energy <  1.0E+00, force <  1.9E-03)

     End of BFGS Geometry Optimization

     Final energy   =   -1170.4893352029 Ry
Begin final coordinates

ATOMIC_POSITIONS (crystal)
Sc1      0.166666667   0.166666667   0.395942884    0   0   0
Sc1      0.666666667   0.166666667   0.395942884    0   0   0
Sc1      0.166666667   0.666666667   0.395942884    0   0   0
Sc1      0.666666667   0.666666667   0.395942884    0   0   0
Sc1      0.833333333   0.333333333   0.500000000    0   0   0
Sc1      0.333333333   0.333333333   0.500000000    0   0   0
Sc1      0.833333333   0.833333333   0.500000000    0   0   0
Sc1      0.333333333   0.833333333   0.500000000    0   0   0
Sc1     -0.000010576   0.000019946   0.597105509
Sc1      0.500649888  -0.001297164   0.607321514
Sc1     -0.001313471   0.500642821   0.607321997
Sc1      0.500668625   0.500638627   0.607320448
O1       0.333333760   0.333330545   0.636844356
End final coordinates



     Writing output data file calc.save
 
     init_run     :     14.67s CPU     15.21s WALL (       1 calls)
     electrons    :   8592.12s CPU   9418.13s WALL (      21 calls)
     update_pot   :     70.86s CPU     76.37s WALL (      20 calls)
     forces       :    420.12s CPU    459.01s WALL (      21 calls)
     stress       :   1273.71s CPU   1373.67s WALL (      21 calls)

     Called by init_run:
     wfcinit      :      6.00s CPU      6.09s WALL (       1 calls)
     potinit      :      2.32s CPU      2.53s WALL (       1 calls)

     Called by electrons:
     c_bands      :   3363.99s CPU   3690.61s WALL (     280 calls)
     sum_band     :   1711.66s CPU   1870.23s WALL (     280 calls)
     v_of_rho     :    588.88s CPU    661.87s WALL (     300 calls)
     newd         :   1533.07s CPU   1545.56s WALL (     300 calls)
     mix_rho      :     20.68s CPU     21.07s WALL (     280 calls)
     vdW_energy   :    278.74s CPU    307.63s WALL (    1056 calls)
     vdW_ffts     :    701.97s CPU    728.07s WALL (    2154 calls)
     vdW_v        :    289.89s CPU    298.70s WALL (    1056 calls)

     Called by c_bands:
     init_us_2    :     21.14s CPU     21.19s WALL (    3015 calls)
     cegterg      :   2795.10s CPU   2865.84s WALL (    1400 calls)

     Called by *egterg:
     h_psi        :   1811.83s CPU   1849.40s WALL (    9873 calls)
     s_psi        :    186.86s CPU    187.31s WALL (    9873 calls)
     g_psi        :     11.47s CPU     11.51s WALL (    8468 calls)
     cdiaghg      :    274.54s CPU    276.48s WALL (    9763 calls)

     Called by h_psi:
     add_vuspsi   :    191.30s CPU    192.02s WALL (    9873 calls)

     General routines
     calbec       :    276.29s CPU    279.45s WALL (   11483 calls)
     fft          :   1094.07s CPU   1167.76s WALL (   63987 calls)
     ffts         :      1.26s CPU      1.34s WALL (     580 calls)
     fftw         :   1051.99s CPU   1092.04s WALL (  708440 calls)
     interpolate  :     12.44s CPU     13.06s WALL (     580 calls)
     davcio       :      0.00s CPU      0.03s WALL (       5 calls)
 
     Parallel routines
     fft_scatter  :   1272.96s CPU   1377.16s WALL (  773007 calls)
 
     PWSCF        :     2h54m CPU        3h11m WALL

 
   This run was terminated on:  18:54:50   2May2018            

=------------------------------------------------------------------------------=
   JOB DONE.
=------------------------------------------------------------------------------=
Job  /afs/slac/g/suncat/bin/suncat-tsmpirun -x LD_LIBRARY_PATH -wdir /scratch/qe781883_fabnG pw.x -npool 4 -in pw.inp

TID   HOST_NAME   COMMAND_LINE            STATUS            TERMINATION_TIME
===== ========== ================  =======================  ===================
00000 suncat0176 pw.x -npool 4 -i  Done                     05/02/2018 18:54:50
00001 suncat0176 pw.x -npool 4 -i  Done                     05/02/2018 18:54:50
00002 suncat0176 pw.x -npool 4 -i  Done                     05/02/2018 18:54:50
00003 suncat0176 pw.x -npool 4 -i  Done                     05/02/2018 18:54:50
00004 suncat0176 pw.x -npool 4 -i  Done                     05/02/2018 18:54:50
00005 suncat0176 pw.x -npool 4 -i  Done                     05/02/2018 18:54:50
00006 suncat0176 pw.x -npool 4 -i  Done                     05/02/2018 18:54:50
00007 suncat0176 pw.x -npool 4 -i  Done                     05/02/2018 18:54:50
00008 suncat0114 pw.x -npool 4 -i  Done                     05/02/2018 18:54:50
00009 suncat0114 pw.x -npool 4 -i  Done                     05/02/2018 18:54:50
00010 suncat0114 pw.x -npool 4 -i  Done                     05/02/2018 18:54:50
00011 suncat0114 pw.x -npool 4 -i  Done                     05/02/2018 18:54:50
00012 suncat0114 pw.x -npool 4 -i  Done                     05/02/2018 18:54:50
00013 suncat0114 pw.x -npool 4 -i  Done                     05/02/2018 18:54:50
00014 suncat0114 pw.x -npool 4 -i  Done                     05/02/2018 18:54:50
00015 suncat0114 pw.x -npool 4 -i  Done                     05/02/2018 18:54:50
00016 suncat0110 pw.x -npool 4 -i  Done                     05/02/2018 18:54:50
00017 suncat0110 pw.x -npool 4 -i  Done                     05/02/2018 18:54:50
00018 suncat0110 pw.x -npool 4 -i  Done                     05/02/2018 18:54:50
00019 suncat0110 pw.x -npool 4 -i  Done                     05/02/2018 18:54:50
00020 suncat0110 pw.x -npool 4 -i  Done                     05/02/2018 18:54:50
00021 suncat0110 pw.x -npool 4 -i  Done                     05/02/2018 18:54:50
00022 suncat0110 pw.x -npool 4 -i  Done                     05/02/2018 18:54:50
00023 suncat0110 pw.x -npool 4 -i  Done                     05/02/2018 18:54:50
00024 suncat0241 pw.x -npool 4 -i  Done                     05/02/2018 18:54:50
00025 suncat0241 pw.x -npool 4 -i  Done                     05/02/2018 18:54:50
00026 suncat0241 pw.x -npool 4 -i  Done                     05/02/2018 18:54:50
00027 suncat0241 pw.x -npool 4 -i  Done                     05/02/2018 18:54:50
00028 suncat0241 pw.x -npool 4 -i  Done                     05/02/2018 18:54:50
00029 suncat0241 pw.x -npool 4 -i  Done                     05/02/2018 18:54:50
00030 suncat0241 pw.x -npool 4 -i  Done                     05/02/2018 18:54:50
00031 suncat0241 pw.x -npool 4 -i  Done                     05/02/2018 18:54:50
