  python dir          : /u/if/mamunm/src/espresso
  espresso dir        : /nfs/slac/g/suncatfs/sw/espv18/espresso-dynpy-beef/bin
  pseudo dir          : /u/if/mamunm/psp/gbrv1.5pbe
  ase-espresso py git : GITVERSION



     Program PWSCF v.5.1rc2 (svn rev. 11289) starts on 16Apr2018 at 11: 6:19 

     This program is part of the open-source Quantum ESPRESSO suite
     for quantum simulation of materials; please cite
         "P. Giannozzi et al., J. Phys.:Condens. Matter 21 395502 (2009);
          URL http://www.quantum-espresso.org", 
     in publications or presentations arising from this work. More details at
     http://www.quantum-espresso.org/quote

     Parallel version (MPI), running on    32 processors
     K-points division:     npool     =       4
     R & G space division:  proc/nbgrp/npool/nimage =       8
     Reading input from pw.inp
     Message from routine read_cards :
     DEPRECATED: no units specified in CELL_PARAMETERS card

     Current dimensions of program PWSCF are:
     Max number of different atomic species (ntypx) = 10
     Max number of k-points (npk) =  40000
     Max angular momentum in pseudopotentials (lmaxx) =  3
     Presently stress not available with electric field


     **************************************************************************
     Initializing libbeef V0.1.1 with the BEEF-vdW functional.
     Citation: Wellendorff et al., PRB 85, 235149 (2012).
     **************************************************************************


     IMPORTANT: XC functional enforced from input :
     Exchange-correlation      = BEEF-VDW ( 1  4 27 13 2)
     Any further DFT definition will be discarded
     Please, verify this is what you really want


     Subspace diagonalization in iterative solution of the eigenvalue problem:
     a serial algorithm will be used

 
     Parallelization info
     --------------------
     sticks:   dense  smooth     PW     G-vecs:    dense   smooth      PW
     Min         364     144     43                69178    17470    2757
     Max         365     145     44                69192    17513    2766
     Sum        2917    1159    349               553473   139985   22105
 


     bravais-lattice index     =            0
     lattice parameter (alat)  =       1.8897  a.u.
     unit-cell volume          =    4650.5773 (a.u.)^3
     number of atoms/cell      =           14
     number of atomic types    =            3
     number of electrons       =        41.00
     number of Kohn-Sham states=           30
     kinetic-energy cutoff     =      36.7493  Ry
     charge density cutoff     =     367.4932  Ry
     convergence threshold     =      1.0E-05
     mixing beta               =       0.3000
     number of iterations used =           10  plain     mixing
     Exchange-correlation      = BEEF-VDW ( 1  4 27 13 2)
     nstep                     =           50


     celldm(1)=   1.889726  celldm(2)=   0.000000  celldm(3)=   0.000000
     celldm(4)=   0.000000  celldm(5)=   0.000000  celldm(6)=   0.000000

     crystal axes: (cart. coord. in units of alat)
               a(1) = (   5.682886   0.000000   0.000000 )  
               a(2) = (   2.841443   4.921524   0.000000 )  
               a(3) = (   0.000000   0.000000  24.640057 )  

     reciprocal axes: (cart. coord. in units 2 pi/alat)
               b(1) = (  0.175967 -0.101595  0.000000 )  
               b(2) = (  0.000000  0.203189  0.000000 )  
               b(3) = (  0.000000  0.000000  0.040584 )  


     PseudoPot. # 1 for Al read from file:
     /u/if/mamunm/psp/gbrv1.5pbe/Al.UPF
     MD5 check sum: 0a6289f5291fc8f409219462bc851e1f
     Pseudo is Ultrasoft + core correction, Zval =  3.0
     Generated by new atomic code, or converted to UPF format
     Using radial grid of  893 points,  3 beta functions with: 
                l(1) =   0
                l(2) =   1
                l(3) =   2
     Q(r) pseudized with  8 coefficients,  rinner =    0.900   0.900   0.900
                                                       0.900   0.900

     PseudoPot. # 2 for C  read from file:
     /u/if/mamunm/psp/gbrv1.5pbe/C.UPF
     MD5 check sum: d1aef80898a10debaa0f26306b886e00
     Pseudo is Ultrasoft + core correction, Zval =  4.0
     Generated by new atomic code, or converted to UPF format
     Using radial grid of  721 points,  4 beta functions with: 
                l(1) =   0
                l(2) =   0
                l(3) =   1
                l(4) =   1
     Q(r) pseudized with  8 coefficients,  rinner =    1.100   1.100   1.100


     PseudoPot. # 3 for H  read from file:
     /u/if/mamunm/psp/gbrv1.5pbe/H.UPF
     MD5 check sum: 761ae9a214b05c3daf00ab9f6b793d6f
     Pseudo is Ultrasoft, Zval =  1.0
     Generated by new atomic code, or converted to UPF format
     Using radial grid of  615 points,  2 beta functions with: 
                l(1) =   0
                l(2) =   0
     Q(r) pseudized with  8 coefficients,  rinner =    0.700

     vdW kernel table read from file vdW_kernel_table
     MD5 check sum: 095c7af220d748ca6e76c0b4c6cfb241

     atomic species   valence    mass     pseudopotential
        Al1            3.00    26.98154     Al( 1.00)
        C1             4.00    12.01100     C ( 1.00)
        H1             1.00     1.00800     H ( 1.00)

     No symmetry found



   Cartesian axes

     site n.     atom                  positions (alat units)
         1           Al1 tau(   1) = (   1.4207216   0.8202540  10.0000000  )
         2           Al1 tau(   2) = (   4.2621647   0.8202540  10.0000000  )
         3           Al1 tau(   3) = (   2.8414431   3.2810159  10.0000000  )
         4           Al1 tau(   4) = (   5.6828862   3.2810159  10.0000000  )
         5           Al1 tau(   5) = (   5.6828862   1.6405079  12.3200286  )
         6           Al1 tau(   6) = (   2.8414431   1.6405079  12.3200286  )
         7           Al1 tau(   7) = (   7.1036078   4.1012699  12.3200286  )
         8           Al1 tau(   8) = (   4.2621647   4.1012699  12.3200286  )
         9           Al1 tau(   9) = (   0.0000000   0.0000000  14.6400572  )
        10           Al1 tau(  10) = (   2.8414431   0.0000000  14.6400572  )
        11           Al1 tau(  11) = (   1.4207216   2.4607619  14.6400572  )
        12           Al1 tau(  12) = (   4.2621647   2.4607619  14.6400572  )
        13           C1  tau(  13) = (   0.0000000   0.0000000  16.3145572  )
        14           H1  tau(  14) = (   0.0000000   0.0000000  17.4145572  )

     number of k points=    20  Fermi-Dirac smearing, width (Ry)=  0.0110
                       cart. coord. in units 2pi/alat
        k(    1) = (   0.0000000   0.0000000   0.0000000), wk =   0.0555556
        k(    2) = (   0.0000000   0.0338648   0.0000000), wk =   0.1111111
        k(    3) = (   0.0000000   0.0677297   0.0000000), wk =   0.1111111
        k(    4) = (   0.0000000  -0.1015945   0.0000000), wk =   0.0555556
        k(    5) = (   0.0293278  -0.0169324   0.0000000), wk =   0.1111111
        k(    6) = (   0.0293278   0.0169324   0.0000000), wk =   0.1111111
        k(    7) = (   0.0293278   0.0507973   0.0000000), wk =   0.1111111
        k(    8) = (   0.0293278  -0.1185270   0.0000000), wk =   0.1111111
        k(    9) = (   0.0293278  -0.0846621   0.0000000), wk =   0.1111111
        k(   10) = (   0.0293278  -0.0507973   0.0000000), wk =   0.1111111
        k(   11) = (   0.0586556  -0.0338648   0.0000000), wk =   0.1111111
        k(   12) = (   0.0586556   0.0000000   0.0000000), wk =   0.1111111
        k(   13) = (   0.0586556   0.0338648   0.0000000), wk =   0.1111111
        k(   14) = (   0.0586556  -0.1354594   0.0000000), wk =   0.1111111
        k(   15) = (   0.0586556  -0.1015945   0.0000000), wk =   0.1111111
        k(   16) = (   0.0586556  -0.0677297   0.0000000), wk =   0.1111111
        k(   17) = (  -0.0879835   0.0507973   0.0000000), wk =   0.0555556
        k(   18) = (  -0.0879835   0.0846621   0.0000000), wk =   0.1111111
        k(   19) = (  -0.0879835   0.1185270   0.0000000), wk =   0.1111111
        k(   20) = (  -0.0879835  -0.0507973   0.0000000), wk =   0.0555556

     Dense  grid:   553473 G-vectors     FFT dimensions: (  72,  72, 288)

     Smooth grid:   139985 G-vectors     FFT dimensions: (  45,  45, 180)

     Largest allocated arrays     est. size (Mb)     dimensions
        Kohn-Sham Wavefunctions         1.04 Mb     (    2266,   30)
        NL pseudopotentials             4.08 Mb     (    2266,  118)
        Each V/rho on FFT grid          2.85 Mb     (  186624)
        Each G-vector array             0.53 Mb     (   69187)
        G-vector shells                 0.14 Mb     (   18589)
     Largest temporary arrays     est. size (Mb)     dimensions
        Auxiliary wavefunctions         4.15 Mb     (    2266,  120)
        Each subspace H/S matrix        0.22 Mb     (     120,  120)
        Each <psi_i|beta_j> matrix      0.05 Mb     (     118,   30)
        Arrays for rho mixing          28.48 Mb     (  186624,   10)

     Initial potential from superposition of free atoms
     Check: negative starting charge=   -0.000160

     starting charge   40.97037, renormalised to   41.00000

     negative rho (up, down):  1.603E-04 0.000E+00


     ************************************************************************
     *
     * You are using vdW-DF for exchange-correlation in this calculation.
     * Please cite the following three references that made this development
     * possible:
     *
     *   M. Dion, H. Rydberg, E. Schroder, D. C. Langreth, and
     *   B. I. Lundqvist, Phys. Rev. Lett. 92, 246401 (2004).
     *
     *   T. Thonhauser, V. R. Cooper, S. Li, A. Puzder, P. Hyldgaard, and
     *   D. C. Langreth, Phys. Rev. B 76, 125112 (2007).
     *
     *   G. Roman-Perez and J. M. Soler, Phys. Rev. Lett. 103, 096102 (2009).
     *
     *
     * If you are using vdW-DF2, please also cite:
     *
     *   K. Lee, E. D. Murray, L. Kong, B. I. Lundqvist, and
     *   D. C. Langreth, Phys. Rev. B 82, 081101(R) (2010).
     *
     *
     * If you are calculating the stress with vdW-DF, please also cite:
     *
     *   R. Sabatini, E. Kucukbenli, B. Kolb, T. Thonhauser, and
     *   S. de Gironcoli, J. Phys.: Condens. Matter 24, 424209 (2012).
     *
     ************************************************************************

     Carrying out vdW-DF run using the following parameters:

     Nqs =      20    Nr_points =    1024   r_max =   100.000
     q_mesh =
               0.00001000     0.04494208     0.09755937     0.15916263
               0.23128650     0.31572767     0.41458969     0.53033537
               0.66584808     0.82450364     1.01025438     1.22772762
               1.48234092     1.78043706     2.12944203     2.53805004
               3.01644009     3.57652955     4.23227104     5.00000000

     Gradients computed in reciprocal space

     ************************************************************************


 
     Adding external electric field

     Computed dipole along edir(3) : 
        Dipole               -0.0284 Ry au,         -0.0722 Debye
        Dipole field         -0.0001 Ry au
 
        Potential amp.        0.0070 Ry
        Total length         45.3989 bohr
 
     Starting wfc are   53 randomized atomic wfcs

     total cpu time spent up to now is        6.3 secs

     per-process dynamical memory:    62.8 Mb

     Self-consistent Calculation

     iteration #  1     ecut=    36.75 Ry     beta=0.30
     Davidson diagonalization with overlap
     ethr =  1.00E-02,  avg # of iterations =  3.0

     negative rho (up, down):  2.170E-04 0.000E+00
 
     Adding external electric field

     Computed dipole along edir(3) : 
        Dipole               -3.8339 Ry au,         -9.7447 Debye
        Dipole field         -0.0104 Ry au
 
        Potential amp.        0.9406 Ry
        Total length         45.3989 bohr
 

     total cpu time spent up to now is       13.3 secs

     total energy              =     -93.86011298 Ry
     Harris-Foulkes estimate   =     -95.29890542 Ry
     estimated scf accuracy    <       3.23267634 Ry

     iteration #  2     ecut=    36.75 Ry     beta=0.30
     Davidson diagonalization with overlap
     ethr =  7.88E-03,  avg # of iterations =  5.2

     negative rho (up, down):  2.154E-04 0.000E+00
 
     Adding external electric field

     Computed dipole along edir(3) : 
        Dipole                0.3043 Ry au,          0.7734 Debye
        Dipole field          0.0008 Ry au
 
        Potential amp.       -0.0747 Ry
        Total length         45.3989 bohr
 

     total cpu time spent up to now is       20.7 secs

     total energy              =     -90.29137639 Ry
     Harris-Foulkes estimate   =     -98.92000347 Ry
     estimated scf accuracy    <     134.17350081 Ry

     iteration #  3     ecut=    36.75 Ry     beta=0.30
     Davidson diagonalization with overlap
     ethr =  7.88E-03,  avg # of iterations =  5.5

     negative rho (up, down):  2.142E-04 0.000E+00
 
     Adding external electric field

     Computed dipole along edir(3) : 
        Dipole                0.2657 Ry au,          0.6752 Debye
        Dipole field          0.0007 Ry au
 
        Potential amp.       -0.0652 Ry
        Total length         45.3989 bohr
 

     total cpu time spent up to now is       28.4 secs

     total energy              =     -94.76740951 Ry
     Harris-Foulkes estimate   =     -95.10180385 Ry
     estimated scf accuracy    <       2.21235200 Ry

     iteration #  4     ecut=    36.75 Ry     beta=0.30
     Davidson diagonalization with overlap
     ethr =  5.40E-03,  avg # of iterations =  2.1

     negative rho (up, down):  2.334E-04 0.000E+00
 
     Adding external electric field

     Computed dipole along edir(3) : 
        Dipole                0.1490 Ry au,          0.3788 Debye
        Dipole field          0.0004 Ry au
 
        Potential amp.       -0.0366 Ry
        Total length         45.3989 bohr
 

     total cpu time spent up to now is       34.6 secs

     total energy              =     -94.90585157 Ry
     Harris-Foulkes estimate   =     -94.98691642 Ry
     estimated scf accuracy    <       0.79670083 Ry

     iteration #  5     ecut=    36.75 Ry     beta=0.30
     Davidson diagonalization with overlap
     ethr =  1.94E-03,  avg # of iterations =  1.0

     negative rho (up, down):  2.532E-04 0.000E+00
 
     Adding external electric field

     Computed dipole along edir(3) : 
        Dipole                0.0603 Ry au,          0.1532 Debye
        Dipole field          0.0002 Ry au
 
        Potential amp.       -0.0148 Ry
        Total length         45.3989 bohr
 

     total cpu time spent up to now is       40.8 secs

     total energy              =     -94.93329488 Ry
     Harris-Foulkes estimate   =     -94.95201960 Ry
     estimated scf accuracy    <       0.07833533 Ry

     iteration #  6     ecut=    36.75 Ry     beta=0.30
     Davidson diagonalization with overlap
     ethr =  1.91E-04,  avg # of iterations =  2.1

     negative rho (up, down):  2.914E-04 0.000E+00
 
     Adding external electric field

     Computed dipole along edir(3) : 
        Dipole               -0.0408 Ry au,         -0.1036 Debye
        Dipole field         -0.0001 Ry au
 
        Potential amp.        0.0100 Ry
        Total length         45.3989 bohr
 

     total cpu time spent up to now is       46.9 secs

     total energy              =     -94.93403580 Ry
     Harris-Foulkes estimate   =     -94.93867642 Ry
     estimated scf accuracy    <       0.02331258 Ry

     iteration #  7     ecut=    36.75 Ry     beta=0.30
     Davidson diagonalization with overlap
     ethr =  5.69E-05,  avg # of iterations =  3.6

     negative rho (up, down):  3.534E-04 0.000E+00
 
     Adding external electric field

     Computed dipole along edir(3) : 
        Dipole               -0.0788 Ry au,         -0.2002 Debye
        Dipole field         -0.0002 Ry au
 
        Potential amp.        0.0193 Ry
        Total length         45.3989 bohr
 

     total cpu time spent up to now is       53.3 secs

     total energy              =     -94.93508620 Ry
     Harris-Foulkes estimate   =     -94.93555775 Ry
     estimated scf accuracy    <       0.00271739 Ry

     iteration #  8     ecut=    36.75 Ry     beta=0.30
     Davidson diagonalization with overlap
     ethr =  6.63E-06,  avg # of iterations =  4.0

     negative rho (up, down):  3.644E-04 0.000E+00
 
     Adding external electric field

     Computed dipole along edir(3) : 
        Dipole               -0.0823 Ry au,         -0.2091 Debye
        Dipole field         -0.0002 Ry au
 
        Potential amp.        0.0202 Ry
        Total length         45.3989 bohr
 

     total cpu time spent up to now is       60.0 secs

     total energy              =     -94.93530197 Ry
     Harris-Foulkes estimate   =     -94.93549604 Ry
     estimated scf accuracy    <       0.00143766 Ry

     iteration #  9     ecut=    36.75 Ry     beta=0.30
     Davidson diagonalization with overlap
     ethr =  3.51E-06,  avg # of iterations =  1.1

     negative rho (up, down):  4.068E-04 0.000E+00
 
     Adding external electric field

     Computed dipole along edir(3) : 
        Dipole               -0.0857 Ry au,         -0.2178 Debye
        Dipole field         -0.0002 Ry au
 
        Potential amp.        0.0210 Ry
        Total length         45.3989 bohr
 

     total cpu time spent up to now is       65.9 secs

     total energy              =     -94.93542382 Ry
     Harris-Foulkes estimate   =     -94.93543701 Ry
     estimated scf accuracy    <       0.00034963 Ry

     iteration # 10     ecut=    36.75 Ry     beta=0.30
     Davidson diagonalization with overlap
     ethr =  8.53E-07,  avg # of iterations =  3.1

     negative rho (up, down):  4.181E-04 0.000E+00
 
     Adding external electric field

     Computed dipole along edir(3) : 
        Dipole               -0.0851 Ry au,         -0.2163 Debye
        Dipole field         -0.0002 Ry au
 
        Potential amp.        0.0209 Ry
        Total length         45.3989 bohr
 

     total cpu time spent up to now is       72.1 secs

     total energy              =     -94.93543912 Ry
     Harris-Foulkes estimate   =     -94.93544444 Ry
     estimated scf accuracy    <       0.00001421 Ry

     iteration # 11     ecut=    36.75 Ry     beta=0.30
     Davidson diagonalization with overlap
     ethr =  3.47E-08,  avg # of iterations =  3.0

     negative rho (up, down):  4.367E-04 0.000E+00

     negative rho (up, down):  4.367E-04 0.000E+00

     negative rho (up, down):  4.367E-04 0.000E+00

     negative rho (up, down):  4.367E-04 0.000E+00

     negative rho (up, down):  4.367E-04 0.000E+00

     negative rho (up, down):  4.367E-04 0.000E+00

     negative rho (up, down):  4.367E-04 0.000E+00

     negative rho (up, down):  4.367E-04 0.000E+00

     negative rho (up, down):  4.367E-04 0.000E+00

     negative rho (up, down):  4.367E-04 0.000E+00

     negative rho (up, down):  4.367E-04 0.000E+00

     negative rho (up, down):  4.367E-04 0.000E+00

     negative rho (up, down):  4.367E-04 0.000E+00

     negative rho (up, down):  4.367E-04 0.000E+00

     negative rho (up, down):  4.367E-04 0.000E+00

     negative rho (up, down):  4.367E-04 0.000E+00

     negative rho (up, down):  4.367E-04 0.000E+00

     negative rho (up, down):  4.367E-04 0.000E+00

     negative rho (up, down):  4.367E-04 0.000E+00

     negative rho (up, down):  4.367E-04 0.000E+00

     negative rho (up, down):  4.367E-04 0.000E+00

     negative rho (up, down):  4.367E-04 0.000E+00

     negative rho (up, down):  4.367E-04 0.000E+00

     negative rho (up, down):  4.367E-04 0.000E+00

     negative rho (up, down):  4.367E-04 0.000E+00

     negative rho (up, down):  4.367E-04 0.000E+00

     negative rho (up, down):  4.367E-04 0.000E+00

     negative rho (up, down):  4.367E-04 0.000E+00

     negative rho (up, down):  4.367E-04 0.000E+00

     negative rho (up, down):  4.367E-04 0.000E+00

     negative rho (up, down):  4.367E-04 0.000E+00

     negative rho (up, down):  4.367E-04 0.000E+00

     negative rho (up, down):  4.367E-04 0.000E+00

     negative rho (up, down):  4.367E-04 0.000E+00

     negative rho (up, down):  4.367E-04 0.000E+00
 
     Adding external electric field

     Computed dipole along edir(3) : 
        Dipole               -0.0860 Ry au,         -0.2186 Debye
        Dipole field         -0.0002 Ry au
 
        Potential amp.        0.0211 Ry
        Total length         45.3989 bohr
 

     total cpu time spent up to now is      125.4 secs

     End of self-consistent calculation

          k = 0.0000 0.0000 0.0000 ( 17579 PWs)   bands (ev):

   -11.9508 -11.2092  -9.5318  -7.1623  -5.9274  -5.4517  -5.4517  -5.4046
    -5.3933  -5.3933  -5.1357  -4.1766  -4.1766  -4.0244  -3.6380  -3.5242
    -3.5242  -2.8077  -1.7866  -1.7866  -1.0716  -1.0716  -0.9968  -0.3749
     0.0600   0.0600   0.5366   1.9106   1.9110   1.9110

          k = 0.0000 0.0339 0.0000 ( 17522 PWs)   bands (ev):

   -11.9032 -11.0728  -9.3860  -7.2457  -7.0258  -6.3012  -6.2284  -5.8509
    -5.2546  -4.6940  -4.4745  -4.3075  -4.2351  -3.5825  -3.2642  -2.8881
    -2.8862  -2.4776  -1.9671  -1.6597  -1.0858  -0.9510  -0.7747  -0.0123
     0.2659   0.5084   0.7339   1.5867   1.8558   2.0280

          k = 0.0000 0.0677 0.0000 ( 17510 PWs)   bands (ev):

   -11.8197 -10.6258  -8.9417  -8.6834  -7.1686  -6.7915  -6.7164  -6.5573
    -5.5927  -5.1384  -4.7933  -4.0939  -3.1711  -3.0810  -2.8024  -2.5391
    -2.0003  -1.7622  -1.0962  -0.8991  -0.7321  -0.5482  -0.1908   0.4866
     0.7074   0.7221   1.0841   1.3701   1.4919   2.0191

          k = 0.0000-0.1016 0.0000 ( 17464 PWs)   bands (ev):

   -11.7834  -9.8613  -9.7947  -8.1903  -8.1680  -6.9456  -6.8797  -6.3472
    -5.5753  -5.2934  -5.2906  -4.2201  -3.0583  -2.7565  -2.6055  -1.4698
    -1.3449  -1.2323  -0.9501  -0.9444  -0.5842  -0.5052   0.2711   0.5484
     0.7454   0.9714   1.0089   1.3799   1.3934   1.9360

          k = 0.0293-0.0169 0.0000 ( 17522 PWs)   bands (ev):

   -11.9032 -11.0728  -9.3860  -7.2457  -7.0258  -6.3012  -6.2284  -5.8509
    -5.2546  -4.6940  -4.4745  -4.3075  -4.2351  -3.5825  -3.2642  -2.8881
    -2.8862  -2.4776  -1.9671  -1.6597  -1.0858  -0.9510  -0.7747  -0.0123
     0.2659   0.5084   0.7339   1.5867   1.8558   2.0280

          k = 0.0293 0.0169 0.0000 ( 17522 PWs)   bands (ev):

   -11.9032 -11.0728  -9.3860  -7.2457  -7.0258  -6.3012  -6.2284  -5.8509
    -5.2546  -4.6940  -4.4745  -4.3075  -4.2351  -3.5825  -3.2642  -2.8881
    -2.8862  -2.4776  -1.9671  -1.6597  -1.0858  -0.9510  -0.7747  -0.0123
     0.2659   0.5084   0.7339   1.5867   1.8559   2.0280

          k = 0.0293 0.0508 0.0000 ( 17513 PWs)   bands (ev):

   -11.8396 -10.7792  -9.0897  -7.8815  -7.8637  -6.8735  -6.3474  -6.2180
    -5.2492  -4.9384  -4.8197  -3.7936  -3.6990  -3.5762  -3.0854  -2.4708
    -2.0633  -1.8899  -1.4282  -1.3160  -0.5287  -0.5016  -0.3298   0.0003
     0.3627   0.5986   1.0221   1.2542   2.1975   2.3617

          k = 0.0293-0.1185 0.0000 ( 17495 PWs)   bands (ev):

   -11.7849 -10.1514  -9.1760  -8.4832  -8.1965  -7.5756  -6.7280  -6.2188
    -5.4136  -5.2068  -4.4686  -3.8779  -3.4913  -3.3097  -2.5898  -2.0549
    -1.7335  -1.5153  -1.2706  -0.6444  -0.3889  -0.1008   0.2390   0.4908
     0.7591   1.0435   1.2928   1.4637   1.7930   2.0865

          k = 0.0293-0.0847 0.0000 ( 17495 PWs)   bands (ev):

   -11.7849 -10.1514  -9.1760  -8.4832  -8.1965  -7.5756  -6.7280  -6.2188
    -5.4136  -5.2068  -4.4686  -3.8779  -3.4913  -3.3097  -2.5898  -2.0549
    -1.7335  -1.5153  -1.2706  -0.6444  -0.3889  -0.1008   0.2390   0.4908
     0.7591   1.0435   1.2928   1.4637   1.7930   2.0864

          k = 0.0293-0.0508 0.0000 ( 17513 PWs)   bands (ev):

   -11.8396 -10.7792  -9.0897  -7.8815  -7.8637  -6.8735  -6.3474  -6.2180
    -5.2492  -4.9384  -4.8197  -3.7936  -3.6990  -3.5762  -3.0854  -2.4708
    -2.0633  -1.8899  -1.4282  -1.3160  -0.5287  -0.5016  -0.3298   0.0003
     0.3627   0.5986   1.0221   1.2542   2.1974   2.3616

          k = 0.0587-0.0339 0.0000 ( 17510 PWs)   bands (ev):

   -11.8197 -10.6258  -8.9417  -8.6834  -7.1686  -6.7915  -6.7164  -6.5573
    -5.5927  -5.1384  -4.7933  -4.0939  -3.1711  -3.0810  -2.8024  -2.5391
    -2.0003  -1.7622  -1.0962  -0.8991  -0.7321  -0.5482  -0.1908   0.4866
     0.7074   0.7221   1.0841   1.3701   1.4919   2.0192

          k = 0.0587 0.0000 0.0000 ( 17513 PWs)   bands (ev):

   -11.8396 -10.7792  -9.0897  -7.8815  -7.8637  -6.8735  -6.3474  -6.2180
    -5.2492  -4.9384  -4.8197  -3.7936  -3.6990  -3.5762  -3.0854  -2.4708
    -2.0633  -1.8899  -1.4282  -1.3160  -0.5287  -0.5016  -0.3298   0.0003
     0.3627   0.5986   1.0221   1.2542   2.1976   2.3617

          k = 0.0587 0.0339 0.0000 ( 17510 PWs)   bands (ev):

   -11.8197 -10.6258  -8.9417  -8.6834  -7.1686  -6.7915  -6.7164  -6.5573
    -5.5927  -5.1384  -4.7933  -4.0939  -3.1711  -3.0810  -2.8024  -2.5391
    -2.0003  -1.7622  -1.0962  -0.8991  -0.7321  -0.5482  -0.1908   0.4866
     0.7074   0.7221   1.0841   1.3701   1.4919   2.0192

          k = 0.0587-0.1355 0.0000 ( 17495 PWs)   bands (ev):

   -11.7849 -10.1514  -9.1760  -8.4832  -8.1965  -7.5756  -6.7280  -6.2188
    -5.4136  -5.2068  -4.4686  -3.8779  -3.4913  -3.3097  -2.5898  -2.0549
    -1.7335  -1.5153  -1.2706  -0.6444  -0.3889  -0.1008   0.2390   0.4908
     0.7591   1.0435   1.2928   1.4637   1.7930   2.0864

          k = 0.0587-0.1016 0.0000 ( 17442 PWs)   bands (ev):

   -11.7696  -9.3613  -9.3573  -9.2989  -7.7743  -7.6980  -7.6883  -6.1157
    -5.0956  -5.0913  -3.8807  -3.5435  -3.4628  -3.4213  -2.6117  -2.4242
    -2.1701  -1.7101  -1.6125  -0.7308  -0.4351  -0.2274   1.0774   1.1770
     1.3288   1.6377   1.9541   2.0484   2.1803   2.1892

          k = 0.0587-0.0677 0.0000 ( 17495 PWs)   bands (ev):

   -11.7849 -10.1514  -9.1760  -8.4832  -8.1965  -7.5756  -6.7280  -6.2188
    -5.4136  -5.2068  -4.4686  -3.8779  -3.4913  -3.3097  -2.5898  -2.0549
    -1.7335  -1.5153  -1.2706  -0.6444  -0.3889  -0.1008   0.2390   0.4908
     0.7591   1.0435   1.2928   1.4637   1.7930   2.0864

          k =-0.0880 0.0508 0.0000 ( 17464 PWs)   bands (ev):

   -11.7834  -9.8613  -9.7947  -8.1903  -8.1680  -6.9456  -6.8797  -6.3472
    -5.5753  -5.2934  -5.2906  -4.2201  -3.0583  -2.7565  -2.6055  -1.4698
    -1.3449  -1.2323  -0.9501  -0.9444  -0.5842  -0.5052   0.2711   0.5484
     0.7454   0.9714   1.0089   1.3799   1.3934   1.9360

          k =-0.0880 0.0847 0.0000 ( 17495 PWs)   bands (ev):

   -11.7849 -10.1514  -9.1760  -8.4832  -8.1965  -7.5756  -6.7280  -6.2188
    -5.4136  -5.2068  -4.4686  -3.8779  -3.4913  -3.3097  -2.5898  -2.0549
    -1.7335  -1.5153  -1.2706  -0.6444  -0.3889  -0.1008   0.2390   0.4908
     0.7591   1.0435   1.2928   1.4637   1.7930   2.0864

          k =-0.0880 0.1185 0.0000 ( 17495 PWs)   bands (ev):

   -11.7849 -10.1514  -9.1760  -8.4832  -8.1965  -7.5756  -6.7280  -6.2188
    -5.4136  -5.2068  -4.4686  -3.8779  -3.4913  -3.3097  -2.5898  -2.0549
    -1.7335  -1.5153  -1.2706  -0.6444  -0.3889  -0.1008   0.2390   0.4908
     0.7591   1.0435   1.2928   1.4637   1.7930   2.0864

          k =-0.0880-0.0508 0.0000 ( 17464 PWs)   bands (ev):

   -11.7834  -9.8613  -9.7947  -8.1903  -8.1680  -6.9456  -6.8797  -6.3472
    -5.5753  -5.2935  -5.2906  -4.2201  -3.0583  -2.7565  -2.6055  -1.4698
    -1.3449  -1.2323  -0.9501  -0.9444  -0.5842  -0.5052   0.2711   0.5484
     0.7454   0.9714   1.0089   1.3799   1.3934   1.9360

     the Fermi energy is    -0.6994 ev

!    total energy              =     -94.93544213 Ry
     Harris-Foulkes estimate   =     -94.93544183 Ry
     estimated scf accuracy    <       0.00000088 Ry

     The total energy is the sum of the following terms:

     one-electron contribution =    -720.04694277 Ry
     hartree contribution      =     368.43575268 Ry
     xc contribution           =     -57.52465785 Ry
     ewald contribution        =     314.23533388 Ry
     electric field correction =       0.00001999 Ry
     smearing contrib. (-TS)   =      -0.03494806 Ry

     convergence has been achieved in  11 iterations
 
 BEEF-vdW xc energy contributions
           1 :   -47.2311386565975     
           2 :    40.5406628401038     
           3 :   -30.3046795594234     
           4 :    20.5841772937530     
           5 :   -13.9518079620689     
           6 :    10.5509367796329     
           7 :   -8.87731614687606     
           8 :    7.37875447886515     
           9 :   -5.56655613934049     
          10 :    3.94665709409093     
          11 :   -3.14163786244882     
          12 :    3.14343676615538     
          13 :   -3.33262731438604     
          14 :    3.09421675400447     
          15 :   -2.35139184360116     
          16 :    1.53005488707446     
          17 :   -1.07060816230199     
          18 :    1.00663689189821     
          19 :  -0.998997085277772     
          20 :   0.724165523771859     
          21 :  -0.193493882547550     
          22 :  -0.294866334068359     
          23 :   0.477238261573568     
          24 :  -0.376865525816292     
          25 :   0.252717521053633     
          26 :  -0.327878690864850     
          27 :   0.580713532500923     
          28 :  -0.792825853826933     
          29 :   0.781722267868865     
          30 :  -0.577618320471039     
          31 :   -7.06948110431332     
          32 :   -5.15570278604446     

     Forces acting on atoms (Ry/au):


     negative rho (up, down):  4.367E-04 0.000E+00
     atom    1 type  1   force =    -0.00028659   -0.00016613   -0.00103634
     atom    2 type  1   force =     0.00028664   -0.00016611   -0.00103615
     atom    3 type  1   force =     0.00000015    0.00033144   -0.00103623
     atom    4 type  1   force =     0.00000021    0.00000029    0.00038560
     atom    5 type  1   force =    -0.00000005   -0.00266075    0.00479896
     atom    6 type  1   force =     0.00000016    0.00000017   -0.00170064
     atom    7 type  1   force =     0.00230419    0.00133022    0.00479865
     atom    8 type  1   force =    -0.00230431    0.00133027    0.00479865
     atom    9 type  1   force =    -0.00000008   -0.00000005   -0.18557057
     atom   10 type  1   force =    -0.00000003   -0.00499565    0.00288200
     atom   11 type  1   force =    -0.00432632    0.00249766    0.00288167
     atom   12 type  1   force =     0.00432645    0.00249771    0.00288157
     atom   13 type  2   force =    -0.00000031    0.00000117    0.18679978
     atom   14 type  3   force =    -0.00000010   -0.00000023   -0.01984696

     Total force =     0.264243     Total SCF correction =     0.000865


     entering subroutine stress ...


     negative rho (up, down):  4.367E-04 0.000E+00
          total   stress  (Ry/bohr**3)                   (kbar)     P=   -0.97
  -0.00005878   0.00000000   0.00000000         -8.65      0.00      0.00
   0.00000000  -0.00005878   0.00000000          0.00     -8.65      0.00
   0.00000000   0.00000000   0.00009780          0.00      0.00     14.39


     BFGS Geometry Optimization

     number of scf cycles    =   1
     number of bfgs steps    =   0

     energy   new            =     -94.9354421271 Ry

     new trust radius        =       0.1867997845 bohr
     new conv_thr            =       0.0000099958 Ry


ATOMIC_POSITIONS (crystal)
Al1      0.166666667   0.166666667   0.405843214    0   0   0
Al1      0.666666667   0.166666667   0.405843214    0   0   0
Al1      0.166666667   0.666666667   0.405843214    0   0   0
Al1      0.666666667   0.666666667   0.405843214    0   0   0
Al1      0.833333333   0.333333333   0.500000000    0   0   0
Al1      0.333333333   0.333333333   0.500000000    0   0   0
Al1      0.833333333   0.833333333   0.500000000    0   0   0
Al1      0.333333333   0.833333333   0.500000000    0   0   0
Al1     -0.000000005  -0.000000005   0.590171417
Al1      0.500268571  -0.000537148   0.594218681
Al1     -0.000537135   0.500268556   0.594218674
Al1      0.500268588   0.500268562   0.594218671
C1      -0.000000092   0.000000126   0.666127000
H1       0.000000004  -0.000000025   0.706331746



     Writing output data file calc.save
     Check: negative starting charge=   -0.000160
     NEW-OLD atomic charge density approx. for the potential
     Check: negative starting charge=   -0.000156

     negative rho (up, down):  5.520E-04 0.000E+00
 
     Adding external electric field

     Computed dipole along edir(3) : 
        Dipole               -0.0864 Ry au,         -0.2197 Debye
        Dipole field         -0.0002 Ry au
 
        Potential amp.        0.0212 Ry
        Total length         45.3989 bohr
 

     total cpu time spent up to now is      150.1 secs

     per-process dynamical memory:    59.9 Mb

     Self-consistent Calculation

     iteration #  1     ecut=    36.75 Ry     beta=0.30
     Davidson diagonalization with overlap
     ethr =  1.00E-06,  avg # of iterations =  6.3

     negative rho (up, down):  4.196E-04 0.000E+00
 
     Adding external electric field

     Computed dipole along edir(3) : 
        Dipole                0.4098 Ry au,          1.0417 Debye
        Dipole field          0.0011 Ry au
 
        Potential amp.       -0.1005 Ry
        Total length         45.3989 bohr
 

     total cpu time spent up to now is      159.2 secs

     total energy              =     -94.92032888 Ry
     Harris-Foulkes estimate   =     -94.94678685 Ry
     estimated scf accuracy    <       0.05998901 Ry

     iteration #  2     ecut=    36.75 Ry     beta=0.30
     Davidson diagonalization with overlap
     ethr =  1.46E-04,  avg # of iterations =  3.8

     negative rho (up, down):  4.567E-04 0.000E+00
 
     Adding external electric field

     Computed dipole along edir(3) : 
        Dipole               -0.1447 Ry au,         -0.3679 Debye
        Dipole field         -0.0004 Ry au
 
        Potential amp.        0.0355 Ry
        Total length         45.3989 bohr
 

     total cpu time spent up to now is      166.1 secs

     total energy              =     -94.84123694 Ry
     Harris-Foulkes estimate   =     -95.05005734 Ry
     estimated scf accuracy    <       3.81552545 Ry

     iteration #  3     ecut=    36.75 Ry     beta=0.30
     Davidson diagonalization with overlap
     ethr =  1.46E-04,  avg # of iterations =  4.2

     negative rho (up, down):  4.718E-04 0.000E+00
 
     Adding external electric field

     Computed dipole along edir(3) : 
        Dipole               -0.0827 Ry au,         -0.2102 Debye
        Dipole field         -0.0002 Ry au
 
        Potential amp.        0.0203 Ry
        Total length         45.3989 bohr
 

     total cpu time spent up to now is      172.8 secs

     total energy              =     -94.93703966 Ry
     Harris-Foulkes estimate   =     -94.94559088 Ry
     estimated scf accuracy    <       0.05888905 Ry

     iteration #  4     ecut=    36.75 Ry     beta=0.30
     Davidson diagonalization with overlap
     ethr =  1.44E-04,  avg # of iterations =  1.6

     negative rho (up, down):  3.947E-04 0.000E+00
 
     Adding external electric field

     Computed dipole along edir(3) : 
        Dipole               -0.1076 Ry au,         -0.2734 Debye
        Dipole field         -0.0003 Ry au
 
        Potential amp.        0.0264 Ry
        Total length         45.3989 bohr
 

     total cpu time spent up to now is      178.8 secs

     total energy              =     -94.94109111 Ry
     Harris-Foulkes estimate   =     -94.94190944 Ry
     estimated scf accuracy    <       0.00447040 Ry

     iteration #  5     ecut=    36.75 Ry     beta=0.30
     Davidson diagonalization with overlap
     ethr =  1.09E-05,  avg # of iterations =  2.7

     negative rho (up, down):  3.882E-04 0.000E+00
 
     Adding external electric field

     Computed dipole along edir(3) : 
        Dipole               -0.0996 Ry au,         -0.2531 Debye
        Dipole field         -0.0003 Ry au
 
        Potential amp.        0.0244 Ry
        Total length         45.3989 bohr
 

     total cpu time spent up to now is      185.0 secs

     total energy              =     -94.94143027 Ry
     Harris-Foulkes estimate   =     -94.94150731 Ry
     estimated scf accuracy    <       0.00064777 Ry

     iteration #  6     ecut=    36.75 Ry     beta=0.30
     Davidson diagonalization with overlap
     ethr =  1.58E-06,  avg # of iterations =  3.1

     negative rho (up, down):  3.941E-04 0.000E+00
 
     Adding external electric field

     Computed dipole along edir(3) : 
        Dipole               -0.0909 Ry au,         -0.2310 Debye
        Dipole field         -0.0002 Ry au
 
        Potential amp.        0.0223 Ry
        Total length         45.3989 bohr
 

     total cpu time spent up to now is      191.3 secs

     total energy              =     -94.94150942 Ry
     Harris-Foulkes estimate   =     -94.94148566 Ry
     estimated scf accuracy    <       0.00010418 Ry

     iteration #  7     ecut=    36.75 Ry     beta=0.30
     Davidson diagonalization with overlap
     ethr =  2.54E-07,  avg # of iterations =  2.0

     negative rho (up, down):  3.994E-04 0.000E+00
 
     Adding external electric field

     Computed dipole along edir(3) : 
        Dipole               -0.0905 Ry au,         -0.2300 Debye
        Dipole field         -0.0002 Ry au
 
        Potential amp.        0.0222 Ry
        Total length         45.3989 bohr
 

     total cpu time spent up to now is      197.4 secs

     total energy              =     -94.94151797 Ry
     Harris-Foulkes estimate   =     -94.94151859 Ry
     estimated scf accuracy    <       0.00002237 Ry

     iteration #  8     ecut=    36.75 Ry     beta=0.30
     Davidson diagonalization with overlap
     ethr =  5.46E-08,  avg # of iterations =  2.0

     negative rho (up, down):  4.031E-04 0.000E+00

     negative rho (up, down):  4.031E-04 0.000E+00

     negative rho (up, down):  4.031E-04 0.000E+00

     negative rho (up, down):  4.031E-04 0.000E+00

     negative rho (up, down):  4.031E-04 0.000E+00

     negative rho (up, down):  4.031E-04 0.000E+00

     negative rho (up, down):  4.031E-04 0.000E+00

     negative rho (up, down):  4.031E-04 0.000E+00

     negative rho (up, down):  4.031E-04 0.000E+00

     negative rho (up, down):  4.031E-04 0.000E+00

     negative rho (up, down):  4.031E-04 0.000E+00

     negative rho (up, down):  4.031E-04 0.000E+00

     negative rho (up, down):  4.031E-04 0.000E+00

     negative rho (up, down):  4.031E-04 0.000E+00

     negative rho (up, down):  4.031E-04 0.000E+00

     negative rho (up, down):  4.031E-04 0.000E+00

     negative rho (up, down):  4.031E-04 0.000E+00

     negative rho (up, down):  4.031E-04 0.000E+00

     negative rho (up, down):  4.031E-04 0.000E+00

     negative rho (up, down):  4.031E-04 0.000E+00

     negative rho (up, down):  4.031E-04 0.000E+00

     negative rho (up, down):  4.031E-04 0.000E+00

     negative rho (up, down):  4.031E-04 0.000E+00

     negative rho (up, down):  4.031E-04 0.000E+00

     negative rho (up, down):  4.031E-04 0.000E+00

     negative rho (up, down):  4.031E-04 0.000E+00

     negative rho (up, down):  4.031E-04 0.000E+00

     negative rho (up, down):  4.031E-04 0.000E+00

     negative rho (up, down):  4.031E-04 0.000E+00

     negative rho (up, down):  4.031E-04 0.000E+00

     negative rho (up, down):  4.031E-04 0.000E+00

     negative rho (up, down):  4.031E-04 0.000E+00

     negative rho (up, down):  4.031E-04 0.000E+00

     negative rho (up, down):  4.031E-04 0.000E+00

     negative rho (up, down):  4.031E-04 0.000E+00
 
     Adding external electric field

     Computed dipole along edir(3) : 
        Dipole               -0.0784 Ry au,         -0.1992 Debye
        Dipole field         -0.0002 Ry au
 
        Potential amp.        0.0192 Ry
        Total length         45.3989 bohr
 

     total cpu time spent up to now is      252.1 secs

     End of self-consistent calculation

          k = 0.0000 0.0000 0.0000 ( 17579 PWs)   bands (ev):

   -12.2208 -11.3400  -9.6550  -7.2431  -5.8830  -5.4754  -5.4754  -5.4176
    -5.4176  -5.4058  -5.1726  -4.1527  -4.1527  -4.0446  -3.6729  -3.5102
    -3.5102  -2.8066  -1.6801  -1.6801  -1.0582  -1.0582  -0.9992  -0.4206
     0.0005   0.0005   0.5510   1.9097   1.9163   1.9163

          k = 0.0000 0.0339 0.0000 ( 17522 PWs)   bands (ev):

   -12.1998 -11.1848  -9.4990  -7.2909  -7.0907  -6.3250  -6.2539  -5.8105
    -5.2282  -4.6825  -4.4836  -4.3260  -4.3076  -3.5706  -3.2575  -2.8478
    -2.8178  -2.4779  -1.9443  -1.6376  -1.1065  -0.9334  -0.7456  -0.0346
     0.2439   0.5078   0.7344   1.5144   1.7825   1.9557

          k = 0.0000 0.0677 0.0000 ( 17510 PWs)   bands (ev):

   -12.1628 -10.7040  -9.0291  -8.7308  -7.2128  -6.8022  -6.7423  -6.6129
    -5.5379  -5.1308  -4.8241  -4.0597  -3.1205  -3.0890  -2.8096  -2.5017
    -1.9992  -1.6849  -1.1018  -0.9153  -0.7358  -0.5992  -0.1850   0.4559
     0.6931   0.7025   1.0378   1.3415   1.4552   1.9384

          k = 0.0000-0.1016 0.0000 ( 17464 PWs)   bands (ev):

   -12.1464  -9.8952  -9.8737  -8.2867  -8.1934  -6.9712  -6.9058  -6.3756
    -5.5472  -5.3081  -5.2869  -4.2034  -2.9553  -2.6931  -2.6139  -1.4789
    -1.3240  -1.2671  -0.9871  -0.9170  -0.5946  -0.5065   0.2505   0.4624
     0.7153   0.9405   1.0011   1.3271   1.3722   1.8852

          k = 0.0293-0.0169 0.0000 ( 17522 PWs)   bands (ev):

   -12.1998 -11.1848  -9.4990  -7.2909  -7.0907  -6.3250  -6.2539  -5.8105
    -5.2282  -4.6825  -4.4836  -4.3260  -4.3076  -3.5706  -3.2575  -2.8478
    -2.8178  -2.4779  -1.9443  -1.6376  -1.1065  -0.9334  -0.7456  -0.0346
     0.2439   0.5078   0.7344   1.5144   1.7825   1.9557

          k = 0.0293 0.0169 0.0000 ( 17522 PWs)   bands (ev):

   -12.1998 -11.1848  -9.4990  -7.2909  -7.0907  -6.3250  -6.2539  -5.8105
    -5.2282  -4.6825  -4.4836  -4.3260  -4.3076  -3.5706  -3.2575  -2.8478
    -2.8178  -2.4779  -1.9443  -1.6376  -1.1065  -0.9334  -0.7456  -0.0346
     0.2439   0.5078   0.7344   1.5144   1.7825   1.9557

          k = 0.0293 0.0508 0.0000 ( 17513 PWs)   bands (ev):

   -12.1716 -10.8659  -9.1856  -7.9495  -7.8762  -6.9278  -6.3482  -6.2204
    -5.2070  -4.9631  -4.8641  -3.7302  -3.6514  -3.5867  -3.1029  -2.4548
    -2.0691  -1.8917  -1.3627  -1.2498  -0.5347  -0.5097  -0.3380  -0.0688
     0.3144   0.5477   0.9832   1.2408   2.1973   2.3456

          k = 0.0293-0.1185 0.0000 ( 17495 PWs)   bands (ev):

   -12.1469 -10.2135  -9.2259  -8.5579  -8.2363  -7.6153  -6.7373  -6.2455
    -5.3849  -5.2360  -4.4297  -3.8283  -3.4983  -3.3493  -2.5383  -1.9945
    -1.6971  -1.5292  -1.2678  -0.6568  -0.4098  -0.1433   0.2171   0.4514
     0.7255   1.0442   1.2530   1.4276   1.7813   2.0602

          k = 0.0293-0.0847 0.0000 ( 17495 PWs)   bands (ev):

   -12.1469 -10.2135  -9.2259  -8.5579  -8.2363  -7.6153  -6.7373  -6.2455
    -5.3849  -5.2360  -4.4297  -3.8283  -3.4983  -3.3493  -2.5383  -1.9945
    -1.6971  -1.5292  -1.2678  -0.6568  -0.4098  -0.1433   0.2171   0.4514
     0.7255   1.0442   1.2530   1.4276   1.7813   2.0602

          k = 0.0293-0.0508 0.0000 ( 17513 PWs)   bands (ev):

   -12.1716 -10.8659  -9.1856  -7.9495  -7.8762  -6.9278  -6.3482  -6.2204
    -5.2070  -4.9631  -4.8641  -3.7302  -3.6514  -3.5867  -3.1029  -2.4548
    -2.0691  -1.8917  -1.3627  -1.2498  -0.5347  -0.5097  -0.3380  -0.0688
     0.3144   0.5477   0.9832   1.2408   2.1973   2.3456

          k = 0.0587-0.0339 0.0000 ( 17510 PWs)   bands (ev):

   -12.1628 -10.7040  -9.0291  -8.7308  -7.2128  -6.8022  -6.7423  -6.6129
    -5.5379  -5.1308  -4.8241  -4.0597  -3.1205  -3.0890  -2.8097  -2.5017
    -1.9992  -1.6849  -1.1018  -0.9153  -0.7358  -0.5992  -0.1850   0.4559
     0.6931   0.7025   1.0378   1.3415   1.4552   1.9384

          k = 0.0587 0.0000 0.0000 ( 17513 PWs)   bands (ev):

   -12.1716 -10.8659  -9.1856  -7.9495  -7.8762  -6.9278  -6.3482  -6.2204
    -5.2070  -4.9631  -4.8641  -3.7302  -3.6514  -3.5867  -3.1029  -2.4548
    -2.0691  -1.8917  -1.3627  -1.2498  -0.5347  -0.5097  -0.3380  -0.0688
     0.3144   0.5477   0.9832   1.2408   2.1973   2.3456

          k = 0.0587 0.0339 0.0000 ( 17510 PWs)   bands (ev):

   -12.1628 -10.7040  -9.0291  -8.7308  -7.2128  -6.8022  -6.7423  -6.6129
    -5.5379  -5.1308  -4.8241  -4.0597  -3.1205  -3.0890  -2.8097  -2.5017
    -1.9992  -1.6849  -1.1018  -0.9153  -0.7358  -0.5992  -0.1850   0.4559
     0.6931   0.7025   1.0378   1.3415   1.4552   1.9384

          k = 0.0587-0.1355 0.0000 ( 17495 PWs)   bands (ev):

   -12.1469 -10.2135  -9.2259  -8.5579  -8.2363  -7.6153  -6.7373  -6.2455
    -5.3849  -5.2360  -4.4297  -3.8283  -3.4983  -3.3493  -2.5383  -1.9945
    -1.6971  -1.5292  -1.2678  -0.6568  -0.4098  -0.1433   0.2171   0.4514
     0.7255   1.0442   1.2530   1.4276   1.7813   2.0602

          k = 0.0587-0.1016 0.0000 ( 17442 PWs)   bands (ev):

   -12.1397  -9.4262  -9.3740  -9.3695  -7.8955  -7.6988  -7.6941  -6.1293
    -5.0643  -5.0607  -3.8511  -3.5650  -3.4797  -3.4665  -2.5446  -2.3283
    -2.1845  -1.7168  -1.6566  -0.7156  -0.4189  -0.2548   1.0462   1.1458
     1.3297   1.5971   1.9154   2.0217   2.1269   2.1642

          k = 0.0587-0.0677 0.0000 ( 17495 PWs)   bands (ev):

   -12.1469 -10.2135  -9.2259  -8.5579  -8.2363  -7.6153  -6.7373  -6.2455
    -5.3849  -5.2360  -4.4297  -3.8283  -3.4983  -3.3493  -2.5383  -1.9945
    -1.6971  -1.5292  -1.2678  -0.6568  -0.4098  -0.1433   0.2171   0.4514
     0.7255   1.0442   1.2530   1.4276   1.7813   2.0602

          k =-0.0880 0.0508 0.0000 ( 17464 PWs)   bands (ev):

   -12.1464  -9.8952  -9.8737  -8.2867  -8.1934  -6.9712  -6.9058  -6.3756
    -5.5472  -5.3081  -5.2869  -4.2034  -2.9553  -2.6931  -2.6139  -1.4789
    -1.3240  -1.2671  -0.9871  -0.9170  -0.5946  -0.5065   0.2505   0.4624
     0.7153   0.9405   1.0011   1.3271   1.3722   1.8852

          k =-0.0880 0.0847 0.0000 ( 17495 PWs)   bands (ev):

   -12.1469 -10.2135  -9.2259  -8.5579  -8.2363  -7.6153  -6.7373  -6.2455
    -5.3849  -5.2360  -4.4297  -3.8283  -3.4983  -3.3493  -2.5383  -1.9945
    -1.6971  -1.5292  -1.2678  -0.6568  -0.4098  -0.1433   0.2171   0.4514
     0.7255   1.0442   1.2530   1.4276   1.7813   2.0602

          k =-0.0880 0.1185 0.0000 ( 17495 PWs)   bands (ev):

   -12.1469 -10.2135  -9.2259  -8.5579  -8.2363  -7.6153  -6.7373  -6.2455
    -5.3849  -5.2360  -4.4297  -3.8283  -3.4983  -3.3493  -2.5383  -1.9945
    -1.6971  -1.5292  -1.2678  -0.6568  -0.4098  -0.1433   0.2171   0.4514
     0.7255   1.0442   1.2530   1.4276   1.7813   2.0602

          k =-0.0880-0.0508 0.0000 ( 17464 PWs)   bands (ev):

   -12.1464  -9.8952  -9.8737  -8.2867  -8.1934  -6.9712  -6.9058  -6.3756
    -5.5472  -5.3081  -5.2869  -4.2034  -2.9553  -2.6931  -2.6139  -1.4789
    -1.3240  -1.2671  -0.9871  -0.9170  -0.5946  -0.5065   0.2505   0.4624
     0.7153   0.9405   1.0011   1.3271   1.3722   1.8852

     the Fermi energy is    -0.7065 ev

!    total energy              =     -94.94151879 Ry
     Harris-Foulkes estimate   =     -94.94152743 Ry
     estimated scf accuracy    <       0.00000515 Ry

     The total energy is the sum of the following terms:

     one-electron contribution =    -717.47926937 Ry
     hartree contribution      =     367.08284437 Ry
     xc contribution           =     -57.49745154 Ry
     ewald contribution        =     312.98836786 Ry
     electric field correction =       0.00001659 Ry
     smearing contrib. (-TS)   =      -0.03602671 Ry

     convergence has been achieved in   8 iterations
 
 BEEF-vdW xc energy contributions
           1 :   -47.1994977494631     
           2 :    40.4946135604800     
           3 :   -30.2436643808604     
           4 :    20.5241502098356     
           5 :   -13.9149391455063     
           6 :    10.5520081399486     
           7 :   -8.91501388970688     
           8 :    7.43576595961591     
           9 :   -5.61846582413019     
          10 :    3.97461237256447     
          11 :   -3.14144590403804     
          12 :    3.12634482401926     
          13 :   -3.31628384016982     
          14 :    3.08959341316714     
          15 :   -2.35822219439052     
          16 :    1.54309539613557     
          17 :   -1.08657294766100     
          18 :    1.02585353071454     
          19 :   -1.02193474780491     
          20 :   0.746614093419623     
          21 :  -0.206409313184366     
          22 :  -0.299689943437571     
          23 :   0.500549519783064     
          24 :  -0.410537657245740     
          25 :   0.285549365097893     
          26 :  -0.353424026312396     
          27 :   0.599818389390315     
          28 :  -0.809315739133346     
          29 :   0.796193338902064     
          30 :  -0.585407443134045     
          31 :   -7.06719543317271     
          32 :   -5.15139952672419     

     Forces acting on atoms (Ry/au):


     negative rho (up, down):  4.031E-04 0.000E+00
     atom    1 type  1   force =    -0.00008824   -0.00005087   -0.00115324
     atom    2 type  1   force =     0.00008822   -0.00005090   -0.00115326
     atom    3 type  1   force =    -0.00000006    0.00010187   -0.00115323
     atom    4 type  1   force =    -0.00000001   -0.00000001    0.00018965
     atom    5 type  1   force =     0.00000005    0.00106419    0.00096289
     atom    6 type  1   force =    -0.00000004    0.00000002   -0.00131435
     atom    7 type  1   force =    -0.00092157   -0.00053216    0.00096288
     atom    8 type  1   force =     0.00092159   -0.00053211    0.00096287
     atom    9 type  1   force =    -0.00000002    0.00000001    0.03115085
     atom   10 type  1   force =     0.00000004   -0.00328094    0.00434929
     atom   11 type  1   force =    -0.00284131    0.00164045    0.00434921
     atom   12 type  1   force =     0.00284134    0.00164044    0.00434932
     atom   13 type  2   force =    -0.00000000    0.00000009   -0.22133296
     atom   14 type  3   force =     0.00000002   -0.00000010    0.17883006

     Total force =     0.286405     Total SCF correction =     0.000952


     entering subroutine stress ...


     negative rho (up, down):  4.031E-04 0.000E+00
          total   stress  (Ry/bohr**3)                   (kbar)     P=   -3.52
  -0.00005772   0.00000000   0.00000000         -8.49      0.00      0.00
   0.00000000  -0.00005772  -0.00000000          0.00     -8.49     -0.00
   0.00000000  -0.00000000   0.00004367          0.00     -0.00      6.42


     number of scf cycles    =   2
     number of bfgs steps    =   1

     energy   old            =     -94.9354421271 Ry
     energy   new            =     -94.9415187901 Ry

     CASE: energy  _new < energy  _old

     new trust radius        =       0.0993623119 bohr
     new conv_thr            =       0.0000001000 Ry


ATOMIC_POSITIONS (crystal)
Al1      0.166666667   0.166666667   0.405843214    0   0   0
Al1      0.666666667   0.166666667   0.405843214    0   0   0
Al1      0.166666667   0.666666667   0.405843214    0   0   0
Al1      0.666666667   0.666666667   0.405843214    0   0   0
Al1      0.833333333   0.333333333   0.500000000    0   0   0
Al1      0.333333333   0.333333333   0.500000000    0   0   0
Al1      0.833333333   0.833333333   0.500000000    0   0   0
Al1      0.333333333   0.833333333   0.500000000    0   0   0
Al1     -0.000000008  -0.000000006   0.589688466
Al1      0.500429546  -0.000859093   0.594286370
Al1     -0.000859074   0.500429524   0.594286361
Al1      0.500429563   0.500429530   0.594286359
C1      -0.000000115   0.000000159   0.664247269
H1       0.000000009  -0.000000037   0.708465681



     Writing output data file calc.save
     Check: negative starting charge=   -0.000156
     NEW-OLD atomic charge density approx. for the potential
     Check: negative starting charge=   -0.000152

     negative rho (up, down):  3.783E-04 0.000E+00
 
     Adding external electric field

     Computed dipole along edir(3) : 
        Dipole               -0.0784 Ry au,         -0.1993 Debye
        Dipole field         -0.0002 Ry au
 
        Potential amp.        0.0192 Ry
        Total length         45.3989 bohr
 

     total cpu time spent up to now is      276.9 secs

     per-process dynamical memory:    59.9 Mb

     Self-consistent Calculation

     iteration #  1     ecut=    36.75 Ry     beta=0.30
     Davidson diagonalization with overlap
     ethr =  1.00E-06,  avg # of iterations =  5.2

     negative rho (up, down):  3.777E-04 0.000E+00
 
     Adding external electric field

     Computed dipole along edir(3) : 
        Dipole                0.2239 Ry au,          0.5691 Debye
        Dipole field          0.0006 Ry au
 
        Potential amp.       -0.0549 Ry
        Total length         45.3989 bohr
 

     total cpu time spent up to now is      285.4 secs

     total energy              =     -94.94881951 Ry
     Harris-Foulkes estimate   =     -94.96080143 Ry
     estimated scf accuracy    <       0.02672095 Ry

     iteration #  2     ecut=    36.75 Ry     beta=0.30
     Davidson diagonalization with overlap
     ethr =  6.52E-05,  avg # of iterations =  4.0

     negative rho (up, down):  3.926E-04 0.000E+00
 
     Adding external electric field

     Computed dipole along edir(3) : 
        Dipole               -0.1329 Ry au,         -0.3378 Debye
        Dipole field         -0.0004 Ry au
 
        Potential amp.        0.0326 Ry
        Total length         45.3989 bohr
 

     total cpu time spent up to now is      292.3 secs

     total energy              =     -94.91627639 Ry
     Harris-Foulkes estimate   =     -94.99864119 Ry
     estimated scf accuracy    <       1.39798235 Ry

     iteration #  3     ecut=    36.75 Ry     beta=0.30
     Davidson diagonalization with overlap
     ethr =  6.52E-05,  avg # of iterations =  4.1

     negative rho (up, down):  4.037E-04 0.000E+00
 
     Adding external electric field

     Computed dipole along edir(3) : 
        Dipole               -0.0643 Ry au,         -0.1634 Debye
        Dipole field         -0.0002 Ry au
 
        Potential amp.        0.0158 Ry
        Total length         45.3989 bohr
 

     total cpu time spent up to now is      299.0 secs

     total energy              =     -94.95533978 Ry
     Harris-Foulkes estimate   =     -94.96206001 Ry
     estimated scf accuracy    <       0.06912617 Ry

     iteration #  4     ecut=    36.75 Ry     beta=0.30
     Davidson diagonalization with overlap
     ethr =  6.52E-05,  avg # of iterations =  2.0

     negative rho (up, down):  3.925E-04 0.000E+00
 
     Adding external electric field

     Computed dipole along edir(3) : 
        Dipole               -0.0797 Ry au,         -0.2026 Debye
        Dipole field         -0.0002 Ry au
 
        Potential amp.        0.0196 Ry
        Total length         45.3989 bohr
 

     total cpu time spent up to now is      305.1 secs

     total energy              =     -94.95855909 Ry
     Harris-Foulkes estimate   =     -94.95878549 Ry
     estimated scf accuracy    <       0.00119619 Ry

     iteration #  5     ecut=    36.75 Ry     beta=0.30
     Davidson diagonalization with overlap
     ethr =  2.92E-06,  avg # of iterations =  4.7

     negative rho (up, down):  3.863E-04 0.000E+00
 
     Adding external electric field

     Computed dipole along edir(3) : 
        Dipole               -0.0829 Ry au,         -0.2107 Debye
        Dipole field         -0.0002 Ry au
 
        Potential amp.        0.0203 Ry
        Total length         45.3989 bohr
 

     total cpu time spent up to now is      311.8 secs

     total energy              =     -94.95863941 Ry
     Harris-Foulkes estimate   =     -94.95869397 Ry
     estimated scf accuracy    <       0.00033722 Ry

     iteration #  6     ecut=    36.75 Ry     beta=0.30
     Davidson diagonalization with overlap
     ethr =  8.22E-07,  avg # of iterations =  2.0

     negative rho (up, down):  3.885E-04 0.000E+00
 
     Adding external electric field

     Computed dipole along edir(3) : 
        Dipole               -0.0829 Ry au,         -0.2106 Debye
        Dipole field         -0.0002 Ry au
 
        Potential amp.        0.0203 Ry
        Total length         45.3989 bohr
 

     total cpu time spent up to now is      317.9 secs

     total energy              =     -94.95867265 Ry
     Harris-Foulkes estimate   =     -94.95866986 Ry
     estimated scf accuracy    <       0.00002910 Ry

     iteration #  7     ecut=    36.75 Ry     beta=0.30
     Davidson diagonalization with overlap
     ethr =  7.10E-08,  avg # of iterations =  2.5

     negative rho (up, down):  3.904E-04 0.000E+00
 
     Adding external electric field

     Computed dipole along edir(3) : 
        Dipole               -0.0843 Ry au,         -0.2142 Debye
        Dipole field         -0.0002 Ry au
 
        Potential amp.        0.0207 Ry
        Total length         45.3989 bohr
 

     total cpu time spent up to now is      324.3 secs

     total energy              =     -94.95867616 Ry
     Harris-Foulkes estimate   =     -94.95867539 Ry
     estimated scf accuracy    <       0.00000981 Ry

     iteration #  8     ecut=    36.75 Ry     beta=0.30
     Davidson diagonalization with overlap
     ethr =  2.39E-08,  avg # of iterations =  2.0

     negative rho (up, down):  3.910E-04 0.000E+00
 
     Adding external electric field

     Computed dipole along edir(3) : 
        Dipole               -0.0834 Ry au,         -0.2120 Debye
        Dipole field         -0.0002 Ry au
 
        Potential amp.        0.0205 Ry
        Total length         45.3989 bohr
 

     total cpu time spent up to now is      330.3 secs

     total energy              =     -94.95867717 Ry
     Harris-Foulkes estimate   =     -94.95867763 Ry
     estimated scf accuracy    <       0.00000125 Ry

     iteration #  9     ecut=    36.75 Ry     beta=0.30
     Davidson diagonalization with overlap
     ethr =  3.04E-09,  avg # of iterations =  2.0

     negative rho (up, down):  3.913E-04 0.000E+00
 
     Adding external electric field

     Computed dipole along edir(3) : 
        Dipole               -0.0829 Ry au,         -0.2108 Debye
        Dipole field         -0.0002 Ry au
 
        Potential amp.        0.0203 Ry
        Total length         45.3989 bohr
 

     total cpu time spent up to now is      336.5 secs

     total energy              =     -94.95867733 Ry
     Harris-Foulkes estimate   =     -94.95867755 Ry
     estimated scf accuracy    <       0.00000014 Ry

     iteration # 10     ecut=    36.75 Ry     beta=0.30
     Davidson diagonalization with overlap
     ethr =  3.40E-10,  avg # of iterations =  2.4

     negative rho (up, down):  3.919E-04 0.000E+00

     negative rho (up, down):  3.919E-04 0.000E+00

     negative rho (up, down):  3.919E-04 0.000E+00

     negative rho (up, down):  3.919E-04 0.000E+00

     negative rho (up, down):  3.919E-04 0.000E+00

     negative rho (up, down):  3.919E-04 0.000E+00

     negative rho (up, down):  3.919E-04 0.000E+00

     negative rho (up, down):  3.919E-04 0.000E+00

     negative rho (up, down):  3.919E-04 0.000E+00

     negative rho (up, down):  3.919E-04 0.000E+00

     negative rho (up, down):  3.919E-04 0.000E+00

     negative rho (up, down):  3.919E-04 0.000E+00

     negative rho (up, down):  3.919E-04 0.000E+00

     negative rho (up, down):  3.919E-04 0.000E+00

     negative rho (up, down):  3.919E-04 0.000E+00

     negative rho (up, down):  3.919E-04 0.000E+00

     negative rho (up, down):  3.919E-04 0.000E+00

     negative rho (up, down):  3.919E-04 0.000E+00

     negative rho (up, down):  3.919E-04 0.000E+00

     negative rho (up, down):  3.919E-04 0.000E+00

     negative rho (up, down):  3.919E-04 0.000E+00

     negative rho (up, down):  3.919E-04 0.000E+00

     negative rho (up, down):  3.919E-04 0.000E+00

     negative rho (up, down):  3.919E-04 0.000E+00

     negative rho (up, down):  3.919E-04 0.000E+00

     negative rho (up, down):  3.919E-04 0.000E+00

     negative rho (up, down):  3.919E-04 0.000E+00

     negative rho (up, down):  3.919E-04 0.000E+00

     negative rho (up, down):  3.919E-04 0.000E+00

     negative rho (up, down):  3.919E-04 0.000E+00

     negative rho (up, down):  3.919E-04 0.000E+00

     negative rho (up, down):  3.919E-04 0.000E+00

     negative rho (up, down):  3.919E-04 0.000E+00

     negative rho (up, down):  3.919E-04 0.000E+00

     negative rho (up, down):  3.919E-04 0.000E+00
 
     Adding external electric field

     Computed dipole along edir(3) : 
        Dipole               -0.0824 Ry au,         -0.2095 Debye
        Dipole field         -0.0002 Ry au
 
        Potential amp.        0.0202 Ry
        Total length         45.3989 bohr
 

     total cpu time spent up to now is      391.2 secs

     End of self-consistent calculation

          k = 0.0000 0.0000 0.0000 ( 17579 PWs)   bands (ev):

   -11.8982 -11.2453  -9.5835  -7.1545  -5.8749  -5.4700  -5.4700  -5.4100
    -5.4100  -5.3939  -5.1523  -4.1567  -4.1567  -4.0314  -3.6731  -3.5036
    -3.5036  -2.7967  -1.7007  -1.7007  -1.0484  -1.0484  -0.9898  -0.3903
     0.0403   0.0403   0.5648   1.9185   1.9254   1.9254

          k = 0.0000 0.0339 0.0000 ( 17522 PWs)   bands (ev):

   -11.8506 -11.1111  -9.4335  -7.2642  -7.0194  -6.3195  -6.2469  -5.7975
    -5.2106  -4.6839  -4.4718  -4.3178  -4.2986  -3.5691  -3.2600  -2.8531
    -2.8243  -2.4671  -1.9460  -1.6325  -1.0890  -0.9184  -0.7355  -0.0226
     0.2654   0.5241   0.7443   1.5597   1.8259   1.9743

          k = 0.0000 0.0677 0.0000 ( 17510 PWs)   bands (ev):

   -11.7715 -10.6635  -8.9756  -8.7171  -7.1631  -6.7831  -6.7352  -6.5746
    -5.5245  -5.1294  -4.8097  -4.0475  -3.1239  -3.0843  -2.8094  -2.5066
    -1.9904  -1.6937  -1.0946  -0.9031  -0.7193  -0.5740  -0.1670   0.4602
     0.7064   0.7105   1.0515   1.3580   1.4753   1.9768

          k = 0.0000-0.1016 0.0000 ( 17464 PWs)   bands (ev):

   -11.7389  -9.8647  -9.8591  -8.2174  -8.1847  -6.9529  -6.8986  -6.3070
    -5.5432  -5.3014  -5.2850  -4.1811  -2.9689  -2.6974  -2.6012  -1.4760
    -1.3206  -1.2685  -0.9785  -0.9106  -0.5760  -0.4878   0.2589   0.4872
     0.7244   0.9455   1.0153   1.3722   1.3874   1.9033

          k = 0.0293-0.0169 0.0000 ( 17522 PWs)   bands (ev):

   -11.8506 -11.1111  -9.4335  -7.2642  -7.0194  -6.3195  -6.2469  -5.7975
    -5.2106  -4.6839  -4.4718  -4.3178  -4.2986  -3.5691  -3.2600  -2.8531
    -2.8243  -2.4671  -1.9460  -1.6325  -1.0890  -0.9184  -0.7355  -0.0226
     0.2654   0.5241   0.7443   1.5597   1.8259   1.9743

          k = 0.0293 0.0169 0.0000 ( 17522 PWs)   bands (ev):

   -11.8506 -11.1111  -9.4335  -7.2642  -7.0194  -6.3195  -6.2469  -5.7975
    -5.2106  -4.6839  -4.4718  -4.3178  -4.2986  -3.5691  -3.2600  -2.8531
    -2.8243  -2.4671  -1.9460  -1.6325  -1.0890  -0.9184  -0.7355  -0.0226
     0.2654   0.5241   0.7443   1.5597   1.8259   1.9743

          k = 0.0293 0.0508 0.0000 ( 17513 PWs)   bands (ev):

   -11.7898 -10.8177  -9.1292  -7.9335  -7.8662  -6.8393  -6.3457  -6.2125
    -5.1900  -4.9565  -4.8510  -3.7363  -3.6520  -3.5770  -3.1025  -2.4469
    -2.0666  -1.8804  -1.3713  -1.2525  -0.5233  -0.5006  -0.3281  -0.0420
     0.3448   0.5766   0.9953   1.2614   2.2070   2.3641

          k = 0.0293-0.1185 0.0000 ( 17495 PWs)   bands (ev):

   -11.7402 -10.1860  -9.2082  -8.5120  -8.2243  -7.5820  -6.6981  -6.2084
    -5.3764  -5.2270  -4.4209  -3.8313  -3.4866  -3.3384  -2.5376  -2.0038
    -1.6999  -1.5213  -1.2648  -0.6495  -0.3937  -0.1143   0.2441   0.4609
     0.7491   1.0489   1.2671   1.4406   1.7953   2.0761

          k = 0.0293-0.0847 0.0000 ( 17495 PWs)   bands (ev):

   -11.7402 -10.1860  -9.2082  -8.5120  -8.2243  -7.5820  -6.6981  -6.2084
    -5.3764  -5.2270  -4.4209  -3.8313  -3.4866  -3.3384  -2.5376  -2.0038
    -1.6999  -1.5213  -1.2648  -0.6495  -0.3937  -0.1143   0.2441   0.4609
     0.7491   1.0489   1.2671   1.4406   1.7953   2.0761

          k = 0.0293-0.0508 0.0000 ( 17513 PWs)   bands (ev):

   -11.7898 -10.8177  -9.1292  -7.9335  -7.8662  -6.8393  -6.3457  -6.2125
    -5.1900  -4.9565  -4.8510  -3.7363  -3.6520  -3.5770  -3.1025  -2.4469
    -2.0666  -1.8804  -1.3713  -1.2525  -0.5233  -0.5006  -0.3281  -0.0420
     0.3448   0.5766   0.9953   1.2614   2.2070   2.3641

          k = 0.0587-0.0339 0.0000 ( 17510 PWs)   bands (ev):

   -11.7715 -10.6635  -8.9756  -8.7171  -7.1631  -6.7831  -6.7352  -6.5746
    -5.5245  -5.1294  -4.8097  -4.0475  -3.1239  -3.0843  -2.8094  -2.5066
    -1.9904  -1.6937  -1.0946  -0.9031  -0.7193  -0.5740  -0.1670   0.4602
     0.7064   0.7105   1.0515   1.3580   1.4753   1.9768

          k = 0.0587 0.0000 0.0000 ( 17513 PWs)   bands (ev):

   -11.7898 -10.8177  -9.1292  -7.9335  -7.8662  -6.8393  -6.3457  -6.2125
    -5.1900  -4.9565  -4.8510  -3.7363  -3.6520  -3.5770  -3.1025  -2.4469
    -2.0666  -1.8804  -1.3713  -1.2525  -0.5233  -0.5006  -0.3281  -0.0420
     0.3448   0.5766   0.9953   1.2614   2.2070   2.3641

          k = 0.0587 0.0339 0.0000 ( 17510 PWs)   bands (ev):

   -11.7715 -10.6635  -8.9756  -8.7171  -7.1631  -6.7831  -6.7352  -6.5746
    -5.5245  -5.1294  -4.8097  -4.0475  -3.1239  -3.0843  -2.8094  -2.5066
    -1.9904  -1.6937  -1.0946  -0.9031  -0.7193  -0.5740  -0.1670   0.4602
     0.7064   0.7105   1.0515   1.3580   1.4753   1.9768

          k = 0.0587-0.1355 0.0000 ( 17495 PWs)   bands (ev):

   -11.7402 -10.1860  -9.2082  -8.5120  -8.2243  -7.5820  -6.6981  -6.2084
    -5.3764  -5.2270  -4.4209  -3.8313  -3.4866  -3.3384  -2.5376  -2.0038
    -1.6999  -1.5213  -1.2648  -0.6495  -0.3937  -0.1143   0.2441   0.4609
     0.7491   1.0489   1.2671   1.4406   1.7953   2.0761

          k = 0.0587-0.1016 0.0000 ( 17442 PWs)   bands (ev):

   -11.7268  -9.3906  -9.3656  -9.3580  -7.8160  -7.6932  -7.6830  -6.0664
    -5.0628  -5.0553  -3.8371  -3.5598  -3.4759  -3.4513  -2.5500  -2.3410
    -2.1785  -1.7182  -1.6511  -0.6990  -0.3951  -0.2214   1.0676   1.1628
     1.3398   1.6035   1.9447   2.0318   2.1349   2.1717

          k = 0.0587-0.0677 0.0000 ( 17495 PWs)   bands (ev):

   -11.7402 -10.1860  -9.2082  -8.5120  -8.2243  -7.5820  -6.6981  -6.2084
    -5.3764  -5.2270  -4.4209  -3.8313  -3.4866  -3.3384  -2.5376  -2.0038
    -1.6999  -1.5213  -1.2648  -0.6495  -0.3937  -0.1143   0.2441   0.4609
     0.7491   1.0489   1.2671   1.4406   1.7953   2.0761

          k =-0.0880 0.0508 0.0000 ( 17464 PWs)   bands (ev):

   -11.7389  -9.8647  -9.8591  -8.2174  -8.1847  -6.9529  -6.8986  -6.3070
    -5.5432  -5.3014  -5.2850  -4.1811  -2.9689  -2.6974  -2.6012  -1.4760
    -1.3206  -1.2685  -0.9785  -0.9106  -0.5760  -0.4878   0.2589   0.4872
     0.7244   0.9455   1.0153   1.3722   1.3874   1.9033

          k =-0.0880 0.0847 0.0000 ( 17495 PWs)   bands (ev):

   -11.7402 -10.1860  -9.2082  -8.5120  -8.2243  -7.5820  -6.6981  -6.2084
    -5.3764  -5.2270  -4.4209  -3.8313  -3.4866  -3.3384  -2.5376  -2.0038
    -1.6999  -1.5213  -1.2648  -0.6495  -0.3937  -0.1143   0.2441   0.4609
     0.7491   1.0489   1.2671   1.4406   1.7953   2.0761

          k =-0.0880 0.1185 0.0000 ( 17495 PWs)   bands (ev):

   -11.7402 -10.1860  -9.2082  -8.5120  -8.2243  -7.5820  -6.6981  -6.2084
    -5.3764  -5.2270  -4.4209  -3.8313  -3.4866  -3.3384  -2.5376  -2.0038
    -1.6999  -1.5213  -1.2648  -0.6495  -0.3937  -0.1143   0.2441   0.4609
     0.7491   1.0489   1.2671   1.4406   1.7953   2.0761

          k =-0.0880-0.0508 0.0000 ( 17464 PWs)   bands (ev):

   -11.7389  -9.8647  -9.8591  -8.2174  -8.1847  -6.9529  -6.8986  -6.3070
    -5.5432  -5.3014  -5.2850  -4.1811  -2.9689  -2.6974  -2.6012  -1.4760
    -1.3206  -1.2685  -0.9785  -0.9106  -0.5760  -0.4878   0.2589   0.4872
     0.7244   0.9455   1.0153   1.3722   1.3874   1.9033

     the Fermi energy is    -0.6933 ev

!    total energy              =     -94.95867735 Ry
     Harris-Foulkes estimate   =     -94.95867759 Ry
     estimated scf accuracy    <       0.00000005 Ry

     The total energy is the sum of the following terms:

     one-electron contribution =    -718.56601258 Ry
     hartree contribution      =     367.65760094 Ry
     xc contribution           =     -57.44611973 Ry
     ewald contribution        =     313.43146038 Ry
     electric field correction =       0.00001836 Ry
     smearing contrib. (-TS)   =      -0.03562472 Ry

     convergence has been achieved in  10 iterations
 
 BEEF-vdW xc energy contributions
           1 :   -47.1566459241245     
           2 :    40.4666385059785     
           3 :   -30.2354970879422     
           4 :    20.5304553918326     
           5 :   -13.9273617420930     
           6 :    10.5656277731122     
           7 :   -8.92989278175595     
           8 :    7.45459049759538     
           9 :   -5.64307490569589     
          10 :    4.00450899913014     
          11 :   -3.17445240733271     
          12 :    3.15915933636668     
          13 :   -3.34552380582330     
          14 :    3.11411618019201     
          15 :   -2.37887504547094     
          16 :    1.56040940277411     
          17 :   -1.10108626964754     
          18 :    1.03910424064360     
          19 :   -1.03565119949631     
          20 :   0.761356630451736     
          21 :  -0.220649283322714     
          22 :  -0.288879391054124     
          23 :   0.495878587036174     
          24 :  -0.413377557891721     
          25 :   0.295456574610299     
          26 :  -0.368485710492294     
          27 :   0.617634027515017     
          28 :  -0.827837310867210     
          29 :   0.814158037590701     
          30 :  -0.602793977795244     
          31 :   -7.06489009718783     
          32 :   -5.15225991609991     

     Forces acting on atoms (Ry/au):


     negative rho (up, down):  3.919E-04 0.000E+00
     atom    1 type  1   force =    -0.00021038   -0.00012146   -0.00104647
     atom    2 type  1   force =     0.00021035   -0.00012144   -0.00104645
     atom    3 type  1   force =     0.00000001    0.00024290   -0.00104645
     atom    4 type  1   force =     0.00000002   -0.00000000    0.00025405
     atom    5 type  1   force =     0.00000001    0.00131884    0.00051861
     atom    6 type  1   force =     0.00000000   -0.00000000   -0.00094142
     atom    7 type  1   force =    -0.00114216   -0.00065943    0.00051861
     atom    8 type  1   force =     0.00114214   -0.00065940    0.00051861
     atom    9 type  1   force =     0.00000001   -0.00000003    0.00537584
     atom   10 type  1   force =     0.00000002   -0.00300952    0.00426029
     atom   11 type  1   force =    -0.00260631    0.00150476    0.00426032
     atom   12 type  1   force =     0.00260630    0.00150474    0.00426031
     atom   13 type  2   force =    -0.00000001    0.00000001   -0.01413145
     atom   14 type  3   force =    -0.00000000    0.00000003   -0.00175441

     Total force =     0.017700     Total SCF correction =     0.000165


     entering subroutine stress ...


     negative rho (up, down):  3.919E-04 0.000E+00
          total   stress  (Ry/bohr**3)                   (kbar)     P=   -5.94
  -0.00005673  -0.00000000  -0.00000000         -8.35     -0.00     -0.00
  -0.00000000  -0.00005673   0.00000000         -0.00     -8.35      0.00
  -0.00000000   0.00000000  -0.00000768         -0.00      0.00     -1.13


     number of scf cycles    =   3
     number of bfgs steps    =   2

     energy   old            =     -94.9415187901 Ry
     energy   new            =     -94.9586773507 Ry

     CASE: energy  _new < energy  _old

     new trust radius        =       0.0097277000 bohr
     new conv_thr            =       0.0000001000 Ry


ATOMIC_POSITIONS (crystal)
Al1      0.166666667   0.166666667   0.405843214    0   0   0
Al1      0.666666667   0.166666667   0.405843214    0   0   0
Al1      0.166666667   0.666666667   0.405843214    0   0   0
Al1      0.666666667   0.666666667   0.405843214    0   0   0
Al1      0.833333333   0.333333333   0.500000000    0   0   0
Al1      0.333333333   0.333333333   0.500000000    0   0   0
Al1      0.833333333   0.833333333   0.500000000    0   0   0
Al1      0.333333333   0.833333333   0.500000000    0   0   0
Al1     -0.000000005  -0.000000009   0.589811609
Al1      0.500589802  -0.001179602   0.594377659
Al1     -0.001179582   0.500589779   0.594377650
Al1      0.500589817   0.500589783   0.594377648
C1      -0.000000116   0.000000159   0.664038354
H1       0.000000006  -0.000000033   0.708327967



     Writing output data file calc.save
     Check: negative starting charge=   -0.000152
     NEW-OLD atomic charge density approx. for the potential
     Check: negative starting charge=   -0.000152

     negative rho (up, down):  3.918E-04 0.000E+00
 
     Adding external electric field

     Computed dipole along edir(3) : 
        Dipole               -0.0824 Ry au,         -0.2094 Debye
        Dipole field         -0.0002 Ry au
 
        Potential amp.        0.0202 Ry
        Total length         45.3989 bohr
 

     total cpu time spent up to now is      416.4 secs

     per-process dynamical memory:    59.9 Mb

     Self-consistent Calculation

     iteration #  1     ecut=    36.75 Ry     beta=0.30
     Davidson diagonalization with overlap
     ethr =  1.00E-06,  avg # of iterations =  3.0

     negative rho (up, down):  3.923E-04 0.000E+00
 
     Adding external electric field

     Computed dipole along edir(3) : 
        Dipole               -0.1229 Ry au,         -0.3124 Debye
        Dipole field         -0.0003 Ry au
 
        Potential amp.        0.0302 Ry
        Total length         45.3989 bohr
 

     total cpu time spent up to now is      423.4 secs

     total energy              =     -94.95874765 Ry
     Harris-Foulkes estimate   =     -94.95887568 Ry
     estimated scf accuracy    <       0.00031794 Ry

     iteration #  2     ecut=    36.75 Ry     beta=0.30
     Davidson diagonalization with overlap
     ethr =  7.75E-07,  avg # of iterations =  3.1

     negative rho (up, down):  3.926E-04 0.000E+00
 
     Adding external electric field

     Computed dipole along edir(3) : 
        Dipole               -0.0786 Ry au,         -0.1998 Debye
        Dipole field         -0.0002 Ry au
 
        Potential amp.        0.0193 Ry
        Total length         45.3989 bohr
 

     total cpu time spent up to now is      430.1 secs

     total energy              =     -94.95814592 Ry
     Harris-Foulkes estimate   =     -94.95961226 Ry
     estimated scf accuracy    <       0.02849458 Ry

     iteration #  3     ecut=    36.75 Ry     beta=0.30
     Davidson diagonalization with overlap
     ethr =  7.75E-07,  avg # of iterations =  3.1

     negative rho (up, down):  3.931E-04 0.000E+00
 
     Adding external electric field

     Computed dipole along edir(3) : 
        Dipole               -0.0824 Ry au,         -0.2095 Debye
        Dipole field         -0.0002 Ry au
 
        Potential amp.        0.0202 Ry
        Total length         45.3989 bohr
 

     total cpu time spent up to now is      436.8 secs

     total energy              =     -94.95886228 Ry
     Harris-Foulkes estimate   =     -94.95889473 Ry
     estimated scf accuracy    <       0.00026396 Ry

     iteration #  4     ecut=    36.75 Ry     beta=0.30
     Davidson diagonalization with overlap
     ethr =  6.44E-07,  avg # of iterations =  1.5

     negative rho (up, down):  3.930E-04 0.000E+00
 
     Adding external electric field

     Computed dipole along edir(3) : 
        Dipole               -0.0816 Ry au,         -0.2073 Debye
        Dipole field         -0.0002 Ry au
 
        Potential amp.        0.0200 Ry
        Total length         45.3989 bohr
 

     total cpu time spent up to now is      443.0 secs

     total energy              =     -94.95887952 Ry
     Harris-Foulkes estimate   =     -94.95888089 Ry
     estimated scf accuracy    <       0.00000605 Ry

     iteration #  5     ecut=    36.75 Ry     beta=0.30
     Davidson diagonalization with overlap
     ethr =  1.48E-08,  avg # of iterations =  2.5

     negative rho (up, down):  3.931E-04 0.000E+00
 
     Adding external electric field

     Computed dipole along edir(3) : 
        Dipole               -0.0817 Ry au,         -0.2077 Debye
        Dipole field         -0.0002 Ry au
 
        Potential amp.        0.0200 Ry
        Total length         45.3989 bohr
 

     total cpu time spent up to now is      449.4 secs

     total energy              =     -94.95888032 Ry
     Harris-Foulkes estimate   =     -94.95888030 Ry
     estimated scf accuracy    <       0.00000113 Ry

     iteration #  6     ecut=    36.75 Ry     beta=0.30
     Davidson diagonalization with overlap
     ethr =  2.76E-09,  avg # of iterations =  1.7

     negative rho (up, down):  3.931E-04 0.000E+00
 
     Adding external electric field

     Computed dipole along edir(3) : 
        Dipole               -0.0819 Ry au,         -0.2082 Debye
        Dipole field         -0.0002 Ry au
 
        Potential amp.        0.0201 Ry
        Total length         45.3989 bohr
 

     total cpu time spent up to now is      455.5 secs

     total energy              =     -94.95888047 Ry
     Harris-Foulkes estimate   =     -94.95888031 Ry
     estimated scf accuracy    <       0.00000024 Ry

     iteration #  7     ecut=    36.75 Ry     beta=0.30
     Davidson diagonalization with overlap
     ethr =  5.74E-10,  avg # of iterations =  1.6

     negative rho (up, down):  3.934E-04 0.000E+00

     negative rho (up, down):  3.934E-04 0.000E+00

     negative rho (up, down):  3.934E-04 0.000E+00

     negative rho (up, down):  3.934E-04 0.000E+00

     negative rho (up, down):  3.934E-04 0.000E+00

     negative rho (up, down):  3.934E-04 0.000E+00

     negative rho (up, down):  3.934E-04 0.000E+00

     negative rho (up, down):  3.934E-04 0.000E+00

     negative rho (up, down):  3.934E-04 0.000E+00

     negative rho (up, down):  3.934E-04 0.000E+00

     negative rho (up, down):  3.934E-04 0.000E+00

     negative rho (up, down):  3.934E-04 0.000E+00

     negative rho (up, down):  3.934E-04 0.000E+00

     negative rho (up, down):  3.934E-04 0.000E+00

     negative rho (up, down):  3.934E-04 0.000E+00

     negative rho (up, down):  3.934E-04 0.000E+00

     negative rho (up, down):  3.934E-04 0.000E+00

     negative rho (up, down):  3.934E-04 0.000E+00

     negative rho (up, down):  3.934E-04 0.000E+00

     negative rho (up, down):  3.934E-04 0.000E+00

     negative rho (up, down):  3.934E-04 0.000E+00

     negative rho (up, down):  3.934E-04 0.000E+00

     negative rho (up, down):  3.934E-04 0.000E+00

     negative rho (up, down):  3.934E-04 0.000E+00

     negative rho (up, down):  3.934E-04 0.000E+00

     negative rho (up, down):  3.934E-04 0.000E+00

     negative rho (up, down):  3.934E-04 0.000E+00

     negative rho (up, down):  3.934E-04 0.000E+00

     negative rho (up, down):  3.934E-04 0.000E+00

     negative rho (up, down):  3.934E-04 0.000E+00

     negative rho (up, down):  3.934E-04 0.000E+00

     negative rho (up, down):  3.934E-04 0.000E+00

     negative rho (up, down):  3.934E-04 0.000E+00

     negative rho (up, down):  3.934E-04 0.000E+00

     negative rho (up, down):  3.934E-04 0.000E+00
 
     Adding external electric field

     Computed dipole along edir(3) : 
        Dipole               -0.0826 Ry au,         -0.2098 Debye
        Dipole field         -0.0002 Ry au
 
        Potential amp.        0.0203 Ry
        Total length         45.3989 bohr
 

     total cpu time spent up to now is      510.2 secs

     End of self-consistent calculation

          k = 0.0000 0.0000 0.0000 ( 17579 PWs)   bands (ev):

   -11.8978 -11.2385  -9.5772  -7.1534  -5.8760  -5.4645  -5.4645  -5.4059
    -5.4059  -5.3889  -5.1505  -4.1570  -4.1570  -4.0257  -3.6750  -3.5006
[...]
     estimated scf accuracy    <       0.00000147 Ry

     iteration #  6     ecut=    36.75 Ry     beta=0.30
     Davidson diagonalization with overlap
     ethr =  3.59E-09,  avg # of iterations =  1.1

     negative rho (up, down):  3.918E-04 0.000E+00
 
     Adding external electric field

     Computed dipole along edir(3) : 
        Dipole               -0.0596 Ry au,         -0.1514 Debye
        Dipole field         -0.0002 Ry au
 
        Potential amp.        0.0146 Ry
        Total length         45.3989 bohr
 

     total cpu time spent up to now is     1698.5 secs

     total energy              =     -94.96057581 Ry
     Harris-Foulkes estimate   =     -94.96057570 Ry
     estimated scf accuracy    <       0.00000017 Ry

     iteration #  7     ecut=    36.75 Ry     beta=0.30
     Davidson diagonalization with overlap
     ethr =  4.12E-10,  avg # of iterations =  2.0

     negative rho (up, down):  3.919E-04 0.000E+00

     negative rho (up, down):  3.919E-04 0.000E+00

     negative rho (up, down):  3.919E-04 0.000E+00

     negative rho (up, down):  3.919E-04 0.000E+00

     negative rho (up, down):  3.919E-04 0.000E+00

     negative rho (up, down):  3.919E-04 0.000E+00

     negative rho (up, down):  3.919E-04 0.000E+00

     negative rho (up, down):  3.919E-04 0.000E+00

     negative rho (up, down):  3.919E-04 0.000E+00

     negative rho (up, down):  3.919E-04 0.000E+00

     negative rho (up, down):  3.919E-04 0.000E+00

     negative rho (up, down):  3.919E-04 0.000E+00

     negative rho (up, down):  3.919E-04 0.000E+00

     negative rho (up, down):  3.919E-04 0.000E+00

     negative rho (up, down):  3.919E-04 0.000E+00

     negative rho (up, down):  3.919E-04 0.000E+00

     negative rho (up, down):  3.919E-04 0.000E+00

     negative rho (up, down):  3.919E-04 0.000E+00

     negative rho (up, down):  3.919E-04 0.000E+00

     negative rho (up, down):  3.919E-04 0.000E+00

     negative rho (up, down):  3.919E-04 0.000E+00

     negative rho (up, down):  3.919E-04 0.000E+00

     negative rho (up, down):  3.919E-04 0.000E+00

     negative rho (up, down):  3.919E-04 0.000E+00

     negative rho (up, down):  3.919E-04 0.000E+00

     negative rho (up, down):  3.919E-04 0.000E+00

     negative rho (up, down):  3.919E-04 0.000E+00

     negative rho (up, down):  3.919E-04 0.000E+00

     negative rho (up, down):  3.919E-04 0.000E+00

     negative rho (up, down):  3.919E-04 0.000E+00

     negative rho (up, down):  3.919E-04 0.000E+00

     negative rho (up, down):  3.919E-04 0.000E+00

     negative rho (up, down):  3.919E-04 0.000E+00

     negative rho (up, down):  3.919E-04 0.000E+00

     negative rho (up, down):  3.919E-04 0.000E+00
 
     Adding external electric field

     Computed dipole along edir(3) : 
        Dipole               -0.0595 Ry au,         -0.1511 Debye
        Dipole field         -0.0002 Ry au
 
        Potential amp.        0.0146 Ry
        Total length         45.3989 bohr
 

     total cpu time spent up to now is     1753.5 secs

     End of self-consistent calculation

          k = 0.0000 0.0000 0.0000 ( 17579 PWs)   bands (ev):

   -11.9431 -11.1688  -9.4985  -7.1303  -5.8873  -5.4095  -5.4095  -5.3002
    -5.3002  -5.2789  -5.1163  -4.1318  -4.1318  -3.9710  -3.6963  -3.4407
    -3.4407  -2.7089  -1.7245  -1.7245  -1.0402  -1.0402  -0.9934  -0.3723
     0.1510   0.1510   0.6609   1.9249   1.9415   1.9415

          k = 0.0000 0.0339 0.0000 ( 17522 PWs)   bands (ev):

   -11.8990 -11.0295  -9.3523  -7.1923  -6.9997  -6.2702  -6.1617  -5.7618
    -5.1442  -4.6540  -4.3940  -4.2641  -4.2224  -3.5288  -3.2497  -2.8429
    -2.7967  -2.4168  -1.9436  -1.5929  -1.0196  -0.8313  -0.6955  -0.0718
     0.3198   0.5619   0.7647   1.6745   1.9229   2.0440

          k = 0.0000 0.0677 0.0000 ( 17510 PWs)   bands (ev):

   -11.8209 -10.5781  -8.9058  -8.6376  -7.1290  -6.6876  -6.6493  -6.5762
    -5.4955  -5.0907  -4.7754  -3.9897  -3.0750  -3.0501  -2.7888  -2.4832
    -1.9606  -1.6845  -1.0519  -0.8012  -0.6536  -0.4729  -0.1028   0.4138
     0.7579   0.7892   1.0851   1.3994   1.5297   2.0595

          k = 0.0000-0.1016 0.0000 ( 17464 PWs)   bands (ev):

   -11.7865  -9.8022  -9.7561  -8.1698  -8.1195  -6.8685  -6.8126  -6.2973
    -5.5495  -5.2795  -5.2451  -4.0713  -2.9770  -2.6952  -2.5816  -1.4302
    -1.2434  -1.2433  -0.9094  -0.8407  -0.4951  -0.4245   0.3179   0.5537
     0.7100   0.9567   1.0619   1.4737   1.4976   1.9944

          k = 0.0293-0.0169 0.0000 ( 17522 PWs)   bands (ev):

   -11.8990 -11.0295  -9.3523  -7.1923  -6.9997  -6.2702  -6.1617  -5.7618
    -5.1442  -4.6540  -4.3940  -4.2641  -4.2224  -3.5288  -3.2497  -2.8429
    -2.7967  -2.4168  -1.9436  -1.5929  -1.0196  -0.8313  -0.6955  -0.0718
     0.3198   0.5619   0.7647   1.6745   1.9229   2.0440

          k = 0.0293 0.0169 0.0000 ( 17522 PWs)   bands (ev):

   -11.8990 -11.0295  -9.3523  -7.1923  -6.9997  -6.2702  -6.1617  -5.7618
    -5.1442  -4.6540  -4.3940  -4.2641  -4.2224  -3.5288  -3.2497  -2.8429
    -2.7967  -2.4168  -1.9436  -1.5929  -1.0196  -0.8313  -0.6955  -0.0718
     0.3198   0.5619   0.7647   1.6745   1.9229   2.0440

          k = 0.0293 0.0508 0.0000 ( 17513 PWs)   bands (ev):

   -11.8396 -10.7325  -9.0553  -7.8839  -7.7589  -6.8179  -6.3455  -6.1491
    -5.0997  -4.8822  -4.7959  -3.7289  -3.6464  -3.5466  -3.1119  -2.3510
    -2.0050  -1.7847  -1.3665  -1.2296  -0.5070  -0.4828  -0.2602   0.0023
     0.4307   0.6357   1.0415   1.3672   2.2135   2.3962

          k = 0.0293-0.1185 0.0000 ( 17495 PWs)   bands (ev):

   -11.7878 -10.1025  -9.1285  -8.4512  -8.1413  -7.5312  -6.6533  -6.1955
    -5.3380  -5.1809  -4.3899  -3.8091  -3.4168  -3.2693  -2.5053  -2.0038
    -1.6649  -1.4818  -1.2253  -0.6054  -0.3285  -0.0185   0.3077   0.5293
     0.8524   1.0329   1.3137   1.5193   1.8354   2.1020

          k = 0.0293-0.0847 0.0000 ( 17495 PWs)   bands (ev):

   -11.7878 -10.1025  -9.1285  -8.4512  -8.1413  -7.5312  -6.6533  -6.1955
    -5.3380  -5.1809  -4.3899  -3.8091  -3.4168  -3.2693  -2.5053  -2.0038
    -1.6649  -1.4818  -1.2253  -0.6054  -0.3285  -0.0185   0.3077   0.5293
     0.8524   1.0329   1.3137   1.5193   1.8354   2.1020

          k = 0.0293-0.0508 0.0000 ( 17513 PWs)   bands (ev):

   -11.8396 -10.7325  -9.0553  -7.8839  -7.7589  -6.8179  -6.3455  -6.1491
    -5.0997  -4.8822  -4.7959  -3.7289  -3.6464  -3.5466  -3.1119  -2.3510
    -2.0050  -1.7847  -1.3665  -1.2296  -0.5070  -0.4828  -0.2602   0.0023
     0.4307   0.6357   1.0415   1.3672   2.2135   2.3962

          k = 0.0587-0.0339 0.0000 ( 17510 PWs)   bands (ev):

   -11.8209 -10.5781  -8.9058  -8.6376  -7.1290  -6.6876  -6.6493  -6.5762
    -5.4955  -5.0907  -4.7754  -3.9897  -3.0750  -3.0501  -2.7888  -2.4832
    -1.9606  -1.6845  -1.0519  -0.8012  -0.6536  -0.4729  -0.1028   0.4138
     0.7579   0.7892   1.0851   1.3994   1.5297   2.0595

          k = 0.0587 0.0000 0.0000 ( 17513 PWs)   bands (ev):

   -11.8396 -10.7325  -9.0553  -7.8839  -7.7589  -6.8179  -6.3455  -6.1491
    -5.0997  -4.8822  -4.7959  -3.7289  -3.6464  -3.5466  -3.1119  -2.3510
    -2.0050  -1.7847  -1.3665  -1.2296  -0.5070  -0.4828  -0.2602   0.0023
     0.4307   0.6357   1.0415   1.3672   2.2135   2.3962

          k = 0.0587 0.0339 0.0000 ( 17510 PWs)   bands (ev):

   -11.8209 -10.5781  -8.9058  -8.6376  -7.1290  -6.6876  -6.6493  -6.5762
    -5.4955  -5.0907  -4.7754  -3.9897  -3.0750  -3.0501  -2.7888  -2.4832
    -1.9606  -1.6845  -1.0519  -0.8012  -0.6536  -0.4729  -0.1028   0.4138
     0.7579   0.7892   1.0851   1.3994   1.5297   2.0595

          k = 0.0587-0.1355 0.0000 ( 17495 PWs)   bands (ev):

   -11.7878 -10.1025  -9.1285  -8.4512  -8.1413  -7.5312  -6.6533  -6.1955
    -5.3380  -5.1809  -4.3899  -3.8091  -3.4168  -3.2693  -2.5053  -2.0038
    -1.6649  -1.4818  -1.2253  -0.6054  -0.3285  -0.0185   0.3077   0.5293
     0.8524   1.0329   1.3137   1.5193   1.8354   2.1020

          k = 0.0587-0.1016 0.0000 ( 17442 PWs)   bands (ev):

   -11.7731  -9.3596  -9.2648  -9.2445  -7.7817  -7.6419  -7.6063  -6.0473
    -5.0761  -5.0532  -3.7346  -3.4888  -3.3989  -3.3571  -2.5153  -2.3482
    -2.1638  -1.7326  -1.6448  -0.5845  -0.3118  -0.1113   1.0954   1.1781
     1.3327   1.6046   1.9940   2.1068   2.2056   2.2667

          k = 0.0587-0.0677 0.0000 ( 17495 PWs)   bands (ev):

   -11.7878 -10.1025  -9.1285  -8.4512  -8.1413  -7.5312  -6.6533  -6.1955
    -5.3380  -5.1809  -4.3899  -3.8091  -3.4168  -3.2693  -2.5053  -2.0038
    -1.6649  -1.4818  -1.2253  -0.6054  -0.3285  -0.0185   0.3077   0.5293
     0.8524   1.0329   1.3137   1.5193   1.8354   2.1020

          k =-0.0880 0.0508 0.0000 ( 17464 PWs)   bands (ev):

   -11.7865  -9.8022  -9.7561  -8.1698  -8.1195  -6.8685  -6.8126  -6.2973
    -5.5495  -5.2795  -5.2451  -4.0713  -2.9770  -2.6952  -2.5816  -1.4302
    -1.2434  -1.2433  -0.9094  -0.8407  -0.4951  -0.4245   0.3179   0.5537
     0.7100   0.9567   1.0619   1.4737   1.4976   1.9944

          k =-0.0880 0.0847 0.0000 ( 17495 PWs)   bands (ev):

   -11.7878 -10.1025  -9.1285  -8.4512  -8.1413  -7.5312  -6.6533  -6.1955
    -5.3380  -5.1809  -4.3899  -3.8091  -3.4168  -3.2693  -2.5053  -2.0038
    -1.6649  -1.4818  -1.2253  -0.6054  -0.3285  -0.0185   0.3077   0.5293
     0.8524   1.0329   1.3137   1.5193   1.8354   2.1020

          k =-0.0880 0.1185 0.0000 ( 17495 PWs)   bands (ev):

   -11.7878 -10.1025  -9.1285  -8.4512  -8.1413  -7.5312  -6.6533  -6.1955
    -5.3380  -5.1809  -4.3899  -3.8091  -3.4168  -3.2693  -2.5053  -2.0038
    -1.6649  -1.4818  -1.2253  -0.6054  -0.3285  -0.0185   0.3077   0.5293
     0.8524   1.0329   1.3137   1.5193   1.8354   2.1020

          k =-0.0880-0.0508 0.0000 ( 17464 PWs)   bands (ev):

   -11.7865  -9.8022  -9.7561  -8.1698  -8.1195  -6.8685  -6.8126  -6.2973
    -5.5495  -5.2795  -5.2451  -4.0713  -2.9770  -2.6952  -2.5816  -1.4302
    -1.2434  -1.2433  -0.9094  -0.8407  -0.4951  -0.4245   0.3179   0.5537
     0.7100   0.9567   1.0619   1.4737   1.4976   1.9944

     the Fermi energy is    -0.6343 ev

!    total energy              =     -94.96057581 Ry
     Harris-Foulkes estimate   =     -94.96057586 Ry
     estimated scf accuracy    <       0.00000002 Ry

     The total energy is the sum of the following terms:

     one-electron contribution =    -721.20516530 Ry
     hartree contribution      =     369.03166083 Ry
     xc contribution           =     -57.44040291 Ry
     ewald contribution        =     314.68900938 Ry
     electric field correction =       0.00000955 Ry
     smearing contrib. (-TS)   =      -0.03568736 Ry

     convergence has been achieved in   7 iterations
 
 BEEF-vdW xc energy contributions
           1 :   -47.1534459404287     
           2 :    40.4676132796188     
           3 :   -30.2367540230440     
           4 :    20.5225774183341     
           5 :   -13.9008249961388     
           6 :    10.5133356953679     
           7 :   -8.84904596924426     
           8 :    7.34854165762823     
           9 :   -5.52080321600278     
          10 :    3.87589239032179     
          11 :   -3.04380579645178     
          12 :    3.02312557568339     
          13 :   -3.19793610778604     
          14 :    2.95332415427691     
          15 :   -2.21020988429196     
          16 :    1.39142530235740     
          17 :  -0.935045609095241     
          18 :   0.873830155198377     
          19 :  -0.868531580743834     
          20 :   0.594685392290891     
          21 :  -6.110924898052872E-002
          22 :  -0.436240835361701     
          23 :   0.632494458991260     
          24 :  -0.545054797122226     
          25 :   0.425082966005938     
          26 :  -0.491278100300534     
          27 :   0.724613007128184     
          28 :  -0.914861807444694     
          29 :   0.887429919916826     
          30 :  -0.674672180473912     
          31 :   -7.06452582574725     
          32 :   -5.15244409465163     

     Forces acting on atoms (Ry/au):


     negative rho (up, down):  3.919E-04 0.000E+00
     atom    1 type  1   force =    -0.00043060   -0.00024861   -0.00066327
     atom    2 type  1   force =     0.00043061   -0.00024862   -0.00066326
     atom    3 type  1   force =     0.00000000    0.00049722   -0.00066328
     atom    4 type  1   force =    -0.00000000    0.00000000    0.00016615
     atom    5 type  1   force =     0.00000000    0.00601257    0.00113640
     atom    6 type  1   force =    -0.00000000   -0.00000001    0.00487587
     atom    7 type  1   force =    -0.00520705   -0.00300631    0.00113635
     atom    8 type  1   force =     0.00520707   -0.00300631    0.00113632
     atom    9 type  1   force =     0.00000001   -0.00000006   -0.00116972
     atom   10 type  1   force =     0.00000002   -0.00124320   -0.00126416
     atom   11 type  1   force =    -0.00107662    0.00062155   -0.00126418
     atom   12 type  1   force =     0.00107665    0.00062154   -0.00126417
     atom   13 type  2   force =    -0.00000006    0.00000018   -0.00037672
     atom   14 type  3   force =    -0.00000002    0.00000007   -0.00112233

     Total force =     0.003493     Total SCF correction =     0.000120


     entering subroutine stress ...


     negative rho (up, down):  3.919E-04 0.000E+00
          total   stress  (Ry/bohr**3)                   (kbar)     P=   -6.04
  -0.00005864   0.00000000  -0.00000000         -8.63      0.00     -0.00
   0.00000000  -0.00005864   0.00000000          0.00     -8.63      0.00
  -0.00000000   0.00000000  -0.00000595         -0.00      0.00     -0.87


     bfgs converged in  14 scf cycles and  13 bfgs steps
     (criteria: energy <  1.0E+00, force <  1.9E-03)

     End of BFGS Geometry Optimization

     Final energy   =     -94.9605758096 Ry
Begin final coordinates

ATOMIC_POSITIONS (crystal)
Al1      0.166666667   0.166666667   0.405843214    0   0   0
Al1      0.666666667   0.166666667   0.405843214    0   0   0
Al1      0.166666667   0.666666667   0.405843214    0   0   0
Al1      0.666666667   0.666666667   0.405843214    0   0   0
Al1      0.833333333   0.333333333   0.500000000    0   0   0
Al1      0.333333333   0.333333333   0.500000000    0   0   0
Al1      0.833333333   0.833333333   0.500000000    0   0   0
Al1      0.333333333   0.833333333   0.500000000    0   0   0
Al1      0.000000123  -0.000000148   0.586527996
Al1      0.501057072  -0.002114069   0.596901931
Al1     -0.002113978   0.501056913   0.596901936
Al1      0.501057110   0.501056893   0.596901935
C1      -0.000000329   0.000000413   0.660404998
H1      -0.000000144   0.000000186   0.704594682
End final coordinates



     Writing output data file calc.save
 
     init_run     :      5.51s CPU      5.92s WALL (       1 calls)
     electrons    :   1306.87s CPU   1409.61s WALL (      14 calls)
     update_pot   :     38.26s CPU     40.86s WALL (      13 calls)
     forces       :     76.85s CPU     80.19s WALL (      14 calls)
     stress       :    207.07s CPU    214.72s WALL (      14 calls)

     Called by init_run:
     wfcinit      :      1.34s CPU      1.38s WALL (       1 calls)
     potinit      :      1.92s CPU      2.10s WALL (       1 calls)

     Called by electrons:
     c_bands      :    232.57s CPU    241.11s WALL (     109 calls)
     sum_band     :    150.30s CPU    162.46s WALL (     109 calls)
     v_of_rho     :    184.52s CPU    210.78s WALL (     123 calls)
     newd         :    128.75s CPU    131.14s WALL (     123 calls)
     mix_rho      :      5.71s CPU      5.82s WALL (     109 calls)
     vdW_energy   :    127.13s CPU    141.52s WALL (     627 calls)
     vdW_ffts     :    327.26s CPU    344.42s WALL (    1282 calls)
     vdW_v        :    122.55s CPU    126.80s WALL (     627 calls)

     Called by c_bands:
     init_us_2    :      3.50s CPU      3.54s WALL (    1235 calls)
     cegterg      :    215.86s CPU    220.69s WALL (     545 calls)

     Called by *egterg:
     h_psi        :    176.90s CPU    180.55s WALL (    2015 calls)
     s_psi        :     10.48s CPU     10.53s WALL (    2015 calls)
     g_psi        :      1.07s CPU      1.06s WALL (    1465 calls)
     cdiaghg      :      4.80s CPU      4.86s WALL (    1945 calls)

     Called by h_psi:
     add_vuspsi   :     10.79s CPU     10.79s WALL (    2015 calls)

     General routines
     calbec       :     17.57s CPU     17.93s WALL (    2700 calls)
     fft          :    494.06s CPU    532.22s WALL (   37573 calls)
     ffts         :      0.42s CPU      0.42s WALL (     232 calls)
     fftw         :    120.35s CPU    123.84s WALL (   95542 calls)
     interpolate  :      4.13s CPU      4.21s WALL (     232 calls)
     davcio       :      0.00s CPU      0.01s WALL (       5 calls)
 
     Parallel routines
     fft_scatter  :    376.51s CPU    417.39s WALL (  133347 calls)
 
     PWSCF        : 27m33.69s CPU    29m35.65s WALL

 
   This run was terminated on:  11:35:54  16Apr2018            

=------------------------------------------------------------------------------=
   JOB DONE.
=------------------------------------------------------------------------------=
Job  /afs/slac/g/suncat/bin/suncat-tsmpirun -x LD_LIBRARY_PATH -wdir /scratch/qe110142_hO1mS pw.x -npool 4 -in pw.inp

TID   HOST_NAME   COMMAND_LINE            STATUS            TERMINATION_TIME
===== ========== ================  =======================  ===================
00000 suncat0054 pw.x -npool 4 -i  Done                     04/16/2018 11:35:54
00001 suncat0054 pw.x -npool 4 -i  Done                     04/16/2018 11:35:54
00002 suncat0054 pw.x -npool 4 -i  Done                     04/16/2018 11:35:54
00003 suncat0054 pw.x -npool 4 -i  Done                     04/16/2018 11:35:54
00004 suncat0054 pw.x -npool 4 -i  Done                     04/16/2018 11:35:54
00005 suncat0054 pw.x -npool 4 -i  Done                     04/16/2018 11:35:54
00006 suncat0054 pw.x -npool 4 -i  Done                     04/16/2018 11:35:54
00007 suncat0054 pw.x -npool 4 -i  Done                     04/16/2018 11:35:54
00008 suncat0035 pw.x -npool 4 -i  Done                     04/16/2018 11:35:54
00009 suncat0035 pw.x -npool 4 -i  Done                     04/16/2018 11:35:54
00010 suncat0035 pw.x -npool 4 -i  Done                     04/16/2018 11:35:54
00011 suncat0035 pw.x -npool 4 -i  Done                     04/16/2018 11:35:54
00012 suncat0035 pw.x -npool 4 -i  Done                     04/16/2018 11:35:54
00013 suncat0035 pw.x -npool 4 -i  Done                     04/16/2018 11:35:54
00014 suncat0035 pw.x -npool 4 -i  Done                     04/16/2018 11:35:54
00015 suncat0035 pw.x -npool 4 -i  Done                     04/16/2018 11:35:54
00016 suncat0016 pw.x -npool 4 -i  Done                     04/16/2018 11:35:54
00017 suncat0016 pw.x -npool 4 -i  Done                     04/16/2018 11:35:54
00018 suncat0016 pw.x -npool 4 -i  Done                     04/16/2018 11:35:54
00019 suncat0016 pw.x -npool 4 -i  Done                     04/16/2018 11:35:54
00020 suncat0016 pw.x -npool 4 -i  Done                     04/16/2018 11:35:54
00021 suncat0016 pw.x -npool 4 -i  Done                     04/16/2018 11:35:54
00022 suncat0016 pw.x -npool 4 -i  Done                     04/16/2018 11:35:54
00023 suncat0016 pw.x -npool 4 -i  Done                     04/16/2018 11:35:54
00024 suncat0014 pw.x -npool 4 -i  Done                     04/16/2018 11:35:54
00025 suncat0014 pw.x -npool 4 -i  Done                     04/16/2018 11:35:54
00026 suncat0014 pw.x -npool 4 -i  Done                     04/16/2018 11:35:54
00027 suncat0014 pw.x -npool 4 -i  Done                     04/16/2018 11:35:54
00028 suncat0014 pw.x -npool 4 -i  Done                     04/16/2018 11:35:54
00029 suncat0014 pw.x -npool 4 -i  Done                     04/16/2018 11:35:54
00030 suncat0014 pw.x -npool 4 -i  Done                     04/16/2018 11:35:54
00031 suncat0014 pw.x -npool 4 -i  Done                     04/16/2018 11:35:54
