  python dir          : /u/if/mamunm/src/espresso
  espresso dir        : /nfs/slac/g/suncatfs/sw/espv18/espresso-dynpy-beef/bin
  pseudo dir          : /u/if/mamunm/psp/gbrv1.5pbe
  ase-espresso py git : GITVERSION



     Program PWSCF v.5.1rc2 (svn rev. 11289) starts on  2May2018 at 15:40:52 

     This program is part of the open-source Quantum ESPRESSO suite
     for quantum simulation of materials; please cite
         "P. Giannozzi et al., J. Phys.:Condens. Matter 21 395502 (2009);
          URL http://www.quantum-espresso.org", 
     in publications or presentations arising from this work. More details at
     http://www.quantum-espresso.org/quote

     Parallel version (MPI), running on    32 processors
     K-points division:     npool     =       4
     R & G space division:  proc/nbgrp/npool/nimage =       8
     Reading input from pw.inp
     Message from routine read_cards :
     DEPRECATED: no units specified in CELL_PARAMETERS card

     Current dimensions of program PWSCF are:
     Max number of different atomic species (ntypx) = 10
     Max number of k-points (npk) =  40000
     Max angular momentum in pseudopotentials (lmaxx) =  3
     Presently stress not available with electric field


     **************************************************************************
     Initializing libbeef V0.1.1 with the BEEF-vdW functional.
     Citation: Wellendorff et al., PRB 85, 235149 (2012).
     **************************************************************************


     IMPORTANT: XC functional enforced from input :
     Exchange-correlation      = BEEF-VDW ( 1  4 27 13 2)
     Any further DFT definition will be discarded
     Please, verify this is what you really want


     Subspace diagonalization in iterative solution of the eigenvalue problem:
     a serial algorithm will be used

 
     Parallelization info
     --------------------
     sticks:   dense  smooth     PW     G-vecs:    dense   smooth      PW
     Min         469     188     53                90947    23011    3531
     Max         471     189     55                90959    23054    3542
     Sum        3757    1507    433               727599   184247   28311
 


     bravais-lattice index     =            0
     lattice parameter (alat)  =       1.8897  a.u.
     unit-cell volume          =    6116.8020 (a.u.)^3
     number of atoms/cell      =           13
     number of atomic types    =            2
     number of electrons       =       138.00
     number of Kohn-Sham states=           79
     kinetic-energy cutoff     =      36.7493  Ry
     charge density cutoff     =     367.4932  Ry
     convergence threshold     =      1.0E-05
     mixing beta               =       0.3000
     number of iterations used =           10  plain     mixing
     Exchange-correlation      = BEEF-VDW ( 1  4 27 13 2)
     nstep                     =           50


     celldm(1)=   1.889726  celldm(2)=   0.000000  celldm(3)=   0.000000
     celldm(4)=   0.000000  celldm(5)=   0.000000  celldm(6)=   0.000000

     crystal axes: (cart. coord. in units of alat)
               a(1) = (   6.437465   0.000000   0.000000 )  
               a(2) = (   3.218732   5.575008   0.000000 )  
               a(3) = (   0.000000   0.000000  25.256168 )  

     reciprocal axes: (cart. coord. in units 2 pi/alat)
               b(1) = (  0.155341 -0.089686  0.000000 )  
               b(2) = (  0.000000  0.179372  0.000000 )  
               b(3) = (  0.000000  0.000000  0.039594 )  


     PseudoPot. # 1 for Sc read from file:
     /u/if/mamunm/psp/gbrv1.5pbe/Sc.UPF
     MD5 check sum: db30a2753ba66ef00f23801d899b7e7f
     Pseudo is Ultrasoft + core correction, Zval = 11.0
     Generated by new atomic code, or converted to UPF format
     Using radial grid of  849 points,  6 beta functions with: 
                l(1) =   0
                l(2) =   0
                l(3) =   1
                l(4) =   1
                l(5) =   2
                l(6) =   2
     Q(r) pseudized with  6 coefficients,  rinner =    1.200   1.200   1.200
                                                       1.200   1.200

     PseudoPot. # 2 for O  read from file:
     /u/if/mamunm/psp/gbrv1.5pbe/O.UPF
     MD5 check sum: 734c27235a0248c51dbae37a1fbe46ec
     Pseudo is Ultrasoft + core correction, Zval =  6.0
     Generated by new atomic code, or converted to UPF format
     Using radial grid of  737 points,  5 beta functions with: 
                l(1) =   0
                l(2) =   0
                l(3) =   1
                l(4) =   1
                l(5) =   2
     Q(r) pseudized with  8 coefficients,  rinner =    0.900   0.900   0.900
                                                       0.900   0.900

     vdW kernel table read from file vdW_kernel_table
     MD5 check sum: 095c7af220d748ca6e76c0b4c6cfb241

     atomic species   valence    mass     pseudopotential
        Sc1           11.00    44.95591     Sc( 1.00)
        O1             6.00    15.99900     O ( 1.00)

     No symmetry found



   Cartesian axes

     site n.     atom                  positions (alat units)
         1           Sc1 tau(   1) = (   1.6093662   0.9291680  10.0000000  )
         2           Sc1 tau(   2) = (   4.8280986   0.9291680  10.0000000  )
         3           Sc1 tau(   3) = (   3.2187324   3.7166720  10.0000000  )
         4           Sc1 tau(   4) = (   6.4374648   3.7166720  10.0000000  )
         5           Sc1 tau(   5) = (   6.4374648   1.8583360  12.6280840  )
         6           Sc1 tau(   6) = (   3.2187324   1.8583360  12.6280840  )
         7           Sc1 tau(   7) = (   8.0468310   4.6458400  12.6280840  )
         8           Sc1 tau(   8) = (   4.8280986   4.6458400  12.6280840  )
         9           Sc1 tau(   9) = (   0.0000000   0.0000000  15.2561680  )
        10           Sc1 tau(  10) = (   3.2187324   0.0000000  15.2561680  )
        11           Sc1 tau(  11) = (   1.6093662   2.7875040  15.2561680  )
        12           Sc1 tau(  12) = (   4.8280986   2.7875040  15.2561680  )
        13           O1  tau(  13) = (   1.6093662   0.9291680  16.7901680  )

     number of k points=    20  Fermi-Dirac smearing, width (Ry)=  0.0110
                       cart. coord. in units 2pi/alat
        k(    1) = (   0.0000000   0.0000000   0.0000000), wk =   0.0555556
        k(    2) = (   0.0000000   0.0298953   0.0000000), wk =   0.1111111
        k(    3) = (   0.0000000   0.0597906   0.0000000), wk =   0.1111111
        k(    4) = (   0.0000000  -0.0896860   0.0000000), wk =   0.0555556
        k(    5) = (   0.0258901  -0.0149477   0.0000000), wk =   0.1111111
        k(    6) = (   0.0258901   0.0149477   0.0000000), wk =   0.1111111
        k(    7) = (   0.0258901   0.0448430   0.0000000), wk =   0.1111111
        k(    8) = (   0.0258901  -0.1046336   0.0000000), wk =   0.1111111
        k(    9) = (   0.0258901  -0.0747383   0.0000000), wk =   0.1111111
        k(   10) = (   0.0258901  -0.0448430   0.0000000), wk =   0.1111111
        k(   11) = (   0.0517802  -0.0298953   0.0000000), wk =   0.1111111
        k(   12) = (   0.0517802   0.0000000   0.0000000), wk =   0.1111111
        k(   13) = (   0.0517802   0.0298953   0.0000000), wk =   0.1111111
        k(   14) = (   0.0517802  -0.1195813   0.0000000), wk =   0.1111111
        k(   15) = (   0.0517802  -0.0896860   0.0000000), wk =   0.1111111
        k(   16) = (   0.0517802  -0.0597906   0.0000000), wk =   0.1111111
        k(   17) = (  -0.0776703   0.0448430   0.0000000), wk =   0.0555556
        k(   18) = (  -0.0776703   0.0747383   0.0000000), wk =   0.1111111
        k(   19) = (  -0.0776703   0.1046336   0.0000000), wk =   0.1111111
        k(   20) = (  -0.0776703  -0.0448430   0.0000000), wk =   0.0555556

     Dense  grid:   727599 G-vectors     FFT dimensions: (  75,  75, 300)

     Smooth grid:   184247 G-vectors     FFT dimensions: (  48,  48, 192)

     Largest allocated arrays     est. size (Mb)     dimensions
        Kohn-Sham Wavefunctions         3.51 Mb     (    2914,   79)
        NL pseudopotentials            10.18 Mb     (    2914,  229)
        Each V/rho on FFT grid          3.26 Mb     (  213750)
        Each G-vector array             0.69 Mb     (   90950)
        G-vector shells                 0.18 Mb     (   23259)
     Largest temporary arrays     est. size (Mb)     dimensions
        Auxiliary wavefunctions        14.05 Mb     (    2914,  316)
        Each subspace H/S matrix        1.52 Mb     (     316,  316)
        Each <psi_i|beta_j> matrix      0.28 Mb     (     229,   79)
        Arrays for rho mixing          32.62 Mb     (  213750,   10)

     Initial potential from superposition of free atoms
     Check: negative starting charge=   -0.000420

     starting charge  137.97117, renormalised to  138.00000

     negative rho (up, down):  4.206E-04 0.000E+00


     ************************************************************************
     *
     * You are using vdW-DF for exchange-correlation in this calculation.
     * Please cite the following three references that made this development
     * possible:
     *
     *   M. Dion, H. Rydberg, E. Schroder, D. C. Langreth, and
     *   B. I. Lundqvist, Phys. Rev. Lett. 92, 246401 (2004).
     *
     *   T. Thonhauser, V. R. Cooper, S. Li, A. Puzder, P. Hyldgaard, and
     *   D. C. Langreth, Phys. Rev. B 76, 125112 (2007).
     *
     *   G. Roman-Perez and J. M. Soler, Phys. Rev. Lett. 103, 096102 (2009).
     *
     *
     * If you are using vdW-DF2, please also cite:
     *
     *   K. Lee, E. D. Murray, L. Kong, B. I. Lundqvist, and
     *   D. C. Langreth, Phys. Rev. B 82, 081101(R) (2010).
     *
     *
     * If you are calculating the stress with vdW-DF, please also cite:
     *
     *   R. Sabatini, E. Kucukbenli, B. Kolb, T. Thonhauser, and
     *   S. de Gironcoli, J. Phys.: Condens. Matter 24, 424209 (2012).
     *
     ************************************************************************

     Carrying out vdW-DF run using the following parameters:

     Nqs =      20    Nr_points =    1024   r_max =   100.000
     q_mesh =
               0.00001000     0.04494208     0.09755937     0.15916263
               0.23128650     0.31572767     0.41458969     0.53033537
               0.66584808     0.82450364     1.01025438     1.22772762
               1.48234092     1.78043706     2.12944203     2.53805004
               3.01644009     3.57652955     4.23227104     5.00000000

     Gradients computed in reciprocal space

     ************************************************************************


 
     Adding external electric field

     Computed dipole along edir(3) : 
        Dipole               -0.0098 Ry au,         -0.0250 Debye
        Dipole field         -0.0000 Ry au
 
        Potential amp.        0.0019 Ry
        Total length         46.5341 bohr
 
     Starting wfc are  160 randomized atomic wfcs

     total cpu time spent up to now is       15.9 secs

     per-process dynamical memory:    97.1 Mb

     Self-consistent Calculation

     iteration #  1     ecut=    36.75 Ry     beta=0.30
     Davidson diagonalization with overlap
     ethr =  1.00E-02,  avg # of iterations =  2.0

     negative rho (up, down):  1.737E-04 0.000E+00
 
     Adding external electric field

     Computed dipole along edir(3) : 
        Dipole               -3.8397 Ry au,         -9.7596 Debye
        Dipole field         -0.0079 Ry au
 
        Potential amp.        0.7342 Ry
        Total length         46.5341 bohr
 

     total cpu time spent up to now is       35.6 secs

     total energy              =   -1167.78692976 Ry
     Harris-Foulkes estimate   =   -1170.97581522 Ry
     estimated scf accuracy    <       6.79073975 Ry

     iteration #  2     ecut=    36.75 Ry     beta=0.30
     Davidson diagonalization with overlap
     ethr =  4.92E-03,  avg # of iterations =  9.4

     negative rho (up, down):  4.719E-04 0.000E+00
 
     Adding external electric field

     Computed dipole along edir(3) : 
        Dipole                1.9479 Ry au,          4.9510 Debye
        Dipole field          0.0040 Ry au
 
        Potential amp.       -0.3724 Ry
        Total length         46.5341 bohr
 

     total cpu time spent up to now is       64.7 secs

     total energy              =   -1159.13016594 Ry
     Harris-Foulkes estimate   =   -1180.83644419 Ry
     estimated scf accuracy    <     517.98451017 Ry

     iteration #  3     ecut=    36.75 Ry     beta=0.30
     Davidson diagonalization with overlap
     ethr =  4.92E-03,  avg # of iterations =  9.1

     negative rho (up, down):  5.884E-04 0.000E+00
 
     Adding external electric field

     Computed dipole along edir(3) : 
        Dipole                0.3456 Ry au,          0.8783 Debye
        Dipole field          0.0007 Ry au
 
        Potential amp.       -0.0661 Ry
        Total length         46.5341 bohr
 

     total cpu time spent up to now is       95.0 secs

     total energy              =   -1166.80827304 Ry
     Harris-Foulkes estimate   =   -1176.37042222 Ry
     estimated scf accuracy    <     268.96330023 Ry

     iteration #  4     ecut=    36.75 Ry     beta=0.30
     Davidson diagonalization with overlap
     ethr =  4.92E-03,  avg # of iterations =  6.3

     negative rho (up, down):  3.851E-04 0.000E+00
 
     Adding external electric field

     Computed dipole along edir(3) : 
        Dipole                0.2148 Ry au,          0.5459 Debye
        Dipole field          0.0004 Ry au
 
        Potential amp.       -0.0411 Ry
        Total length         46.5341 bohr
 

     total cpu time spent up to now is      119.8 secs

     total energy              =   -1170.26476560 Ry
     Harris-Foulkes estimate   =   -1170.38182419 Ry
     estimated scf accuracy    <       3.17274955 Ry

     iteration #  5     ecut=    36.75 Ry     beta=0.30
     Davidson diagonalization with overlap
     ethr =  2.30E-03,  avg # of iterations =  3.8

     negative rho (up, down):  2.658E-04 0.000E+00
 
     Adding external electric field

     Computed dipole along edir(3) : 
        Dipole                0.0252 Ry au,          0.0642 Debye
        Dipole field          0.0001 Ry au
 
        Potential amp.       -0.0048 Ry
        Total length         46.5341 bohr
 

     total cpu time spent up to now is      142.2 secs

     total energy              =   -1170.30005101 Ry
     Harris-Foulkes estimate   =   -1170.35171677 Ry
     estimated scf accuracy    <       0.81068375 Ry

     iteration #  6     ecut=    36.75 Ry     beta=0.30
     Davidson diagonalization with overlap
     ethr =  5.87E-04,  avg # of iterations =  9.4

     negative rho (up, down):  1.930E-04 0.000E+00
 
     Adding external electric field

     Computed dipole along edir(3) : 
        Dipole               -0.1158 Ry au,         -0.2943 Debye
        Dipole field         -0.0002 Ry au
 
        Potential amp.        0.0221 Ry
        Total length         46.5341 bohr
 

     total cpu time spent up to now is      167.4 secs

     total energy              =   -1170.34335104 Ry
     Harris-Foulkes estimate   =   -1170.37406742 Ry
     estimated scf accuracy    <       0.23766661 Ry

     iteration #  7     ecut=    36.75 Ry     beta=0.30
     Davidson diagonalization with overlap
     ethr =  1.72E-04,  avg # of iterations = 10.2

     negative rho (up, down):  1.995E-04 0.000E+00
 
     Adding external electric field

     Computed dipole along edir(3) : 
        Dipole               -0.1747 Ry au,         -0.4441 Debye
        Dipole field         -0.0004 Ry au
 
        Potential amp.        0.0334 Ry
        Total length         46.5341 bohr
 

     total cpu time spent up to now is      193.7 secs

     total energy              =   -1170.35807130 Ry
     Harris-Foulkes estimate   =   -1170.36819092 Ry
     estimated scf accuracy    <       0.10772347 Ry

     iteration #  8     ecut=    36.75 Ry     beta=0.30
     Davidson diagonalization with overlap
     ethr =  7.81E-05,  avg # of iterations =  7.0

     negative rho (up, down):  2.207E-04 0.000E+00
 
     Adding external electric field

     Computed dipole along edir(3) : 
        Dipole               -0.2211 Ry au,         -0.5619 Debye
        Dipole field         -0.0005 Ry au
 
        Potential amp.        0.0423 Ry
        Total length         46.5341 bohr
 

     total cpu time spent up to now is      216.9 secs

     total energy              =   -1170.35509860 Ry
     Harris-Foulkes estimate   =   -1170.36341808 Ry
     estimated scf accuracy    <       0.32632537 Ry

     iteration #  9     ecut=    36.75 Ry     beta=0.30
     Davidson diagonalization with overlap
     ethr =  7.81E-05,  avg # of iterations =  1.3

     negative rho (up, down):  2.626E-04 0.000E+00
 
     Adding external electric field

     Computed dipole along edir(3) : 
        Dipole               -0.3147 Ry au,         -0.7998 Debye
        Dipole field         -0.0006 Ry au
 
        Potential amp.        0.0602 Ry
        Total length         46.5341 bohr
 

     total cpu time spent up to now is      236.9 secs

     total energy              =   -1170.34996268 Ry
     Harris-Foulkes estimate   =   -1170.35745045 Ry
     estimated scf accuracy    <       0.12014189 Ry

     iteration # 10     ecut=    36.75 Ry     beta=0.30
     Davidson diagonalization with overlap
     ethr =  7.81E-05,  avg # of iterations =  3.9

     negative rho (up, down):  2.504E-04 0.000E+00
 
     Adding external electric field

     Computed dipole along edir(3) : 
        Dipole               -0.3067 Ry au,         -0.7795 Debye
        Dipole field         -0.0006 Ry au
 
        Potential amp.        0.0586 Ry
        Total length         46.5341 bohr
 

     total cpu time spent up to now is      257.8 secs

     total energy              =   -1170.35407783 Ry
     Harris-Foulkes estimate   =   -1170.35526088 Ry
     estimated scf accuracy    <       0.01970959 Ry

     iteration # 11     ecut=    36.75 Ry     beta=0.30
     Davidson diagonalization with overlap
     ethr =  1.43E-05,  avg # of iterations =  9.2

     negative rho (up, down):  2.388E-04 0.000E+00
 
     Adding external electric field

     Computed dipole along edir(3) : 
        Dipole               -0.2907 Ry au,         -0.7389 Debye
        Dipole field         -0.0006 Ry au
 
        Potential amp.        0.0556 Ry
        Total length         46.5341 bohr
 

     total cpu time spent up to now is      284.2 secs

     total energy              =   -1170.35557592 Ry
     Harris-Foulkes estimate   =   -1170.35697636 Ry
     estimated scf accuracy    <       0.00771935 Ry

     iteration # 12     ecut=    36.75 Ry     beta=0.30
     Davidson diagonalization with overlap
     ethr =  5.59E-06,  avg # of iterations =  6.7

     negative rho (up, down):  2.445E-04 0.000E+00
 
     Adding external electric field

     Computed dipole along edir(3) : 
        Dipole               -0.3306 Ry au,         -0.8404 Debye
        Dipole field         -0.0007 Ry au
 
        Potential amp.        0.0632 Ry
        Total length         46.5341 bohr
 

     total cpu time spent up to now is      308.7 secs

     total energy              =   -1170.35598446 Ry
     Harris-Foulkes estimate   =   -1170.35681964 Ry
     estimated scf accuracy    <       0.00956913 Ry

     iteration # 13     ecut=    36.75 Ry     beta=0.30
     Davidson diagonalization with overlap
     ethr =  5.59E-06,  avg # of iterations =  2.0

     negative rho (up, down):  2.498E-04 0.000E+00
 
     Adding external electric field

     Computed dipole along edir(3) : 
        Dipole               -0.3285 Ry au,         -0.8349 Debye
        Dipole field         -0.0007 Ry au
 
        Potential amp.        0.0628 Ry
        Total length         46.5341 bohr
 

     total cpu time spent up to now is      328.9 secs

     total energy              =   -1170.35646008 Ry
     Harris-Foulkes estimate   =   -1170.35639914 Ry
     estimated scf accuracy    <       0.00077779 Ry

     iteration # 14     ecut=    36.75 Ry     beta=0.30
     Davidson diagonalization with overlap
     ethr =  5.64E-07,  avg # of iterations =  8.4

     negative rho (up, down):  2.611E-04 0.000E+00
 
     Adding external electric field

     Computed dipole along edir(3) : 
        Dipole               -0.3321 Ry au,         -0.8440 Debye
        Dipole field         -0.0007 Ry au
 
        Potential amp.        0.0635 Ry
        Total length         46.5341 bohr
 

     total cpu time spent up to now is      356.4 secs

     total energy              =   -1170.35637343 Ry
     Harris-Foulkes estimate   =   -1170.35662593 Ry
     estimated scf accuracy    <       0.00296774 Ry

     iteration # 15     ecut=    36.75 Ry     beta=0.30
     Davidson diagonalization with overlap
     ethr =  5.64E-07,  avg # of iterations =  8.4

     negative rho (up, down):  2.771E-04 0.000E+00
 
     Adding external electric field

     Computed dipole along edir(3) : 
        Dipole               -0.3373 Ry au,         -0.8572 Debye
        Dipole field         -0.0007 Ry au
 
        Potential amp.        0.0645 Ry
        Total length         46.5341 bohr
 

     total cpu time spent up to now is      382.8 secs

     total energy              =   -1170.35653557 Ry
     Harris-Foulkes estimate   =   -1170.35657800 Ry
     estimated scf accuracy    <       0.00072299 Ry

     iteration # 16     ecut=    36.75 Ry     beta=0.30
     Davidson diagonalization with overlap
     ethr =  5.24E-07,  avg # of iterations =  2.2

     negative rho (up, down):  2.881E-04 0.000E+00
 
     Adding external electric field

     Computed dipole along edir(3) : 
        Dipole               -0.3383 Ry au,         -0.8599 Debye
        Dipole field         -0.0007 Ry au
 
        Potential amp.        0.0647 Ry
        Total length         46.5341 bohr
 

     total cpu time spent up to now is      403.1 secs

     total energy              =   -1170.35656008 Ry
     Harris-Foulkes estimate   =   -1170.35655979 Ry
     estimated scf accuracy    <       0.00007927 Ry

     iteration # 17     ecut=    36.75 Ry     beta=0.30
     Davidson diagonalization with overlap
     ethr =  5.74E-08,  avg # of iterations =  8.1

     negative rho (up, down):  2.894E-04 0.000E+00
 
     Adding external electric field

     Computed dipole along edir(3) : 
        Dipole               -0.3386 Ry au,         -0.8605 Debye
        Dipole field         -0.0007 Ry au
 
        Potential amp.        0.0647 Ry
        Total length         46.5341 bohr
 

     total cpu time spent up to now is      430.1 secs

     total energy              =   -1170.35657805 Ry
     Harris-Foulkes estimate   =   -1170.35658515 Ry
     estimated scf accuracy    <       0.00009368 Ry

     iteration # 18     ecut=    36.75 Ry     beta=0.30
     Davidson diagonalization with overlap
     ethr =  5.74E-08,  avg # of iterations =  1.0

     negative rho (up, down):  2.910E-04 0.000E+00
 
     Adding external electric field

     Computed dipole along edir(3) : 
        Dipole               -0.3391 Ry au,         -0.8620 Debye
        Dipole field         -0.0007 Ry au
 
        Potential amp.        0.0648 Ry
        Total length         46.5341 bohr
 

     total cpu time spent up to now is      449.8 secs

     total energy              =   -1170.35657314 Ry
     Harris-Foulkes estimate   =   -1170.35657880 Ry
     estimated scf accuracy    <       0.00005289 Ry

     iteration # 19     ecut=    36.75 Ry     beta=0.30
     Davidson diagonalization with overlap
     ethr =  3.83E-08,  avg # of iterations =  8.4

     negative rho (up, down):  2.945E-04 0.000E+00
 
     Adding external electric field

     Computed dipole along edir(3) : 
        Dipole               -0.3390 Ry au,         -0.8616 Debye
        Dipole field         -0.0007 Ry au
 
        Potential amp.        0.0648 Ry
        Total length         46.5341 bohr
 

     total cpu time spent up to now is      475.7 secs

     total energy              =   -1170.35657986 Ry
     Harris-Foulkes estimate   =   -1170.35658288 Ry
     estimated scf accuracy    <       0.00002538 Ry

     iteration # 20     ecut=    36.75 Ry     beta=0.30
     Davidson diagonalization with overlap
     ethr =  1.84E-08,  avg # of iterations =  3.7

     negative rho (up, down):  2.908E-04 0.000E+00

     negative rho (up, down):  2.908E-04 0.000E+00

     negative rho (up, down):  2.908E-04 0.000E+00

     negative rho (up, down):  2.908E-04 0.000E+00

     negative rho (up, down):  2.908E-04 0.000E+00

     negative rho (up, down):  2.908E-04 0.000E+00

     negative rho (up, down):  2.908E-04 0.000E+00

     negative rho (up, down):  2.908E-04 0.000E+00

     negative rho (up, down):  2.908E-04 0.000E+00

     negative rho (up, down):  2.908E-04 0.000E+00

     negative rho (up, down):  2.908E-04 0.000E+00

     negative rho (up, down):  2.908E-04 0.000E+00

     negative rho (up, down):  2.908E-04 0.000E+00

     negative rho (up, down):  2.908E-04 0.000E+00

     negative rho (up, down):  2.908E-04 0.000E+00

     negative rho (up, down):  2.908E-04 0.000E+00

     negative rho (up, down):  2.908E-04 0.000E+00

     negative rho (up, down):  2.908E-04 0.000E+00

     negative rho (up, down):  2.908E-04 0.000E+00

     negative rho (up, down):  2.908E-04 0.000E+00

     negative rho (up, down):  2.908E-04 0.000E+00

     negative rho (up, down):  2.908E-04 0.000E+00

     negative rho (up, down):  2.908E-04 0.000E+00

     negative rho (up, down):  2.908E-04 0.000E+00

     negative rho (up, down):  2.908E-04 0.000E+00

     negative rho (up, down):  2.908E-04 0.000E+00

     negative rho (up, down):  2.908E-04 0.000E+00

     negative rho (up, down):  2.908E-04 0.000E+00

     negative rho (up, down):  2.908E-04 0.000E+00

     negative rho (up, down):  2.908E-04 0.000E+00

     negative rho (up, down):  2.908E-04 0.000E+00

     negative rho (up, down):  2.908E-04 0.000E+00

     negative rho (up, down):  2.908E-04 0.000E+00

     negative rho (up, down):  2.908E-04 0.000E+00

     negative rho (up, down):  2.908E-04 0.000E+00
 
     Adding external electric field

     Computed dipole along edir(3) : 
        Dipole               -0.3379 Ry au,         -0.8589 Debye
        Dipole field         -0.0007 Ry au
 
        Potential amp.        0.0646 Ry
        Total length         46.5341 bohr
 

     total cpu time spent up to now is      556.7 secs

     End of self-consistent calculation

          k = 0.0000 0.0000 0.0000 ( 23031 PWs)   bands (ev):

   -49.7861 -49.7307 -49.6904 -49.6870 -49.6839 -49.6830 -49.6606 -49.6604
   -49.2729 -49.2329 -49.2246 -49.2239 -28.5168 -28.4667 -28.4667 -28.4444
   -28.4415 -28.4411 -28.4246 -28.4061 -28.3549 -28.3544 -28.3539 -28.3129
   -28.3127 -28.3080 -28.1858 -28.1855 -28.1830 -28.1830 -28.1819 -28.1785
   -28.1051 -28.1051 -28.0633 -28.0632 -27.9935 -27.9918 -27.9915 -27.8356
   -27.8167 -27.8071 -27.8064 -27.7575 -27.7572 -27.7526 -27.6789 -27.6789
   -16.2267  -4.5041  -3.4111  -2.3568  -2.3568  -2.3245  -1.9169  -1.2673
    -1.2672  -1.2379  -1.0968  -1.0933  -1.0932  -0.7014  -0.7014  -0.6441
    -0.3465  -0.3464  -0.2686  -0.0489  -0.0488   0.1330   0.3126   0.6960
     0.8376   0.8517   0.8517   0.9526   1.1007   1.1008   1.3761

          k = 0.0000 0.0299 0.0000 ( 23008 PWs)   bands (ev):

   -49.7854 -49.7276 -49.6892 -49.6886 -49.6852 -49.6832 -49.6626 -49.6604
   -49.2700 -49.2341 -49.2260 -49.2243 -28.5155 -28.4556 -28.4480 -28.4308
   -28.4292 -28.4212 -28.4155 -28.3994 -28.3567 -28.3536 -28.3529 -28.3168
   -28.3134 -28.3013 -28.1998 -28.1981 -28.1958 -28.1913 -28.1799 -28.1775
   -28.1286 -28.1104 -28.0833 -28.0666 -27.9820 -27.9812 -27.9735 -27.8329
   -27.8163 -27.8074 -27.8062 -27.7699 -27.7667 -27.7504 -27.7012 -27.6841
   -16.2261  -4.3499  -3.2772  -2.3876  -2.3469  -2.2588  -1.8026  -1.5953
    -1.2818  -1.2624  -1.1173  -1.0000  -0.9927  -0.6406  -0.5793  -0.5137
    -0.2995  -0.2823  -0.2039  -0.0063   0.0167   0.1688   0.3258   0.6332
     0.7247   0.7716   0.7813   0.9239   1.0519   1.0594   1.2732

          k = 0.0000 0.0598 0.0000 ( 22962 PWs)   bands (ev):

   -49.7838 -49.7193 -49.6963 -49.6859 -49.6858 -49.6832 -49.6675 -49.6604
   -49.2622 -49.2397 -49.2282 -49.2243 -28.5129 -28.4297 -28.4071 -28.3996
   -28.3988 -28.3953 -28.3786 -28.3667 -28.3579 -28.3520 -28.3502 -28.3259
   -28.3157 -28.2829 -28.2383 -28.2302 -28.2271 -28.2158 -28.1918 -28.1725
   -28.1641 -28.1351 -28.1249 -28.0741 -27.9552 -27.9543 -27.9195 -27.8274
   -27.8164 -27.8088 -27.8054 -27.8003 -27.7958 -27.7611 -27.7368 -27.6981
   -16.2248  -3.9081  -2.9269  -2.5758  -2.3274  -2.2002  -2.0872  -1.4917
    -1.3413  -1.2759  -1.2387  -0.8213  -0.8172  -0.5505  -0.2752  -0.2720
    -0.1435  -0.1063  -0.0513   0.1165   0.1553   0.2503   0.3009   0.5345
     0.5657   0.5659   0.5983   0.7932   0.8375   0.8423   0.9542

          k = 0.0000-0.0897 0.0000 ( 23032 PWs)   bands (ev):

   -49.7830 -49.7093 -49.7063 -49.6859 -49.6833 -49.6832 -49.6710 -49.6604
   -49.2545 -49.2468 -49.2288 -49.2243 -28.5117 -28.4138 -28.3887 -28.3811
   -28.3798 -28.3793 -28.3730 -28.3516 -28.3486 -28.3396 -28.3241 -28.3180
   -28.3087 -28.2790 -28.2742 -28.2523 -28.2479 -28.2344 -28.2302 -28.1786
   -28.1686 -28.1452 -28.1439 -28.0783 -27.9374 -27.9347 -27.8461 -27.8390
   -27.8245 -27.8203 -27.8171 -27.8157 -27.8084 -27.8045 -27.7203 -27.7146
   -16.2242  -3.2874  -3.2139  -2.5685  -2.4218  -2.3178  -1.9085  -1.7716
    -1.2803  -1.2653  -0.9272  -0.8583  -0.7210  -0.6506  -0.0353  -0.0301
     0.0096   0.0421   0.0637   0.0890   0.2766   0.2926   0.3288   0.3699
     0.4171   0.4671   0.6033   0.6397   0.6650   0.7204   0.7277

          k = 0.0259-0.0149 0.0000 ( 23008 PWs)   bands (ev):

   -49.7854 -49.7276 -49.6892 -49.6888 -49.6843 -49.6839 -49.6625 -49.6606
   -49.2700 -49.2340 -49.2265 -49.2240 -28.5155 -28.4556 -28.4481 -28.4310
   -28.4289 -28.4213 -28.4155 -28.3994 -28.3567 -28.3535 -28.3530 -28.3167
   -28.3136 -28.3013 -28.1998 -28.1978 -28.1962 -28.1914 -28.1798 -28.1774
   -28.1286 -28.1104 -28.0832 -28.0667 -27.9818 -27.9814 -27.9735 -27.8329
   -27.8163 -27.8077 -27.8059 -27.7701 -27.7665 -27.7505 -27.7012 -27.6841
   -16.2261  -4.3499  -3.2772  -2.3876  -2.3469  -2.2588  -1.8026  -1.5953
    -1.2818  -1.2624  -1.1173  -1.0000  -0.9927  -0.6406  -0.5792  -0.5137
    -0.2995  -0.2823  -0.2039  -0.0062   0.0166   0.1688   0.3258   0.6332
     0.7247   0.7715   0.7814   0.9239   1.0520   1.0594   1.2733

          k = 0.0259 0.0149 0.0000 ( 23008 PWs)   bands (ev):

   -49.7854 -49.7276 -49.6892 -49.6886 -49.6851 -49.6832 -49.6625 -49.6606
   -49.2700 -49.2341 -49.2257 -49.2245 -28.5155 -28.4556 -28.4481 -28.4308
   -28.4292 -28.4212 -28.4155 -28.3994 -28.3567 -28.3536 -28.3530 -28.3167
   -28.3135 -28.3013 -28.1998 -28.1981 -28.1958 -28.1914 -28.1798 -28.1774
   -28.1286 -28.1104 -28.0832 -28.0667 -27.9821 -27.9811 -27.9735 -27.8329
   -27.8164 -27.8071 -27.8064 -27.7698 -27.7669 -27.7504 -27.7011 -27.6841
   -16.2261  -4.3498  -3.2772  -2.3876  -2.3469  -2.2588  -1.8026  -1.5953
    -1.2818  -1.2624  -1.1173  -1.0000  -0.9928  -0.6406  -0.5792  -0.5137
    -0.2995  -0.2823  -0.2039  -0.0063   0.0167   0.1688   0.3258   0.6332
     0.7247   0.7716   0.7813   0.9239   1.0519   1.0594   1.2733

          k = 0.0259 0.0448 0.0000 ( 23004 PWs)   bands (ev):

   -49.7842 -49.7219 -49.6915 -49.6896 -49.6869 -49.6816 -49.6663 -49.6603
   -49.2646 -49.2369 -49.2296 -49.2233 -28.5136 -28.4358 -28.4152 -28.4136
   -28.4044 -28.3931 -28.3901 -28.3849 -28.3584 -28.3580 -28.3486 -28.3246
   -28.3141 -28.2870 -28.2381 -28.2355 -28.1928 -28.1866 -28.1843 -28.1841
   -28.1707 -28.1215 -28.1170 -28.0739 -27.9678 -27.9472 -27.9467 -27.8289
   -27.8161 -27.8086 -27.8070 -27.8054 -27.7581 -27.7559 -27.7409 -27.6949
   -16.2251  -4.0513  -3.0312  -2.4249  -2.3758  -2.1567  -1.8490  -1.8189
    -1.5123  -1.1741  -1.1109  -0.9107  -0.7476  -0.5065  -0.4267  -0.3764
    -0.2028  -0.1577  -0.0861   0.0750   0.1295   0.2375   0.3053   0.5562
     0.5825   0.5883   0.7326   0.8337   0.8766   0.9053   1.0429

          k = 0.0259-0.1046 0.0000 ( 23012 PWs)   bands (ev):

   -49.7831 -49.7122 -49.7003 -49.6919 -49.6829 -49.6802 -49.6718 -49.6601
   -49.2560 -49.2430 -49.2334 -49.2221 -28.5117 -28.4074 -28.3894 -28.3822
   -28.3767 -28.3702 -28.3634 -28.3559 -28.3540 -28.3453 -28.3375 -28.3216
   -28.3152 -28.2886 -28.2844 -28.2541 -28.2409 -28.2196 -28.2039 -28.1776
   -28.1652 -28.1608 -28.1417 -28.0831 -27.9394 -27.9180 -27.8843 -27.8513
   -27.8243 -27.8162 -27.8103 -27.8083 -27.8044 -27.7741 -27.7375 -27.7144
   -16.2242  -3.4976  -2.8178  -2.6194  -2.4040  -2.3020  -1.9883  -1.8877
    -1.5609  -1.1576  -1.0065  -0.7057  -0.5727  -0.4681  -0.2172  -0.1770
    -0.0191   0.0060   0.0945   0.1671   0.2377   0.2793   0.3607   0.3999
     0.4726   0.5296   0.5472   0.6232   0.6792   0.6973   0.7649

          k = 0.0259-0.0747 0.0000 ( 23012 PWs)   bands (ev):

   -49.7830 -49.7121 -49.7004 -49.6919 -49.6829 -49.6802 -49.6718 -49.6601
   -49.2560 -49.2428 -49.2336 -49.2221 -28.5117 -28.4074 -28.3894 -28.3822
   -28.3768 -28.3702 -28.3633 -28.3559 -28.3540 -28.3453 -28.3375 -28.3216
   -28.3152 -28.2886 -28.2844 -28.2541 -28.2408 -28.2195 -28.2039 -28.1776
   -28.1652 -28.1608 -28.1417 -28.0831 -27.9394 -27.9180 -27.8843 -27.8512
   -27.8243 -27.8161 -27.8106 -27.8085 -27.8043 -27.7741 -27.7375 -27.7143
   -16.2242  -3.4976  -2.8178  -2.6194  -2.4040  -2.3020  -1.9883  -1.8877
    -1.5609  -1.1576  -1.0065  -0.7057  -0.5727  -0.4681  -0.2171  -0.1770
    -0.0191   0.0060   0.0945   0.1671   0.2377   0.2793   0.3607   0.3999
     0.4726   0.5296   0.5471   0.6231   0.6791   0.6974   0.7649

          k = 0.0259-0.0448 0.0000 ( 23004 PWs)   bands (ev):

   -49.7842 -49.7219 -49.6919 -49.6891 -49.6869 -49.6817 -49.6663 -49.6603
   -49.2646 -49.2365 -49.2302 -49.2231 -28.5136 -28.4358 -28.4153 -28.4137
   -28.4044 -28.3930 -28.3902 -28.3849 -28.3588 -28.3576 -28.3486 -28.3246
   -28.3141 -28.2870 -28.2381 -28.2355 -28.1928 -28.1867 -28.1842 -28.1840
   -28.1707 -28.1216 -28.1170 -28.0739 -27.9678 -27.9470 -27.9468 -27.8289
   -27.8159 -27.8091 -27.8070 -27.8051 -27.7579 -27.7562 -27.7409 -27.6949
   -16.2251  -4.0513  -3.0312  -2.4249  -2.3758  -2.1567  -1.8490  -1.8189
    -1.5123  -1.1741  -1.1109  -0.9107  -0.7476  -0.5065  -0.4267  -0.3764
    -0.2029  -0.1577  -0.0860   0.0751   0.1294   0.2375   0.3053   0.5562
     0.5825   0.5882   0.7325   0.8337   0.8766   0.9053   1.0429

          k = 0.0518-0.0299 0.0000 ( 22962 PWs)   bands (ev):

   -49.7838 -49.7193 -49.6965 -49.6860 -49.6850 -49.6839 -49.6673 -49.6606
   -49.2622 -49.2394 -49.2288 -49.2240 -28.5129 -28.4296 -28.4073 -28.3992
   -28.3990 -28.3954 -28.3787 -28.3667 -28.3580 -28.3514 -28.3508 -28.3257
   -28.3158 -28.2829 -28.2383 -28.2298 -28.2275 -28.2159 -28.1918 -28.1723
   -28.1640 -28.1349 -28.1249 -28.0742 -27.9555 -27.9540 -27.9195 -27.8275
   -27.8161 -27.8094 -27.8051 -27.8006 -27.7955 -27.7611 -27.7368 -27.6980
   -16.2248  -3.9081  -2.9269  -2.5758  -2.3274  -2.2002  -2.0872  -1.4917
    -1.3413  -1.2759  -1.2388  -0.8213  -0.8172  -0.5505  -0.2752  -0.2719
    -0.1435  -0.1063  -0.0513   0.1165   0.1552   0.2503   0.3009   0.5344
     0.5656   0.5661   0.5983   0.7932   0.8376   0.8423   0.9542

          k = 0.0518 0.0000 0.0000 ( 23004 PWs)   bands (ev):

   -49.7842 -49.7219 -49.6920 -49.6890 -49.6869 -49.6817 -49.6662 -49.6604
   -49.2646 -49.2366 -49.2300 -49.2232 -28.5136 -28.4358 -28.4153 -28.4136
   -28.4044 -28.3930 -28.3902 -28.3849 -28.3588 -28.3576 -28.3486 -28.3245
   -28.3142 -28.2870 -28.2381 -28.2356 -28.1927 -28.1867 -28.1842 -28.1840
   -28.1707 -28.1215 -28.1169 -28.0740 -27.9678 -27.9471 -27.9468 -27.8289
   -27.8159 -27.8089 -27.8070 -27.8052 -27.7580 -27.7561 -27.7409 -27.6949
   -16.2251  -4.0513  -3.0312  -2.4249  -2.3758  -2.1567  -1.8490  -1.8189
    -1.5123  -1.1741  -1.1109  -0.9107  -0.7476  -0.5065  -0.4267  -0.3764
    -0.2029  -0.1577  -0.0861   0.0751   0.1294   0.2375   0.3053   0.5562
     0.5825   0.5882   0.7325   0.8337   0.8766   0.9053   1.0429

          k = 0.0518 0.0299 0.0000 ( 22962 PWs)   bands (ev):

   -49.7838 -49.7193 -49.6963 -49.6860 -49.6857 -49.6832 -49.6673 -49.6606
   -49.2622 -49.2398 -49.2279 -49.2245 -28.5129 -28.4297 -28.4071 -28.3996
   -28.3988 -28.3954 -28.3786 -28.3667 -28.3580 -28.3520 -28.3503 -28.3258
   -28.3158 -28.2829 -28.2383 -28.2302 -28.2271 -28.2159 -28.1918 -28.1724
   -28.1641 -28.1350 -28.1249 -28.0742 -27.9551 -27.9544 -27.9195 -27.8274
   -27.8164 -27.8086 -27.8056 -27.8002 -27.7960 -27.7611 -27.7367 -27.6981
   -16.2248  -3.9081  -2.9269  -2.5758  -2.3274  -2.2002  -2.0872  -1.4917
    -1.3413  -1.2759  -1.2387  -0.8212  -0.8172  -0.5505  -0.2752  -0.2720
    -0.1435  -0.1063  -0.0514   0.1165   0.1553   0.2503   0.3009   0.5344
     0.5657   0.5659   0.5983   0.7932   0.8376   0.8423   0.9542

          k = 0.0518-0.1196 0.0000 ( 23012 PWs)   bands (ev):

   -49.7830 -49.7122 -49.7004 -49.6919 -49.6829 -49.6802 -49.6717 -49.6601
   -49.2559 -49.2431 -49.2333 -49.2222 -28.5117 -28.4074 -28.3895 -28.3822
   -28.3767 -28.3702 -28.3634 -28.3559 -28.3540 -28.3453 -28.3374 -28.3216
   -28.3153 -28.2886 -28.2844 -28.2540 -28.2409 -28.2197 -28.2039 -28.1775
   -28.1652 -28.1607 -28.1417 -28.0832 -27.9394 -27.9181 -27.8843 -27.8513
   -27.8243 -27.8163 -27.8102 -27.8084 -27.8044 -27.7741 -27.7375 -27.7144
   -16.2242  -3.4976  -2.8178  -2.6194  -2.4040  -2.3020  -1.9883  -1.8877
    -1.5609  -1.1576  -1.0065  -0.7057  -0.5727  -0.4681  -0.2172  -0.1770
    -0.0191   0.0060   0.0945   0.1671   0.2377   0.2793   0.3607   0.3999
     0.4726   0.5296   0.5471   0.6232   0.6792   0.6973   0.7649

          k = 0.0518-0.0897 0.0000 ( 23028 PWs)   bands (ev):

   -49.7827 -49.7045 -49.7011 -49.7003 -49.6787 -49.6779 -49.6775 -49.6597
   -49.2514 -49.2415 -49.2408 -49.2208 -28.5111 -28.3784 -28.3766 -28.3719
   -28.3688 -28.3665 -28.3557 -28.3483 -28.3431 -28.3415 -28.3386 -28.3154
   -28.3043 -28.3039 -28.2992 -28.2945 -28.2424 -28.2409 -28.1741 -28.1730
   -28.1712 -28.1709 -28.1700 -28.0917 -27.9030 -27.9021 -27.8672 -27.8667
   -27.8622 -27.8227 -27.8145 -27.8131 -27.8037 -27.7447 -27.7443 -27.7403
   -16.2239  -2.9455  -2.8789  -2.8449  -2.3722  -2.3385  -2.2800  -1.7019
    -1.5991  -1.5062  -0.6287  -0.5840  -0.4441  -0.3379  -0.3132  -0.2803
     0.0698   0.1445   0.1536   0.2022   0.2341   0.3303   0.3619   0.4357
     0.4606   0.4707   0.4818   0.5059   0.6506   0.6509   0.6545

          k = 0.0518-0.0598 0.0000 ( 23012 PWs)   bands (ev):

   -49.7830 -49.7121 -49.7006 -49.6917 -49.6829 -49.6802 -49.6716 -49.6601
   -49.2561 -49.2425 -49.2339 -49.2220 -28.5117 -28.4073 -28.3894 -28.3822
   -28.3768 -28.3702 -28.3634 -28.3559 -28.3540 -28.3453 -28.3374 -28.3216
   -28.3153 -28.2886 -28.2844 -28.2541 -28.2409 -28.2197 -28.2039 -28.1774
   -28.1652 -28.1607 -28.1417 -28.0832 -27.9394 -27.9180 -27.8843 -27.8513
   -27.8244 -27.8158 -27.8109 -27.8084 -27.8041 -27.7741 -27.7376 -27.7143
   -16.2242  -3.4976  -2.8178  -2.6194  -2.4040  -2.3020  -1.9883  -1.8877
    -1.5609  -1.1576  -1.0066  -0.7057  -0.5727  -0.4681  -0.2171  -0.1770
    -0.0191   0.0060   0.0945   0.1671   0.2377   0.2793   0.3607   0.3999
     0.4726   0.5295   0.5471   0.6232   0.6791   0.6974   0.7649

          k =-0.0777 0.0448 0.0000 ( 23032 PWs)   bands (ev):

   -49.7830 -49.7088 -49.7069 -49.6851 -49.6839 -49.6835 -49.6707 -49.6606
   -49.2547 -49.2464 -49.2294 -49.2240 -28.5117 -28.4136 -28.3888 -28.3810
   -28.3799 -28.3792 -28.3732 -28.3510 -28.3492 -28.3393 -28.3240 -28.3181
   -28.3089 -28.2785 -28.2748 -28.2517 -28.2485 -28.2345 -28.2303 -28.1783
   -28.1684 -28.1446 -28.1445 -28.0784 -27.9377 -27.9344 -27.8463 -27.8386
   -27.8246 -27.8208 -27.8168 -27.8153 -27.8090 -27.8042 -27.7207 -27.7143
   -16.2242  -3.2874  -3.2138  -2.5685  -2.4218  -2.3178  -1.9085  -1.7716
    -1.2803  -1.2653  -0.9272  -0.8583  -0.7211  -0.6506  -0.0352  -0.0302
     0.0095   0.0421   0.0637   0.0890   0.2766   0.2926   0.3286   0.3701
     0.4171   0.4671   0.6033   0.6396   0.6649   0.7205   0.7277

          k =-0.0777 0.0747 0.0000 ( 23012 PWs)   bands (ev):

   -49.7830 -49.7121 -49.7006 -49.6917 -49.6830 -49.6803 -49.6716 -49.6602
   -49.2561 -49.2426 -49.2338 -49.2220 -28.5117 -28.4073 -28.3894 -28.3822
   -28.3768 -28.3702 -28.3634 -28.3559 -28.3539 -28.3453 -28.3373 -28.3216
   -28.3153 -28.2887 -28.2844 -28.2542 -28.2409 -28.2196 -28.2039 -28.1774
   -28.1652 -28.1607 -28.1417 -28.0833 -27.9394 -27.9180 -27.8843 -27.8513
   -27.8244 -27.8159 -27.8108 -27.8084 -27.8042 -27.7741 -27.7376 -27.7143
   -16.2242  -3.4976  -2.8178  -2.6194  -2.4040  -2.3020  -1.9883  -1.8877
    -1.5609  -1.1576  -1.0066  -0.7057  -0.5727  -0.4681  -0.2171  -0.1770
    -0.0191   0.0061   0.0945   0.1671   0.2377   0.2793   0.3607   0.3999
     0.4726   0.5295   0.5471   0.6232   0.6791   0.6974   0.7649

          k =-0.0777 0.1046 0.0000 ( 23012 PWs)   bands (ev):

   -49.7830 -49.7121 -49.7005 -49.6918 -49.6830 -49.6802 -49.6716 -49.6601
   -49.2560 -49.2430 -49.2334 -49.2221 -28.5117 -28.4074 -28.3894 -28.3822
   -28.3768 -28.3702 -28.3633 -28.3559 -28.3540 -28.3453 -28.3374 -28.3217
   -28.3153 -28.2887 -28.2844 -28.2542 -28.2408 -28.2195 -28.2039 -28.1774
   -28.1652 -28.1607 -28.1417 -28.0832 -27.9394 -27.9181 -27.8843 -27.8512
   -27.8243 -27.8162 -27.8104 -27.8085 -27.8043 -27.7741 -27.7375 -27.7144
   -16.2242  -3.4976  -2.8178  -2.6194  -2.4040  -2.3020  -1.9883  -1.8877
    -1.5609  -1.1576  -1.0065  -0.7057  -0.5727  -0.4681  -0.2171  -0.1770
    -0.0191   0.0060   0.0945   0.1671   0.2377   0.2793   0.3607   0.3999
     0.4726   0.5296   0.5471   0.6232   0.6791   0.6974   0.7649

          k =-0.0777-0.0448 0.0000 ( 23032 PWs)   bands (ev):

   -49.7830 -49.7092 -49.7063 -49.6858 -49.6834 -49.6833 -49.6707 -49.6606
   -49.2544 -49.2470 -49.2285 -49.2245 -28.5117 -28.4137 -28.3887 -28.3811
   -28.3797 -28.3794 -28.3730 -28.3516 -28.3486 -28.3394 -28.3240 -28.3181
   -28.3088 -28.2790 -28.2743 -28.2523 -28.2479 -28.2345 -28.2303 -28.1783
   -28.1684 -28.1451 -28.1439 -28.0784 -27.9372 -27.9349 -27.8459 -27.8392
   -27.8244 -27.8201 -27.8173 -27.8159 -27.8081 -27.8047 -27.7202 -27.7148
   -16.2242  -3.2873  -3.2139  -2.5685  -2.4218  -2.3178  -1.9085  -1.7716
    -1.2803  -1.2653  -0.9272  -0.8583  -0.7210  -0.6506  -0.0353  -0.0301
     0.0095   0.0422   0.0636   0.0890   0.2766   0.2926   0.3288   0.3699
     0.4171   0.4671   0.6032   0.6398   0.6650   0.7204   0.7276

     the Fermi energy is     0.2183 ev

!    total energy              =   -1170.35657394 Ry
     Harris-Foulkes estimate   =   -1170.35658223 Ry
     estimated scf accuracy    <       0.00000807 Ry

     The total energy is the sum of the following terms:

     one-electron contribution =   -7437.26739619 Ry
     hartree contribution      =    3702.72973485 Ry
     xc contribution           =    -173.89945890 Ry
     ewald contribution        =    2738.20967355 Ry
     electric field correction =       0.00023460 Ry
     smearing contrib. (-TS)   =      -0.12936185 Ry

     convergence has been achieved in  20 iterations
 
 BEEF-vdW xc energy contributions
           1 :   -147.387847601747     
           2 :    129.572000354439     
           3 :   -101.825285008152     
           4 :    74.8637913465515     
           5 :   -56.1767055347599     
           6 :    47.0609965537849     
           7 :   -43.9580926052357     
           8 :    42.1989402282680     
           9 :   -39.1654083986079     
          10 :    35.0441593555431     
          11 :   -31.4328077830666     
          12 :    29.4082537291182     
          13 :   -28.6150050767895     
          14 :    27.8167948999959     
          15 :   -26.1430556258256     
          16 :    23.8268598666420     
          17 :   -21.8472011305550     
          18 :    20.9339822329340     
          19 :   -20.9107238151708     
          20 :    20.9221440068280     
          21 :   -20.2400117184532     
          22 :    18.8704887417188     
          23 :   -17.4580432749411     
          24 :    16.6492425224932     
          25 :   -16.5281499194540     
          26 :    16.6039419939054     
          27 :   -16.3038131454772     
          28 :    15.4866760373897     
          29 :   -14.5201037853494     
          30 :    13.8935079160636     
          31 :   -17.3533629382038     
          32 :   -12.3840333077486     

     Forces acting on atoms (Ry/au):


     negative rho (up, down):  2.908E-04 0.000E+00
     atom    1 type  1   force =     0.00004201   -0.00001348    0.00100201
     atom    2 type  1   force =    -0.00004424   -0.00068124    0.00144039
     atom    3 type  1   force =    -0.00058958    0.00032198    0.00144362
     atom    4 type  1   force =     0.00058174    0.00037458    0.00140080
     atom    5 type  1   force =    -0.00278298    0.00159892    0.00162717
     atom    6 type  1   force =     0.00278272    0.00164092    0.00159341
     atom    7 type  1   force =     0.00003873   -0.00001455   -0.01024758
     atom    8 type  1   force =    -0.00003762   -0.00322245    0.00160049
     atom    9 type  1   force =     0.05636419    0.03251257    0.05394615
     atom   10 type  1   force =    -0.05635972    0.03255927    0.05392219
     atom   11 type  1   force =     0.00004136   -0.06507766    0.05392876
     atom   12 type  1   force =    -0.00004264    0.00000611   -0.00995210
     atom   13 type  2   force =     0.00000604   -0.00000496   -0.15170529

     Total force =     0.211057     Total SCF correction =     0.002174


     entering subroutine stress ...


     negative rho (up, down):  2.908E-04 0.000E+00
          total   stress  (Ry/bohr**3)                   (kbar)     P=   -4.28
  -0.00000464  -0.00000000   0.00000000         -0.68     -0.00      0.00
  -0.00000000  -0.00000464   0.00000000         -0.00     -0.68      0.00
   0.00000000   0.00000000  -0.00007802          0.00      0.00    -11.48


     BFGS Geometry Optimization

     number of scf cycles    =   1
     number of bfgs steps    =   0

     energy   new            =   -1170.3565739360 Ry

     new trust radius        =       0.1517052952 bohr
     new conv_thr            =       0.0000099958 Ry


ATOMIC_POSITIONS (crystal)
Sc1      0.166666667   0.166666667   0.395942884    0   0   0
Sc1      0.666666667   0.166666667   0.395942884    0   0   0
Sc1      0.166666667   0.666666667   0.395942884    0   0   0
Sc1      0.666666667   0.666666667   0.395942884    0   0   0
Sc1      0.833333333   0.333333333   0.500000000    0   0   0
Sc1      0.333333333   0.333333333   0.500000000    0   0   0
Sc1      0.833333333   0.833333333   0.500000000    0   0   0
Sc1      0.333333333   0.833333333   0.500000000    0   0   0
Sc1      0.003090251   0.003086078   0.605187417
Sc1      0.493821821   0.003090511   0.605186915
Sc1      0.003091971   0.493822858   0.605187052
Sc1      0.499996205   0.500000580   0.603848595
O1       0.166667399   0.166666195   0.661616165



     Writing output data file calc.save
     Check: negative starting charge=   -0.000420
     NEW-OLD atomic charge density approx. for the potential
     Check: negative starting charge=   -0.000414

     negative rho (up, down):  6.606E-04 0.000E+00
 
     Adding external electric field

     Computed dipole along edir(3) : 
        Dipole               -0.3376 Ry au,         -0.8580 Debye
        Dipole field         -0.0007 Ry au
 
        Potential amp.        0.0645 Ry
        Total length         46.5341 bohr
 

     total cpu time spent up to now is      634.1 secs

     per-process dynamical memory:    86.2 Mb

     Self-consistent Calculation

     iteration #  1     ecut=    36.75 Ry     beta=0.30
     Davidson diagonalization with overlap
     ethr =  1.00E-06,  avg # of iterations = 13.9

     negative rho (up, down):  3.948E-04 0.000E+00
 
     Adding external electric field

     Computed dipole along edir(3) : 
        Dipole                0.1008 Ry au,          0.2561 Debye
        Dipole field          0.0002 Ry au
 
        Potential amp.       -0.0193 Ry
        Total length         46.5341 bohr
 

     total cpu time spent up to now is      674.9 secs

     total energy              =   -1170.38981098 Ry
     Harris-Foulkes estimate   =   -1170.40144288 Ry
     estimated scf accuracy    <       0.02495726 Ry

     iteration #  2     ecut=    36.75 Ry     beta=0.30
     Davidson diagonalization with overlap
     ethr =  1.81E-05,  avg # of iterations =  9.4

     negative rho (up, down):  3.807E-04 0.000E+00
 
     Adding external electric field

     Computed dipole along edir(3) : 
        Dipole               -0.2893 Ry au,         -0.7353 Debye
        Dipole field         -0.0006 Ry au
 
        Potential amp.        0.0553 Ry
        Total length         46.5341 bohr
 

     total cpu time spent up to now is      704.6 secs

     total energy              =   -1170.29333642 Ry
     Harris-Foulkes estimate   =   -1170.50256269 Ry
     estimated scf accuracy    <       9.61275678 Ry

     iteration #  3     ecut=    36.75 Ry     beta=0.30
     Davidson diagonalization with overlap
     ethr =  1.81E-05,  avg # of iterations =  9.7

     negative rho (up, down):  3.778E-04 0.000E+00
 
     Adding external electric field

     Computed dipole along edir(3) : 
        Dipole               -0.2694 Ry au,         -0.6847 Debye
        Dipole field         -0.0006 Ry au
 
        Potential amp.        0.0515 Ry
        Total length         46.5341 bohr
 

     total cpu time spent up to now is      734.0 secs

     total energy              =   -1170.39502399 Ry
     Harris-Foulkes estimate   =   -1170.40131770 Ry
     estimated scf accuracy    <       0.05464345 Ry

     iteration #  4     ecut=    36.75 Ry     beta=0.30
     Davidson diagonalization with overlap
     ethr =  1.81E-05,  avg # of iterations =  8.6

     negative rho (up, down):  3.763E-04 0.000E+00
 
     Adding external electric field

     Computed dipole along edir(3) : 
        Dipole               -0.2569 Ry au,         -0.6530 Debye
        Dipole field         -0.0005 Ry au
 
        Potential amp.        0.0491 Ry
        Total length         46.5341 bohr
 

     total cpu time spent up to now is      759.6 secs

     total energy              =   -1170.39731712 Ry
     Harris-Foulkes estimate   =   -1170.39947807 Ry
     estimated scf accuracy    <       0.01788297 Ry

     iteration #  5     ecut=    36.75 Ry     beta=0.30
     Davidson diagonalization with overlap
     ethr =  1.30E-05,  avg # of iterations =  5.5

     negative rho (up, down):  3.065E-04 0.000E+00
 
     Adding external electric field

     Computed dipole along edir(3) : 
        Dipole               -0.2523 Ry au,         -0.6413 Debye
        Dipole field         -0.0005 Ry au
 
        Potential amp.        0.0482 Ry
        Total length         46.5341 bohr
 

     total cpu time spent up to now is      783.2 secs

     total energy              =   -1170.39828950 Ry
     Harris-Foulkes estimate   =   -1170.39876076 Ry
     estimated scf accuracy    <       0.00305909 Ry

     iteration #  6     ecut=    36.75 Ry     beta=0.30
     Davidson diagonalization with overlap
     ethr =  2.22E-06,  avg # of iterations =  8.6

     negative rho (up, down):  2.872E-04 0.000E+00
 
     Adding external electric field

     Computed dipole along edir(3) : 
        Dipole               -0.2467 Ry au,         -0.6270 Debye
        Dipole field         -0.0005 Ry au
 
        Potential amp.        0.0472 Ry
        Total length         46.5341 bohr
 

     total cpu time spent up to now is      808.8 secs

     total energy              =   -1170.39858779 Ry
     Harris-Foulkes estimate   =   -1170.39872175 Ry
     estimated scf accuracy    <       0.00069975 Ry

     iteration #  7     ecut=    36.75 Ry     beta=0.30
     Davidson diagonalization with overlap
     ethr =  5.07E-07,  avg # of iterations =  6.5

     negative rho (up, down):  2.673E-04 0.000E+00
 
     Adding external electric field

     Computed dipole along edir(3) : 
        Dipole               -0.2453 Ry au,         -0.6235 Debye
        Dipole field         -0.0005 Ry au
 
        Potential amp.        0.0469 Ry
        Total length         46.5341 bohr
 

     total cpu time spent up to now is      834.0 secs

     total energy              =   -1170.39863843 Ry
     Harris-Foulkes estimate   =   -1170.39867478 Ry
     estimated scf accuracy    <       0.00024000 Ry

     iteration #  8     ecut=    36.75 Ry     beta=0.30
     Davidson diagonalization with overlap
     ethr =  1.74E-07,  avg # of iterations =  6.7

     negative rho (up, down):  2.673E-04 0.000E+00
 
     Adding external electric field

     Computed dipole along edir(3) : 
        Dipole               -0.2447 Ry au,         -0.6219 Debye
        Dipole field         -0.0005 Ry au
 
        Potential amp.        0.0468 Ry
        Total length         46.5341 bohr
 

     total cpu time spent up to now is      860.3 secs

     total energy              =   -1170.39866353 Ry
     Harris-Foulkes estimate   =   -1170.39867946 Ry
     estimated scf accuracy    <       0.00012850 Ry

     iteration #  9     ecut=    36.75 Ry     beta=0.30
     Davidson diagonalization with overlap
     ethr =  9.31E-08,  avg # of iterations =  5.4

     negative rho (up, down):  2.745E-04 0.000E+00
 
     Adding external electric field

     Computed dipole along edir(3) : 
        Dipole               -0.2445 Ry au,         -0.6215 Debye
        Dipole field         -0.0005 Ry au
 
        Potential amp.        0.0468 Ry
        Total length         46.5341 bohr
 

     total cpu time spent up to now is      884.2 secs

     total energy              =   -1170.39867254 Ry
     Harris-Foulkes estimate   =   -1170.39867543 Ry
     estimated scf accuracy    <       0.00003757 Ry

     iteration # 10     ecut=    36.75 Ry     beta=0.30
     Davidson diagonalization with overlap
     ethr =  2.72E-08,  avg # of iterations =  4.4

     negative rho (up, down):  2.968E-04 0.000E+00

     negative rho (up, down):  2.968E-04 0.000E+00

     negative rho (up, down):  2.968E-04 0.000E+00

     negative rho (up, down):  2.968E-04 0.000E+00

     negative rho (up, down):  2.968E-04 0.000E+00

     negative rho (up, down):  2.968E-04 0.000E+00

     negative rho (up, down):  2.968E-04 0.000E+00

     negative rho (up, down):  2.968E-04 0.000E+00

     negative rho (up, down):  2.968E-04 0.000E+00

     negative rho (up, down):  2.968E-04 0.000E+00

     negative rho (up, down):  2.968E-04 0.000E+00

     negative rho (up, down):  2.968E-04 0.000E+00

     negative rho (up, down):  2.968E-04 0.000E+00

     negative rho (up, down):  2.968E-04 0.000E+00

     negative rho (up, down):  2.968E-04 0.000E+00

     negative rho (up, down):  2.968E-04 0.000E+00

     negative rho (up, down):  2.968E-04 0.000E+00

     negative rho (up, down):  2.968E-04 0.000E+00

     negative rho (up, down):  2.968E-04 0.000E+00

     negative rho (up, down):  2.968E-04 0.000E+00

     negative rho (up, down):  2.968E-04 0.000E+00

     negative rho (up, down):  2.968E-04 0.000E+00

     negative rho (up, down):  2.968E-04 0.000E+00

     negative rho (up, down):  2.968E-04 0.000E+00

     negative rho (up, down):  2.968E-04 0.000E+00

     negative rho (up, down):  2.968E-04 0.000E+00

     negative rho (up, down):  2.968E-04 0.000E+00

     negative rho (up, down):  2.968E-04 0.000E+00

     negative rho (up, down):  2.968E-04 0.000E+00

     negative rho (up, down):  2.968E-04 0.000E+00

     negative rho (up, down):  2.968E-04 0.000E+00

     negative rho (up, down):  2.968E-04 0.000E+00

     negative rho (up, down):  2.968E-04 0.000E+00

     negative rho (up, down):  2.968E-04 0.000E+00

     negative rho (up, down):  2.968E-04 0.000E+00
 
     Adding external electric field

     Computed dipole along edir(3) : 
        Dipole               -0.2519 Ry au,         -0.6403 Debye
        Dipole field         -0.0005 Ry au
 
        Potential amp.        0.0482 Ry
        Total length         46.5341 bohr
 

     total cpu time spent up to now is      968.0 secs

     End of self-consistent calculation

          k = 0.0000 0.0000 0.0000 ( 23031 PWs)   bands (ev):

   -49.6752 -49.6328 -49.6074 -49.5902 -49.5849 -49.5847 -49.5785 -49.5784
   -49.2008 -49.1569 -49.1349 -49.1349 -28.4089 -28.3691 -28.3691 -28.3506
   -28.3441 -28.3441 -28.3409 -28.3122 -28.2595 -28.2571 -28.2570 -28.2360
   -28.2253 -28.2252 -28.0941 -28.0887 -28.0887 -28.0863 -28.0862 -28.0832
   -28.0073 -28.0073 -27.9841 -27.9840 -27.9148 -27.9148 -27.9026 -27.7726
   -27.7328 -27.7159 -27.7159 -27.6784 -27.6784 -27.6645 -27.5944 -27.5944
   -16.5653  -4.4074  -3.3472  -2.7027  -2.7027  -2.5101  -1.8984  -1.1689
    -1.1688  -1.1389  -1.0017  -0.9981  -0.9981  -0.6112  -0.6111  -0.5431
    -0.2477  -0.2477  -0.1667   0.0539   0.0539   0.2411   0.4088   0.7547
     0.9292   0.9481   0.9481   1.0540   1.1669   1.1670   1.4711

          k = 0.0000 0.0299 0.0000 ( 23008 PWs)   bands (ev):

   -49.6740 -49.6298 -49.6066 -49.5916 -49.5865 -49.5847 -49.5804 -49.5785
   -49.1989 -49.1569 -49.1368 -49.1349 -28.4072 -28.3575 -28.3513 -28.3371
   -28.3319 -28.3302 -28.3220 -28.3073 -28.2602 -28.2569 -28.2555 -28.2317
   -28.2289 -28.2262 -28.1047 -28.1034 -28.1005 -28.0978 -28.0852 -28.0803
   -28.0309 -28.0126 -28.0046 -27.9876 -27.9048 -27.9001 -27.8874 -27.7707
   -27.7314 -27.7166 -27.7154 -27.6915 -27.6835 -27.6663 -27.6164 -27.5995
   -16.5645  -4.2549  -3.2294  -2.7116  -2.6943  -2.4547  -1.7618  -1.5109
    -1.1840  -1.1662  -1.0301  -0.9052  -0.8996  -0.5460  -0.4865  -0.4161
    -0.2025  -0.1844  -0.0994   0.0953   0.1172   0.2806   0.4213   0.6960
     0.8189   0.8660   0.8780   1.0165   1.1264   1.1337   1.3699

          k = 0.0000 0.0598 0.0000 ( 22962 PWs)   bands (ev):

   -49.6717 -49.6216 -49.6046 -49.5986 -49.5879 -49.5848 -49.5847 -49.5785
   -49.1945 -49.1571 -49.1410 -49.1349 -28.4040 -28.3299 -28.3194 -28.3023
   -28.3016 -28.2985 -28.2889 -28.2694 -28.2605 -28.2548 -28.2521 -28.2373
   -28.2291 -28.2146 -28.1445 -28.1329 -28.1311 -28.1291 -28.0942 -28.0772
   -28.0663 -28.0568 -28.0270 -27.9960 -27.8802 -27.8673 -27.8379 -27.7674
   -27.7285 -27.7241 -27.7181 -27.7149 -27.7088 -27.6750 -27.6554 -27.6128
   -16.5629  -3.8216  -2.9702  -2.7391  -2.6777  -2.2974  -2.1664  -1.4219
    -1.2799  -1.1803  -1.1548  -0.7262  -0.7233  -0.4632  -0.1785  -0.1751
    -0.0516  -0.0121   0.0571   0.2142   0.2578   0.3398   0.4097   0.6110
     0.6614   0.6629   0.6967   0.8583   0.9268   0.9408   1.0477

          k = 0.0000-0.0897 0.0000 ( 23032 PWs)   bands (ev):

   -49.6705 -49.6123 -49.6077 -49.6030 -49.5881 -49.5876 -49.5847 -49.5785
   -49.1920 -49.1573 -49.1434 -49.1349 -28.4024 -28.3123 -28.3043 -28.2844
   -28.2825 -28.2808 -28.2800 -28.2567 -28.2500 -28.2497 -28.2322 -28.2279
   -28.2122 -28.1822 -28.1769 -28.1722 -28.1547 -28.1502 -28.1469 -28.0959
   -28.0724 -28.0481 -28.0455 -28.0009 -27.8640 -27.8447 -27.7799 -27.7662
   -27.7502 -27.7338 -27.7271 -27.7264 -27.7194 -27.7137 -27.6439 -27.6246
   -16.5621  -3.2667  -3.1398  -2.7021  -2.6695  -2.5793  -1.9394  -1.7913
    -1.1841  -1.1709  -0.8534  -0.7769  -0.6198  -0.5731   0.0617   0.0664
     0.1105   0.1371   0.1498   0.1894   0.3747   0.3893   0.4268   0.4623
     0.5138   0.5573   0.6731   0.7260   0.7724   0.8145   0.8328

          k = 0.0259-0.0149 0.0000 ( 23008 PWs)   bands (ev):

   -49.6740 -49.6298 -49.6066 -49.5917 -49.5864 -49.5848 -49.5804 -49.5785
   -49.1989 -49.1569 -49.1368 -49.1349 -28.4072 -28.3575 -28.3512 -28.3371
   -28.3319 -28.3302 -28.3220 -28.3073 -28.2602 -28.2568 -28.2555 -28.2317
   -28.2289 -28.2262 -28.1047 -28.1034 -28.1005 -28.0979 -28.0853 -28.0803
   -28.0308 -28.0126 -28.0046 -27.9876 -27.9048 -27.9001 -27.8874 -27.7707
   -27.7314 -27.7166 -27.7154 -27.6915 -27.6835 -27.6663 -27.6164 -27.5995
   -16.5645  -4.2549  -3.2294  -2.7116  -2.6943  -2.4547  -1.7618  -1.5109
    -1.1840  -1.1662  -1.0301  -0.9052  -0.8996  -0.5460  -0.4865  -0.4161
    -0.2025  -0.1844  -0.0994   0.0953   0.1172   0.2806   0.4213   0.6960
     0.8189   0.8660   0.8780   1.0165   1.1264   1.1337   1.3699

          k = 0.0259 0.0149 0.0000 ( 23008 PWs)   bands (ev):

   -49.6740 -49.6298 -49.6066 -49.5917 -49.5863 -49.5848 -49.5805 -49.5784
   -49.1989 -49.1569 -49.1368 -49.1349 -28.4072 -28.3575 -28.3512 -28.3372
   -28.3319 -28.3302 -28.3220 -28.3073 -28.2602 -28.2568 -28.2556 -28.2317
   -28.2289 -28.2262 -28.1046 -28.1034 -28.1004 -28.0979 -28.0853 -28.0803
   -28.0309 -28.0126 -28.0047 -27.9876 -27.9048 -27.9001 -27.8874 -27.7707
   -27.7314 -27.7165 -27.7154 -27.6915 -27.6835 -27.6663 -27.6164 -27.5995
   -16.5645  -4.2549  -3.2294  -2.7116  -2.6943  -2.4547  -1.7618  -1.5109
    -1.1840  -1.1662  -1.0301  -0.9052  -0.8996  -0.5460  -0.4864  -0.4161
    -0.2025  -0.1844  -0.0994   0.0953   0.1172   0.2806   0.4213   0.6960
     0.8190   0.8660   0.8780   1.0165   1.1264   1.1337   1.3698

          k = 0.0259 0.0448 0.0000 ( 23004 PWs)   bands (ev):

   -49.6723 -49.6242 -49.6051 -49.5947 -49.5906 -49.5840 -49.5833 -49.5782
   -49.1957 -49.1569 -49.1405 -49.1345 -28.4048 -28.3384 -28.3200 -28.3159
   -28.3139 -28.2982 -28.2931 -28.2925 -28.2619 -28.2596 -28.2511 -28.2367
   -28.2272 -28.2201 -28.1431 -28.1403 -28.1050 -28.0891 -28.0877 -28.0865
   -28.0730 -28.0388 -28.0237 -27.9954 -27.8885 -27.8694 -27.8597 -27.7682
   -27.7292 -27.7260 -27.7179 -27.7147 -27.6778 -27.6732 -27.6541 -27.6101
   -16.5633  -3.9612  -3.0327  -2.7104  -2.6996  -2.3408  -1.7689  -1.7464
    -1.4635  -1.0915  -1.0318  -0.8097  -0.6516  -0.4110  -0.3309  -0.2822
    -0.1103  -0.0600   0.0186   0.1766   0.2268   0.3469   0.4014   0.6278
     0.6789   0.6851   0.8242   0.9054   0.9703   0.9934   1.1349

          k = 0.0259-0.1046 0.0000 ( 23012 PWs)   bands (ev):

   -49.6705 -49.6146 -49.6026 -49.6024 -49.5937 -49.5888 -49.5820 -49.5779
   -49.1921 -49.1561 -49.1454 -49.1339 -28.4025 -28.3096 -28.2979 -28.2851
   -28.2842 -28.2749 -28.2668 -28.2605 -28.2561 -28.2478 -28.2436 -28.2294
   -28.2235 -28.2050 -28.1878 -28.1819 -28.1443 -28.1349 -28.1063 -28.0875
   -28.0746 -28.0673 -28.0439 -28.0058 -27.8611 -27.8341 -27.8057 -27.7686
   -27.7657 -27.7264 -27.7244 -27.7200 -27.7139 -27.6892 -27.6565 -27.6282
   -16.5621  -3.4299  -2.9023  -2.7323  -2.6710  -2.4227  -2.0412  -1.8564
    -1.5190  -1.0795  -0.9388  -0.6050  -0.4873  -0.3722  -0.1162  -0.0847
     0.0678   0.1015   0.1970   0.2532   0.3343   0.3760   0.4599   0.4895
     0.5570   0.6270   0.6473   0.7061   0.7717   0.7992   0.8612

          k = 0.0259-0.0747 0.0000 ( 23012 PWs)   bands (ev):

   -49.6705 -49.6146 -49.6026 -49.6024 -49.5937 -49.5888 -49.5820 -49.5779
   -49.1921 -49.1561 -49.1454 -49.1339 -28.4025 -28.3096 -28.2979 -28.2851
   -28.2842 -28.2749 -28.2668 -28.2605 -28.2561 -28.2478 -28.2435 -28.2294
   -28.2235 -28.2050 -28.1878 -28.1820 -28.1443 -28.1349 -28.1063 -28.0875
   -28.0745 -28.0673 -28.0439 -28.0058 -27.8611 -27.8341 -27.8057 -27.7686
   -27.7657 -27.7264 -27.7244 -27.7201 -27.7139 -27.6892 -27.6565 -27.6282
   -16.5621  -3.4299  -2.9023  -2.7323  -2.6710  -2.4227  -2.0412  -1.8564
    -1.5190  -1.0795  -0.9388  -0.6050  -0.4873  -0.3722  -0.1162  -0.0847
     0.0678   0.1015   0.1970   0.2532   0.3343   0.3760   0.4599   0.4895
     0.5570   0.6270   0.6473   0.7061   0.7717   0.7992   0.8612

          k = 0.0259-0.0448 0.0000 ( 23004 PWs)   bands (ev):

   -49.6723 -49.6242 -49.6051 -49.5946 -49.5906 -49.5840 -49.5833 -49.5783
   -49.1957 -49.1569 -49.1405 -49.1345 -28.4048 -28.3384 -28.3200 -28.3159
   -28.3139 -28.2982 -28.2931 -28.2925 -28.2619 -28.2596 -28.2511 -28.2367
   -28.2272 -28.2201 -28.1431 -28.1403 -28.1050 -28.0891 -28.0877 -28.0866
   -28.0730 -28.0387 -28.0237 -27.9954 -27.8885 -27.8695 -27.8597 -27.7682
   -27.7292 -27.7261 -27.7179 -27.7147 -27.6778 -27.6732 -27.6541 -27.6101
   -16.5633  -3.9612  -3.0327  -2.7104  -2.6996  -2.3408  -1.7689  -1.7464
    -1.4635  -1.0915  -1.0318  -0.8097  -0.6516  -0.4110  -0.3309  -0.2822
    -0.1103  -0.0600   0.0186   0.1766   0.2268   0.3469   0.4014   0.6278
     0.6789   0.6851   0.8242   0.9054   0.9703   0.9934   1.1348

          k = 0.0518-0.0299 0.0000 ( 22962 PWs)   bands (ev):

   -49.6717 -49.6216 -49.6045 -49.5986 -49.5877 -49.5849 -49.5848 -49.5785
   -49.1945 -49.1571 -49.1410 -49.1349 -28.4040 -28.3300 -28.3194 -28.3022
   -28.3017 -28.2985 -28.2889 -28.2694 -28.2605 -28.2546 -28.2522 -28.2373
   -28.2291 -28.2146 -28.1445 -28.1328 -28.1311 -28.1292 -28.0942 -28.0772
   -28.0663 -28.0568 -28.0270 -27.9959 -27.8802 -27.8673 -27.8379 -27.7675
   -27.7285 -27.7241 -27.7181 -27.7149 -27.7088 -27.6750 -27.6554 -27.6128
   -16.5629  -3.8216  -2.9702  -2.7391  -2.6777  -2.2974  -2.1664  -1.4219
    -1.2799  -1.1803  -1.1548  -0.7262  -0.7233  -0.4632  -0.1785  -0.1751
    -0.0516  -0.0121   0.0571   0.2142   0.2578   0.3398   0.4097   0.6110
     0.6614   0.6630   0.6967   0.8583   0.9268   0.9408   1.0477

          k = 0.0518 0.0000 0.0000 ( 23004 PWs)   bands (ev):

   -49.6723 -49.6242 -49.6051 -49.5947 -49.5905 -49.5840 -49.5833 -49.5782
   -49.1957 -49.1569 -49.1405 -49.1345 -28.4048 -28.3384 -28.3200 -28.3159
   -28.3139 -28.2982 -28.2931 -28.2925 -28.2620 -28.2595 -28.2512 -28.2367
   -28.2272 -28.2201 -28.1431 -28.1403 -28.1050 -28.0891 -28.0877 -28.0865
   -28.0730 -28.0388 -28.0237 -27.9954 -27.8885 -27.8694 -27.8597 -27.7682
   -27.7292 -27.7260 -27.7179 -27.7147 -27.6778 -27.6732 -27.6541 -27.6101
   -16.5633  -3.9612  -3.0327  -2.7104  -2.6996  -2.3408  -1.7689  -1.7464
    -1.4635  -1.0915  -1.0318  -0.8097  -0.6516  -0.4110  -0.3309  -0.2822
    -0.1103  -0.0600   0.0186   0.1766   0.2268   0.3469   0.4014   0.6278
     0.6789   0.6851   0.8242   0.9054   0.9703   0.9934   1.1349

          k = 0.0518 0.0299 0.0000 ( 22962 PWs)   bands (ev):

   -49.6717 -49.6216 -49.6045 -49.5987 -49.5877 -49.5850 -49.5848 -49.5784
   -49.1945 -49.1572 -49.1410 -49.1349 -28.4040 -28.3300 -28.3194 -28.3022
   -28.3017 -28.2985 -28.2889 -28.2694 -28.2605 -28.2546 -28.2522 -28.2373
   -28.2291 -28.2146 -28.1444 -28.1328 -28.1311 -28.1292 -28.0942 -28.0772
   -28.0663 -28.0569 -28.0270 -27.9959 -27.8802 -27.8673 -27.8379 -27.7675
   -27.7285 -27.7241 -27.7181 -27.7149 -27.7088 -27.6750 -27.6554 -27.6128
   -16.5629  -3.8216  -2.9702  -2.7391  -2.6777  -2.2974  -2.1664  -1.4219
    -1.2799  -1.1803  -1.1548  -0.7262  -0.7233  -0.4632  -0.1785  -0.1751
    -0.0516  -0.0121   0.0571   0.2142   0.2578   0.3398   0.4097   0.6110
     0.6614   0.6630   0.6967   0.8583   0.9267   0.9408   1.0478

          k = 0.0518-0.1196 0.0000 ( 23012 PWs)   bands (ev):

   -49.6705 -49.6146 -49.6026 -49.6024 -49.5936 -49.5888 -49.5820 -49.5779
   -49.1921 -49.1561 -49.1454 -49.1340 -28.4025 -28.3096 -28.2979 -28.2851
   -28.2842 -28.2749 -28.2668 -28.2605 -28.2561 -28.2478 -28.2435 -28.2294
   -28.2235 -28.2049 -28.1878 -28.1820 -28.1444 -28.1348 -28.1063 -28.0876
   -28.0746 -28.0673 -28.0439 -28.0058 -27.8611 -27.8341 -27.8057 -27.7686
   -27.7657 -27.7264 -27.7244 -27.7200 -27.7139 -27.6892 -27.6565 -27.6282
   -16.5621  -3.4299  -2.9023  -2.7323  -2.6710  -2.4227  -2.0412  -1.8564
    -1.5190  -1.0795  -0.9388  -0.6050  -0.4873  -0.3722  -0.1162  -0.0847
     0.0678   0.1015   0.1970   0.2532   0.3343   0.3760   0.4599   0.4895
     0.5570   0.6270   0.6473   0.7061   0.7717   0.7992   0.8612

          k = 0.0518-0.0897 0.0000 ( 23028 PWs)   bands (ev):

   -49.6699 -49.6082 -49.6021 -49.6020 -49.6001 -49.5923 -49.5805 -49.5774
   -49.1910 -49.1517 -49.1517 -49.1332 -28.4018 -28.2885 -28.2812 -28.2750
   -28.2733 -28.2712 -28.2557 -28.2512 -28.2450 -28.2430 -28.2415 -28.2304
   -28.2123 -28.2067 -28.2042 -28.2015 -28.1842 -28.1529 -28.0905 -28.0777
   -28.0739 -28.0730 -28.0728 -28.0152 -27.8254 -27.8249 -27.7845 -27.7841
   -27.7744 -27.7653 -27.7234 -27.7226 -27.7135 -27.6639 -27.6638 -27.6497
   -16.5617  -3.0173  -2.8983  -2.8342  -2.5468  -2.4509  -2.4323  -1.6682
    -1.5709  -1.4779  -0.5415  -0.5047  -0.3637  -0.2419  -0.2127  -0.1810
     0.1565   0.2222   0.2402   0.2966   0.3255   0.4387   0.4485   0.5281
     0.5462   0.5626   0.5904   0.6081   0.7385   0.7465   0.7864

          k = 0.0518-0.0598 0.0000 ( 23012 PWs)   bands (ev):

   -49.6705 -49.6146 -49.6026 -49.6024 -49.5936 -49.5888 -49.5820 -49.5779
   -49.1921 -49.1561 -49.1454 -49.1339 -28.4025 -28.3096 -28.2979 -28.2851
   -28.2842 -28.2749 -28.2668 -28.2605 -28.2561 -28.2478 -28.2435 -28.2294
   -28.2235 -28.2050 -28.1878 -28.1820 -28.1444 -28.1348 -28.1063 -28.0876
   -28.0746 -28.0673 -28.0439 -28.0058 -27.8611 -27.8341 -27.8057 -27.7686
   -27.7657 -27.7264 -27.7244 -27.7201 -27.7139 -27.6892 -27.6565 -27.6282
   -16.5621  -3.4299  -2.9023  -2.7323  -2.6710  -2.4227  -2.0412  -1.8564
    -1.5190  -1.0795  -0.9388  -0.6050  -0.4873  -0.3722  -0.1162  -0.0847
     0.0678   0.1015   0.1970   0.2532   0.3343   0.3760   0.4599   0.4895
     0.5570   0.6270   0.6473   0.7061   0.7717   0.7992   0.8612

          k =-0.0777 0.0448 0.0000 ( 23032 PWs)   bands (ev):

   -49.6705 -49.6122 -49.6078 -49.6030 -49.5880 -49.5877 -49.5848 -49.5785
   -49.1920 -49.1573 -49.1434 -49.1349 -28.4024 -28.3123 -28.3043 -28.2843
   -28.2824 -28.2809 -28.2801 -28.2566 -28.2501 -28.2497 -28.2321 -28.2278
   -28.2122 -28.1821 -28.1770 -28.1722 -28.1546 -28.1503 -28.1468 -28.0960
   -28.0724 -28.0480 -28.0456 -28.0009 -27.8640 -27.8447 -27.7799 -27.7662
   -27.7502 -27.7338 -27.7271 -27.7264 -27.7194 -27.7137 -27.6439 -27.6246
   -16.5621  -3.2667  -3.1398  -2.7021  -2.6695  -2.5793  -1.9394  -1.7913
    -1.1842  -1.1709  -0.8534  -0.7769  -0.6198  -0.5731   0.0617   0.0664
     0.1106   0.1371   0.1498   0.1894   0.3747   0.3893   0.4268   0.4623
     0.5138   0.5573   0.6731   0.7260   0.7724   0.8145   0.8328

          k =-0.0777 0.0747 0.0000 ( 23012 PWs)   bands (ev):

   -49.6705 -49.6146 -49.6026 -49.6024 -49.5936 -49.5888 -49.5820 -49.5779
   -49.1921 -49.1561 -49.1454 -49.1339 -28.4025 -28.3096 -28.2979 -28.2851
   -28.2842 -28.2749 -28.2667 -28.2605 -28.2561 -28.2478 -28.2436 -28.2294
   -28.2235 -28.2050 -28.1878 -28.1819 -28.1443 -28.1349 -28.1063 -28.0876
   -28.0746 -28.0673 -28.0439 -28.0058 -27.8611 -27.8341 -27.8057 -27.7686
   -27.7657 -27.7264 -27.7244 -27.7200 -27.7139 -27.6892 -27.6565 -27.6282
   -16.5621  -3.4299  -2.9023  -2.7323  -2.6710  -2.4227  -2.0412  -1.8564
    -1.5190  -1.0795  -0.9388  -0.6050  -0.4873  -0.3722  -0.1162  -0.0847
     0.0678   0.1015   0.1970   0.2532   0.3343   0.3760   0.4599   0.4895
     0.5570   0.6270   0.6473   0.7061   0.7717   0.7992   0.8612

          k =-0.0777 0.1046 0.0000 ( 23012 PWs)   bands (ev):

   -49.6705 -49.6146 -49.6026 -49.6024 -49.5936 -49.5889 -49.5820 -49.5779
   -49.1921 -49.1561 -49.1454 -49.1340 -28.4025 -28.3096 -28.2979 -28.2851
   -28.2842 -28.2749 -28.2667 -28.2605 -28.2561 -28.2478 -28.2436 -28.2294
   -28.2235 -28.2049 -28.1878 -28.1819 -28.1443 -28.1349 -28.1063 -28.0876
   -28.0746 -28.0673 -28.0439 -28.0058 -27.8611 -27.8341 -27.8057 -27.7686
   -27.7657 -27.7264 -27.7244 -27.7200 -27.7139 -27.6892 -27.6565 -27.6282
   -16.5621  -3.4299  -2.9023  -2.7323  -2.6710  -2.4227  -2.0412  -1.8564
    -1.5190  -1.0795  -0.9388  -0.6050  -0.4873  -0.3722  -0.1162  -0.0847
     0.0678   0.1015   0.1970   0.2532   0.3343   0.3760   0.4599   0.4895
     0.5570   0.6270   0.6473   0.7061   0.7717   0.7992   0.8612

          k =-0.0777-0.0448 0.0000 ( 23032 PWs)   bands (ev):

   -49.6705 -49.6122 -49.6079 -49.6029 -49.5879 -49.5878 -49.5848 -49.5784
   -49.1920 -49.1573 -49.1434 -49.1349 -28.4024 -28.3123 -28.3043 -28.2843
   -28.2824 -28.2809 -28.2801 -28.2567 -28.2501 -28.2497 -28.2321 -28.2278
   -28.2122 -28.1820 -28.1770 -28.1722 -28.1545 -28.1503 -28.1468 -28.0960
   -28.0725 -28.0479 -28.0456 -28.0008 -27.8640 -27.8447 -27.7798 -27.7662
   -27.7503 -27.7338 -27.7271 -27.7264 -27.7194 -27.7137 -27.6439 -27.6246
   -16.5621  -3.2667  -3.1398  -2.7021  -2.6695  -2.5793  -1.9394  -1.7913
    -1.1842  -1.1709  -0.8534  -0.7769  -0.6198  -0.5731   0.0617   0.0664
     0.1105   0.1371   0.1498   0.1894   0.3747   0.3893   0.4268   0.4623
     0.5138   0.5573   0.6731   0.7260   0.7724   0.8145   0.8328

     the Fermi energy is     0.3140 ev

!    total energy              =   -1170.39867736 Ry
     Harris-Foulkes estimate   =   -1170.39866877 Ry
     estimated scf accuracy    <       0.00000948 Ry

     The total energy is the sum of the following terms:

     one-electron contribution =   -7436.75825147 Ry
     hartree contribution      =    3702.71192480 Ry
     xc contribution           =    -173.92906378 Ry
     ewald contribution        =    2737.70675122 Ry
     electric field correction =       0.00013036 Ry
     smearing contrib. (-TS)   =      -0.13016849 Ry

     convergence has been achieved in  10 iterations
 
 BEEF-vdW xc energy contributions
           1 :   -147.420001782017     
           2 :    129.617340484534     
           3 :   -101.880801205393     
           4 :    74.9141380754109     
           5 :   -56.2075035201884     
           6 :    47.0652060504973     
           7 :   -43.9352430610572     
           8 :    42.1551186974955     
           9 :   -39.1154577387717     
          10 :    35.0085654520967     
          11 :   -31.4259809854958     
          12 :    29.4276352560049     
          13 :   -28.6426611435782     
          14 :    27.8330614705586     
          15 :   -26.1402077086786     
          16 :    23.8117569501394     
          17 :   -21.8324094171284     
          18 :    20.9260364294398     
          19 :   -20.9057276113842     
          20 :    20.9125072327088     
          21 :   -20.2254882157746     
          22 :    18.8611235992847     
          23 :   -17.4647651207052     
          24 :    16.6714377910822     
          25 :   -16.5517658988835     
          26 :    16.6132412561517     
          27 :   -16.2956300764624     
          28 :    15.4728706212609     
          29 :   -14.5150320876446     
          30 :    13.8979199634335     
          31 :   -17.3550705269969     
          32 :   -12.3884619907398     

     Forces acting on atoms (Ry/au):


     negative rho (up, down):  2.968E-04 0.000E+00
     atom    1 type  1   force =    -0.00001206   -0.00000313    0.00173992
     atom    2 type  1   force =     0.00000287   -0.00087255    0.00242097
     atom    3 type  1   force =    -0.00075835    0.00043757    0.00240699
     atom    4 type  1   force =     0.00075095    0.00042850    0.00241723
     atom    5 type  1   force =    -0.00202557    0.00117965    0.00253108
     atom    6 type  1   force =     0.00201036    0.00117774    0.00252728
     atom    7 type  1   force =    -0.00000874   -0.00002036   -0.00737205
     atom    8 type  1   force =    -0.00000465   -0.00235292    0.00251324
     atom    9 type  1   force =     0.04602678    0.02657756    0.04748696
     atom   10 type  1   force =    -0.04600309    0.02659234    0.04748301
     atom   11 type  1   force =     0.00002377   -0.05313699    0.04748230
     atom   12 type  1   force =    -0.00000005   -0.00000500   -0.01286721
     atom   13 type  2   force =    -0.00000223   -0.00000240   -0.13876971

     Total force =     0.186168     Total SCF correction =     0.007799


     entering subroutine stress ...


     negative rho (up, down):  2.968E-04 0.000E+00
          total   stress  (Ry/bohr**3)                   (kbar)     P=   -6.35
  -0.00001975  -0.00000000  -0.00000000         -2.90     -0.00     -0.00
  -0.00000000  -0.00001974  -0.00000000         -0.00     -2.90     -0.00
  -0.00000000  -0.00000000  -0.00008999         -0.00     -0.00    -13.24


     number of scf cycles    =   2
     number of bfgs steps    =   1

     energy   old            =   -1170.3565739360 Ry
     energy   new            =   -1170.3986773569 Ry

     CASE: energy  _new < energy  _old


     WARNING: bfgs curvature condition failed, Theta= 0.908
     new trust radius        =       0.1668758247 bohr
     new conv_thr            =       0.0000001000 Ry


ATOMIC_POSITIONS (crystal)
Sc1      0.166666667   0.166666667   0.395942884    0   0   0
Sc1      0.666666667   0.166666667   0.395942884    0   0   0
Sc1      0.166666667   0.666666667   0.395942884    0   0   0
Sc1      0.666666667   0.666666667   0.395942884    0   0   0
Sc1      0.833333333   0.333333333   0.500000000    0   0   0
Sc1      0.333333333   0.333333333   0.500000000    0   0   0
Sc1      0.833333333   0.833333333   0.500000000    0   0   0
Sc1      0.333333333   0.833333333   0.500000000    0   0   0
Sc1      0.006173797   0.006169579   0.606390366
Sc1      0.487655785   0.006176139   0.606389702
Sc1      0.006177501   0.487656883   0.606389845
Sc1      0.499995871   0.500000176   0.603537480
O1       0.166667438   0.166665888   0.658119717



     Writing output data file calc.save
     Check: negative starting charge=   -0.000414
     NEW-OLD atomic charge density approx. for the potential
     Check: negative starting charge=   -0.000413

     negative rho (up, down):  6.832E-04 0.000E+00
 
     Adding external electric field

     Computed dipole along edir(3) : 
        Dipole               -0.2515 Ry au,         -0.6393 Debye
        Dipole field         -0.0005 Ry au
 
        Potential amp.        0.0481 Ry
        Total length         46.5341 bohr
 

     total cpu time spent up to now is     1050.0 secs

     per-process dynamical memory:    86.2 Mb

     Self-consistent Calculation

     iteration #  1     ecut=    36.75 Ry     beta=0.30
     Davidson diagonalization with overlap
     ethr =  1.00E-06,  avg # of iterations = 14.3

     negative rho (up, down):  4.042E-04 0.000E+00
 
     Adding external electric field

     Computed dipole along edir(3) : 
        Dipole                0.2221 Ry au,          0.5646 Debye
        Dipole field          0.0005 Ry au
 
        Potential amp.       -0.0425 Ry
        Total length         46.5341 bohr
 

     total cpu time spent up to now is     1091.4 secs

     total energy              =   -1170.42741933 Ry
     Harris-Foulkes estimate   =   -1170.43958539 Ry
     estimated scf accuracy    <       0.02664476 Ry

     iteration #  2     ecut=    36.75 Ry     beta=0.30
     Davidson diagonalization with overlap
     ethr =  1.93E-05,  avg # of iterations =  8.8

     negative rho (up, down):  3.714E-04 0.000E+00
 
     Adding external electric field

     Computed dipole along edir(3) : 
        Dipole               -0.1902 Ry au,         -0.4834 Debye
        Dipole field         -0.0004 Ry au
 
        Potential amp.        0.0364 Ry
        Total length         46.5341 bohr
 

     total cpu time spent up to now is     1120.6 secs

     total energy              =   -1170.31331382 Ry
     Harris-Foulkes estimate   =   -1170.55662363 Ry
     estimated scf accuracy    <      11.71273797 Ry

     iteration #  3     ecut=    36.75 Ry     beta=0.30
     Davidson diagonalization with overlap
     ethr =  1.93E-05,  avg # of iterations =  9.8

     negative rho (up, down):  3.365E-04 0.000E+00
 
     Adding external electric field

     Computed dipole along edir(3) : 
        Dipole               -0.1725 Ry au,         -0.4386 Debye
        Dipole field         -0.0004 Ry au
 
        Potential amp.        0.0330 Ry
        Total length         46.5341 bohr
 

     total cpu time spent up to now is     1150.2 secs

     total energy              =   -1170.43451757 Ry
     Harris-Foulkes estimate   =   -1170.43820174 Ry
     estimated scf accuracy    <       0.03064499 Ry

     iteration #  4     ecut=    36.75 Ry     beta=0.30
     Davidson diagonalization with overlap
[...]
   -27.8260 -27.8163 -27.7868 -27.7468 -27.6925 -27.6546 -27.6274 -27.5972
   -27.5553 -27.5105 -27.4979 -27.4919 -27.4880 -27.4750 -27.4574 -27.4046
   -17.9145  -4.4052  -4.2788  -3.9402  -3.0578  -2.3228  -1.9615  -1.6533
    -1.3308  -0.8614  -0.7315  -0.3716  -0.2724  -0.1336   0.1083   0.1481
     0.2620   0.3260   0.4004   0.4717   0.5314   0.5871   0.6660   0.7041
     0.7419   0.8504   0.8849   0.9037   0.9857   1.0342   1.1327

          k = 0.0259-0.0747 0.0000 ( 23012 PWs)   bands (ev):

   -49.4039 -49.3839 -49.3737 -49.3723 -49.3617 -49.3481 -49.3388 -49.2399
   -49.0557 -48.9346 -48.9237 -48.9126 -28.2226 -28.0799 -28.0697 -28.0567
   -28.0488 -28.0450 -28.0379 -28.0266 -28.0240 -28.0109 -28.0064 -28.0020
   -27.9915 -27.9761 -27.9673 -27.9268 -27.9208 -27.8886 -27.8764 -27.8508
   -27.8260 -27.8163 -27.7869 -27.7468 -27.6925 -27.6547 -27.6274 -27.5972
   -27.5552 -27.5105 -27.4979 -27.4919 -27.4880 -27.4750 -27.4574 -27.4046
   -17.9145  -4.4051  -4.2788  -3.9402  -3.0578  -2.3228  -1.9615  -1.6533
    -1.3308  -0.8614  -0.7315  -0.3716  -0.2724  -0.1336   0.1083   0.1480
     0.2620   0.3260   0.4004   0.4717   0.5314   0.5872   0.6659   0.7041
     0.7419   0.8504   0.8847   0.9037   0.9857   1.0343   1.1327

          k = 0.0259-0.0448 0.0000 ( 23004 PWs)   bands (ev):

   -49.4106 -49.3809 -49.3774 -49.3691 -49.3626 -49.3437 -49.3385 -49.2394
   -49.0566 -48.9387 -48.9185 -48.9128 -28.2537 -28.1015 -28.0928 -28.0801
   -28.0759 -28.0551 -28.0492 -28.0450 -28.0402 -28.0347 -28.0287 -28.0001
   -27.9936 -27.9780 -27.9237 -27.8878 -27.8726 -27.8693 -27.8550 -27.8391
   -27.8158 -27.8061 -27.7675 -27.7370 -27.7119 -27.6949 -27.6301 -27.6234
   -27.5303 -27.5003 -27.4909 -27.4888 -27.4831 -27.4680 -27.4305 -27.3915
   -17.9192  -4.3897  -4.2874  -4.0039  -3.5904  -2.4759  -1.5510  -1.5312
    -1.2676  -0.8728  -0.7862  -0.5766  -0.4258  -0.1487  -0.1013  -0.0267
     0.1382   0.1860   0.2672   0.4077   0.4449   0.5710   0.6101   0.7460
     0.9040   0.9153   1.0082   1.0747   1.2029   1.2171   1.3473

          k = 0.0518-0.0299 0.0000 ( 22962 PWs)   bands (ev):

   -49.4085 -49.3826 -49.3758 -49.3687 -49.3633 -49.3453 -49.3383 -49.2396
   -49.0563 -48.9377 -48.9197 -48.9129 -28.2443 -28.0902 -28.0893 -28.0826
   -28.0570 -28.0509 -28.0442 -28.0368 -28.0353 -28.0295 -28.0287 -28.0031
   -27.9919 -27.9777 -27.9182 -27.9105 -27.8920 -27.8766 -27.8609 -27.8497
   -27.8094 -27.8055 -27.7825 -27.7358 -27.7093 -27.6803 -27.6289 -27.6156
   -27.5333 -27.4996 -27.4988 -27.4911 -27.4883 -27.4588 -27.4508 -27.3920
   -17.9176  -4.4008  -4.2793  -3.9780  -3.4595  -2.3476  -2.0064  -1.2151
    -1.0713  -0.9512  -0.9274  -0.4942  -0.4670  -0.2285   0.0345   0.0675
     0.1802   0.2319   0.3069   0.4550   0.4722   0.5358   0.6357   0.7457
     0.8849   0.8859   0.9305   1.0227   1.0721   1.1955   1.2850

          k = 0.0518 0.0000 0.0000 ( 23004 PWs)   bands (ev):

   -49.4106 -49.3810 -49.3774 -49.3689 -49.3627 -49.3437 -49.3385 -49.2394
   -49.0566 -48.9387 -48.9185 -48.9128 -28.2537 -28.1015 -28.0928 -28.0801
   -28.0759 -28.0551 -28.0493 -28.0450 -28.0402 -28.0345 -28.0288 -28.0001
   -27.9936 -27.9780 -27.9237 -27.8879 -27.8727 -27.8692 -27.8550 -27.8391
   -27.8157 -27.8062 -27.7675 -27.7370 -27.7119 -27.6949 -27.6301 -27.6233
   -27.5303 -27.5003 -27.4910 -27.4888 -27.4831 -27.4681 -27.4305 -27.3915
   -17.9192  -4.3898  -4.2873  -4.0039  -3.5904  -2.4759  -1.5510  -1.5311
    -1.2676  -0.8728  -0.7862  -0.5766  -0.4258  -0.1487  -0.1013  -0.0267
     0.1382   0.1860   0.2672   0.4077   0.4450   0.5710   0.6101   0.7460
     0.9040   0.9153   1.0083   1.0747   1.2029   1.2171   1.3473

          k = 0.0518 0.0299 0.0000 ( 22962 PWs)   bands (ev):

   -49.4085 -49.3827 -49.3758 -49.3687 -49.3634 -49.3453 -49.3383 -49.2396
   -49.0563 -48.9378 -48.9196 -48.9130 -28.2443 -28.0901 -28.0893 -28.0826
   -28.0570 -28.0509 -28.0442 -28.0368 -28.0353 -28.0295 -28.0287 -28.0031
   -27.9918 -27.9777 -27.9182 -27.9105 -27.8920 -27.8766 -27.8610 -27.8497
   -27.8094 -27.8054 -27.7824 -27.7359 -27.7093 -27.6803 -27.6289 -27.6157
   -27.5333 -27.4996 -27.4988 -27.4911 -27.4884 -27.4588 -27.4508 -27.3920
   -17.9176  -4.4009  -4.2792  -3.9779  -3.4595  -2.3476  -2.0064  -1.2151
    -1.0714  -0.9512  -0.9274  -0.4942  -0.4670  -0.2286   0.0345   0.0675
     0.1802   0.2320   0.3069   0.4550   0.4722   0.5358   0.6357   0.7457
     0.8849   0.8859   0.9305   1.0227   1.0721   1.1956   1.2850

          k = 0.0518-0.1196 0.0000 ( 23012 PWs)   bands (ev):

   -49.4039 -49.3840 -49.3735 -49.3722 -49.3618 -49.3482 -49.3387 -49.2399
   -49.0557 -48.9346 -48.9237 -48.9126 -28.2226 -28.0799 -28.0697 -28.0568
   -28.0488 -28.0450 -28.0378 -28.0266 -28.0240 -28.0109 -28.0064 -28.0020
   -27.9915 -27.9761 -27.9673 -27.9268 -27.9208 -27.8886 -27.8764 -27.8507
   -27.8260 -27.8162 -27.7868 -27.7468 -27.6925 -27.6546 -27.6274 -27.5972
   -27.5553 -27.5105 -27.4979 -27.4919 -27.4880 -27.4750 -27.4575 -27.4046
   -17.9145  -4.4053  -4.2787  -3.9402  -3.0578  -2.3228  -1.9616  -1.6532
    -1.3308  -0.8614  -0.7315  -0.3716  -0.2725  -0.1336   0.1083   0.1481
     0.2620   0.3260   0.4004   0.4717   0.5314   0.5871   0.6659   0.7041
     0.7419   0.8504   0.8849   0.9036   0.9857   1.0342   1.1328

          k = 0.0518-0.0897 0.0000 ( 23028 PWs)   bands (ev):

   -49.4014 -49.3807 -49.3805 -49.3702 -49.3607 -49.3496 -49.3392 -49.2401
   -49.0554 -48.9299 -48.9291 -48.9123 -28.2097 -28.0745 -28.0521 -28.0517
   -28.0413 -28.0335 -28.0254 -28.0248 -28.0234 -28.0045 -27.9942 -27.9933
   -27.9876 -27.9851 -27.9822 -27.9666 -27.9279 -27.9001 -27.8586 -27.8580
   -27.8520 -27.8203 -27.7739 -27.7658 -27.6642 -27.6632 -27.6267 -27.5632
   -27.5616 -27.5570 -27.4969 -27.4925 -27.4877 -27.4621 -27.4601 -27.4193
   -17.9129  -4.4006  -4.2840  -3.9259  -2.4736  -2.4015  -2.3903  -1.5076
    -1.4022  -1.2821  -0.3330  -0.3014  -0.1716  -0.0284   0.0146   0.0887
     0.3122   0.4122   0.4295   0.5239   0.5271   0.6678   0.6720   0.7316
     0.7347   0.7571   0.8517   0.8613   0.9548   1.0295   1.0467

          k = 0.0518-0.0598 0.0000 ( 23012 PWs)   bands (ev):

   -49.4039 -49.3840 -49.3736 -49.3722 -49.3618 -49.3481 -49.3387 -49.2399
   -49.0557 -48.9346 -48.9238 -48.9126 -28.2226 -28.0799 -28.0697 -28.0568
   -28.0488 -28.0450 -28.0378 -28.0266 -28.0240 -28.0109 -28.0064 -28.0020
   -27.9915 -27.9761 -27.9673 -27.9268 -27.9208 -27.8886 -27.8764 -27.8508
   -27.8260 -27.8163 -27.7869 -27.7468 -27.6925 -27.6546 -27.6274 -27.5972
   -27.5553 -27.5105 -27.4979 -27.4920 -27.4879 -27.4750 -27.4575 -27.4046
   -17.9145  -4.4051  -4.2788  -3.9402  -3.0578  -2.3228  -1.9615  -1.6533
    -1.3308  -0.8614  -0.7315  -0.3716  -0.2724  -0.1336   0.1083   0.1481
     0.2620   0.3260   0.4004   0.4717   0.5314   0.5871   0.6659   0.7041
     0.7419   0.8504   0.8848   0.9036   0.9857   1.0343   1.1327

          k =-0.0777 0.0448 0.0000 ( 23032 PWs)   bands (ev):

   -49.4034 -49.3864 -49.3721 -49.3701 -49.3633 -49.3487 -49.3383 -49.2399
   -49.0557 -48.9350 -48.9231 -48.9129 -28.2237 -28.0785 -28.0709 -28.0637
   -28.0578 -28.0460 -28.0355 -28.0279 -28.0160 -28.0146 -28.0026 -27.9900
   -27.9788 -27.9651 -27.9568 -27.9372 -27.9305 -27.9152 -27.8881 -27.8343
   -27.8249 -27.8053 -27.8016 -27.7397 -27.6989 -27.6374 -27.6275 -27.6142
   -27.5317 -27.5094 -27.5054 -27.4981 -27.4884 -27.4880 -27.4556 -27.3980
   -17.9145  -4.4142  -4.2701  -3.9384  -2.8375  -2.7714  -1.8210  -1.6483
    -0.9430  -0.9426  -0.6393  -0.5648  -0.3866  -0.3530   0.2464   0.2877
     0.3314   0.3440   0.3935   0.4328   0.5619   0.6007   0.6521   0.6989
     0.7211   0.7651   0.7757   0.8934   1.0569   1.0921   1.0931

          k =-0.0777 0.0747 0.0000 ( 23012 PWs)   bands (ev):

   -49.4039 -49.3841 -49.3735 -49.3722 -49.3618 -49.3481 -49.3387 -49.2399
   -49.0557 -48.9346 -48.9238 -48.9126 -28.2226 -28.0799 -28.0697 -28.0569
   -28.0487 -28.0450 -28.0378 -28.0266 -28.0241 -28.0109 -28.0064 -28.0020
   -27.9915 -27.9761 -27.9673 -27.9268 -27.9208 -27.8886 -27.8764 -27.8508
   -27.8260 -27.8163 -27.7868 -27.7468 -27.6925 -27.6546 -27.6274 -27.5971
   -27.5552 -27.5105 -27.4979 -27.4920 -27.4879 -27.4750 -27.4575 -27.4046
   -17.9145  -4.4052  -4.2788  -3.9402  -3.0578  -2.3228  -1.9615  -1.6533
    -1.3308  -0.8614  -0.7315  -0.3716  -0.2724  -0.1336   0.1083   0.1481
     0.2620   0.3260   0.4004   0.4717   0.5314   0.5871   0.6660   0.7041
     0.7419   0.8504   0.8849   0.9037   0.9857   1.0342   1.1327

          k =-0.0777 0.1046 0.0000 ( 23012 PWs)   bands (ev):

   -49.4039 -49.3841 -49.3735 -49.3722 -49.3618 -49.3482 -49.3387 -49.2399
   -49.0557 -48.9346 -48.9237 -48.9126 -28.2226 -28.0799 -28.0697 -28.0569
   -28.0487 -28.0450 -28.0378 -28.0266 -28.0241 -28.0109 -28.0064 -28.0020
   -27.9915 -27.9761 -27.9673 -27.9268 -27.9208 -27.8886 -27.8764 -27.8507
   -27.8260 -27.8162 -27.7868 -27.7468 -27.6925 -27.6546 -27.6274 -27.5972
   -27.5552 -27.5106 -27.4979 -27.4919 -27.4880 -27.4750 -27.4574 -27.4046
   -17.9145  -4.4053  -4.2787  -3.9402  -3.0578  -2.3228  -1.9616  -1.6532
    -1.3308  -0.8614  -0.7315  -0.3716  -0.2725  -0.1336   0.1083   0.1481
     0.2620   0.3260   0.4004   0.4717   0.5314   0.5872   0.6659   0.7041
     0.7419   0.8504   0.8849   0.9037   0.9857   1.0343   1.1328

          k =-0.0777-0.0448 0.0000 ( 23032 PWs)   bands (ev):

   -49.4034 -49.3864 -49.3721 -49.3701 -49.3634 -49.3487 -49.3383 -49.2399
   -49.0557 -48.9350 -48.9230 -48.9130 -28.2237 -28.0785 -28.0708 -28.0637
   -28.0578 -28.0459 -28.0355 -28.0279 -28.0160 -28.0146 -28.0026 -27.9900
   -27.9788 -27.9651 -27.9568 -27.9372 -27.9305 -27.9152 -27.8882 -27.8343
   -27.8249 -27.8053 -27.8015 -27.7398 -27.6989 -27.6374 -27.6275 -27.6142
   -27.5318 -27.5094 -27.5054 -27.4982 -27.4883 -27.4880 -27.4556 -27.3980
   -17.9145  -4.4143  -4.2700  -3.9384  -2.8375  -2.7714  -1.8210  -1.6484
    -0.9430  -0.9426  -0.6393  -0.5649  -0.3866  -0.3530   0.2464   0.2877
     0.3314   0.3440   0.3934   0.4328   0.5619   0.6007   0.6521   0.6989
     0.7211   0.7651   0.7757   0.8934   1.0569   1.0923   1.0931

     the Fermi energy is     0.5281 ev

!    total energy              =   -1170.48493282 Ry
     Harris-Foulkes estimate   =   -1170.48493280 Ry
     estimated scf accuracy    <       0.00000007 Ry

     The total energy is the sum of the following terms:

     one-electron contribution =   -7487.58989638 Ry
     hartree contribution      =    3728.88317414 Ry
     xc contribution           =    -174.13407099 Ry
     ewald contribution        =    2762.49015347 Ry
     electric field correction =       0.00000133 Ry
     smearing contrib. (-TS)   =      -0.13429440 Ry

     convergence has been achieved in  10 iterations
 
 BEEF-vdW xc energy contributions
           1 :   -147.637751577838     
           2 :    129.911125143355     
           3 :   -102.230545613134     
           4 :    75.2213031042617     
           5 :   -56.3777117092575     
           6 :    47.0627325319930     
           7 :   -43.7866865031980     
           8 :    41.9286191801202     
           9 :   -38.8964254704788     
          10 :    34.8670352271093     
          11 :   -31.3775252775512     
          12 :    29.4206767352367     
          13 :   -28.5994646449398     
          14 :    27.7165827506207     
          15 :   -25.9817542161262     
          16 :    23.6712480473102     
          17 :   -21.7340423053649     
          18 :    20.8333395414240     
          19 :   -20.7564249236046     
          20 :    20.6778381149069     
          21 :   -19.9398762731805     
          22 :    18.5960921922457     
          23 :   -17.2699641561336     
          24 :    16.5348767746336     
          25 :   -16.4142258463089     
          26 :    16.4225080697996     
          27 :   -16.0495746467587     
          28 :    15.2124596667033     
          29 :   -14.2799531030076     
          30 :    13.6933232944246     
          31 :   -17.3665676663622     
          32 :   -12.4138523825391     

     Forces acting on atoms (Ry/au):


     negative rho (up, down):  2.705E-04 0.000E+00
     atom    1 type  1   force =    -0.00000721   -0.00001279    0.00281072
     atom    2 type  1   force =     0.00000963   -0.00216891    0.00202893
     atom    3 type  1   force =    -0.00186602    0.00109617    0.00201537
     atom    4 type  1   force =     0.00186854    0.00108629    0.00202143
     atom    5 type  1   force =    -0.00030533    0.00019355   -0.00287330
     atom    6 type  1   force =     0.00029786    0.00019718   -0.00286758
     atom    7 type  1   force =     0.00000445   -0.00002203    0.00164751
     atom    8 type  1   force =    -0.00000676   -0.00037392   -0.00289348
     atom    9 type  1   force =    -0.00085242   -0.00050015   -0.00131176
     atom   10 type  1   force =     0.00086129   -0.00053078   -0.00131435
     atom   11 type  1   force =    -0.00002252    0.00101153   -0.00131227
     atom   12 type  1   force =     0.00001339    0.00001758    0.00098521
     atom   13 type  2   force =     0.00000511    0.00000628    0.00106355

     Total force =     0.003209     Total SCF correction =     0.000224


     entering subroutine stress ...


     negative rho (up, down):  2.705E-04 0.000E+00
          total   stress  (Ry/bohr**3)                   (kbar)     P=    3.16
   0.00003822  -0.00000000  -0.00000000          5.62     -0.00     -0.00
  -0.00000000   0.00003821  -0.00000000         -0.00      5.62     -0.00
  -0.00000000  -0.00000000  -0.00001208         -0.00     -0.00     -1.78


     bfgs converged in  15 scf cycles and  14 bfgs steps
     (criteria: energy <  1.0E+00, force <  1.9E-03)

     End of BFGS Geometry Optimization

     Final energy   =   -1170.4849328229 Ry
Begin final coordinates

ATOMIC_POSITIONS (crystal)
Sc1      0.166666667   0.166666667   0.395942884    0   0   0
Sc1      0.666666667   0.166666667   0.395942884    0   0   0
Sc1      0.166666667   0.666666667   0.395942884    0   0   0
Sc1      0.666666667   0.666666667   0.395942884    0   0   0
Sc1      0.833333333   0.333333333   0.500000000    0   0   0
Sc1      0.333333333   0.333333333   0.500000000    0   0   0
Sc1      0.833333333   0.833333333   0.500000000    0   0   0
Sc1      0.333333333   0.833333333   0.500000000    0   0   0
Sc1      0.005671321   0.005670431   0.609453976
Sc1      0.488620020   0.005717554   0.609453577
Sc1      0.005718150   0.488620087   0.609453287
Sc1      0.500001777   0.500001388   0.596613609
O1       0.166656253   0.166653948   0.645106134
End final coordinates



     Writing output data file calc.save
 
     init_run     :     14.91s CPU     15.47s WALL (       1 calls)
     electrons    :   6155.36s CPU   6662.41s WALL (      15 calls)
     update_pot   :     46.16s CPU     48.34s WALL (      14 calls)
     forces       :    295.04s CPU    316.87s WALL (      15 calls)
     stress       :    889.84s CPU    936.48s WALL (      15 calls)

     Called by init_run:
     wfcinit      :      5.97s CPU      6.07s WALL (       1 calls)
     potinit      :      2.35s CPU      2.55s WALL (       1 calls)

     Called by electrons:
     c_bands      :   2424.13s CPU   2605.88s WALL (     202 calls)
     sum_band     :   1218.59s CPU   1314.99s WALL (     202 calls)
     v_of_rho     :    419.27s CPU    466.73s WALL (     217 calls)
     newd         :   1163.23s CPU   1205.74s WALL (     217 calls)
     mix_rho      :     15.58s CPU     15.97s WALL (     202 calls)
     vdW_energy   :    197.84s CPU    217.72s WALL (     757 calls)
     vdW_ffts     :    507.29s CPU    527.44s WALL (    1544 calls)
     vdW_v        :    207.03s CPU    213.01s WALL (     757 calls)

     Called by c_bands:
     init_us_2    :     16.35s CPU     16.45s WALL (    2175 calls)
     cegterg      :   2090.11s CPU   2147.24s WALL (    1010 calls)

     Called by *egterg:
     h_psi        :   1379.82s CPU   1412.25s WALL (    7097 calls)
     s_psi        :    134.85s CPU    135.14s WALL (    7097 calls)
     g_psi        :      8.26s CPU      8.34s WALL (    6082 calls)
     cdiaghg      :    197.62s CPU    199.05s WALL (    7022 calls)

     Called by h_psi:
     add_vuspsi   :    139.06s CPU    139.46s WALL (    7097 calls)

     General routines
     calbec       :    203.72s CPU    206.93s WALL (    8257 calls)
     fft          :    822.75s CPU    894.02s WALL (   45881 calls)
     ffts         :      0.96s CPU      1.04s WALL (     419 calls)
     fftw         :    805.29s CPU    840.19s WALL (  514364 calls)
     interpolate  :      9.11s CPU      9.70s WALL (     419 calls)
     davcio       :      0.00s CPU      0.02s WALL (       5 calls)
 
     Parallel routines
     fft_scatter  :    994.73s CPU   1097.43s WALL (  560664 calls)
 
     PWSCF        :     2h 4m CPU        2h14m WALL

 
   This run was terminated on:  17:55:28   2May2018            

=------------------------------------------------------------------------------=
   JOB DONE.
=------------------------------------------------------------------------------=
Job  /afs/slac/g/suncat/bin/suncat-tsmpirun -x LD_LIBRARY_PATH -wdir /scratch/qe780271_PuHk6 pw.x -npool 4 -in pw.inp

TID   HOST_NAME   COMMAND_LINE            STATUS            TERMINATION_TIME
===== ========== ================  =======================  ===================
00000 suncat0095 pw.x -npool 4 -i  Done                     05/02/2018 17:55:28
00001 suncat0095 pw.x -npool 4 -i  Done                     05/02/2018 17:55:28
00002 suncat0095 pw.x -npool 4 -i  Done                     05/02/2018 17:55:28
00003 suncat0095 pw.x -npool 4 -i  Done                     05/02/2018 17:55:28
00004 suncat0095 pw.x -npool 4 -i  Done                     05/02/2018 17:55:28
00005 suncat0095 pw.x -npool 4 -i  Done                     05/02/2018 17:55:28
00006 suncat0095 pw.x -npool 4 -i  Done                     05/02/2018 17:55:28
00007 suncat0095 pw.x -npool 4 -i  Done                     05/02/2018 17:55:28
00008 suncat0059 pw.x -npool 4 -i  Done                     05/02/2018 17:55:28
00009 suncat0059 pw.x -npool 4 -i  Done                     05/02/2018 17:55:28
00010 suncat0059 pw.x -npool 4 -i  Done                     05/02/2018 17:55:28
00011 suncat0059 pw.x -npool 4 -i  Done                     05/02/2018 17:55:28
00012 suncat0059 pw.x -npool 4 -i  Done                     05/02/2018 17:55:28
00013 suncat0059 pw.x -npool 4 -i  Done                     05/02/2018 17:55:28
00014 suncat0059 pw.x -npool 4 -i  Done                     05/02/2018 17:55:28
00015 suncat0059 pw.x -npool 4 -i  Done                     05/02/2018 17:55:28
00016 suncat0142 pw.x -npool 4 -i  Done                     05/02/2018 17:55:28
00017 suncat0142 pw.x -npool 4 -i  Done                     05/02/2018 17:55:28
00018 suncat0142 pw.x -npool 4 -i  Done                     05/02/2018 17:55:28
00019 suncat0142 pw.x -npool 4 -i  Done                     05/02/2018 17:55:28
00020 suncat0142 pw.x -npool 4 -i  Done                     05/02/2018 17:55:28
00021 suncat0142 pw.x -npool 4 -i  Done                     05/02/2018 17:55:28
00022 suncat0142 pw.x -npool 4 -i  Done                     05/02/2018 17:55:28
00023 suncat0142 pw.x -npool 4 -i  Done                     05/02/2018 17:55:28
00024 suncat0126 pw.x -npool 4 -i  Done                     05/02/2018 17:55:28
00025 suncat0126 pw.x -npool 4 -i  Done                     05/02/2018 17:55:28
00026 suncat0126 pw.x -npool 4 -i  Done                     05/02/2018 17:55:28
00027 suncat0126 pw.x -npool 4 -i  Done                     05/02/2018 17:55:28
00028 suncat0126 pw.x -npool 4 -i  Done                     05/02/2018 17:55:28
00029 suncat0126 pw.x -npool 4 -i  Done                     05/02/2018 17:55:28
00030 suncat0126 pw.x -npool 4 -i  Done                     05/02/2018 17:55:28
00031 suncat0126 pw.x -npool 4 -i  Done                     05/02/2018 17:55:28
