  python dir          : /u/if/mamunm/src/espresso
  espresso dir        : /nfs/slac/g/suncatfs/sw/espv18/espresso-dynpy-beef/bin
  pseudo dir          : /u/if/mamunm/psp/gbrv1.5pbe
  ase-espresso py git : GITVERSION



     Program PWSCF v.5.1rc2 (svn rev. 11289) starts on 24Apr2018 at 10:54:24 

     This program is part of the open-source Quantum ESPRESSO suite
     for quantum simulation of materials; please cite
         "P. Giannozzi et al., J. Phys.:Condens. Matter 21 395502 (2009);
          URL http://www.quantum-espresso.org", 
     in publications or presentations arising from this work. More details at
     http://www.quantum-espresso.org/quote

     Parallel version (MPI), running on    32 processors
     K-points division:     npool     =       4
     R & G space division:  proc/nbgrp/npool/nimage =       8
     Reading input from pw.inp
     Message from routine read_cards :
     DEPRECATED: no units specified in CELL_PARAMETERS card

     Current dimensions of program PWSCF are:
     Max number of different atomic species (ntypx) = 10
     Max number of k-points (npk) =  40000
     Max angular momentum in pseudopotentials (lmaxx) =  3
     Presently stress not available with electric field


     **************************************************************************
     Initializing libbeef V0.1.1 with the BEEF-vdW functional.
     Citation: Wellendorff et al., PRB 85, 235149 (2012).
     **************************************************************************


     IMPORTANT: XC functional enforced from input :
     Exchange-correlation      = BEEF-VDW ( 1  4 27 13 2)
     Any further DFT definition will be discarded
     Please, verify this is what you really want


     Subspace diagonalization in iterative solution of the eigenvalue problem:
     a serial algorithm will be used

 
     Parallelization info
     --------------------
     sticks:   dense  smooth     PW     G-vecs:    dense   smooth      PW
     Min         329     130     39                61797    15613    2499
     Max         330     131     40                61814    15645    2512
     Sum        2635    1045    313               494447   125015   20053
 


     bravais-lattice index     =            0
     lattice parameter (alat)  =       1.8897  a.u.
     unit-cell volume          =    4158.3597 (a.u.)^3
     number of atoms/cell      =           14
     number of atomic types    =            3
     number of electrons       =       162.00
     number of Kohn-Sham states=           91
     kinetic-energy cutoff     =      36.7493  Ry
     charge density cutoff     =     367.4932  Ry
     convergence threshold     =      1.0E-05
     mixing beta               =       0.3000
     number of iterations used =           10  plain     mixing
     Exchange-correlation      = BEEF-VDW ( 1  4 27 13 2)
     nstep                     =           50


     celldm(1)=   1.889726  celldm(2)=   0.000000  celldm(3)=   0.000000
     celldm(4)=   0.000000  celldm(5)=   0.000000  celldm(6)=   0.000000

     crystal axes: (cart. coord. in units of alat)
               a(1) = (   5.399178   0.000000   0.000000 )  
               a(2) = (   2.699589   4.675825   0.000000 )  
               a(3) = (   0.000000   0.000000  24.408411 )  

     reciprocal axes: (cart. coord. in units 2 pi/alat)
               b(1) = (  0.185213 -0.106933  0.000000 )  
               b(2) = (  0.000000  0.213866  0.000000 )  
               b(3) = (  0.000000  0.000000  0.040969 )  


     PseudoPot. # 1 for V  read from file:
     /u/if/mamunm/psp/gbrv1.5pbe/V.UPF
     MD5 check sum: 22b79981416ebb76fdaf5b1b8640f6fb
     Pseudo is Ultrasoft + core correction, Zval = 13.0
     Generated by new atomic code, or converted to UPF format
     Using radial grid of  853 points,  6 beta functions with: 
                l(1) =   0
                l(2) =   0
                l(3) =   1
                l(4) =   1
                l(5) =   2
                l(6) =   2
     Q(r) pseudized with  8 coefficients,  rinner =    1.100   1.100   1.100
                                                       1.100   1.100

     PseudoPot. # 2 for N  read from file:
     /u/if/mamunm/psp/gbrv1.5pbe/N.UPF
     MD5 check sum: 95339753478d7afb44899504a8723017
     Pseudo is Ultrasoft + core correction, Zval =  5.0
     Generated by new atomic code, or converted to UPF format
     Using radial grid of  729 points,  4 beta functions with: 
                l(1) =   0
                l(2) =   0
                l(3) =   1
                l(4) =   1
     Q(r) pseudized with  8 coefficients,  rinner =    0.900   0.900   0.900


     PseudoPot. # 3 for H  read from file:
     /u/if/mamunm/psp/gbrv1.5pbe/H.UPF
     MD5 check sum: 761ae9a214b05c3daf00ab9f6b793d6f
     Pseudo is Ultrasoft, Zval =  1.0
     Generated by new atomic code, or converted to UPF format
     Using radial grid of  615 points,  2 beta functions with: 
                l(1) =   0
                l(2) =   0
     Q(r) pseudized with  8 coefficients,  rinner =    0.700

     vdW kernel table read from file vdW_kernel_table
     MD5 check sum: 095c7af220d748ca6e76c0b4c6cfb241

     atomic species   valence    mass     pseudopotential
        V1            13.00    50.94150     V ( 1.00)
        N1             5.00    14.00700     N ( 1.00)
        H1             1.00     1.00800     H ( 1.00)

     No symmetry found



   Cartesian axes

     site n.     atom                  positions (alat units)
         1           V1  tau(   1) = (   1.3497945   0.7793042  10.0000000  )
         2           V1  tau(   2) = (   4.0493836   0.7793042  10.0000000  )
         3           V1  tau(   3) = (   2.6995891   3.1172170  10.0000000  )
         4           V1  tau(   4) = (   5.3991782   3.1172170  10.0000000  )
         5           V1  tau(   5) = (   5.3991782   1.5586085  12.2042053  )
         6           V1  tau(   6) = (   2.6995891   1.5586085  12.2042053  )
         7           V1  tau(   7) = (   6.7489727   3.8965212  12.2042053  )
         8           V1  tau(   8) = (   4.0493836   3.8965212  12.2042053  )
         9           V1  tau(   9) = (   0.0000000   0.0000000  14.4084105  )
        10           V1  tau(  10) = (   2.6995891   0.0000000  14.4084105  )
        11           V1  tau(  11) = (   1.3497945   2.3379127  14.4084105  )
        12           V1  tau(  12) = (   4.0493836   2.3379127  14.4084105  )
        13           N1  tau(  13) = (   2.6995891   1.5586085  15.8644105  )
        14           H1  tau(  14) = (   2.6995891   1.5586085  16.9144105  )

     number of k points=    20  Fermi-Dirac smearing, width (Ry)=  0.0110
                       cart. coord. in units 2pi/alat
        k(    1) = (   0.0000000   0.0000000   0.0000000), wk =   0.0555556
        k(    2) = (   0.0000000   0.0356443   0.0000000), wk =   0.1111111
        k(    3) = (   0.0000000   0.0712887   0.0000000), wk =   0.1111111
        k(    4) = (   0.0000000  -0.1069330   0.0000000), wk =   0.0555556
        k(    5) = (   0.0308689  -0.0178222   0.0000000), wk =   0.1111111
        k(    6) = (   0.0308689   0.0178222   0.0000000), wk =   0.1111111
        k(    7) = (   0.0308689   0.0534665   0.0000000), wk =   0.1111111
        k(    8) = (   0.0308689  -0.1247552   0.0000000), wk =   0.1111111
        k(    9) = (   0.0308689  -0.0891108   0.0000000), wk =   0.1111111
        k(   10) = (   0.0308689  -0.0534665   0.0000000), wk =   0.1111111
        k(   11) = (   0.0617378  -0.0356443   0.0000000), wk =   0.1111111
        k(   12) = (   0.0617378   0.0000000   0.0000000), wk =   0.1111111
        k(   13) = (   0.0617378   0.0356443   0.0000000), wk =   0.1111111
        k(   14) = (   0.0617378  -0.1425773   0.0000000), wk =   0.1111111
        k(   15) = (   0.0617378  -0.1069330   0.0000000), wk =   0.1111111
        k(   16) = (   0.0617378  -0.0712887   0.0000000), wk =   0.1111111
        k(   17) = (  -0.0926067   0.0534665   0.0000000), wk =   0.0555556
        k(   18) = (  -0.0926067   0.0891108   0.0000000), wk =   0.1111111
        k(   19) = (  -0.0926067   0.1247552   0.0000000), wk =   0.1111111
        k(   20) = (  -0.0926067  -0.0534665   0.0000000), wk =   0.0555556

     Dense  grid:   494447 G-vectors     FFT dimensions: (  64,  64, 288)

     Smooth grid:   125015 G-vectors     FFT dimensions: (  40,  40, 180)

     Largest allocated arrays     est. size (Mb)     dimensions
        Kohn-Sham Wavefunctions         2.84 Mb     (    2047,   91)
        NL pseudopotentials             7.06 Mb     (    2047,  226)
        Each V/rho on FFT grid          2.25 Mb     (  147456)
        Each G-vector array             0.47 Mb     (   61814)
        G-vector shells                 0.12 Mb     (   16161)
     Largest temporary arrays     est. size (Mb)     dimensions
        Auxiliary wavefunctions        11.37 Mb     (    2047,  364)
        Each subspace H/S matrix        2.02 Mb     (     364,  364)
        Each <psi_i|beta_j> matrix      0.31 Mb     (     226,   91)
        Arrays for rho mixing          22.50 Mb     (  147456,   10)

     Check: negative/imaginary core charge=   -0.000001    0.000000

     Initial potential from superposition of free atoms
     Check: negative starting charge=   -0.011565

     starting charge  161.98525, renormalised to  162.00000

     negative rho (up, down):  1.157E-02 0.000E+00


     ************************************************************************
     *
     * You are using vdW-DF for exchange-correlation in this calculation.
     * Please cite the following three references that made this development
     * possible:
     *
     *   M. Dion, H. Rydberg, E. Schroder, D. C. Langreth, and
     *   B. I. Lundqvist, Phys. Rev. Lett. 92, 246401 (2004).
     *
     *   T. Thonhauser, V. R. Cooper, S. Li, A. Puzder, P. Hyldgaard, and
     *   D. C. Langreth, Phys. Rev. B 76, 125112 (2007).
     *
     *   G. Roman-Perez and J. M. Soler, Phys. Rev. Lett. 103, 096102 (2009).
     *
     *
     * If you are using vdW-DF2, please also cite:
     *
     *   K. Lee, E. D. Murray, L. Kong, B. I. Lundqvist, and
     *   D. C. Langreth, Phys. Rev. B 82, 081101(R) (2010).
     *
     *
     * If you are calculating the stress with vdW-DF, please also cite:
     *
     *   R. Sabatini, E. Kucukbenli, B. Kolb, T. Thonhauser, and
     *   S. de Gironcoli, J. Phys.: Condens. Matter 24, 424209 (2012).
     *
     ************************************************************************

     Carrying out vdW-DF run using the following parameters:

     Nqs =      20    Nr_points =    1024   r_max =   100.000
     q_mesh =
               0.00001000     0.04494208     0.09755937     0.15916263
               0.23128650     0.31572767     0.41458969     0.53033537
               0.66584808     0.82450364     1.01025438     1.22772762
               1.48234092     1.78043706     2.12944203     2.53805004
               3.01644009     3.57652955     4.23227104     5.00000000

     Gradients computed in reciprocal space

     ************************************************************************


 
     Adding external electric field

     Computed dipole along edir(3) : 
        Dipole               -0.0038 Ry au,         -0.0097 Debye
        Dipole field         -0.0000 Ry au
 
        Potential amp.        0.0010 Ry
        Total length         44.9721 bohr
 
     Starting wfc are  125 randomized atomic wfcs

     total cpu time spent up to now is        9.7 secs

     per-process dynamical memory:    71.6 Mb

     Self-consistent Calculation

     iteration #  1     ecut=    36.75 Ry     beta=0.30
     Davidson diagonalization with overlap
     ethr =  1.00E-02,  avg # of iterations =  2.4

     negative rho (up, down):  1.222E-02 0.000E+00
 
     Adding external electric field

     Computed dipole along edir(3) : 
        Dipole               -2.3470 Ry au,         -5.9654 Debye
        Dipole field         -0.0071 Ry au
 
        Potential amp.        0.6379 Ry
        Total length         44.9721 bohr
 

     total cpu time spent up to now is       23.9 secs

     total energy              =   -1765.36117327 Ry
     Harris-Foulkes estimate   =   -1771.31606038 Ry
     estimated scf accuracy    <      12.32329751 Ry

     iteration #  2     ecut=    36.75 Ry     beta=0.30
     Davidson diagonalization with overlap
     ethr =  7.61E-03,  avg # of iterations =  9.7

     negative rho (up, down):  1.120E-02 0.000E+00
 
     Adding external electric field

     Computed dipole along edir(3) : 
        Dipole                3.6057 Ry au,          9.1648 Debye
        Dipole field          0.0109 Ry au
 
        Potential amp.       -0.9801 Ry
        Total length         44.9721 bohr
 

     total cpu time spent up to now is       45.9 secs

     total energy              =   -1753.53854826 Ry
     Harris-Foulkes estimate   =   -1789.88743820 Ry
     estimated scf accuracy    <     817.36306639 Ry

     iteration #  3     ecut=    36.75 Ry     beta=0.30
     Davidson diagonalization with overlap
     ethr =  7.61E-03,  avg # of iterations =  9.3

     negative rho (up, down):  1.045E-02 0.000E+00
 
     Adding external electric field

     Computed dipole along edir(3) : 
        Dipole               -0.3124 Ry au,         -0.7941 Debye
        Dipole field         -0.0009 Ry au
 
        Potential amp.        0.0849 Ry
        Total length         44.9721 bohr
 

     total cpu time spent up to now is       68.6 secs

     total energy              =   -1757.88641860 Ry
     Harris-Foulkes estimate   =   -1790.13328216 Ry
     estimated scf accuracy    <    1097.62125693 Ry

     iteration #  4     ecut=    36.75 Ry     beta=0.30
     Davidson diagonalization with overlap
     ethr =  7.61E-03,  avg # of iterations =  5.6

     negative rho (up, down):  1.077E-02 0.000E+00
 
     Adding external electric field

     Computed dipole along edir(3) : 
        Dipole                0.2625 Ry au,          0.6672 Debye
        Dipole field          0.0008 Ry au
 
        Potential amp.       -0.0713 Ry
        Total length         44.9721 bohr
 

     total cpu time spent up to now is       86.6 secs

     total energy              =   -1770.13009011 Ry
     Harris-Foulkes estimate   =   -1771.06102679 Ry
     estimated scf accuracy    <      24.84091059 Ry

     iteration #  5     ecut=    36.75 Ry     beta=0.30
     Davidson diagonalization with overlap
     ethr =  7.61E-03,  avg # of iterations =  1.6

     negative rho (up, down):  1.100E-02 0.000E+00
 
     Adding external electric field

     Computed dipole along edir(3) : 
        Dipole                0.2806 Ry au,          0.7132 Debye
        Dipole field          0.0008 Ry au
 
        Potential amp.       -0.0763 Ry
        Total length         44.9721 bohr
 

     total cpu time spent up to now is       99.8 secs

     total energy              =   -1770.24288914 Ry
     Harris-Foulkes estimate   =   -1770.47476160 Ry
     estimated scf accuracy    <       4.52187309 Ry

     iteration #  6     ecut=    36.75 Ry     beta=0.30
     Davidson diagonalization with overlap
     ethr =  2.79E-03,  avg # of iterations =  5.8

     negative rho (up, down):  1.160E-02 0.000E+00
 
     Adding external electric field

     Computed dipole along edir(3) : 
        Dipole               -0.2723 Ry au,         -0.6922 Debye
        Dipole field         -0.0008 Ry au
 
        Potential amp.        0.0740 Ry
        Total length         44.9721 bohr
 

     total cpu time spent up to now is      115.5 secs

     total energy              =   -1770.40385633 Ry
     Harris-Foulkes estimate   =   -1770.62462664 Ry
     estimated scf accuracy    <       3.17786616 Ry

     iteration #  7     ecut=    36.75 Ry     beta=0.30
     Davidson diagonalization with overlap
     ethr =  1.96E-03,  avg # of iterations =  2.4

     negative rho (up, down):  1.235E-02 0.000E+00
 
     Adding external electric field

     Computed dipole along edir(3) : 
        Dipole               -0.0763 Ry au,         -0.1939 Debye
        Dipole field         -0.0002 Ry au
 
        Potential amp.        0.0207 Ry
        Total length         44.9721 bohr
 

     total cpu time spent up to now is      129.0 secs

     total energy              =   -1770.46530443 Ry
     Harris-Foulkes estimate   =   -1770.53295078 Ry
     estimated scf accuracy    <       1.37120023 Ry

     iteration #  8     ecut=    36.75 Ry     beta=0.30
     Davidson diagonalization with overlap
     ethr =  8.46E-04,  avg # of iterations =  5.2

     negative rho (up, down):  1.264E-02 0.000E+00
 
     Adding external electric field

     Computed dipole along edir(3) : 
        Dipole               -0.0438 Ry au,         -0.1113 Debye
        Dipole field         -0.0001 Ry au
 
        Potential amp.        0.0119 Ry
        Total length         44.9721 bohr
 

     total cpu time spent up to now is      144.3 secs

     total energy              =   -1770.50344515 Ry
     Harris-Foulkes estimate   =   -1770.52540923 Ry
     estimated scf accuracy    <       0.17454374 Ry

     iteration #  9     ecut=    36.75 Ry     beta=0.30
     Davidson diagonalization with overlap
     ethr =  1.08E-04,  avg # of iterations =  7.1

     negative rho (up, down):  1.294E-02 0.000E+00
 
     Adding external electric field

     Computed dipole along edir(3) : 
        Dipole               -0.0214 Ry au,         -0.0544 Debye
        Dipole field         -0.0001 Ry au
 
        Potential amp.        0.0058 Ry
        Total length         44.9721 bohr
 

     total cpu time spent up to now is      162.6 secs

     total energy              =   -1770.51200103 Ry
     Harris-Foulkes estimate   =   -1770.55005094 Ry
     estimated scf accuracy    <       0.40720007 Ry

     iteration # 10     ecut=    36.75 Ry     beta=0.30
     Davidson diagonalization with overlap
     ethr =  1.08E-04,  avg # of iterations =  4.1

     negative rho (up, down):  1.304E-02 0.000E+00
 
     Adding external electric field

     Computed dipole along edir(3) : 
        Dipole               -0.0053 Ry au,         -0.0135 Debye
        Dipole field         -0.0000 Ry au
 
        Potential amp.        0.0014 Ry
        Total length         44.9721 bohr
 

     total cpu time spent up to now is      177.0 secs

     total energy              =   -1770.52591934 Ry
     Harris-Foulkes estimate   =   -1770.53266899 Ry
     estimated scf accuracy    <       0.19960939 Ry

     iteration # 11     ecut=    36.75 Ry     beta=0.30
     Davidson diagonalization with overlap
     ethr =  1.08E-04,  avg # of iterations =  1.0

     negative rho (up, down):  1.329E-02 0.000E+00
 
     Adding external electric field

     Computed dipole along edir(3) : 
        Dipole                0.0455 Ry au,          0.1157 Debye
        Dipole field          0.0001 Ry au
 
        Potential amp.       -0.0124 Ry
        Total length         44.9721 bohr
 

     total cpu time spent up to now is      189.8 secs

     total energy              =   -1770.51939180 Ry
     Harris-Foulkes estimate   =   -1770.52847360 Ry
     estimated scf accuracy    <       0.15353146 Ry

     iteration # 12     ecut=    36.75 Ry     beta=0.30
     Davidson diagonalization with overlap
     ethr =  9.48E-05,  avg # of iterations =  1.1

     negative rho (up, down):  1.347E-02 0.000E+00
 
     Adding external electric field

     Computed dipole along edir(3) : 
        Dipole                0.0491 Ry au,          0.1248 Debye
        Dipole field          0.0001 Ry au
 
        Potential amp.       -0.0133 Ry
        Total length         44.9721 bohr
 

     total cpu time spent up to now is      202.7 secs

     total energy              =   -1770.51683030 Ry
     Harris-Foulkes estimate   =   -1770.52169739 Ry
     estimated scf accuracy    <       0.06558528 Ry

     iteration # 13     ecut=    36.75 Ry     beta=0.30
     Davidson diagonalization with overlap
     ethr =  4.05E-05,  avg # of iterations =  4.3

     negative rho (up, down):  1.358E-02 0.000E+00
 
     Adding external electric field

     Computed dipole along edir(3) : 
        Dipole                0.0565 Ry au,          0.1436 Debye
        Dipole field          0.0002 Ry au
 
        Potential amp.       -0.0154 Ry
        Total length         44.9721 bohr
 

     total cpu time spent up to now is      216.9 secs

     total energy              =   -1770.51739879 Ry
     Harris-Foulkes estimate   =   -1770.51913051 Ry
     estimated scf accuracy    <       0.10160785 Ry

     iteration # 14     ecut=    36.75 Ry     beta=0.30
     Davidson diagonalization with overlap
     ethr =  4.05E-05,  avg # of iterations =  1.1

     negative rho (up, down):  1.365E-02 0.000E+00
 
     Adding external electric field

     Computed dipole along edir(3) : 
        Dipole                0.1706 Ry au,          0.4337 Debye
        Dipole field          0.0005 Ry au
 
        Potential amp.       -0.0464 Ry
        Total length         44.9721 bohr
 

     total cpu time spent up to now is      230.0 secs

     total energy              =   -1770.51671522 Ry
     Harris-Foulkes estimate   =   -1770.51840599 Ry
     estimated scf accuracy    <       0.03697155 Ry

     iteration # 15     ecut=    36.75 Ry     beta=0.30
     Davidson diagonalization with overlap
     ethr =  2.28E-05,  avg # of iterations =  4.2

     negative rho (up, down):  1.374E-02 0.000E+00
 
     Adding external electric field

     Computed dipole along edir(3) : 
        Dipole                0.2037 Ry au,          0.5178 Debye
        Dipole field          0.0006 Ry au
 
        Potential amp.       -0.0554 Ry
        Total length         44.9721 bohr
 

     total cpu time spent up to now is      244.5 secs

     total energy              =   -1770.51740382 Ry
     Harris-Foulkes estimate   =   -1770.51781129 Ry
     estimated scf accuracy    <       0.00709021 Ry

     iteration # 16     ecut=    36.75 Ry     beta=0.30
     Davidson diagonalization with overlap
     ethr =  4.38E-06,  avg # of iterations =  8.1

     negative rho (up, down):  1.387E-02 0.000E+00
 
     Adding external electric field

     Computed dipole along edir(3) : 
        Dipole                0.1886 Ry au,          0.4794 Debye
        Dipole field          0.0006 Ry au
 
        Potential amp.       -0.0513 Ry
        Total length         44.9721 bohr
 

     total cpu time spent up to now is      263.8 secs

     total energy              =   -1770.51781488 Ry
     Harris-Foulkes estimate   =   -1770.51888820 Ry
     estimated scf accuracy    <       0.05496794 Ry

     iteration # 17     ecut=    36.75 Ry     beta=0.30
     Davidson diagonalization with overlap
     ethr =  4.38E-06,  avg # of iterations =  4.0

     negative rho (up, down):  1.386E-02 0.000E+00
 
     Adding external electric field

     Computed dipole along edir(3) : 
        Dipole                0.1940 Ry au,          0.4930 Debye
        Dipole field          0.0006 Ry au
 
        Potential amp.       -0.0527 Ry
        Total length         44.9721 bohr
 

     total cpu time spent up to now is      278.7 secs

     total energy              =   -1770.51819358 Ry
     Harris-Foulkes estimate   =   -1770.51836209 Ry
     estimated scf accuracy    <       0.00317200 Ry

     iteration # 18     ecut=    36.75 Ry     beta=0.30
     Davidson diagonalization with overlap
     ethr =  1.96E-06,  avg # of iterations =  5.0

     negative rho (up, down):  1.388E-02 0.000E+00
 
     Adding external electric field

     Computed dipole along edir(3) : 
        Dipole                0.1957 Ry au,          0.4974 Debye
        Dipole field          0.0006 Ry au
 
        Potential amp.       -0.0532 Ry
        Total length         44.9721 bohr
 

     total cpu time spent up to now is      293.6 secs

     total energy              =   -1770.51817405 Ry
     Harris-Foulkes estimate   =   -1770.51839324 Ry
     estimated scf accuracy    <       0.00261455 Ry

     iteration # 19     ecut=    36.75 Ry     beta=0.30
     Davidson diagonalization with overlap
     ethr =  1.61E-06,  avg # of iterations =  5.2

     negative rho (up, down):  1.449E-02 0.000E+00
 
     Adding external electric field

     Computed dipole along edir(3) : 
        Dipole                0.2095 Ry au,          0.5324 Debye
        Dipole field          0.0006 Ry au
 
        Potential amp.       -0.0569 Ry
        Total length         44.9721 bohr
 

     total cpu time spent up to now is      310.4 secs

     total energy              =   -1770.51821349 Ry
     Harris-Foulkes estimate   =   -1770.51862024 Ry
     estimated scf accuracy    <       0.00801585 Ry

     iteration # 20     ecut=    36.75 Ry     beta=0.30
     Davidson diagonalization with overlap
     ethr =  1.61E-06,  avg # of iterations =  3.8

     negative rho (up, down):  1.419E-02 0.000E+00
 
     Adding external electric field

     Computed dipole along edir(3) : 
        Dipole                0.2077 Ry au,          0.5279 Debye
        Dipole field          0.0006 Ry au
 
        Potential amp.       -0.0564 Ry
        Total length         44.9721 bohr
 

     total cpu time spent up to now is      324.7 secs

     total energy              =   -1770.51826425 Ry
     Harris-Foulkes estimate   =   -1770.51844604 Ry
     estimated scf accuracy    <       0.00205890 Ry

     iteration # 21     ecut=    36.75 Ry     beta=0.30
     Davidson diagonalization with overlap
     ethr =  1.27E-06,  avg # of iterations =  5.3

     negative rho (up, down):  1.471E-02 0.000E+00
 
     Adding external electric field

     Computed dipole along edir(3) : 
        Dipole                0.2150 Ry au,          0.5464 Debye
        Dipole field          0.0006 Ry au
 
        Potential amp.       -0.0584 Ry
        Total length         44.9721 bohr
 

     total cpu time spent up to now is      341.3 secs

     total energy              =   -1770.51826775 Ry
     Harris-Foulkes estimate   =   -1770.51853120 Ry
     estimated scf accuracy    <       0.00430123 Ry

     iteration # 22     ecut=    36.75 Ry     beta=0.30
     Davidson diagonalization with overlap
     ethr =  1.27E-06,  avg # of iterations =  2.0

     negative rho (up, down):  1.481E-02 0.000E+00
 
     Adding external electric field

     Computed dipole along edir(3) : 
        Dipole                0.2169 Ry au,          0.5514 Debye
        Dipole field          0.0007 Ry au
 
        Potential amp.       -0.0590 Ry
        Total length         44.9721 bohr
 

     total cpu time spent up to now is      354.9 secs

     total energy              =   -1770.51833363 Ry
     Harris-Foulkes estimate   =   -1770.51836222 Ry
     estimated scf accuracy    <       0.00051103 Ry

     iteration # 23     ecut=    36.75 Ry     beta=0.30
     Davidson diagonalization with overlap
     ethr =  3.15E-07,  avg # of iterations =  5.0

     negative rho (up, down):  1.503E-02 0.000E+00
 
     Adding external electric field

     Computed dipole along edir(3) : 
        Dipole                0.2199 Ry au,          0.5589 Debye
        Dipole field          0.0007 Ry au
 
        Potential amp.       -0.0598 Ry
        Total length         44.9721 bohr
 

     total cpu time spent up to now is      372.0 secs

     total energy              =   -1770.51841859 Ry
     Harris-Foulkes estimate   =   -1770.51842108 Ry
     estimated scf accuracy    <       0.00036486 Ry

     iteration # 24     ecut=    36.75 Ry     beta=0.30
     Davidson diagonalization with overlap
     ethr =  2.25E-07,  avg # of iterations =  1.1

     negative rho (up, down):  1.534E-02 0.000E+00
 
     Adding external electric field

     Computed dipole along edir(3) : 
        Dipole                0.2224 Ry au,          0.5654 Debye
        Dipole field          0.0007 Ry au
 
        Potential amp.       -0.0605 Ry
        Total length         44.9721 bohr
 

     total cpu time spent up to now is      385.4 secs

     total energy              =   -1770.51841132 Ry
     Harris-Foulkes estimate   =   -1770.51842335 Ry
     estimated scf accuracy    <       0.00041028 Ry

     iteration # 25     ecut=    36.75 Ry     beta=0.30
     Davidson diagonalization with overlap
     ethr =  2.25E-07,  avg # of iterations =  1.0

     negative rho (up, down):  1.533E-02 0.000E+00
 
     Adding external electric field

     Computed dipole along edir(3) : 
        Dipole                0.2217 Ry au,          0.5635 Debye
        Dipole field          0.0007 Ry au
 
        Potential amp.       -0.0603 Ry
        Total length         44.9721 bohr
 

     total cpu time spent up to now is      398.5 secs

     total energy              =   -1770.51840657 Ry
     Harris-Foulkes estimate   =   -1770.51841727 Ry
     estimated scf accuracy    <       0.00025954 Ry

     iteration # 26     ecut=    36.75 Ry     beta=0.30
     Davidson diagonalization with overlap
     ethr =  1.60E-07,  avg # of iterations =  1.0

     negative rho (up, down):  1.545E-02 0.000E+00
 
     Adding external electric field

     Computed dipole along edir(3) : 
        Dipole                0.2232 Ry au,          0.5673 Debye
        Dipole field          0.0007 Ry au
 
        Potential amp.       -0.0607 Ry
        Total length         44.9721 bohr
 

     total cpu time spent up to now is      411.7 secs

     total energy              =   -1770.51840114 Ry
     Harris-Foulkes estimate   =   -1770.51840789 Ry
     estimated scf accuracy    <       0.00015293 Ry

     iteration # 27     ecut=    36.75 Ry     beta=0.30
     Davidson diagonalization with overlap
     ethr =  9.44E-08,  avg # of iterations =  2.4

     negative rho (up, down):  1.529E-02 0.000E+00
 
     Adding external electric field

     Computed dipole along edir(3) : 
        Dipole                0.2226 Ry au,          0.5657 Debye
        Dipole field          0.0007 Ry au
 
        Potential amp.       -0.0605 Ry
        Total length         44.9721 bohr
 

     total cpu time spent up to now is      425.5 secs

     total energy              =   -1770.51840548 Ry
     Harris-Foulkes estimate   =   -1770.51840673 Ry
     estimated scf accuracy    <       0.00001664 Ry

     iteration # 28     ecut=    36.75 Ry     beta=0.30
     Davidson diagonalization with overlap
     ethr =  1.03E-08,  avg # of iterations =  6.5

     negative rho (up, down):  1.550E-02 0.000E+00
 
     Adding external electric field

     Computed dipole along edir(3) : 
        Dipole                0.2235 Ry au,          0.5682 Debye
        Dipole field          0.0007 Ry au
 
        Potential amp.       -0.0608 Ry
        Total length         44.9721 bohr
 

     total cpu time spent up to now is      444.4 secs

     total energy              =   -1770.51840888 Ry
     Harris-Foulkes estimate   =   -1770.51841059 Ry
     estimated scf accuracy    <       0.00017666 Ry

     iteration # 29     ecut=    36.75 Ry     beta=0.30
     Davidson diagonalization with overlap
     ethr =  1.03E-08,  avg # of iterations =  4.8

     negative rho (up, down):  1.557E-02 0.000E+00
 
     Adding external electric field

     Computed dipole along edir(3) : 
        Dipole                0.2242 Ry au,          0.5698 Debye
        Dipole field          0.0007 Ry au
 
        Potential amp.       -0.0609 Ry
        Total length         44.9721 bohr
 

     total cpu time spent up to now is      460.9 secs

     total energy              =   -1770.51840817 Ry
     Harris-Foulkes estimate   =   -1770.51841146 Ry
     estimated scf accuracy    <       0.00008165 Ry

     iteration # 30     ecut=    36.75 Ry     beta=0.30
     Davidson diagonalization with overlap
     ethr =  1.03E-08,  avg # of iterations =  2.0

     negative rho (up, down):  1.553E-02 0.000E+00
 
     Adding external electric field

     Computed dipole along edir(3) : 
        Dipole                0.2242 Ry au,          0.5699 Debye
        Dipole field          0.0007 Ry au
 
        Potential amp.       -0.0609 Ry
        Total length         44.9721 bohr
 

     total cpu time spent up to now is      474.7 secs

     total energy              =   -1770.51840706 Ry
     Harris-Foulkes estimate   =   -1770.51840892 Ry
     estimated scf accuracy    <       0.00003049 Ry

     iteration # 31     ecut=    36.75 Ry     beta=0.30
     Davidson diagonalization with overlap
     ethr =  1.03E-08,  avg # of iterations =  4.7

     negative rho (up, down):  1.556E-02 0.000E+00

     negative rho (up, down):  1.556E-02 0.000E+00

     negative rho (up, down):  1.556E-02 0.000E+00

     negative rho (up, down):  1.556E-02 0.000E+00

     negative rho (up, down):  1.556E-02 0.000E+00

     negative rho (up, down):  1.556E-02 0.000E+00

     negative rho (up, down):  1.556E-02 0.000E+00

     negative rho (up, down):  1.556E-02 0.000E+00

     negative rho (up, down):  1.556E-02 0.000E+00

     negative rho (up, down):  1.556E-02 0.000E+00

     negative rho (up, down):  1.556E-02 0.000E+00

     negative rho (up, down):  1.556E-02 0.000E+00

     negative rho (up, down):  1.556E-02 0.000E+00

     negative rho (up, down):  1.556E-02 0.000E+00

     negative rho (up, down):  1.556E-02 0.000E+00

     negative rho (up, down):  1.556E-02 0.000E+00

     negative rho (up, down):  1.556E-02 0.000E+00

     negative rho (up, down):  1.556E-02 0.000E+00

     negative rho (up, down):  1.556E-02 0.000E+00

     negative rho (up, down):  1.556E-02 0.000E+00

     negative rho (up, down):  1.556E-02 0.000E+00

     negative rho (up, down):  1.556E-02 0.000E+00

     negative rho (up, down):  1.556E-02 0.000E+00

     negative rho (up, down):  1.556E-02 0.000E+00

     negative rho (up, down):  1.556E-02 0.000E+00

     negative rho (up, down):  1.556E-02 0.000E+00

     negative rho (up, down):  1.556E-02 0.000E+00

     negative rho (up, down):  1.556E-02 0.000E+00

     negative rho (up, down):  1.556E-02 0.000E+00

     negative rho (up, down):  1.556E-02 0.000E+00

     negative rho (up, down):  1.556E-02 0.000E+00

     negative rho (up, down):  1.556E-02 0.000E+00

     negative rho (up, down):  1.556E-02 0.000E+00

     negative rho (up, down):  1.556E-02 0.000E+00

     negative rho (up, down):  1.556E-02 0.000E+00
 
     Adding external electric field

     Computed dipole along edir(3) : 
        Dipole                0.2126 Ry au,          0.5404 Debye
        Dipole field          0.0006 Ry au
 
        Potential amp.       -0.0578 Ry
        Total length         44.9721 bohr
 

     total cpu time spent up to now is      533.7 secs

     End of self-consistent calculation

          k = 0.0000 0.0000 0.0000 ( 15569 PWs)   bands (ev):

   -62.9036 -62.8287 -62.7875 -62.7870 -62.7546 -62.7433 -62.7224 -62.7223
   -62.7165 -62.6725 -62.6715 -62.6683 -36.9918 -36.9748 -36.9747 -36.9306
   -36.9306 -36.9294 -36.9249 -36.8354 -36.8327 -36.8322 -36.6831 -36.6116
   -36.6111 -36.5953 -36.5475 -36.5469 -36.5466 -36.5027 -36.4851 -36.4850
   -36.4202 -36.4148 -36.4147 -36.4067 -36.3993 -36.3992 -36.3610 -36.3296
   -36.3296 -36.3265 -36.3219 -36.3215 -36.2772 -36.2772 -36.1992 -36.1992
   -13.5972  -5.4672  -4.4458  -2.8514  -2.0397  -2.0397  -1.9285  -1.6307
    -1.6307  -1.5376  -1.2776  -1.1501  -1.1501  -0.8723  -0.8616  -0.8615
    -0.6496  -0.6263  -0.6262   0.1529   0.1530   0.2035   0.8873   1.0734
     1.0734   1.1958   1.2741   1.5132   1.5625   1.5625   1.6862   1.7010
     1.7011   1.7578   1.7580   1.8161   1.8454   1.8454   1.9758   1.9758
     2.1365   2.4224   2.4225

          k = 0.0000 0.0356 0.0000 ( 15635 PWs)   bands (ev):

   -62.8956 -62.8219 -62.7931 -62.7875 -62.7513 -62.7441 -62.7277 -62.7224
   -62.7177 -62.6764 -62.6720 -62.6691 -36.9666 -36.9524 -36.9402 -36.9119
   -36.9099 -36.9090 -36.8991 -36.8140 -36.8115 -36.7982 -36.6819 -36.6327
   -36.6226 -36.6088 -36.5445 -36.5436 -36.5391 -36.5145 -36.5001 -36.4790
   -36.4496 -36.4446 -36.4060 -36.3992 -36.3933 -36.3913 -36.3850 -36.3553
   -36.3450 -36.3416 -36.3402 -36.3151 -36.3082 -36.2858 -36.2366 -36.2076
   -13.5939  -5.4004  -4.2655  -2.6992  -2.0574  -1.9761  -1.7443  -1.6139
    -1.5091  -1.4572  -1.2158  -1.0561  -1.0483  -0.7880  -0.7527  -0.7489
    -0.5945  -0.5264  -0.4920   0.1720   0.1909   0.2202   0.8249   1.0940
     1.1077   1.1677   1.2676   1.3349   1.4125   1.4896   1.5131   1.5962
     1.6758   1.7167   1.7742   1.7837   1.8250   1.8855   1.8869   1.9499
     2.0021   2.2327   2.2820

          k = 0.0000 0.0713 0.0000 ( 15669 PWs)   bands (ev):

   -62.8739 -62.8132 -62.8023 -62.7876 -62.7568 -62.7422 -62.7311 -62.7225
   -62.7183 -62.6906 -62.6720 -62.6693 -36.9099 -36.8962 -36.8760 -36.8676
   -36.8610 -36.8391 -36.8314 -36.7649 -36.7619 -36.7178 -36.6844 -36.6574
   -36.6482 -36.6383 -36.5584 -36.5497 -36.5299 -36.5278 -36.5206 -36.4937
   -36.4928 -36.4828 -36.4519 -36.4287 -36.4233 -36.4193 -36.3817 -36.3778
   -36.3715 -36.3705 -36.3669 -36.3654 -36.3136 -36.3097 -36.2924 -36.2304
   -13.5875  -5.2760  -3.7346  -2.4452  -2.1089  -1.8438  -1.7312  -1.2899
    -1.2366  -1.2055  -1.0392  -0.8734  -0.7998  -0.6074  -0.4565  -0.4426
    -0.3413  -0.2078  -0.1588   0.1979   0.2901   0.3349   0.5513   0.7950
     0.8996   0.9582   0.9773   1.0721   1.2738   1.3011   1.3371   1.3718
     1.4379   1.4551   1.4975   1.6228   1.7089   1.7740   1.8151   1.9351
     1.9766   2.0484   2.0656

          k = 0.0000-0.1069 0.0000 ( 15660 PWs)   bands (ev):

   -62.8504 -62.8354 -62.7876 -62.7787 -62.7766 -62.7473 -62.7225 -62.7190
   -62.7116 -62.7097 -62.6719 -62.6693 -36.8664 -36.8546 -36.8479 -36.8351
   -36.8315 -36.8268 -36.7370 -36.7293 -36.7289 -36.7205 -36.6895 -36.6746
   -36.6345 -36.6195 -36.5813 -36.5567 -36.5450 -36.5395 -36.5389 -36.5268
   -36.4880 -36.4876 -36.4823 -36.4767 -36.4687 -36.4653 -36.4203 -36.4040
   -36.3753 -36.3707 -36.3491 -36.3483 -36.3465 -36.3369 -36.2623 -36.2606
   -13.5843  -5.2180  -3.0527  -2.8683  -2.1404  -1.7755  -1.5334  -1.2765
    -0.9639  -0.9212  -0.8506  -0.8190  -0.6378  -0.5623  -0.1605  -0.1580
    -0.0498  -0.0342   0.0441   0.1140   0.4328   0.4447   0.4981   0.5257
     0.6013   0.6724   0.8215   0.9253   1.0114   1.0294   1.0917   1.1830
     1.2342   1.2394   1.3259   1.4625   1.5674   1.6109   1.6348   1.7389
     1.7590   2.1308   2.1365

          k = 0.0309-0.0178 0.0000 ( 15635 PWs)   bands (ev):

   -62.8956 -62.8218 -62.7935 -62.7871 -62.7513 -62.7441 -62.7277 -62.7224
   -62.7177 -62.6766 -62.6715 -62.6694 -36.9666 -36.9524 -36.9402 -36.9120
   -36.9100 -36.9089 -36.8991 -36.8137 -36.8118 -36.7982 -36.6819 -36.6330
   -36.6222 -36.6089 -36.5442 -36.5439 -36.5392 -36.5144 -36.5003 -36.4789
   -36.4495 -36.4448 -36.4059 -36.3993 -36.3932 -36.3913 -36.3850 -36.3553
   -36.3448 -36.3419 -36.3403 -36.3151 -36.3082 -36.2858 -36.2366 -36.2076
   -13.5939  -5.4004  -4.2655  -2.6992  -2.0574  -1.9761  -1.7443  -1.6138
    -1.5092  -1.4571  -1.2158  -1.0561  -1.0483  -0.7880  -0.7527  -0.7489
    -0.5945  -0.5265  -0.4920   0.1720   0.1908   0.2203   0.8249   1.0940
     1.1076   1.1677   1.2675   1.3349   1.4124   1.4895   1.5133   1.5962
     1.6758   1.7167   1.7743   1.7837   1.8250   1.8855   1.8868   1.9498
     2.0021   2.2328   2.2820

          k = 0.0309 0.0178 0.0000 ( 15635 PWs)   bands (ev):

   -62.8956 -62.8219 -62.7933 -62.7873 -62.7513 -62.7441 -62.7277 -62.7224
   -62.7177 -62.6763 -62.6723 -62.6689 -36.9666 -36.9524 -36.9402 -36.9119
   -36.9099 -36.9089 -36.8991 -36.8141 -36.8113 -36.7982 -36.6819 -36.6328
   -36.6225 -36.6088 -36.5446 -36.5436 -36.5391 -36.5145 -36.5001 -36.4790
   -36.4496 -36.4446 -36.4060 -36.3992 -36.3932 -36.3914 -36.3850 -36.3553
   -36.3451 -36.3415 -36.3402 -36.3151 -36.3082 -36.2858 -36.2366 -36.2076
   -13.5939  -5.4004  -4.2655  -2.6992  -2.0574  -1.9761  -1.7443  -1.6138
    -1.5091  -1.4572  -1.2158  -1.0562  -1.0483  -0.7881  -0.7527  -0.7489
    -0.5946  -0.5264  -0.4920   0.1720   0.1909   0.2202   0.8249   1.0940
     1.1077   1.1677   1.2676   1.3349   1.4124   1.4896   1.5131   1.5962
     1.6759   1.7167   1.7743   1.7837   1.8249   1.8855   1.8869   1.9499
     2.0022   2.2327   2.2820

          k = 0.0309 0.0535 0.0000 ( 15620 PWs)   bands (ev):

   -62.8807 -62.8095 -62.8030 -62.7908 -62.7524 -62.7373 -62.7353 -62.7287
   -62.7145 -62.6811 -62.6802 -62.6659 -36.9311 -36.8997 -36.8853 -36.8844
   -36.8758 -36.8622 -36.8556 -36.7857 -36.7552 -36.7515 -36.6827 -36.6527
   -36.6476 -36.6327 -36.5735 -36.5339 -36.5314 -36.5256 -36.5085 -36.4911
   -36.4818 -36.4505 -36.4307 -36.4279 -36.4171 -36.4041 -36.3850 -36.3818
   -36.3750 -36.3634 -36.3486 -36.3262 -36.3240 -36.3092 -36.2874 -36.2265
   -13.5891  -5.3063  -3.9063  -2.4631  -2.0112  -1.9309  -1.6311  -1.5425
    -1.3532  -1.2264  -1.1638  -0.9259  -0.7786  -0.6067  -0.6036  -0.5237
    -0.4012  -0.3380  -0.2645   0.1675   0.2599   0.3130   0.6694   0.9299
     0.9722   1.0327   1.0755   1.0925   1.2390   1.3471   1.3901   1.4489
     1.5060   1.5440   1.6383   1.6843   1.7897   1.8281   1.8669   1.9664
     2.0142   2.0319   2.0680

          k = 0.0309-0.1248 0.0000 ( 15642 PWs)   bands (ev):

   -62.8557 -62.8237 -62.7981 -62.7852 -62.7622 -62.7473 -62.7339 -62.7182
   -62.7113 -62.6979 -62.6832 -62.6634 -36.8720 -36.8485 -36.8390 -36.8286
   -36.8204 -36.8135 -36.7771 -36.7403 -36.7205 -36.7031 -36.6941 -36.6819
   -36.6538 -36.6307 -36.6047 -36.5700 -36.5598 -36.5268 -36.5199 -36.5143
   -36.4994 -36.4919 -36.4794 -36.4526 -36.4457 -36.4439 -36.3988 -36.3952
   -36.3944 -36.3835 -36.3560 -36.3434 -36.3392 -36.3306 -36.2947 -36.2591
   -13.5843  -5.2194  -3.2396  -2.4785  -2.0856  -1.8984  -1.5929  -1.4369
    -1.1328  -0.9493  -0.8168  -0.6683  -0.5014  -0.4296  -0.2347  -0.1905
    -0.1563  -0.0635   0.0512   0.2489   0.3173   0.3750   0.5040   0.5381
     0.6019   0.6944   0.7427   0.8425   0.9901   1.0434   1.0853   1.1518
     1.2094   1.2820   1.2993   1.4280   1.5845   1.6343   1.7064   1.8023
     1.9057   2.0913   2.1145

          k = 0.0309-0.0891 0.0000 ( 15642 PWs)   bands (ev):

   -62.8557 -62.8238 -62.7980 -62.7852 -62.7622 -62.7473 -62.7339 -62.7182
   -62.7113 -62.6979 -62.6831 -62.6635 -36.8721 -36.8483 -36.8390 -36.8287
   -36.8204 -36.8135 -36.7771 -36.7403 -36.7206 -36.7031 -36.6939 -36.6818
   -36.6539 -36.6309 -36.6047 -36.5699 -36.5598 -36.5268 -36.5197 -36.5144
   -36.4994 -36.4919 -36.4794 -36.4525 -36.4458 -36.4438 -36.3988 -36.3952
   -36.3945 -36.3835 -36.3560 -36.3431 -36.3395 -36.3306 -36.2947 -36.2591
   -13.5843  -5.2194  -3.2396  -2.4785  -2.0856  -1.8984  -1.5929  -1.4368
    -1.1328  -0.9493  -0.8168  -0.6683  -0.5014  -0.4296  -0.2347  -0.1905
    -0.1563  -0.0635   0.0512   0.2489   0.3172   0.3750   0.5039   0.5382
     0.6019   0.6944   0.7426   0.8426   0.9900   1.0434   1.0854   1.1518
     1.2094   1.2820   1.2992   1.4280   1.5845   1.6344   1.7064   1.8023
     1.9057   2.0913   2.1145

          k = 0.0309-0.0535 0.0000 ( 15620 PWs)   bands (ev):

   -62.8807 -62.8094 -62.8032 -62.7906 -62.7524 -62.7371 -62.7354 -62.7288
   -62.7145 -62.6819 -62.6793 -62.6660 -36.9311 -36.8996 -36.8854 -36.8845
   -36.8758 -36.8622 -36.8555 -36.7857 -36.7554 -36.7513 -36.6827 -36.6530
   -36.6473 -36.6327 -36.5736 -36.5336 -36.5315 -36.5258 -36.5084 -36.4911
   -36.4818 -36.4504 -36.4308 -36.4278 -36.4171 -36.4041 -36.3851 -36.3817
   -36.3749 -36.3635 -36.3487 -36.3265 -36.3238 -36.3092 -36.2874 -36.2265
   -13.5891  -5.3063  -3.9063  -2.4631  -2.0112  -1.9309  -1.6311  -1.5424
    -1.3532  -1.2265  -1.1638  -0.9259  -0.7786  -0.6068  -0.6036  -0.5237
    -0.4012  -0.3380  -0.2645   0.1675   0.2598   0.3131   0.6694   0.9300
     0.9721   1.0327   1.0755   1.0925   1.2390   1.3471   1.3901   1.4488
     1.5060   1.5441   1.6383   1.6843   1.7897   1.8281   1.8669   1.9665
     2.0142   2.0319   2.0679

          k = 0.0617-0.0356 0.0000 ( 15669 PWs)   bands (ev):

   -62.8738 -62.8133 -62.8024 -62.7872 -62.7569 -62.7421 -62.7312 -62.7224
   -62.7184 -62.6907 -62.6714 -62.6698 -36.9098 -36.8962 -36.8759 -36.8676
   -36.8612 -36.8391 -36.8314 -36.7646 -36.7622 -36.7178 -36.6844 -36.6572
   -36.6484 -36.6383 -36.5582 -36.5500 -36.5295 -36.5280 -36.5209 -36.4935
   -36.4930 -36.4827 -36.4518 -36.4288 -36.4232 -36.4194 -36.3815 -36.3776
   -36.3717 -36.3704 -36.3669 -36.3655 -36.3136 -36.3097 -36.2923 -36.2304
   -13.5875  -5.2760  -3.7346  -2.4452  -2.1089  -1.8438  -1.7312  -1.2899
    -1.2365  -1.2055  -1.0392  -0.8734  -0.7998  -0.6074  -0.4565  -0.4426
    -0.3412  -0.2079  -0.1587   0.1980   0.2900   0.3350   0.5513   0.7949
     0.8996   0.9583   0.9773   1.0721   1.2738   1.3011   1.3370   1.3718
     1.4380   1.4550   1.4976   1.6229   1.7088   1.7740   1.8150   1.9350
     1.9766   2.0484   2.0655

          k = 0.0617 0.0000 0.0000 ( 15620 PWs)   bands (ev):

   -62.8807 -62.8094 -62.8034 -62.7905 -62.7525 -62.7371 -62.7354 -62.7287
   -62.7145 -62.6816 -62.6796 -62.6660 -36.9311 -36.8996 -36.8854 -36.8845
   -36.8758 -36.8622 -36.8555 -36.7857 -36.7554 -36.7514 -36.6827 -36.6530
   -36.6472 -36.6327 -36.5736 -36.5338 -36.5314 -36.5258 -36.5085 -36.4911
   -36.4817 -36.4505 -36.4308 -36.4279 -36.4170 -36.4041 -36.3850 -36.3818
   -36.3749 -36.3635 -36.3487 -36.3264 -36.3239 -36.3092 -36.2874 -36.2265
   -13.5891  -5.3063  -3.9063  -2.4631  -2.0113  -1.9309  -1.6311  -1.5424
    -1.3532  -1.2265  -1.1638  -0.9259  -0.7786  -0.6068  -0.6036  -0.5237
    -0.4012  -0.3380  -0.2645   0.1675   0.2599   0.3130   0.6694   0.9300
     0.9721   1.0327   1.0755   1.0925   1.2390   1.3471   1.3901   1.4488
     1.5060   1.5440   1.6383   1.6843   1.7897   1.8282   1.8669   1.9664
     2.0142   2.0319   2.0679

          k = 0.0617 0.0356 0.0000 ( 15669 PWs)   bands (ev):

   -62.8739 -62.8132 -62.8023 -62.7874 -62.7568 -62.7422 -62.7311 -62.7224
   -62.7184 -62.6905 -62.6723 -62.6690 -36.9098 -36.8962 -36.8760 -36.8675
   -36.8611 -36.8391 -36.8314 -36.7651 -36.7617 -36.7178 -36.6844 -36.6573
   -36.6482 -36.6383 -36.5583 -36.5498 -36.5300 -36.5278 -36.5205 -36.4937
   -36.4928 -36.4828 -36.4519 -36.4287 -36.4234 -36.4193 -36.3816 -36.3779
   -36.3713 -36.3706 -36.3670 -36.3654 -36.3136 -36.3096 -36.2924 -36.2303
   -13.5875  -5.2760  -3.7346  -2.4453  -2.1089  -1.8438  -1.7312  -1.2899
    -1.2366  -1.2055  -1.0392  -0.8734  -0.7998  -0.6074  -0.4565  -0.4425
    -0.3413  -0.2077  -0.1588   0.1979   0.2901   0.3349   0.5513   0.7950
     0.8996   0.9582   0.9773   1.0721   1.2738   1.3011   1.3371   1.3717
     1.4379   1.4552   1.4974   1.6228   1.7089   1.7740   1.8152   1.9351
     1.9766   2.0483   2.0656

          k = 0.0617-0.1426 0.0000 ( 15642 PWs)   bands (ev):

   -62.8557 -62.8238 -62.7980 -62.7851 -62.7623 -62.7473 -62.7339 -62.7182
   -62.7113 -62.6978 -62.6833 -62.6634 -36.8720 -36.8485 -36.8389 -36.8286
   -36.8204 -36.8135 -36.7771 -36.7403 -36.7206 -36.7030 -36.6941 -36.6819
   -36.6539 -36.6307 -36.6047 -36.5700 -36.5598 -36.5268 -36.5199 -36.5143
   -36.4994 -36.4919 -36.4794 -36.4526 -36.4457 -36.4439 -36.3988 -36.3951
   -36.3944 -36.3835 -36.3560 -36.3433 -36.3393 -36.3306 -36.2947 -36.2591
   -13.5843  -5.2194  -3.2396  -2.4785  -2.0855  -1.8984  -1.5929  -1.4369
    -1.1328  -0.9493  -0.8168  -0.6683  -0.5014  -0.4296  -0.2347  -0.1905
    -0.1563  -0.0635   0.0512   0.2489   0.3173   0.3750   0.5039   0.5381
     0.6019   0.6944   0.7426   0.8425   0.9901   1.0434   1.0853   1.1518
     1.2094   1.2820   1.2993   1.4280   1.5844   1.6343   1.7064   1.8023
     1.9057   2.0913   2.1145

          k = 0.0617-0.1069 0.0000 ( 15672 PWs)   bands (ev):

   -62.8353 -62.8341 -62.8099 -62.7662 -62.7631 -62.7630 -62.7381 -62.7080
   -62.7019 -62.7009 -62.6990 -62.6609 -36.8234 -36.8160 -36.8125 -36.8017
   -36.7990 -36.7916 -36.7582 -36.7446 -36.7422 -36.6963 -36.6763 -36.6732
   -36.6581 -36.6510 -36.6218 -36.5782 -36.5745 -36.5741 -36.5276 -36.5195
   -36.5126 -36.5087 -36.4823 -36.4496 -36.4420 -36.4409 -36.4091 -36.3903
   -36.3889 -36.3760 -36.3638 -36.3620 -36.3556 -36.3052 -36.3038 -36.3034
   -13.5827  -5.1930  -2.6368  -2.5108  -2.3779  -1.8998  -1.8354  -1.1682
    -1.1349  -0.9236  -0.4320  -0.4024  -0.3099  -0.2448  -0.2441  -0.1620
     0.1477   0.1495   0.1603   0.1700   0.1756   0.2831   0.3005   0.3400
     0.4649   0.6064   0.6739   0.7672   0.7969   0.8447   0.8683   0.8713
     1.0253   1.1512   1.2124   1.2713   1.5446   1.6781   1.7862   1.7879
     2.0158   2.0762   2.1361

          k = 0.0617-0.0713 0.0000 ( 15642 PWs)   bands (ev):

   -62.8556 -62.8240 -62.7978 -62.7852 -62.7623 -62.7472 -62.7340 -62.7182
   -62.7113 -62.6980 -62.6831 -62.6635 -36.8720 -36.8483 -36.8389 -36.8288
   -36.8205 -36.8135 -36.7771 -36.7403 -36.7205 -36.7032 -36.6940 -36.6819
   -36.6539 -36.6308 -36.6047 -36.5700 -36.5598 -36.5268 -36.5200 -36.5143
   -36.4994 -36.4919 -36.4794 -36.4525 -36.4457 -36.4438 -36.3988 -36.3953
   -36.3944 -36.3835 -36.3560 -36.3433 -36.3393 -36.3306 -36.2947 -36.2591
   -13.5843  -5.2194  -3.2396  -2.4785  -2.0856  -1.8984  -1.5929  -1.4368
    -1.1328  -0.9494  -0.8168  -0.6683  -0.5014  -0.4296  -0.2347  -0.1905
    -0.1563  -0.0635   0.0512   0.2490   0.3173   0.3750   0.5039   0.5382
     0.6019   0.6944   0.7426   0.8426   0.9900   1.0434   1.0854   1.1518
     1.2094   1.2820   1.2992   1.4280   1.5845   1.6344   1.7064   1.8023
     1.9058   2.0912   2.1145

          k =-0.0926 0.0535 0.0000 ( 15660 PWs)   bands (ev):

   -62.8500 -62.8359 -62.7872 -62.7789 -62.7766 -62.7473 -62.7224 -62.7191
   -62.7113 -62.7100 -62.6714 -62.6698 -36.8661 -36.8546 -36.8481 -36.8349
   -36.8318 -36.8268 -36.7368 -36.7297 -36.7286 -36.7206 -36.6895 -36.6747
   -36.6346 -36.6197 -36.5809 -36.5567 -36.5448 -36.5399 -36.5386 -36.5271
   -36.4879 -36.4875 -36.4822 -36.4767 -36.4682 -36.4658 -36.4199 -36.4043
   -36.3751 -36.3710 -36.3490 -36.3481 -36.3466 -36.3371 -36.2619 -36.2610
   -13.5843  -5.2180  -3.0528  -2.8682  -2.1404  -1.7754  -1.5334  -1.2765
    -0.9640  -0.9211  -0.8507  -0.8191  -0.6378  -0.5623  -0.1605  -0.1580
    -0.0497  -0.0344   0.0440   0.1142   0.4328   0.4447   0.4979   0.5259
     0.6013   0.6724   0.8214   0.9254   1.0114   1.0293   1.0918   1.1830
     1.2344   1.2393   1.3259   1.4625   1.5675   1.6109   1.6348   1.7390
     1.7590   2.1306   2.1366

          k =-0.0926 0.0891 0.0000 ( 15642 PWs)   bands (ev):

   -62.8556 -62.8241 -62.7977 -62.7852 -62.7622 -62.7472 -62.7340 -62.7182
   -62.7113 -62.6980 -62.6831 -62.6635 -36.8720 -36.8483 -36.8389 -36.8288
   -36.8205 -36.8135 -36.7771 -36.7403 -36.7205 -36.7033 -36.6940 -36.6819
   -36.6539 -36.6308 -36.6047 -36.5699 -36.5598 -36.5268 -36.5200 -36.5142
   -36.4994 -36.4919 -36.4794 -36.4525 -36.4458 -36.4438 -36.3988 -36.3953
   -36.3944 -36.3835 -36.3560 -36.3434 -36.3392 -36.3306 -36.2947 -36.2591
   -13.5843  -5.2194  -3.2396  -2.4785  -2.0856  -1.8984  -1.5929  -1.4368
    -1.1328  -0.9494  -0.8168  -0.6683  -0.5014  -0.4296  -0.2347  -0.1905
    -0.1563  -0.0635   0.0512   0.2489   0.3173   0.3750   0.5039   0.5381
     0.6019   0.6944   0.7426   0.8426   0.9900   1.0434   1.0854   1.1518
     1.2094   1.2820   1.2993   1.4279   1.5845   1.6345   1.7064   1.8023
     1.9058   2.0912   2.1145

          k =-0.0926 0.1248 0.0000 ( 15642 PWs)   bands (ev):

   -62.8556 -62.8239 -62.7978 -62.7853 -62.7622 -62.7473 -62.7339 -62.7182
   -62.7113 -62.6979 -62.6832 -62.6634 -36.8721 -36.8483 -36.8390 -36.8287
   -36.8204 -36.8135 -36.7771 -36.7403 -36.7206 -36.7031 -36.6939 -36.6818
   -36.6539 -36.6309 -36.6047 -36.5698 -36.5598 -36.5268 -36.5197 -36.5144
   -36.4994 -36.4919 -36.4794 -36.4525 -36.4458 -36.4438 -36.3988 -36.3951
   -36.3945 -36.3835 -36.3560 -36.3431 -36.3395 -36.3306 -36.2947 -36.2591
   -13.5843  -5.2194  -3.2396  -2.4785  -2.0855  -1.8984  -1.5929  -1.4368
    -1.1328  -0.9494  -0.8168  -0.6683  -0.5014  -0.4296  -0.2347  -0.1905
    -0.1563  -0.0635   0.0512   0.2489   0.3172   0.3750   0.5039   0.5382
     0.6019   0.6944   0.7426   0.8426   0.9901   1.0434   1.0853   1.1518
     1.2094   1.2820   1.2993   1.4280   1.5844   1.6344   1.7064   1.8023
     1.9057   2.0913   2.1145

          k =-0.0926-0.0535 0.0000 ( 15660 PWs)   bands (ev):

   -62.8502 -62.8356 -62.7875 -62.7789 -62.7766 -62.7473 -62.7224 -62.7190
   -62.7119 -62.7095 -62.6723 -62.6690 -36.8663 -36.8547 -36.8479 -36.8351
   -36.8316 -36.8268 -36.7371 -36.7292 -36.7289 -36.7206 -36.6894 -36.6746
   -36.6346 -36.6196 -36.5812 -36.5567 -36.5451 -36.5393 -36.5389 -36.5268
   -36.4881 -36.4876 -36.4823 -36.4767 -36.4689 -36.4650 -36.4201 -36.4041
   -36.3753 -36.3707 -36.3492 -36.3483 -36.3465 -36.3369 -36.2626 -36.2604
   -13.5843  -5.2180  -3.0527  -2.8683  -2.1404  -1.7754  -1.5335  -1.2764
    -0.9639  -0.9213  -0.8506  -0.8190  -0.6379  -0.5623  -0.1604  -0.1581
    -0.0498  -0.0342   0.0441   0.1140   0.4328   0.4447   0.4982   0.5257
     0.6012   0.6725   0.8215   0.9252   1.0114   1.0295   1.0918   1.1830
     1.2342   1.2395   1.3259   1.4625   1.5673   1.6109   1.6348   1.7389
     1.7590   2.1309   2.1364

     the Fermi energy is     1.4352 ev

!    total energy              =   -1770.51840212 Ry
     Harris-Foulkes estimate   =   -1770.51842453 Ry
     estimated scf accuracy    <       0.00000737 Ry

     The total energy is the sum of the following terms:

     one-electron contribution =  -15379.47301489 Ry
     hartree contribution      =    7681.14962032 Ry
     xc contribution           =    -250.51666874 Ry
     ewald contribution        =    6178.46518364 Ry
     electric field correction =       0.00013662 Ry
     smearing contrib. (-TS)   =      -0.14365907 Ry

     convergence has been achieved in  31 iterations
 
 BEEF-vdW xc energy contributions
           1 :   -215.784066851732     
           2 :    193.559072665079     
           3 :   -156.875852139091     
           4 :    117.277520899606     
           5 :   -84.7916470396282     
           6 :    64.1714696862777     
           7 :   -54.2666202303625     
           8 :    50.2536368065608     
           9 :   -47.0502333792159     
          10 :    41.9128726454051     
          11 :   -35.0726515207071     
          12 :    28.5489623875590     
          13 :   -24.2571984341077     
          14 :    22.6635507776428     
          15 :   -22.6683228413998     
          16 :    22.5411342261156     
          17 :   -21.1342997476563     
          18 :    18.5364274666981     
          19 :   -15.8125484394021     
          20 :    14.1200822850605     
          21 :   -13.8738889783509     
          22 :    14.5187894940850     
          23 :   -14.9984803214622     
          24 :    14.5215474797107     
          25 :   -13.0701044426530     
          26 :    11.3290331542407     
          27 :   -10.1450581606576     
          28 :    9.92916126356781     
          29 :   -10.4138412899128     
          30 :    10.8968571263328     
          31 :   -22.4551995635630     
          32 :   -16.1798222005958     

     Forces acting on atoms (Ry/au):


     negative rho (up, down):  1.556E-02 0.000E+00
     atom    1 type  1   force =    -0.00008090   -0.00004888   -0.00002208
     atom    2 type  1   force =     0.00007680   -0.00004416   -0.00006896
     atom    3 type  1   force =     0.00000479    0.00009590   -0.00003855
     atom    4 type  1   force =    -0.00000868    0.00000356   -0.00176091
     atom    5 type  1   force =    -0.00002556   -0.00130124   -0.00387425
     atom    6 type  1   force =     0.00002607    0.00000743    0.00066437
     atom    7 type  1   force =     0.00113238    0.00066448   -0.00391614
     atom    8 type  1   force =    -0.00113006    0.00063635   -0.00386324
     atom    9 type  1   force =    -0.00000198    0.00000045   -0.02564206
     atom   10 type  1   force =     0.00000212    0.00806540    0.05534461
     atom   11 type  1   force =     0.00698951   -0.00403826    0.05538825
     atom   12 type  1   force =    -0.00698840   -0.00403349    0.05536138
     atom   13 type  2   force =     0.00000495   -0.00000986   -0.07988050
     atom   14 type  3   force =    -0.00000103    0.00000231   -0.04769193

     Total force =     0.136763     Total SCF correction =     0.005047


     entering subroutine stress ...


     negative rho (up, down):  1.556E-02 0.000E+00
          total   stress  (Ry/bohr**3)                   (kbar)     P=  -24.22
  -0.00019635  -0.00000000  -0.00000003        -28.88     -0.00     -0.00
  -0.00000000  -0.00019631   0.00000005         -0.00    -28.88      0.01
  -0.00000003   0.00000005  -0.00010121         -0.00      0.01    -14.89


     BFGS Geometry Optimization

     number of scf cycles    =   1
     number of bfgs steps    =   0

     energy   new            =   -1770.5184021205 Ry

     new trust radius        =       0.0798804997 bohr
     new conv_thr            =       0.0000099958 Ry


ATOMIC_POSITIONS (crystal)
V1       0.166666667   0.166666667   0.409694847    0   0   0
V1       0.666666667   0.166666667   0.409694847    0   0   0
V1       0.166666667   0.666666667   0.409694847    0   0   0
V1       0.666666667   0.666666667   0.409694847    0   0   0
V1       0.833333333   0.333333333   0.500000000    0   0   0
V1       0.333333333   0.333333333   0.500000000    0   0   0
V1       0.833333333   0.833333333   0.500000000    0   0   0
V1       0.333333333   0.833333333   0.500000000    0   0   0
V1      -0.000000220   0.000000051   0.589749231
V1       0.499543815   0.000912786   0.591505031
V1       0.000913558   0.499542978   0.591505977
V1       0.499543303   0.499543518   0.591505395
N1       0.333334376   0.333332218   0.648224905
H1       0.333333101   0.333333595   0.691940715



     Writing output data file calc.save
     Check: negative starting charge=   -0.011565
     NEW-OLD atomic charge density approx. for the potential

     Check: negative/imaginary core charge=   -0.000001    0.000000
     Check: negative starting charge=   -0.011513

     negative rho (up, down):  1.574E-02 0.000E+00
 
     Adding external electric field

     Computed dipole along edir(3) : 
        Dipole                0.2128 Ry au,          0.5409 Debye
        Dipole field          0.0006 Ry au
 
        Potential amp.       -0.0578 Ry
        Total length         44.9721 bohr
 

     total cpu time spent up to now is      586.9 secs

     per-process dynamical memory:   107.5 Mb

     Self-consistent Calculation

     iteration #  1     ecut=    36.75 Ry     beta=0.30
     Davidson diagonalization with overlap
     ethr =  1.00E-06,  avg # of iterations = 14.2

     negative rho (up, down):  1.574E-02 0.000E+00
 
     Adding external electric field

     Computed dipole along edir(3) : 
        Dipole                0.6682 Ry au,          1.6983 Debye
        Dipole field          0.0020 Ry au
 
        Potential amp.       -0.1816 Ry
        Total length         44.9721 bohr
 

     total cpu time spent up to now is      616.0 secs

     total energy              =   -1770.51544954 Ry
     Harris-Foulkes estimate   =   -1770.53476186 Ry
     estimated scf accuracy    <       0.04199774 Ry

     iteration #  2     ecut=    36.75 Ry     beta=0.30
     Davidson diagonalization with overlap
     ethr =  2.59E-05,  avg # of iterations =  6.7

     negative rho (up, down):  1.577E-02 0.000E+00
 
     Adding external electric field

     Computed dipole along edir(3) : 
        Dipole                0.2224 Ry au,          0.5654 Debye
        Dipole field          0.0007 Ry au
 
        Potential amp.       -0.0605 Ry
        Total length         44.9721 bohr
 

     total cpu time spent up to now is      636.4 secs

     total energy              =   -1770.19098014 Ry
     Harris-Foulkes estimate   =   -1770.91325059 Ry
     estimated scf accuracy    <      48.37321915 Ry

     iteration #  3     ecut=    36.75 Ry     beta=0.30
     Davidson diagonalization with overlap
     ethr =  2.59E-05,  avg # of iterations =  7.2

     negative rho (up, down):  1.576E-02 0.000E+00
 
     Adding external electric field

     Computed dipole along edir(3) : 
        Dipole                0.2551 Ry au,          0.6484 Debye
        Dipole field          0.0008 Ry au
 
        Potential amp.       -0.0693 Ry
        Total length         44.9721 bohr
 

     total cpu time spent up to now is      658.2 secs

     total energy              =   -1770.51730469 Ry
     Harris-Foulkes estimate   =   -1770.55151392 Ry
     estimated scf accuracy    <       0.77925725 Ry

     iteration #  4     ecut=    36.75 Ry     beta=0.30
     Davidson diagonalization with overlap
     ethr =  2.59E-05,  avg # of iterations =  5.5

     negative rho (up, down):  1.578E-02 0.000E+00
 
     Adding external electric field

     Computed dipole along edir(3) : 
        Dipole                0.2522 Ry au,          0.6410 Debye
        Dipole field          0.0008 Ry au
 
        Potential amp.       -0.0685 Ry
        Total length         44.9721 bohr
 

     total cpu time spent up to now is      676.7 secs

     total energy              =   -1770.53375092 Ry
     Harris-Foulkes estimate   =   -1770.53516838 Ry
     estimated scf accuracy    <       0.01471182 Ry

     iteration #  5     ecut=    36.75 Ry     beta=0.30
     Davidson diagonalization with overlap
     ethr =  9.08E-06,  avg # of iterations =  2.0

     negative rho (up, down):  1.577E-02 0.000E+00
 
     Adding external electric field

     Computed dipole along edir(3) : 
        Dipole                0.2482 Ry au,          0.6309 Debye
        Dipole field          0.0008 Ry au
 
        Potential amp.       -0.0675 Ry
        Total length         44.9721 bohr
 

     total cpu time spent up to now is      691.0 secs

     total energy              =   -1770.53443494 Ry
     Harris-Foulkes estimate   =   -1770.53454415 Ry
     estimated scf accuracy    <       0.00077548 Ry

     iteration #  6     ecut=    36.75 Ry     beta=0.30
     Davidson diagonalization with overlap
     ethr =  4.79E-07,  avg # of iterations =  6.0

     negative rho (up, down):  1.578E-02 0.000E+00
 
     Adding external electric field

     Computed dipole along edir(3) : 
        Dipole                0.2502 Ry au,          0.6359 Debye
        Dipole field          0.0008 Ry au
 
        Potential amp.       -0.0680 Ry
        Total length         44.9721 bohr
 

     total cpu time spent up to now is      711.2 secs

     total energy              =   -1770.53463384 Ry
     Harris-Foulkes estimate   =   -1770.53493454 Ry
     estimated scf accuracy    <       0.00633683 Ry

     iteration #  7     ecut=    36.75 Ry     beta=0.30
     Davidson diagonalization with overlap
     ethr =  4.79E-07,  avg # of iterations =  4.8

     negative rho (up, down):  1.578E-02 0.000E+00
 
     Adding external electric field

     Computed dipole along edir(3) : 
        Dipole                0.2546 Ry au,          0.6470 Debye
        Dipole field          0.0008 Ry au
 
        Potential amp.       -0.0692 Ry
        Total length         44.9721 bohr
 

     total cpu time spent up to now is      728.6 secs

     total energy              =   -1770.53451550 Ry
     Harris-Foulkes estimate   =   -1770.53480001 Ry
     estimated scf accuracy    <       0.00312852 Ry

     iteration #  8     ecut=    36.75 Ry     beta=0.30
     Davidson diagonalization with overlap
     ethr =  4.79E-07,  avg # of iterations =  5.3

     negative rho (up, down):  1.579E-02 0.000E+00
 
     Adding external electric field

     Computed dipole along edir(3) : 
        Dipole                0.2536 Ry au,          0.6447 Debye
        Dipole field          0.0008 Ry au
 
        Potential amp.       -0.0689 Ry
        Total length         44.9721 bohr
 

     total cpu time spent up to now is      747.0 secs

     total energy              =   -1770.53469198 Ry
     Harris-Foulkes estimate   =   -1770.53473852 Ry
     estimated scf accuracy    <       0.00086296 Ry

     iteration #  9     ecut=    36.75 Ry     beta=0.30
     Davidson diagonalization with overlap
     ethr =  4.79E-07,  avg # of iterations =  1.0

     negative rho (up, down):  1.579E-02 0.000E+00
 
     Adding external electric field

     Computed dipole along edir(3) : 
        Dipole                0.2496 Ry au,          0.6344 Debye
        Dipole field          0.0008 Ry au
 
        Potential amp.       -0.0678 Ry
        Total length         44.9721 bohr
 

     total cpu time spent up to now is      760.7 secs

     total energy              =   -1770.53468606 Ry
     Harris-Foulkes estimate   =   -1770.53472695 Ry
     estimated scf accuracy    <       0.00057206 Ry

     iteration # 10     ecut=    36.75 Ry     beta=0.30
     Davidson diagonalization with overlap
     ethr =  3.53E-07,  avg # of iterations =  2.6

     negative rho (up, down):  1.579E-02 0.000E+00
 
     Adding external electric field

     Computed dipole along edir(3) : 
        Dipole                0.2489 Ry au,          0.6327 Debye
        Dipole field          0.0008 Ry au
 
        Potential amp.       -0.0677 Ry
        Total length         44.9721 bohr
 

     total cpu time spent up to now is      775.1 secs

     total energy              =   -1770.53470020 Ry
     Harris-Foulkes estimate   =   -1770.53470788 Ry
     estimated scf accuracy    <       0.00009444 Ry

     iteration # 11     ecut=    36.75 Ry     beta=0.30
     Davidson diagonalization with overlap
     ethr =  5.83E-08,  avg # of iterations =  5.7

     negative rho (up, down):  1.579E-02 0.000E+00
 
     Adding external electric field

     Computed dipole along edir(3) : 
        Dipole                0.2486 Ry au,          0.6320 Debye
        Dipole field          0.0008 Ry au
 
        Potential amp.       -0.0676 Ry
        Total length         44.9721 bohr
 

     total cpu time spent up to now is      793.6 secs

     total energy              =   -1770.53471799 Ry
     Harris-Foulkes estimate   =   -1770.53472615 Ry
     estimated scf accuracy    <       0.00022310 Ry

     iteration # 12     ecut=    36.75 Ry     beta=0.30
     Davidson diagonalization with overlap
     ethr =  5.83E-08,  avg # of iterations =  1.6

     negative rho (up, down):  1.580E-02 0.000E+00
 
     Adding external electric field

     Computed dipole along edir(3) : 
        Dipole                0.2482 Ry au,          0.6309 Debye
        Dipole field          0.0008 Ry au
 
        Potential amp.       -0.0675 Ry
        Total length         44.9721 bohr
 

     total cpu time spent up to now is      808.3 secs

     total energy              =   -1770.53471505 Ry
     Harris-Foulkes estimate   =   -1770.53472287 Ry
     estimated scf accuracy    <       0.00015078 Ry

     iteration # 13     ecut=    36.75 Ry     beta=0.30
     Davidson diagonalization with overlap
     ethr =  5.83E-08,  avg # of iterations =  4.0

     negative rho (up, down):  1.580E-02 0.000E+00
 
     Adding external electric field

     Computed dipole along edir(3) : 
        Dipole                0.2472 Ry au,          0.6283 Debye
        Dipole field          0.0007 Ry au
 
        Potential amp.       -0.0672 Ry
        Total length         44.9721 bohr
 

     total cpu time spent up to now is      823.5 secs

     total energy              =   -1770.53471398 Ry
     Harris-Foulkes estimate   =   -1770.53472217 Ry
     estimated scf accuracy    <       0.00006757 Ry

     iteration # 14     ecut=    36.75 Ry     beta=0.30
     Davidson diagonalization with overlap
     ethr =  4.17E-08,  avg # of iterations =  5.5

     negative rho (up, down):  1.580E-02 0.000E+00
 
     Adding external electric field

     Computed dipole along edir(3) : 
        Dipole                0.2480 Ry au,          0.6305 Debye
        Dipole field          0.0007 Ry au
 
        Potential amp.       -0.0674 Ry
        Total length         44.9721 bohr
 

     total cpu time spent up to now is      840.4 secs

     total energy              =   -1770.53471605 Ry
     Harris-Foulkes estimate   =   -1770.53472099 Ry
     estimated scf accuracy    <       0.00044035 Ry

     iteration # 15     ecut=    36.75 Ry     beta=0.30
     Davidson diagonalization with overlap
     ethr =  4.17E-08,  avg # of iterations =  1.1

     negative rho (up, down):  1.580E-02 0.000E+00
 
     Adding external electric field

     Computed dipole along edir(3) : 
        Dipole                0.2480 Ry au,          0.6302 Debye
        Dipole field          0.0007 Ry au
 
        Potential amp.       -0.0674 Ry
        Total length         44.9721 bohr
 

     total cpu time spent up to now is      854.2 secs

     total energy              =   -1770.53471830 Ry
     Harris-Foulkes estimate   =   -1770.53472011 Ry
     estimated scf accuracy    <       0.00002733 Ry

     iteration # 16     ecut=    36.75 Ry     beta=0.30
     Davidson diagonalization with overlap
     ethr =  1.69E-08,  avg # of iterations =  5.4

     negative rho (up, down):  1.580E-02 0.000E+00
 
     Adding external electric field

     Computed dipole along edir(3) : 
        Dipole                0.2482 Ry au,          0.6308 Debye
        Dipole field          0.0007 Ry au
 
        Potential amp.       -0.0675 Ry
        Total length         44.9721 bohr
 

     total cpu time spent up to now is      870.5 secs

     total energy              =   -1770.53471824 Ry
     Harris-Foulkes estimate   =   -1770.53471901 Ry
     estimated scf accuracy    <       0.00001519 Ry

     iteration # 17     ecut=    36.75 Ry     beta=0.30
     Davidson diagonalization with overlap
     ethr =  9.38E-09,  avg # of iterations =  4.4

     negative rho (up, down):  1.580E-02 0.000E+00

     negative rho (up, down):  1.580E-02 0.000E+00

     negative rho (up, down):  1.580E-02 0.000E+00

     negative rho (up, down):  1.580E-02 0.000E+00

     negative rho (up, down):  1.580E-02 0.000E+00

     negative rho (up, down):  1.580E-02 0.000E+00

     negative rho (up, down):  1.580E-02 0.000E+00

     negative rho (up, down):  1.580E-02 0.000E+00

     negative rho (up, down):  1.580E-02 0.000E+00

     negative rho (up, down):  1.580E-02 0.000E+00

     negative rho (up, down):  1.580E-02 0.000E+00

     negative rho (up, down):  1.580E-02 0.000E+00

     negative rho (up, down):  1.580E-02 0.000E+00

     negative rho (up, down):  1.580E-02 0.000E+00

     negative rho (up, down):  1.580E-02 0.000E+00

     negative rho (up, down):  1.580E-02 0.000E+00

     negative rho (up, down):  1.580E-02 0.000E+00

     negative rho (up, down):  1.580E-02 0.000E+00

     negative rho (up, down):  1.580E-02 0.000E+00

     negative rho (up, down):  1.580E-02 0.000E+00

     negative rho (up, down):  1.580E-02 0.000E+00

     negative rho (up, down):  1.580E-02 0.000E+00

     negative rho (up, down):  1.580E-02 0.000E+00

     negative rho (up, down):  1.580E-02 0.000E+00

     negative rho (up, down):  1.580E-02 0.000E+00

     negative rho (up, down):  1.580E-02 0.000E+00

     negative rho (up, down):  1.580E-02 0.000E+00

     negative rho (up, down):  1.580E-02 0.000E+00

     negative rho (up, down):  1.580E-02 0.000E+00

     negative rho (up, down):  1.580E-02 0.000E+00

     negative rho (up, down):  1.580E-02 0.000E+00

     negative rho (up, down):  1.580E-02 0.000E+00

     negative rho (up, down):  1.580E-02 0.000E+00

     negative rho (up, down):  1.580E-02 0.000E+00

     negative rho (up, down):  1.580E-02 0.000E+00
 
     Adding external electric field

     Computed dipole along edir(3) : 
        Dipole                0.2344 Ry au,          0.5957 Debye
        Dipole field          0.0007 Ry au
 
        Potential amp.       -0.0637 Ry
        Total length         44.9721 bohr
 

     total cpu time spent up to now is      928.2 secs

     End of self-consistent calculation

          k = 0.0000 0.0000 0.0000 ( 15569 PWs)   bands (ev):

   -62.8620 -62.7939 -62.7475 -62.7474 -62.7181 -62.6999 -62.6873 -62.6870
   -62.6754 -62.6354 -62.6348 -62.6307 -36.9512 -36.9323 -36.9322 -36.8938
   -36.8871 -36.8871 -36.8796 -36.7995 -36.7951 -36.7948 -36.6477 -36.5777
   -36.5776 -36.5441 -36.5114 -36.5111 -36.5103 -36.4601 -36.4442 -36.4442
   -36.3860 -36.3828 -36.3827 -36.3706 -36.3609 -36.3608 -36.3251 -36.2897
   -36.2892 -36.2891 -36.2840 -36.2839 -36.2403 -36.2403 -36.1622 -36.1622
   -13.6874  -5.5498  -4.4250  -2.8192  -2.1915  -2.1915  -1.8808  -1.5781
    -1.5781  -1.4827  -1.2284  -1.1295  -1.1294  -0.8265  -0.8130  -0.8129
    -0.6065  -0.6064  -0.5687   0.1943   0.1943   0.2653   0.9173   1.1010
     1.1010   1.2469   1.2958   1.5493   1.6091   1.6091   1.7350   1.7350
     1.7375   1.8126   1.8127   1.8844   1.8845   1.8845   2.0360   2.0361
     2.1427   2.4578   2.4579

          k = 0.0000 0.0356 0.0000 ( 15635 PWs)   bands (ev):

   -62.8540 -62.7872 -62.7534 -62.7475 -62.7132 -62.7033 -62.6914 -62.6873
   -62.6765 -62.6395 -62.6348 -62.6317 -36.9257 -36.9099 -36.8980 -36.8715
   -36.8663 -36.8662 -36.8572 -36.7777 -36.7741 -36.7612 -36.6463 -36.5969
   -36.5869 -36.5619 -36.5090 -36.5077 -36.5016 -36.4730 -36.4589 -36.4382
   -36.4154 -36.4093 -36.3727 -36.3654 -36.3563 -36.3556 -36.3445 -36.3174
   -36.3084 -36.3048 -36.2986 -36.2784 -36.2712 -36.2487 -36.1997 -36.1705
   -13.6837  -5.4908  -4.2386  -2.6808  -2.1821  -2.1378  -1.6970  -1.5700
    -1.4575  -1.4066  -1.1755  -1.0285  -1.0277  -0.7413  -0.6997  -0.6992
    -0.5546  -0.4985  -0.4277   0.2217   0.2297   0.2706   0.8561   1.1261
     1.1404   1.2011   1.3134   1.3660   1.4588   1.5258   1.5511   1.6279
     1.7281   1.7649   1.8205   1.8267   1.8848   1.9290   1.9408   1.9714
     2.0448   2.2782   2.3315

          k = 0.0000 0.0713 0.0000 ( 15669 PWs)   bands (ev):

   -62.8326 -62.7739 -62.7666 -62.7476 -62.7193 -62.7009 -62.6939 -62.6874
   -62.6781 -62.6536 -62.6348 -62.6321 -36.8680 -36.8539 -36.8324 -36.8271
   -36.8172 -36.7954 -36.7897 -36.7289 -36.7242 -36.6824 -36.6470 -36.6179
   -36.6111 -36.5955 -36.5197 -36.5094 -36.4967 -36.4919 -36.4822 -36.4588
   -36.4571 -36.4400 -36.4102 -36.3948 -36.3881 -36.3826 -36.3462 -36.3447
   -36.3356 -36.3340 -36.3275 -36.3251 -36.2775 -36.2724 -36.2554 -36.1934
   -13.6764  -5.3788  -3.7005  -2.5103  -2.0733  -2.0282  -1.7631  -1.2515
    -1.1849  -1.1549  -0.9998  -0.8388  -0.7605  -0.5584  -0.3998  -0.3963
    -0.3001  -0.1706  -0.0933   0.2458   0.3277   0.3795   0.5904   0.8438
     0.9462   1.0057   1.0058   1.1023   1.3078   1.3331   1.3707   1.4149
     1.4750   1.4894   1.5322   1.6539   1.7447   1.8218   1.8541   1.9630
     2.0283   2.1066   2.1135

          k = 0.0000-0.1069 0.0000 ( 15660 PWs)   bands (ev):

   -62.8098 -62.7942 -62.7476 -62.7438 -62.7423 -62.7017 -62.6874 -62.6815
   -62.6747 -62.6713 -62.6348 -62.6321 -36.8229 -36.8125 -36.8081 -36.7901
   -36.7878 -36.7835 -36.6993 -36.6909 -36.6898 -36.6808 -36.6490 -36.6341
   -36.6020 -36.5756 -36.5426 -36.5167 -36.5090 -36.5064 -36.5057 -36.4835
   -36.4545 -36.4519 -36.4471 -36.4403 -36.4324 -36.4278 -36.3780 -36.3637
   -36.3422 -36.3362 -36.3150 -36.3141 -36.3086 -36.2965 -36.2254 -36.2238
   -13.6727  -5.3254  -3.0471  -2.8261  -2.2196  -1.9727  -1.5037  -1.2692
    -0.9131  -0.8782  -0.8024  -0.7594  -0.5989  -0.5161  -0.1172  -0.1092
     0.0091   0.0129   0.0887   0.1639   0.4781   0.4967   0.5390   0.5671
     0.6432   0.7279   0.8562   0.9499   1.0508   1.0676   1.1208   1.1843
     1.2698   1.2755   1.3896   1.4870   1.6106   1.6403   1.6709   1.8048
     1.8067   2.1812   2.2021

          k = 0.0309-0.0178 0.0000 ( 15635 PWs)   bands (ev):

   -62.8540 -62.7872 -62.7533 -62.7476 -62.7132 -62.7033 -62.6916 -62.6871
   -62.6766 -62.6395 -62.6350 -62.6316 -36.9256 -36.9100 -36.8979 -36.8716
   -36.8663 -36.8661 -36.8572 -36.7778 -36.7739 -36.7612 -36.6463 -36.5968
   -36.5870 -36.5619 -36.5091 -36.5077 -36.5016 -36.4730 -36.4589 -36.4382
   -36.4153 -36.4093 -36.3726 -36.3655 -36.3562 -36.3557 -36.3445 -36.3174
   -36.3084 -36.3048 -36.2986 -36.2784 -36.2712 -36.2487 -36.1997 -36.1705
   -13.6837  -5.4908  -4.2386  -2.6808  -2.1821  -2.1378  -1.6970  -1.5700
    -1.4575  -1.4066  -1.1755  -1.0285  -1.0277  -0.7413  -0.6997  -0.6992
    -0.5547  -0.4985  -0.4277   0.2217   0.2298   0.2705   0.8561   1.1261
     1.1404   1.2011   1.3134   1.3660   1.4588   1.5258   1.5510   1.6278
     1.7281   1.7649   1.8205   1.8267   1.8847   1.9290   1.9408   1.9713
     2.0448   2.2782   2.3315

          k = 0.0309 0.0178 0.0000 ( 15635 PWs)   bands (ev):

   -62.8540 -62.7872 -62.7534 -62.7475 -62.7132 -62.7033 -62.6915 -62.6871
   -62.6765 -62.6393 -62.6353 -62.6314 -36.9256 -36.9099 -36.8980 -36.8715
   -36.8663 -36.8661 -36.8572 -36.7779 -36.7738 -36.7612 -36.6463 -36.5968
   -36.5870 -36.5619 -36.5092 -36.5077 -36.5015 -36.4730 -36.4589 -36.4382
   -36.4154 -36.4093 -36.3727 -36.3655 -36.3562 -36.3557 -36.3445 -36.3174
   -36.3085 -36.3046 -36.2986 -36.2784 -36.2712 -36.2487 -36.1997 -36.1705
   -13.6837  -5.4908  -4.2386  -2.6808  -2.1821  -2.1378  -1.6970  -1.5700
    -1.4575  -1.4067  -1.1755  -1.0285  -1.0277  -0.7413  -0.6997  -0.6992
    -0.5547  -0.4985  -0.4277   0.2217   0.2298   0.2705   0.8561   1.1261
     1.1404   1.2011   1.3134   1.3660   1.4588   1.5258   1.5510   1.6278
     1.7282   1.7649   1.8205   1.8267   1.8847   1.9290   1.9408   1.9713
     2.0448   2.2782   2.3315

          k = 0.0309 0.0535 0.0000 ( 15620 PWs)   bands (ev):

   -62.8393 -62.7749 -62.7632 -62.7503 -62.7118 -62.7014 -62.7006 -62.6863
   -62.6768 -62.6446 -62.6426 -62.6287 -36.8893 -36.8579 -36.8425 -36.8402
   -36.8351 -36.8174 -36.8152 -36.7488 -36.7195 -36.7141 -36.6465 -36.6161
   -36.6087 -36.5889 -36.5327 -36.5013 -36.4966 -36.4879 -36.4723 -36.4488
   -36.4408 -36.4093 -36.3959 -36.3947 -36.3785 -36.3688 -36.3508 -36.3464
   -36.3390 -36.3230 -36.3102 -36.2897 -36.2872 -36.2717 -36.2511 -36.1895
   -13.6782  -5.4063  -3.8731  -2.5023  -2.1169  -2.0302  -1.6023  -1.5152
    -1.3120  -1.1756  -1.1300  -0.8958  -0.7400  -0.5578  -0.5496  -0.4714
    -0.3641  -0.3018  -0.1982   0.2162   0.3022   0.3555   0.7059   0.9754
     1.0210   1.0549   1.1169   1.1322   1.2779   1.3769   1.4282   1.4926
     1.5328   1.5770   1.6822   1.7207   1.8312   1.8664   1.9090   2.0052
     2.0582   2.0795   2.1195

          k = 0.0309-0.1248 0.0000 ( 15642 PWs)   bands (ev):

   -62.8148 -62.7833 -62.7586 -62.7492 -62.7269 -62.7091 -62.6904 -62.6806
   -62.6753 -62.6609 -62.6461 -62.6261 -36.8294 -36.8051 -36.7962 -36.7856
   -36.7761 -36.7702 -36.7371 -36.7020 -36.6844 -36.6649 -36.6536 -36.6443
   -36.6152 -36.5912 -36.5680 -36.5285 -36.5244 -36.4935 -36.4869 -36.4784
   -36.4575 -36.4529 -36.4433 -36.4161 -36.4110 -36.4024 -36.3640 -36.3598
   -36.3554 -36.3462 -36.3210 -36.3085 -36.3015 -36.2933 -36.2579 -36.2222
   -13.6727  -5.3263  -3.2114  -2.5087  -2.1502  -2.0120  -1.5805  -1.4318
    -1.1115  -0.9087  -0.7605  -0.6283  -0.4499  -0.3798  -0.1854  -0.1412
    -0.1045  -0.0198   0.1027   0.2942   0.3637   0.4227   0.5565   0.5809
     0.6458   0.7372   0.7749   0.8713   1.0194   1.0628   1.1181   1.1956
     1.2486   1.3243   1.3465   1.4589   1.6115   1.6724   1.7439   1.8411
     1.9630   2.1284   2.1653

          k = 0.0309-0.0891 0.0000 ( 15642 PWs)   bands (ev):

   -62.8148 -62.7832 -62.7587 -62.7491 -62.7269 -62.7091 -62.6904 -62.6806
   -62.6753 -62.6609 -62.6461 -62.6262 -36.8294 -36.8051 -36.7962 -36.7856
   -36.7761 -36.7702 -36.7371 -36.7020 -36.6844 -36.6649 -36.6536 -36.6443
   -36.6152 -36.5912 -36.5679 -36.5286 -36.5244 -36.4935 -36.4868 -36.4784
   -36.4575 -36.4529 -36.4433 -36.4161 -36.4110 -36.4024 -36.3639 -36.3599
   -36.3554 -36.3462 -36.3210 -36.3084 -36.3015 -36.2933 -36.2579 -36.2222
   -13.6727  -5.3263  -3.2114  -2.5087  -2.1502  -2.0120  -1.5805  -1.4318
    -1.1115  -0.9087  -0.7605  -0.6283  -0.4499  -0.3798  -0.1854  -0.1412
    -0.1045  -0.0198   0.1027   0.2942   0.3636   0.4227   0.5564   0.5809
     0.6458   0.7372   0.7749   0.8713   1.0194   1.0628   1.1182   1.1956
[...]

   -62.7912 -62.7304 -62.7160 -62.7106 -62.6518 -62.6135 -62.5932 -62.5824
   -62.5656 -62.5488 -62.5378 -62.2776 -36.8562 -36.8241 -36.7814 -36.7698
   -36.7540 -36.7391 -36.7303 -36.6865 -36.6457 -36.6428 -36.6022 -36.5736
   -36.5644 -36.5302 -36.4699 -36.4526 -36.4452 -36.4269 -36.3932 -36.3829
   -36.3652 -36.3519 -36.3265 -36.3182 -36.2973 -36.2851 -36.2810 -36.2452
   -36.2244 -36.2184 -36.2137 -36.1831 -36.1227 -35.9406 -35.9166 -35.8551
   -14.2697  -5.8042  -3.8038  -2.7498  -2.5226  -2.0828  -1.5500  -1.5114
    -1.2383  -1.1434  -1.0779  -0.8049  -0.7027  -0.5616  -0.4012  -0.3734
    -0.2702  -0.2452  -0.0225   0.2620   0.4320   0.4799   0.6384   0.8622
     1.0126   1.1160   1.1684   1.2281   1.2807   1.3442   1.4610   1.5201
     1.5883   1.6117   1.7731   1.8585   1.9424   1.9708   2.0438   2.0689
     2.1411   2.1775   2.2335

          k = 0.0617-0.0356 0.0000 ( 15669 PWs)   bands (ev):

   -62.7866 -62.7349 -62.7154 -62.7064 -62.6505 -62.6156 -62.5949 -62.5780
   -62.5710 -62.5505 -62.5378 -62.2774 -36.8411 -36.8092 -36.7744 -36.7515
   -36.7306 -36.7304 -36.7157 -36.6725 -36.6405 -36.6222 -36.5985 -36.5680
   -36.5663 -36.5352 -36.4842 -36.4576 -36.4431 -36.4232 -36.4041 -36.4012
   -36.3733 -36.3582 -36.3447 -36.3149 -36.3024 -36.2940 -36.2693 -36.2657
   -36.2654 -36.2375 -36.2010 -36.1857 -36.1258 -35.9495 -35.9146 -35.8513
   -14.2673  -5.7793  -3.6338  -2.7803  -2.4788  -2.0039  -1.7912  -1.2296
    -1.1506  -1.1090  -0.8994  -0.7657  -0.7131  -0.5207  -0.3270  -0.3043
    -0.1945  -0.1447   0.0635   0.2519   0.4456   0.4562   0.6113   0.7519
     0.9486   1.0404   1.0768   1.1650   1.1866   1.3077   1.4229   1.4948
     1.5135   1.5365   1.7204   1.7776   1.7948   1.8887   1.9414   2.1042
     2.1286   2.1306   2.2498

          k = 0.0617 0.0000 0.0000 ( 15620 PWs)   bands (ev):

   -62.7912 -62.7304 -62.7160 -62.7106 -62.6518 -62.6135 -62.5932 -62.5824
   -62.5656 -62.5488 -62.5378 -62.2776 -36.8562 -36.8241 -36.7814 -36.7698
   -36.7540 -36.7391 -36.7303 -36.6865 -36.6457 -36.6428 -36.6022 -36.5736
   -36.5644 -36.5302 -36.4699 -36.4526 -36.4452 -36.4269 -36.3932 -36.3829
   -36.3652 -36.3519 -36.3265 -36.3182 -36.2973 -36.2851 -36.2810 -36.2452
   -36.2244 -36.2184 -36.2137 -36.1831 -36.1227 -35.9406 -35.9166 -35.8551
   -14.2697  -5.8042  -3.8038  -2.7498  -2.5226  -2.0828  -1.5500  -1.5114
    -1.2383  -1.1434  -1.0779  -0.8049  -0.7027  -0.5616  -0.4012  -0.3734
    -0.2702  -0.2452  -0.0225   0.2620   0.4320   0.4799   0.6384   0.8622
     1.0126   1.1160   1.1684   1.2281   1.2807   1.3442   1.4610   1.5201
     1.5883   1.6117   1.7732   1.8585   1.9424   1.9708   2.0438   2.0689
     2.1411   2.1775   2.2335

          k = 0.0617 0.0356 0.0000 ( 15669 PWs)   bands (ev):

   -62.7866 -62.7350 -62.7154 -62.7064 -62.6505 -62.6156 -62.5949 -62.5781
   -62.5710 -62.5506 -62.5378 -62.2774 -36.8411 -36.8092 -36.7744 -36.7515
   -36.7306 -36.7305 -36.7157 -36.6726 -36.6405 -36.6222 -36.5985 -36.5680
   -36.5663 -36.5352 -36.4842 -36.4576 -36.4431 -36.4232 -36.4041 -36.4012
   -36.3733 -36.3582 -36.3447 -36.3149 -36.3024 -36.2940 -36.2693 -36.2657
   -36.2654 -36.2375 -36.2010 -36.1857 -36.1258 -35.9495 -35.9146 -35.8513
   -14.2673  -5.7793  -3.6338  -2.7803  -2.4788  -2.0039  -1.7912  -1.2296
    -1.1506  -1.1090  -0.8994  -0.7657  -0.7131  -0.5208  -0.3270  -0.3043
    -0.1945  -0.1447   0.0635   0.2519   0.4456   0.4562   0.6113   0.7519
     0.9486   1.0404   1.0768   1.1650   1.1866   1.3077   1.4229   1.4948
     1.5135   1.5365   1.7204   1.7776   1.7948   1.8887   1.9414   2.1042
     2.1286   2.1306   2.2498

          k = 0.0617-0.1426 0.0000 ( 15642 PWs)   bands (ev):

   -62.7748 -62.7448 -62.7165 -62.6971 -62.6457 -62.6171 -62.6003 -62.5876
   -62.5641 -62.5568 -62.5378 -62.2771 -36.8003 -36.7709 -36.7344 -36.7224
   -36.7109 -36.6953 -36.6693 -36.6471 -36.6189 -36.6107 -36.5887 -36.5812
   -36.5589 -36.5337 -36.5100 -36.4732 -36.4678 -36.4400 -36.4348 -36.4084
   -36.3847 -36.3743 -36.3544 -36.3352 -36.3231 -36.3105 -36.2977 -36.2795
   -36.2611 -36.2499 -36.2229 -36.1909 -36.1552 -35.9545 -35.9219 -35.8438
   -14.2626  -5.7297  -3.1997  -2.7108  -2.5010  -2.0897  -1.5364  -1.3941
    -1.0850  -0.8400  -0.7339  -0.6062  -0.4055  -0.3175  -0.1976  -0.1343
    -0.0090   0.0545   0.1895   0.2509   0.4075   0.5121   0.5322   0.6579
     0.7133   0.7711   0.8266   0.8979   0.9743   1.0922   1.1505   1.2312
     1.2637   1.4056   1.4415   1.5582   1.6997   1.7817   1.8481   2.0114
     2.1218   2.1871   2.3431

          k = 0.0617-0.1069 0.0000 ( 15672 PWs)   bands (ev):

   -62.7637 -62.7543 -62.7175 -62.6926 -62.6377 -62.6226 -62.6067 -62.5880
   -62.5647 -62.5572 -62.5380 -62.2769 -36.7633 -36.7355 -36.7322 -36.6919
   -36.6891 -36.6750 -36.6584 -36.6401 -36.6239 -36.6069 -36.6066 -36.5878
   -36.5350 -36.5269 -36.5019 -36.4790 -36.4772 -36.4712 -36.4537 -36.4332
   -36.4011 -36.3819 -36.3744 -36.3503 -36.3245 -36.3040 -36.2957 -36.2633
   -36.2622 -36.2591 -36.2088 -36.2071 -36.1996 -35.9518 -35.9305 -35.8401
   -14.2602  -5.7049  -2.9408  -2.6232  -2.2408  -2.1702  -2.0348  -1.1195
    -1.0860  -0.7807  -0.4390  -0.4060  -0.3111  -0.2062  -0.1057   0.0155
     0.1473   0.2278   0.2713   0.2794   0.3478   0.3655   0.3825   0.5151
     0.5165   0.5387   0.7272   0.8450   0.9016   0.9175   0.9930   1.0451
     1.2037   1.2752   1.2779   1.3846   1.4253   1.8915   1.9099   2.0610
     2.2191   2.3134   2.3160

          k = 0.0617-0.0713 0.0000 ( 15642 PWs)   bands (ev):

   -62.7748 -62.7447 -62.7165 -62.6971 -62.6457 -62.6171 -62.6003 -62.5876
   -62.5641 -62.5568 -62.5378 -62.2771 -36.8003 -36.7710 -36.7344 -36.7224
   -36.7109 -36.6953 -36.6693 -36.6471 -36.6189 -36.6107 -36.5887 -36.5812
   -36.5589 -36.5337 -36.5100 -36.4732 -36.4678 -36.4400 -36.4348 -36.4084
   -36.3847 -36.3743 -36.3544 -36.3352 -36.3231 -36.3105 -36.2977 -36.2794
   -36.2611 -36.2499 -36.2229 -36.1909 -36.1552 -35.9545 -35.9219 -35.8438
   -14.2626  -5.7297  -3.1997  -2.7108  -2.5010  -2.0897  -1.5364  -1.3941
    -1.0850  -0.8400  -0.7339  -0.6062  -0.4055  -0.3175  -0.1976  -0.1343
    -0.0090   0.0545   0.1895   0.2509   0.4075   0.5121   0.5322   0.6579
     0.7133   0.7711   0.8266   0.8979   0.9743   1.0922   1.1505   1.2312
     1.2637   1.4056   1.4415   1.5582   1.6997   1.7817   1.8481   2.0114
     2.1218   2.1871   2.3431

          k =-0.0926 0.0535 0.0000 ( 15660 PWs)   bands (ev):

   -62.7739 -62.7466 -62.7154 -62.6962 -62.6481 -62.6210 -62.5947 -62.5781
   -62.5760 -62.5548 -62.5378 -62.2771 -36.8013 -36.7774 -36.7366 -36.7336
   -36.7086 -36.7057 -36.6568 -36.6258 -36.6244 -36.5968 -36.5849 -36.5835
   -36.5653 -36.5279 -36.5138 -36.4705 -36.4549 -36.4486 -36.4105 -36.3930
   -36.3882 -36.3863 -36.3716 -36.3549 -36.3244 -36.3143 -36.3060 -36.2831
   -36.2824 -36.2429 -36.2285 -36.1600 -36.1527 -35.9611 -35.9160 -35.8440
   -14.2626  -5.7294  -3.1325  -2.7344  -2.4384  -2.4199  -1.4484  -1.2281
    -0.8333  -0.8200  -0.7320  -0.7195  -0.6325  -0.4199  -0.1777  -0.1182
     0.0385   0.0473   0.2189   0.2796   0.3723   0.5488   0.6428   0.6497
     0.6915   0.8260   0.8791   0.9003   1.0403   1.0973   1.1578   1.1844
     1.2679   1.3098   1.5041   1.6357   1.6917   1.7076   1.8366   1.9112
     2.1071   2.2428   2.3718

          k =-0.0926 0.0891 0.0000 ( 15642 PWs)   bands (ev):

   -62.7748 -62.7448 -62.7165 -62.6971 -62.6457 -62.6171 -62.6003 -62.5876
   -62.5641 -62.5568 -62.5378 -62.2771 -36.8003 -36.7710 -36.7344 -36.7224
   -36.7109 -36.6953 -36.6693 -36.6471 -36.6189 -36.6107 -36.5887 -36.5812
   -36.5589 -36.5337 -36.5100 -36.4732 -36.4678 -36.4400 -36.4348 -36.4084
   -36.3847 -36.3743 -36.3544 -36.3352 -36.3231 -36.3105 -36.2977 -36.2794
   -36.2611 -36.2499 -36.2229 -36.1909 -36.1552 -35.9545 -35.9219 -35.8438
   -14.2626  -5.7297  -3.1997  -2.7108  -2.5010  -2.0897  -1.5364  -1.3941
    -1.0850  -0.8400  -0.7339  -0.6062  -0.4055  -0.3175  -0.1976  -0.1343
    -0.0090   0.0545   0.1895   0.2509   0.4075   0.5121   0.5322   0.6579
     0.7133   0.7711   0.8266   0.8979   0.9743   1.0922   1.1505   1.2312
     1.2637   1.4056   1.4415   1.5582   1.6997   1.7817   1.8481   2.0114
     2.1218   2.1871   2.3431

          k =-0.0926 0.1248 0.0000 ( 15642 PWs)   bands (ev):

   -62.7748 -62.7448 -62.7165 -62.6971 -62.6457 -62.6171 -62.6003 -62.5876
   -62.5641 -62.5568 -62.5378 -62.2771 -36.8002 -36.7709 -36.7344 -36.7224
   -36.7109 -36.6953 -36.6693 -36.6471 -36.6189 -36.6107 -36.5887 -36.5812
   -36.5589 -36.5337 -36.5100 -36.4732 -36.4678 -36.4400 -36.4348 -36.4084
   -36.3847 -36.3743 -36.3544 -36.3352 -36.3231 -36.3105 -36.2977 -36.2795
   -36.2611 -36.2499 -36.2229 -36.1909 -36.1552 -35.9545 -35.9219 -35.8438
   -14.2626  -5.7297  -3.1997  -2.7108  -2.5010  -2.0897  -1.5364  -1.3941
    -1.0850  -0.8400  -0.7339  -0.6062  -0.4055  -0.3175  -0.1976  -0.1343
    -0.0090   0.0545   0.1895   0.2509   0.4075   0.5121   0.5322   0.6579
     0.7133   0.7711   0.8266   0.8979   0.9743   1.0922   1.1505   1.2312
     1.2637   1.4056   1.4415   1.5582   1.6997   1.7817   1.8481   2.0114
     2.1218   2.1871   2.3431

          k =-0.0926-0.0535 0.0000 ( 15660 PWs)   bands (ev):

   -62.7739 -62.7467 -62.7154 -62.6962 -62.6481 -62.6210 -62.5947 -62.5781
   -62.5760 -62.5548 -62.5378 -62.2771 -36.8013 -36.7774 -36.7366 -36.7335
   -36.7086 -36.7057 -36.6568 -36.6259 -36.6244 -36.5968 -36.5849 -36.5836
   -36.5653 -36.5279 -36.5138 -36.4705 -36.4549 -36.4486 -36.4105 -36.3930
   -36.3882 -36.3863 -36.3717 -36.3549 -36.3244 -36.3143 -36.3060 -36.2831
   -36.2824 -36.2430 -36.2285 -36.1601 -36.1526 -35.9611 -35.9160 -35.8440
   -14.2626  -5.7294  -3.1325  -2.7344  -2.4384  -2.4199  -1.4484  -1.2281
    -0.8333  -0.8200  -0.7320  -0.7195  -0.6325  -0.4199  -0.1777  -0.1182
     0.0385   0.0473   0.2189   0.2796   0.3723   0.5488   0.6428   0.6497
     0.6915   0.8260   0.8791   0.9003   1.0403   1.0973   1.1578   1.1844
     1.2679   1.3098   1.5041   1.6357   1.6917   1.7076   1.8366   1.9112
     2.1071   2.2429   2.3718

     the Fermi energy is     1.5269 ev

!    total energy              =   -1770.58177735 Ry
     Harris-Foulkes estimate   =   -1770.58177732 Ry
     estimated scf accuracy    <          7.7E-09 Ry

     The total energy is the sum of the following terms:

     one-electron contribution =  -15482.96841415 Ry
     hartree contribution      =    7733.46897384 Ry
     xc contribution           =    -250.78066934 Ry
     ewald contribution        =    6229.82721881 Ry
     electric field correction =       0.00026362 Ry
     smearing contrib. (-TS)   =      -0.12915013 Ry

     convergence has been achieved in  12 iterations
 
 BEEF-vdW xc energy contributions
           1 :   -216.050780509685     
           2 :    193.883118151894     
           3 :   -157.249634993542     
           4 :    117.620213447852     
           5 :   -84.9923719214605     
           6 :    64.1522335551038     
           7 :   -54.0307816340031     
           8 :    49.8899623739080     
           9 :   -46.6886988828605     
          10 :    41.6545724887666     
          11 :   -34.9329029402597     
          12 :    28.4520390002742     
          13 :   -24.0914790793844     
          14 :    22.3631301498833     
          15 :   -22.2647904477330     
          16 :    22.1465062271742     
          17 :   -20.8651992284355     
          18 :    18.4338477820677     
          19 :   -15.8130430496939     
          20 :    14.0953630469798     
          21 :   -13.7104791182788     
          22 :    14.1863820695039     
          23 :   -14.5672112754987     
          24 :    14.1210841377361     
          25 :   -12.8151101481459     
          26 :    11.2527441323470     
          27 :   -10.1811188775179     
          28 :    9.95606980705764     
          29 :   -10.3357354743221     
          30 :    10.7060553724633     
          31 :   -22.4712832470146     
          32 :   -16.2040652534677     

     Forces acting on atoms (Ry/au):


     negative rho (up, down):  1.518E-02 0.000E+00
     atom    1 type  1   force =     0.00007597    0.00004347   -0.00027828
     atom    2 type  1   force =    -0.00007595    0.00004355   -0.00027517
     atom    3 type  1   force =    -0.00000016   -0.00008759   -0.00027495
     atom    4 type  1   force =    -0.00000017    0.00000028    0.00256560
     atom    5 type  1   force =     0.00000066    0.02696260   -0.01162415
     atom    6 type  1   force =    -0.00000039   -0.00000001    0.03896448
     atom    7 type  1   force =    -0.02335117   -0.01348145   -0.01162086
     atom    8 type  1   force =     0.02335146   -0.01348102   -0.01162377
     atom    9 type  1   force =    -0.00000029   -0.00000051    0.00066723
     atom   10 type  1   force =     0.00000087   -0.00090603   -0.00105080
     atom   11 type  1   force =    -0.00078400    0.00045399   -0.00105201
     atom   12 type  1   force =     0.00078301    0.00045152   -0.00105210
     atom   13 type  2   force =     0.00000023    0.00000089   -0.00174717
     atom   14 type  3   force =    -0.00000006    0.00000032   -0.00159805

     Total force =     0.003439     Total SCF correction =     0.000270


     entering subroutine stress ...


     negative rho (up, down):  1.518E-02 0.000E+00
          total   stress  (Ry/bohr**3)                   (kbar)     P=  -13.03
  -0.00012389  -0.00000000   0.00000000        -18.23     -0.00      0.00
  -0.00000000  -0.00012389  -0.00000000         -0.00    -18.23     -0.00
   0.00000000  -0.00000000  -0.00001804          0.00     -0.00     -2.65


     bfgs converged in  15 scf cycles and  14 bfgs steps
     (criteria: energy <  1.0E+00, force <  1.9E-03)

     End of BFGS Geometry Optimization

     Final energy   =   -1770.5817773465 Ry
Begin final coordinates

ATOMIC_POSITIONS (crystal)
V1       0.166666667   0.166666667   0.409694847    0   0   0
V1       0.666666667   0.166666667   0.409694847    0   0   0
V1       0.166666667   0.666666667   0.409694847    0   0   0
V1       0.666666667   0.666666667   0.409694847    0   0   0
V1       0.833333333   0.333333333   0.500000000    0   0   0
V1       0.333333333   0.333333333   0.500000000    0   0   0
V1       0.833333333   0.833333333   0.500000000    0   0   0
V1       0.333333333   0.833333333   0.500000000    0   0   0
V1       0.000000968  -0.000000774   0.572813801
V1       0.502645470  -0.005291377   0.594504350
V1      -0.005290063   0.502643997   0.594504453
V1       0.502645675   0.502645857   0.594504388
N1       0.333334265   0.333332388   0.642992287
H1       0.333334908   0.333330991   0.685040258
End final coordinates



     Writing output data file calc.save
 
     init_run     :      8.49s CPU      8.79s WALL (       1 calls)
     electrons    :   5542.36s CPU   5954.46s WALL (      15 calls)
     update_pot   :     34.34s CPU     35.75s WALL (      14 calls)
     forces       :    175.08s CPU    187.61s WALL (      15 calls)
     stress       :    537.90s CPU    576.90s WALL (      15 calls)

     Called by init_run:
     wfcinit      :      2.95s CPU      3.00s WALL (       1 calls)
     potinit      :      1.64s CPU      1.72s WALL (       1 calls)

     Called by electrons:
     c_bands      :   2443.93s CPU   2585.25s WALL (     307 calls)
     sum_band     :   1074.58s CPU   1155.66s WALL (     307 calls)
     v_of_rho     :    423.98s CPU    471.13s WALL (     321 calls)
     newd         :    904.18s CPU    922.88s WALL (     321 calls)
     mix_rho      :     14.97s CPU     15.34s WALL (     307 calls)
     vdW_energy   :    164.90s CPU    181.17s WALL (     861 calls)
     vdW_ffts     :    338.17s CPU    353.87s WALL (    1752 calls)
     vdW_v        :    140.22s CPU    144.85s WALL (     861 calls)

     Called by c_bands:
     init_us_2    :     13.64s CPU     13.72s WALL (    3225 calls)
     cegterg      :   2149.72s CPU   2193.56s WALL (    1535 calls)

     Called by *egterg:
     h_psi        :   1290.23s CPU   1323.41s WALL (    8172 calls)
     s_psi        :    135.66s CPU    136.16s WALL (    8172 calls)
     g_psi        :      8.80s CPU      8.87s WALL (    6632 calls)
     cdiaghg      :    284.81s CPU    286.87s WALL (    8092 calls)

     Called by h_psi:
     add_vuspsi   :    139.74s CPU    140.14s WALL (    8172 calls)

     General routines
     calbec       :    210.58s CPU    214.01s WALL (    9857 calls)
     fft          :    529.48s CPU    569.56s WALL (   52749 calls)
     ffts         :      0.88s CPU      0.92s WALL (     628 calls)
     fftw         :    774.17s CPU    808.61s WALL (  850669 calls)
     interpolate  :      7.95s CPU      8.15s WALL (     628 calls)
     davcio       :      0.00s CPU      0.02s WALL (       5 calls)
 
     Parallel routines
     fft_scatter  :    754.49s CPU    825.23s WALL (  904046 calls)
 
     PWSCF        :     1h45m CPU        1h53m WALL

 
   This run was terminated on:  12:48: 1  24Apr2018            

=------------------------------------------------------------------------------=
   JOB DONE.
=------------------------------------------------------------------------------=
Job  /afs/slac/g/suncat/bin/suncat-tsmpirun -x LD_LIBRARY_PATH -wdir /scratch/qe742421_QAnly pw.x -npool 4 -in pw.inp

TID   HOST_NAME   COMMAND_LINE            STATUS            TERMINATION_TIME
===== ========== ================  =======================  ===================
00000 suncat0023 pw.x -npool 4 -i  Done                     04/24/2018 12:48:01
00001 suncat0023 pw.x -npool 4 -i  Done                     04/24/2018 12:48:01
00002 suncat0023 pw.x -npool 4 -i  Done                     04/24/2018 12:48:01
00003 suncat0023 pw.x -npool 4 -i  Done                     04/24/2018 12:48:01
00004 suncat0023 pw.x -npool 4 -i  Done                     04/24/2018 12:48:01
00005 suncat0023 pw.x -npool 4 -i  Done                     04/24/2018 12:48:01
00006 suncat0023 pw.x -npool 4 -i  Done                     04/24/2018 12:48:01
00007 suncat0023 pw.x -npool 4 -i  Done                     04/24/2018 12:48:01
00008 suncat0151 pw.x -npool 4 -i  Done                     04/24/2018 12:48:01
00009 suncat0151 pw.x -npool 4 -i  Done                     04/24/2018 12:48:01
00010 suncat0151 pw.x -npool 4 -i  Done                     04/24/2018 12:48:01
00011 suncat0151 pw.x -npool 4 -i  Done                     04/24/2018 12:48:01
00012 suncat0151 pw.x -npool 4 -i  Done                     04/24/2018 12:48:01
00013 suncat0151 pw.x -npool 4 -i  Done                     04/24/2018 12:48:01
00014 suncat0151 pw.x -npool 4 -i  Done                     04/24/2018 12:48:01
00015 suncat0151 pw.x -npool 4 -i  Done                     04/24/2018 12:48:01
00016 suncat0227 pw.x -npool 4 -i  Done                     04/24/2018 12:48:01
00017 suncat0227 pw.x -npool 4 -i  Done                     04/24/2018 12:48:01
00018 suncat0227 pw.x -npool 4 -i  Done                     04/24/2018 12:48:01
00019 suncat0227 pw.x -npool 4 -i  Done                     04/24/2018 12:48:01
00020 suncat0227 pw.x -npool 4 -i  Done                     04/24/2018 12:48:01
00021 suncat0227 pw.x -npool 4 -i  Done                     04/24/2018 12:48:01
00022 suncat0227 pw.x -npool 4 -i  Done                     04/24/2018 12:48:01
00023 suncat0227 pw.x -npool 4 -i  Done                     04/24/2018 12:48:01
00024 suncat0220 pw.x -npool 4 -i  Done                     04/24/2018 12:48:01
00025 suncat0220 pw.x -npool 4 -i  Done                     04/24/2018 12:48:01
00026 suncat0220 pw.x -npool 4 -i  Done                     04/24/2018 12:48:01
00027 suncat0220 pw.x -npool 4 -i  Done                     04/24/2018 12:48:01
00028 suncat0220 pw.x -npool 4 -i  Done                     04/24/2018 12:48:01
00029 suncat0220 pw.x -npool 4 -i  Done                     04/24/2018 12:48:01
00030 suncat0220 pw.x -npool 4 -i  Done                     04/24/2018 12:48:01
00031 suncat0220 pw.x -npool 4 -i  Done                     04/24/2018 12:48:01
