  python dir          : /u/if/mamunm/src/espresso
  espresso dir        : /nfs/slac/g/suncatfs/sw/espv18/espresso-dynpy-beef/bin
  pseudo dir          : /u/if/mamunm/psp/gbrv1.5pbe
  ase-espresso py git : GITVERSION



     Program PWSCF v.5.1rc2 (svn rev. 11289) starts on  3May2018 at 12:45:51 

     This program is part of the open-source Quantum ESPRESSO suite
     for quantum simulation of materials; please cite
         "P. Giannozzi et al., J. Phys.:Condens. Matter 21 395502 (2009);
          URL http://www.quantum-espresso.org", 
     in publications or presentations arising from this work. More details at
     http://www.quantum-espresso.org/quote

     Parallel version (MPI), running on    32 processors
     K-points division:     npool     =       4
     R & G space division:  proc/nbgrp/npool/nimage =       8
     Reading input from pw.inp
     Message from routine read_cards :
     DEPRECATED: no units specified in CELL_PARAMETERS card

     Current dimensions of program PWSCF are:
     Max number of different atomic species (ntypx) = 10
     Max number of k-points (npk) =  40000
     Max angular momentum in pseudopotentials (lmaxx) =  3
     Presently stress not available with electric field


     **************************************************************************
     Initializing libbeef V0.1.1 with the BEEF-vdW functional.
     Citation: Wellendorff et al., PRB 85, 235149 (2012).
     **************************************************************************


     IMPORTANT: XC functional enforced from input :
     Exchange-correlation      = BEEF-VDW ( 1  4 27 13 2)
     Any further DFT definition will be discarded
     Please, verify this is what you really want


     Subspace diagonalization in iterative solution of the eigenvalue problem:
     a serial algorithm will be used

 
     Parallelization info
     --------------------
     sticks:   dense  smooth     PW     G-vecs:    dense   smooth      PW
     Min         459     185     53                89541    22651    3500
     Max         460     186     56                89564    22694    3507
     Sum        3679    1483    433               716469   181389   28035
 


     bravais-lattice index     =            0
     lattice parameter (alat)  =       1.8897  a.u.
     unit-cell volume          =    6024.3322 (a.u.)^3
     number of atoms/cell      =           13
     number of atomic types    =            2
     number of electrons       =       145.00
     number of Kohn-Sham states=           82
     kinetic-energy cutoff     =      36.7493  Ry
     charge density cutoff     =     367.4932  Ry
     convergence threshold     =      1.0E-05
     mixing beta               =       0.3000
     number of iterations used =           10  plain     mixing
     Exchange-correlation      = BEEF-VDW ( 1  4 27 13 2)
     nstep                     =           50


     celldm(1)=   1.889726  celldm(2)=   0.000000  celldm(3)=   0.000000
     celldm(4)=   0.000000  celldm(5)=   0.000000  celldm(6)=   0.000000

     crystal axes: (cart. coord. in units of alat)
               a(1) = (   6.393197   0.000000   0.000000 )  
               a(2) = (   3.196599   5.536671   0.000000 )  
               a(3) = (   0.000000   0.000000  25.220024 )  

     reciprocal axes: (cart. coord. in units 2 pi/alat)
               b(1) = (  0.156416 -0.090307  0.000000 )  
               b(2) = (  0.000000  0.180614  0.000000 )  
               b(3) = (  0.000000  0.000000  0.039651 )  


     PseudoPot. # 1 for Hf read from file:
     /u/if/mamunm/psp/gbrv1.5pbe/Hf.UPF
     MD5 check sum: 8ee9378dfe14276e333edf04c5e4aa26
     Pseudo is Ultrasoft + core correction, Zval = 12.0
     Generated by new atomic code, or converted to UPF format
     Using radial grid of  921 points,  8 beta functions with: 
                l(1) =   0
                l(2) =   0
                l(3) =   0
                l(4) =   1
                l(5) =   1
                l(6) =   2
                l(7) =   2
                l(8) =   3
     Q(r) pseudized with  6 coefficients,  rinner =    1.200   1.200   1.200
                                                       1.200   1.200   1.200
                                                       1.200

     PseudoPot. # 2 for H  read from file:
     /u/if/mamunm/psp/gbrv1.5pbe/H.UPF
     MD5 check sum: 761ae9a214b05c3daf00ab9f6b793d6f
     Pseudo is Ultrasoft, Zval =  1.0
     Generated by new atomic code, or converted to UPF format
     Using radial grid of  615 points,  2 beta functions with: 
                l(1) =   0
                l(2) =   0
     Q(r) pseudized with  8 coefficients,  rinner =    0.700

     vdW kernel table read from file vdW_kernel_table
     MD5 check sum: 095c7af220d748ca6e76c0b4c6cfb241

     atomic species   valence    mass     pseudopotential
        Hf1           12.00   178.49000     Hf( 1.00)
        H1             1.00     1.00800     H ( 1.00)

     No symmetry found



   Cartesian axes

     site n.     atom                  positions (alat units)
         1           Hf1 tau(   1) = (   1.5982993   0.9227785  10.0000000  )
         2           Hf1 tau(   2) = (   4.7948978   0.9227785  10.0000000  )
         3           Hf1 tau(   3) = (   3.1965986   3.6911141  10.0000000  )
         4           Hf1 tau(   4) = (   6.3931971   3.6911141  10.0000000  )
         5           Hf1 tau(   5) = (   6.3931971   1.8455570  12.6100118  )
         6           Hf1 tau(   6) = (   3.1965986   1.8455570  12.6100118  )
         7           Hf1 tau(   7) = (   7.9914964   4.6138926  12.6100118  )
         8           Hf1 tau(   8) = (   4.7948978   4.6138926  12.6100118  )
         9           Hf1 tau(   9) = (   0.0000000   0.0000000  15.2200236  )
        10           Hf1 tau(  10) = (   3.1965986   0.0000000  15.2200236  )
        11           Hf1 tau(  11) = (   1.5982993   2.7683356  15.2200236  )
        12           Hf1 tau(  12) = (   4.7948978   2.7683356  15.2200236  )
        13           H1  tau(  13) = (   0.0000000   0.0000000  16.9710236  )

     number of k points=    20  Fermi-Dirac smearing, width (Ry)=  0.0110
                       cart. coord. in units 2pi/alat
        k(    1) = (   0.0000000   0.0000000   0.0000000), wk =   0.0555556
        k(    2) = (   0.0000000   0.0301023   0.0000000), wk =   0.1111111
        k(    3) = (   0.0000000   0.0602046   0.0000000), wk =   0.1111111
        k(    4) = (   0.0000000  -0.0903070   0.0000000), wk =   0.0555556
        k(    5) = (   0.0260694  -0.0150512   0.0000000), wk =   0.1111111
        k(    6) = (   0.0260694   0.0150512   0.0000000), wk =   0.1111111
        k(    7) = (   0.0260694   0.0451535   0.0000000), wk =   0.1111111
        k(    8) = (   0.0260694  -0.1053581   0.0000000), wk =   0.1111111
        k(    9) = (   0.0260694  -0.0752558   0.0000000), wk =   0.1111111
        k(   10) = (   0.0260694  -0.0451535   0.0000000), wk =   0.1111111
        k(   11) = (   0.0521388  -0.0301023   0.0000000), wk =   0.1111111
        k(   12) = (   0.0521388   0.0000000   0.0000000), wk =   0.1111111
        k(   13) = (   0.0521388   0.0301023   0.0000000), wk =   0.1111111
        k(   14) = (   0.0521388  -0.1204093   0.0000000), wk =   0.1111111
        k(   15) = (   0.0521388  -0.0903070   0.0000000), wk =   0.1111111
        k(   16) = (   0.0521388  -0.0602046   0.0000000), wk =   0.1111111
        k(   17) = (  -0.0782081   0.0451535   0.0000000), wk =   0.0555556
        k(   18) = (  -0.0782081   0.0752558   0.0000000), wk =   0.1111111
        k(   19) = (  -0.0782081   0.1053581   0.0000000), wk =   0.1111111
        k(   20) = (  -0.0782081  -0.0451535   0.0000000), wk =   0.0555556

     Dense  grid:   716469 G-vectors     FFT dimensions: (  75,  75, 300)

     Smooth grid:   181389 G-vectors     FFT dimensions: (  48,  48, 192)

     Largest allocated arrays     est. size (Mb)     dimensions
        Kohn-Sham Wavefunctions         3.60 Mb     (    2881,   82)
        NL pseudopotentials            13.80 Mb     (    2881,  314)
        Each V/rho on FFT grid          3.26 Mb     (  213750)
        Each G-vector array             0.68 Mb     (   89541)
        G-vector shells                 0.18 Mb     (   23330)
     Largest temporary arrays     est. size (Mb)     dimensions
        Auxiliary wavefunctions        14.42 Mb     (    2881,  328)
        Each subspace H/S matrix        1.64 Mb     (     328,  328)
        Each <psi_i|beta_j> matrix      0.39 Mb     (     314,   82)
        Arrays for rho mixing          32.62 Mb     (  213750,   10)

     Check: negative/imaginary core charge=   -0.000003    0.000000

     Initial potential from superposition of free atoms
     Check: negative starting charge=   -1.301285

     starting charge  120.99997, renormalised to  145.00000

     negative rho (up, down):  1.559E+00 0.000E+00


     ************************************************************************
     *
     * You are using vdW-DF for exchange-correlation in this calculation.
     * Please cite the following three references that made this development
     * possible:
     *
     *   M. Dion, H. Rydberg, E. Schroder, D. C. Langreth, and
     *   B. I. Lundqvist, Phys. Rev. Lett. 92, 246401 (2004).
     *
     *   T. Thonhauser, V. R. Cooper, S. Li, A. Puzder, P. Hyldgaard, and
     *   D. C. Langreth, Phys. Rev. B 76, 125112 (2007).
     *
     *   G. Roman-Perez and J. M. Soler, Phys. Rev. Lett. 103, 096102 (2009).
     *
     *
     * If you are using vdW-DF2, please also cite:
     *
     *   K. Lee, E. D. Murray, L. Kong, B. I. Lundqvist, and
     *   D. C. Langreth, Phys. Rev. B 82, 081101(R) (2010).
     *
     *
     * If you are calculating the stress with vdW-DF, please also cite:
     *
     *   R. Sabatini, E. Kucukbenli, B. Kolb, T. Thonhauser, and
     *   S. de Gironcoli, J. Phys.: Condens. Matter 24, 424209 (2012).
     *
     ************************************************************************

     Carrying out vdW-DF run using the following parameters:

     Nqs =      20    Nr_points =    1024   r_max =   100.000
     q_mesh =
               0.00001000     0.04494208     0.09755937     0.15916263
               0.23128650     0.31572767     0.41458969     0.53033537
               0.66584808     0.82450364     1.01025438     1.22772762
               1.48234092     1.78043706     2.12944203     2.53805004
               3.01644009     3.57652955     4.23227104     5.00000000

     Gradients computed in reciprocal space

     ************************************************************************


 
     Adding external electric field

     Computed dipole along edir(3) : 
        Dipole               -1.6345 Ry au,         -4.1545 Debye
        Dipole field         -0.0034 Ry au
 
        Potential amp.        0.3169 Ry
        Total length         46.4675 bohr
 
     Starting wfc are  157 randomized atomic wfcs

     total cpu time spent up to now is       19.9 secs

     per-process dynamical memory:   105.6 Mb

     Self-consistent Calculation

     iteration #  1     ecut=    36.75 Ry     beta=0.30
     Davidson diagonalization with overlap
     ethr =  1.00E-02,  avg # of iterations =  7.5

     negative rho (up, down):  1.444E+00 0.000E+00
 
     Adding external electric field

     Computed dipole along edir(3) : 
        Dipole               62.9164 Ry au,        159.9176 Debye
        Dipole field          0.1312 Ry au
 
        Potential amp.      -12.1967 Ry
        Total length         46.4675 bohr
 

     total cpu time spent up to now is       59.5 secs

     total energy              =   -1782.17031571 Ry
     Harris-Foulkes estimate   =   -1938.74017663 Ry
     estimated scf accuracy    <     335.57918811 Ry

     iteration #  2     ecut=    36.75 Ry     beta=0.30
     Davidson diagonalization with overlap
     ethr =  1.00E-02,  avg # of iterations = 14.9

     negative rho (up, down):  1.407E+00 0.000E+00
 
     Adding external electric field

     Computed dipole along edir(3) : 
        Dipole               23.6411 Ry au,         60.0897 Debye
        Dipole field          0.0493 Ry au
 
        Potential amp.       -4.5830 Ry
        Total length         46.4675 bohr
 

     total cpu time spent up to now is      115.4 secs

     total energy              =   -1779.20320178 Ry
     Harris-Foulkes estimate   =   -2142.48865979 Ry
     estimated scf accuracy    <    3274.59295572 Ry

     iteration #  3     ecut=    36.75 Ry     beta=0.30
     Davidson diagonalization with overlap
     ethr =  1.00E-02,  avg # of iterations = 10.9

     negative rho (up, down):  1.381E+00 0.000E+00
 
     Adding external electric field

     Computed dipole along edir(3) : 
        Dipole               21.5889 Ry au,         54.8735 Debye
        Dipole field          0.0450 Ry au
 
        Potential amp.       -4.1851 Ry
        Total length         46.4675 bohr
 

     total cpu time spent up to now is      167.9 secs

     total energy              =   -1927.37941304 Ry
     Harris-Foulkes estimate   =   -1978.49591027 Ry
     estimated scf accuracy    <     206.75704854 Ry

     iteration #  4     ecut=    36.75 Ry     beta=0.30
     Davidson diagonalization with overlap
     ethr =  1.00E-02,  avg # of iterations =  6.4

     negative rho (up, down):  1.381E+00 0.000E+00
 
     Adding external electric field

     Computed dipole along edir(3) : 
        Dipole               17.7752 Ry au,         45.1801 Debye
        Dipole field          0.0371 Ry au
 
        Potential amp.       -3.4458 Ry
        Total length         46.4675 bohr
 

     total cpu time spent up to now is      205.7 secs

     total energy              =   -1934.76474645 Ry
     Harris-Foulkes estimate   =   -1941.79418789 Ry
     estimated scf accuracy    <      28.49949389 Ry

     iteration #  5     ecut=    36.75 Ry     beta=0.30
     Davidson diagonalization with overlap
     ethr =  1.00E-02,  avg # of iterations =  1.6

     negative rho (up, down):  1.414E+00 0.000E+00
 
     Adding external electric field

     Computed dipole along edir(3) : 
        Dipole                5.8831 Ry au,         14.9533 Debye
        Dipole field          0.0123 Ry au
 
        Potential amp.       -1.1405 Ry
        Total length         46.4675 bohr
 

     total cpu time spent up to now is      234.6 secs

     total energy              =   -1924.58603829 Ry
     Harris-Foulkes estimate   =   -1935.85956161 Ry
     estimated scf accuracy    <      25.54691198 Ry

     iteration #  6     ecut=    36.75 Ry     beta=0.30
     Davidson diagonalization with overlap
     ethr =  1.00E-02,  avg # of iterations =  4.0

     negative rho (up, down):  1.393E+00 0.000E+00
 
     Adding external electric field

     Computed dipole along edir(3) : 
        Dipole                6.6351 Ry au,         16.8649 Debye
        Dipole field          0.0138 Ry au
 
        Potential amp.       -1.2863 Ry
        Total length         46.4675 bohr
 

     total cpu time spent up to now is      268.2 secs

     total energy              =   -1930.17316966 Ry
     Harris-Foulkes estimate   =   -1933.72543741 Ry
     estimated scf accuracy    <     174.71799831 Ry

     iteration #  7     ecut=    36.75 Ry     beta=0.30
     Davidson diagonalization with overlap
     ethr =  1.00E-02,  avg # of iterations =  1.6

     negative rho (up, down):  1.395E+00 0.000E+00
 
     Adding external electric field

     Computed dipole along edir(3) : 
        Dipole                5.2379 Ry au,         13.3133 Debye
        Dipole field          0.0109 Ry au
 
        Potential amp.       -1.0154 Ry
        Total length         46.4675 bohr
 

     total cpu time spent up to now is      297.9 secs

     total energy              =   -1931.12073341 Ry
     Harris-Foulkes estimate   =   -1930.80917838 Ry
     estimated scf accuracy    <      78.08045686 Ry

     iteration #  8     ecut=    36.75 Ry     beta=0.30
     Davidson diagonalization with overlap
     ethr =  1.00E-02,  avg # of iterations =  1.0

     negative rho (up, down):  1.414E+00 0.000E+00
 
     Adding external electric field

     Computed dipole along edir(3) : 
        Dipole                3.4001 Ry au,          8.6423 Debye
        Dipole field          0.0071 Ry au
 
        Potential amp.       -0.6591 Ry
        Total length         46.4675 bohr
 

     total cpu time spent up to now is      327.9 secs

     total energy              =   -1927.46110843 Ry
     Harris-Foulkes estimate   =   -1931.29285634 Ry
     estimated scf accuracy    <     110.26134223 Ry

     iteration #  9     ecut=    36.75 Ry     beta=0.30
     Davidson diagonalization with overlap
     ethr =  1.00E-02,  avg # of iterations =  3.3

     negative rho (up, down):  1.488E+00 0.000E+00
 
     Adding external electric field

     Computed dipole along edir(3) : 
        Dipole                0.5654 Ry au,          1.4371 Debye
        Dipole field          0.0012 Ry au
 
        Potential amp.       -0.1096 Ry
        Total length         46.4675 bohr
 

     total cpu time spent up to now is      359.1 secs

     total energy              =   -1928.29063136 Ry
     Harris-Foulkes estimate   =   -1928.70033395 Ry
     estimated scf accuracy    <      13.63009956 Ry

     iteration # 10     ecut=    36.75 Ry     beta=0.30
     Davidson diagonalization with overlap
     ethr =  9.40E-03,  avg # of iterations =  2.0

     negative rho (up, down):  1.520E+00 0.000E+00
 
     Adding external electric field

     Computed dipole along edir(3) : 
        Dipole               -0.5464 Ry au,         -1.3889 Debye
        Dipole field         -0.0011 Ry au
 
        Potential amp.        0.1059 Ry
        Total length         46.4675 bohr
 

     total cpu time spent up to now is      390.2 secs

     total energy              =   -1928.26958125 Ry
     Harris-Foulkes estimate   =   -1929.42118421 Ry
     estimated scf accuracy    <      81.40095026 Ry

     iteration # 11     ecut=    36.75 Ry     beta=0.30
     Davidson diagonalization with overlap
     ethr =  9.40E-03,  avg # of iterations =  1.0

     negative rho (up, down):  1.464E+00 0.000E+00
 
     Adding external electric field

     Computed dipole along edir(3) : 
        Dipole               -0.0312 Ry au,         -0.0792 Debye
        Dipole field         -0.0001 Ry au
 
        Potential amp.        0.0060 Ry
        Total length         46.4675 bohr
 

     total cpu time spent up to now is      420.6 secs

     total energy              =   -1927.39465387 Ry
     Harris-Foulkes estimate   =   -1928.50282221 Ry
     estimated scf accuracy    <      37.81335953 Ry

     iteration # 12     ecut=    36.75 Ry     beta=0.30
     Davidson diagonalization with overlap
     ethr =  9.40E-03,  avg # of iterations =  1.5

     negative rho (up, down):  1.450E+00 0.000E+00
 
     Adding external electric field

     Computed dipole along edir(3) : 
        Dipole               -0.3610 Ry au,         -0.9176 Debye
        Dipole field         -0.0008 Ry au
 
        Potential amp.        0.0700 Ry
        Total length         46.4675 bohr
 

     total cpu time spent up to now is      451.3 secs

     total energy              =   -1927.73214619 Ry
     Harris-Foulkes estimate   =   -1927.78635157 Ry
     estimated scf accuracy    <       2.71453935 Ry

     iteration # 13     ecut=    36.75 Ry     beta=0.30
     Davidson diagonalization with overlap
     ethr =  1.87E-03,  avg # of iterations =  6.0

     negative rho (up, down):  1.446E+00 0.000E+00
 
     Adding external electric field

     Computed dipole along edir(3) : 
        Dipole               -0.2711 Ry au,         -0.6892 Debye
        Dipole field         -0.0006 Ry au
 
        Potential amp.        0.0526 Ry
        Total length         46.4675 bohr
 

     total cpu time spent up to now is      486.0 secs

     total energy              =   -1927.95596883 Ry
     Harris-Foulkes estimate   =   -1927.94568463 Ry
     estimated scf accuracy    <       1.89876751 Ry

     iteration # 14     ecut=    36.75 Ry     beta=0.30
     Davidson diagonalization with overlap
     ethr =  1.31E-03,  avg # of iterations =  1.6

     negative rho (up, down):  1.421E+00 0.000E+00
 
     Adding external electric field

     Computed dipole along edir(3) : 
        Dipole                0.0030 Ry au,          0.0076 Debye
        Dipole field          0.0000 Ry au
 
        Potential amp.       -0.0006 Ry
        Total length         46.4675 bohr
 

     total cpu time spent up to now is      516.9 secs

     total energy              =   -1927.85348897 Ry
     Harris-Foulkes estimate   =   -1927.97179788 Ry
     estimated scf accuracy    <       4.08924386 Ry

     iteration # 15     ecut=    36.75 Ry     beta=0.30
     Davidson diagonalization with overlap
     ethr =  1.31E-03,  avg # of iterations =  1.1

     negative rho (up, down):  1.423E+00 0.000E+00
 
     Adding external electric field

     Computed dipole along edir(3) : 
        Dipole                0.1683 Ry au,          0.4278 Debye
        Dipole field          0.0004 Ry au
 
        Potential amp.       -0.0326 Ry
        Total length         46.4675 bohr
 

     total cpu time spent up to now is      547.3 secs

     total energy              =   -1927.88605964 Ry
     Harris-Foulkes estimate   =   -1927.88872835 Ry
     estimated scf accuracy    <       2.73437546 Ry

     iteration # 16     ecut=    36.75 Ry     beta=0.30
     Davidson diagonalization with overlap
     ethr =  1.31E-03,  avg # of iterations =  1.0

     negative rho (up, down):  1.390E+00 0.000E+00
 
     Adding external electric field

     Computed dipole along edir(3) : 
        Dipole                0.6432 Ry au,          1.6349 Debye
        Dipole field          0.0013 Ry au
 
        Potential amp.       -0.1247 Ry
        Total length         46.4675 bohr
 

     total cpu time spent up to now is      577.7 secs

     total energy              =   -1927.83256747 Ry
     Harris-Foulkes estimate   =   -1927.88952222 Ry
     estimated scf accuracy    <       2.76426348 Ry

     iteration # 17     ecut=    36.75 Ry     beta=0.30
     Davidson diagonalization with overlap
     ethr =  1.31E-03,  avg # of iterations =  2.2

     negative rho (up, down):  1.383E+00 0.000E+00
 
     Adding external electric field

     Computed dipole along edir(3) : 
        Dipole                0.3105 Ry au,          0.7892 Debye
        Dipole field          0.0006 Ry au
 
        Potential amp.       -0.0602 Ry
        Total length         46.4675 bohr
 

     total cpu time spent up to now is      608.6 secs

     total energy              =   -1927.79179935 Ry
     Harris-Foulkes estimate   =   -1927.87815932 Ry
     estimated scf accuracy    <       5.03468363 Ry

     iteration # 18     ecut=    36.75 Ry     beta=0.30
     Davidson diagonalization with overlap
     ethr =  1.31E-03,  avg # of iterations =  1.0

     negative rho (up, down):  1.382E+00 0.000E+00
 
     Adding external electric field

     Computed dipole along edir(3) : 
        Dipole                0.1318 Ry au,          0.3351 Debye
        Dipole field          0.0003 Ry au
 
        Potential amp.       -0.0256 Ry
        Total length         46.4675 bohr
 

     total cpu time spent up to now is      638.9 secs

     total energy              =   -1927.77990965 Ry
     Harris-Foulkes estimate   =   -1927.83179966 Ry
     estimated scf accuracy    <       1.34117752 Ry

     iteration # 19     ecut=    36.75 Ry     beta=0.30
     Davidson diagonalization with overlap
     ethr =  9.25E-04,  avg # of iterations =  1.0

     negative rho (up, down):  1.385E+00 0.000E+00
 
     Adding external electric field

     Computed dipole along edir(3) : 
        Dipole                0.0809 Ry au,          0.2056 Debye
        Dipole field          0.0002 Ry au
 
        Potential amp.       -0.0157 Ry
        Total length         46.4675 bohr
 

     total cpu time spent up to now is      669.0 secs

     total energy              =   -1927.78196876 Ry
     Harris-Foulkes estimate   =   -1927.79717653 Ry
     estimated scf accuracy    <       1.09950943 Ry

     iteration # 20     ecut=    36.75 Ry     beta=0.30
     Davidson diagonalization with overlap
     ethr =  7.58E-04,  avg # of iterations =  1.0

     negative rho (up, down):  1.414E+00 0.000E+00
 
     Adding external electric field

     Computed dipole along edir(3) : 
        Dipole               -0.3927 Ry au,         -0.9981 Debye
        Dipole field         -0.0008 Ry au
 
        Potential amp.        0.0761 Ry
        Total length         46.4675 bohr
 

     total cpu time spent up to now is      699.1 secs

     total energy              =   -1927.74556837 Ry
     Harris-Foulkes estimate   =   -1927.79224047 Ry
     estimated scf accuracy    <       0.27045883 Ry

     iteration # 21     ecut=    36.75 Ry     beta=0.30
     Davidson diagonalization with overlap
     ethr =  1.87E-04,  avg # of iterations =  5.8

     negative rho (up, down):  1.400E+00 0.000E+00
 
     Adding external electric field

     Computed dipole along edir(3) : 
        Dipole               -0.2134 Ry au,         -0.5425 Debye
        Dipole field         -0.0004 Ry au
 
        Potential amp.        0.0414 Ry
        Total length         46.4675 bohr
 

     total cpu time spent up to now is      733.6 secs

     total energy              =   -1927.77339998 Ry
     Harris-Foulkes estimate   =   -1927.78533327 Ry
     estimated scf accuracy    <       1.05500171 Ry

     iteration # 22     ecut=    36.75 Ry     beta=0.30
     Davidson diagonalization with overlap
     ethr =  1.87E-04,  avg # of iterations =  1.2

     negative rho (up, down):  1.388E+00 0.000E+00
 
     Adding external electric field

     Computed dipole along edir(3) : 
        Dipole               -0.0492 Ry au,         -0.1251 Debye
        Dipole field         -0.0001 Ry au
 
        Potential amp.        0.0095 Ry
        Total length         46.4675 bohr
 

     total cpu time spent up to now is      764.0 secs

     total energy              =   -1927.76735592 Ry
     Harris-Foulkes estimate   =   -1927.77723721 Ry
     estimated scf accuracy    <       0.64544147 Ry

     iteration # 23     ecut=    36.75 Ry     beta=0.30
     Davidson diagonalization with overlap
     ethr =  1.87E-04,  avg # of iterations =  1.0

     negative rho (up, down):  1.378E+00 0.000E+00
 
     Adding external electric field

     Computed dipole along edir(3) : 
        Dipole                0.0376 Ry au,          0.0956 Debye
        Dipole field          0.0001 Ry au
 
        Potential amp.       -0.0073 Ry
        Total length         46.4675 bohr
 

     total cpu time spent up to now is      794.4 secs

     total energy              =   -1927.75692995 Ry
     Harris-Foulkes estimate   =   -1927.77022453 Ry
     estimated scf accuracy    <       0.20314122 Ry

     iteration # 24     ecut=    36.75 Ry     beta=0.30
     Davidson diagonalization with overlap
     ethr =  1.40E-04,  avg # of iterations =  4.9

     negative rho (up, down):  1.382E+00 0.000E+00
 
     Adding external electric field

     Computed dipole along edir(3) : 
        Dipole               -0.0864 Ry au,         -0.2196 Debye
        Dipole field         -0.0002 Ry au
 
        Potential amp.        0.0167 Ry
        Total length         46.4675 bohr
 

     total cpu time spent up to now is      826.9 secs

     total energy              =   -1927.76504680 Ry
     Harris-Foulkes estimate   =   -1927.76958126 Ry
     estimated scf accuracy    <       0.14027990 Ry

     iteration # 25     ecut=    36.75 Ry     beta=0.30
     Davidson diagonalization with overlap
     ethr =  9.67E-05,  avg # of iterations =  1.2

     negative rho (up, down):  1.386E+00 0.000E+00
 
     Adding external electric field

     Computed dipole along edir(3) : 
        Dipole               -0.1857 Ry au,         -0.4720 Debye
        Dipole field         -0.0004 Ry au
 
        Potential amp.        0.0360 Ry
        Total length         46.4675 bohr
 

     total cpu time spent up to now is      857.5 secs

     total energy              =   -1927.76553596 Ry
     Harris-Foulkes estimate   =   -1927.76682184 Ry
     estimated scf accuracy    <       0.02421050 Ry

     iteration # 26     ecut=    36.75 Ry     beta=0.30
     Davidson diagonalization with overlap
     ethr =  1.67E-05,  avg # of iterations =  5.2

     negative rho (up, down):  1.383E+00 0.000E+00
 
     Adding external electric field

     Computed dipole along edir(3) : 
        Dipole               -0.1541 Ry au,         -0.3917 Debye
        Dipole field         -0.0003 Ry au
 
        Potential amp.        0.0299 Ry
        Total length         46.4675 bohr
 

     total cpu time spent up to now is      890.8 secs

     total energy              =   -1927.76670599 Ry
     Harris-Foulkes estimate   =   -1927.76685821 Ry
     estimated scf accuracy    <       0.00115726 Ry

     iteration # 27     ecut=    36.75 Ry     beta=0.30
     Davidson diagonalization with overlap
     c_bands:  1 eigenvalues not converged
     ethr =  7.98E-07,  avg # of iterations =  8.6

     negative rho (up, down):  1.380E+00 0.000E+00
 
     Adding external electric field

     Computed dipole along edir(3) : 
        Dipole               -0.1255 Ry au,         -0.3190 Debye
        Dipole field         -0.0003 Ry au
 
        Potential amp.        0.0243 Ry
        Total length         46.4675 bohr
 

     total cpu time spent up to now is      928.2 secs

     total energy              =   -1927.76683522 Ry
     Harris-Foulkes estimate   =   -1927.76689606 Ry
     estimated scf accuracy    <       0.00046981 Ry

     iteration # 28     ecut=    36.75 Ry     beta=0.30
     Davidson diagonalization with overlap
     ethr =  3.24E-07,  avg # of iterations =  3.3

     negative rho (up, down):  1.379E+00 0.000E+00
 
     Adding external electric field

     Computed dipole along edir(3) : 
        Dipole               -0.1166 Ry au,         -0.2964 Debye
        Dipole field         -0.0002 Ry au
 
        Potential amp.        0.0226 Ry
        Total length         46.4675 bohr
 

     total cpu time spent up to now is      960.5 secs

     total energy              =   -1927.76687565 Ry
     Harris-Foulkes estimate   =   -1927.76688485 Ry
     estimated scf accuracy    <       0.00024649 Ry

     iteration # 29     ecut=    36.75 Ry     beta=0.30
     Davidson diagonalization with overlap
     ethr =  1.70E-07,  avg # of iterations =  1.3

     negative rho (up, down):  1.379E+00 0.000E+00
 
     Adding external electric field

     Computed dipole along edir(3) : 
        Dipole               -0.1213 Ry au,         -0.3083 Debye
        Dipole field         -0.0003 Ry au
 
        Potential amp.        0.0235 Ry
        Total length         46.4675 bohr
 

     total cpu time spent up to now is      991.0 secs

     total energy              =   -1927.76687376 Ry
     Harris-Foulkes estimate   =   -1927.76687916 Ry
     estimated scf accuracy    <       0.00007032 Ry

     iteration # 30     ecut=    36.75 Ry     beta=0.30
     Davidson diagonalization with overlap
     ethr =  4.85E-08,  avg # of iterations =  4.0

     negative rho (up, down):  1.378E+00 0.000E+00
 
     Adding external electric field

     Computed dipole along edir(3) : 
        Dipole               -0.1196 Ry au,         -0.3041 Debye
        Dipole field         -0.0002 Ry au
 
        Potential amp.        0.0232 Ry
        Total length         46.4675 bohr
 

     total cpu time spent up to now is     1024.4 secs

     total energy              =   -1927.76688295 Ry
     Harris-Foulkes estimate   =   -1927.76688280 Ry
     estimated scf accuracy    <       0.00001014 Ry

     iteration # 31     ecut=    36.75 Ry     beta=0.30
     Davidson diagonalization with overlap
     ethr =  6.99E-09,  avg # of iterations =  5.3

     negative rho (up, down):  1.378E+00 0.000E+00

     negative rho (up, down):  1.378E+00 0.000E+00

     negative rho (up, down):  1.378E+00 0.000E+00

     negative rho (up, down):  1.378E+00 0.000E+00

     negative rho (up, down):  1.378E+00 0.000E+00

     negative rho (up, down):  1.378E+00 0.000E+00

     negative rho (up, down):  1.378E+00 0.000E+00

     negative rho (up, down):  1.378E+00 0.000E+00

     negative rho (up, down):  1.378E+00 0.000E+00

     negative rho (up, down):  1.378E+00 0.000E+00

     negative rho (up, down):  1.378E+00 0.000E+00

     negative rho (up, down):  1.378E+00 0.000E+00

     negative rho (up, down):  1.378E+00 0.000E+00

     negative rho (up, down):  1.378E+00 0.000E+00

     negative rho (up, down):  1.378E+00 0.000E+00

     negative rho (up, down):  1.378E+00 0.000E+00

     negative rho (up, down):  1.378E+00 0.000E+00

     negative rho (up, down):  1.378E+00 0.000E+00

     negative rho (up, down):  1.378E+00 0.000E+00

     negative rho (up, down):  1.378E+00 0.000E+00

     negative rho (up, down):  1.378E+00 0.000E+00

     negative rho (up, down):  1.378E+00 0.000E+00

     negative rho (up, down):  1.378E+00 0.000E+00

     negative rho (up, down):  1.378E+00 0.000E+00

     negative rho (up, down):  1.378E+00 0.000E+00

     negative rho (up, down):  1.378E+00 0.000E+00

     negative rho (up, down):  1.378E+00 0.000E+00

     negative rho (up, down):  1.378E+00 0.000E+00

     negative rho (up, down):  1.378E+00 0.000E+00

     negative rho (up, down):  1.378E+00 0.000E+00

     negative rho (up, down):  1.378E+00 0.000E+00

     negative rho (up, down):  1.378E+00 0.000E+00

     negative rho (up, down):  1.378E+00 0.000E+00

     negative rho (up, down):  1.378E+00 0.000E+00

     negative rho (up, down):  1.378E+00 0.000E+00
 
     Adding external electric field

     Computed dipole along edir(3) : 
        Dipole               -0.1171 Ry au,         -0.2977 Debye
        Dipole field         -0.0002 Ry au
 
        Potential amp.        0.0227 Ry
        Total length         46.4675 bohr
 

     total cpu time spent up to now is     1119.6 secs

     End of self-consistent calculation

          k = 0.0000 0.0000 0.0000 ( 22729 PWs)   bands (ev):

   -61.4792 -61.4535 -61.4528 -61.4204 -61.3905 -61.3812 -61.3812 -61.0393
   -61.0095 -61.0092 -60.9852 -60.9095 -30.2059 -30.1779 -30.1778 -30.1597
   -30.1457 -30.1453 -30.1453 -30.0666 -30.0661 -30.0423 -29.9878 -29.9509
   -29.9507 -29.8374 -29.7873 -29.7586 -29.7586 -29.7559 -29.7324 -29.7319
   -29.7240 -29.7238 -29.6292 -29.6292 -29.5410 -29.5031 -29.5029 -29.4605
   -29.4344 -29.4343 -29.3893 -29.3887 -29.3886 -29.3104 -29.2717 -29.2717
    -5.3380  -4.0697  -2.7462  -2.1215  -1.8320  -1.8320  -1.6409  -1.5618
    -1.5618  -1.3863  -1.1575  -1.1575  -0.8688  -0.4985  -0.4985  -0.4374
     0.2408   0.2767   0.2768   1.2077   1.4432   1.5450   1.5861   1.5862
     1.6204   1.6850   1.6850   1.9928   2.2648   2.3090   2.3092   2.3718
     2.4792   2.5927

          k = 0.0000 0.0301 0.0000 ( 22708 PWs)   bands (ev):

   -61.4776 -61.4544 -61.4534 -61.4182 -61.3913 -61.3826 -61.3812 -61.0372
   -61.0110 -61.0092 -60.9858 -60.9096 -30.1838 -30.1584 -30.1515 -30.1376
   -30.1368 -30.1255 -30.1200 -30.0634 -30.0615 -30.0367 -29.9843 -29.9553
   -29.9515 -29.8501 -29.7848 -29.7784 -29.7692 -29.7583 -29.7495 -29.7351
   -29.7111 -29.7059 -29.6687 -29.6377 -29.5392 -29.5137 -29.5044 -29.4578
   -29.4455 -29.4366 -29.4075 -29.4072 -29.3827 -29.3147 -29.2997 -29.2795
    -5.1375  -3.8734  -2.5434  -2.2036  -1.9322  -1.7420  -1.6674  -1.5132
    -1.4357  -1.2394  -0.9946  -0.9335  -0.7380  -0.3925  -0.3816  -0.3329
     0.2853   0.3193   0.3333   1.1898   1.2928   1.3469   1.4246   1.4499
     1.6455   1.6955   1.7125   1.8940   2.0838   2.1022   2.1181   2.1968
     2.2539   2.2668

          k = 0.0000 0.0602 0.0000 ( 22648 PWs)   bands (ev):

   -61.4736 -61.4582 -61.4534 -61.4126 -61.3945 -61.3849 -61.3812 -61.0317
   -61.0156 -61.0092 -60.9867 -60.9097 -30.1415 -30.1166 -30.1105 -30.0957
   -30.0801 -30.0746 -30.0558 -30.0511 -30.0336 -30.0233 -29.9821 -29.9617
   -29.9536 -29.8915 -29.8352 -29.8337 -29.8296 -29.7717 -29.7388 -29.7331
   -29.7252 -29.6746 -29.6612 -29.6460 -29.5489 -29.5347 -29.5113 -29.4692
   -29.4581 -29.4533 -29.4405 -29.4331 -29.3998 -29.3639 -29.3026 -29.3006
    -4.5700  -3.3386  -2.8405  -2.1117  -1.9140  -1.6660  -1.5452  -1.3391
    -1.0906  -0.9681  -0.7736  -0.3609  -0.2905  -0.0945  -0.0612  -0.0341
     0.3782   0.3994   0.5043   0.8811   1.0408   1.0553   1.1104   1.1430
     1.3159   1.3343   1.3747   1.5795   1.6725   1.6798   1.7383   1.8385
     1.9660   1.9764

          k = 0.0000-0.0903 0.0000 ( 22668 PWs)   bands (ev):

   -61.4705 -61.4613 -61.4534 -61.4080 -61.3983 -61.3857 -61.3812 -61.0265
   -61.0204 -61.0092 -60.9872 -60.9098 -30.1205 -30.0997 -30.0778 -30.0772
   -30.0645 -30.0488 -30.0284 -30.0136 -30.0053 -29.9661 -29.9633 -29.9611
   -29.9262 -29.9172 -29.9078 -29.9012 -29.8683 -29.8632 -29.7381 -29.7090
   -29.6966 -29.6904 -29.6465 -29.5951 -29.5461 -29.5270 -29.5228 -29.5054
   -29.4850 -29.4811 -29.4520 -29.4469 -29.4363 -29.3444 -29.3210 -29.3015
    -3.7832  -3.6999  -2.7075  -2.5070  -1.6937  -1.4326  -1.3409  -1.2008
    -1.0695  -0.8397  -0.6666   0.0824   0.1230   0.2210   0.2307   0.3521
     0.3628   0.5431   0.5619   0.7141   0.7253   0.7570   0.8652   0.9360
     0.9629   1.0714   1.1742   1.1757   1.2449   1.3625   1.4842   1.5796
     1.7543   2.0933

          k = 0.0261-0.0151 0.0000 ( 22708 PWs)   bands (ev):

   -61.4775 -61.4551 -61.4528 -61.4182 -61.3913 -61.3826 -61.3812 -61.0372
   -61.0108 -61.0095 -60.9858 -60.9096 -30.1837 -30.1585 -30.1515 -30.1375
   -30.1368 -30.1258 -30.1198 -30.0639 -30.0611 -30.0367 -29.9843 -29.9554
   -29.9514 -29.8501 -29.7848 -29.7784 -29.7692 -29.7587 -29.7495 -29.7346
   -29.7109 -29.7060 -29.6687 -29.6377 -29.5392 -29.5135 -29.5046 -29.4578
   -29.4454 -29.4367 -29.4074 -29.4072 -29.3828 -29.3147 -29.2997 -29.2794
    -5.1375  -3.8734  -2.5434  -2.2036  -1.9322  -1.7420  -1.6674  -1.5132
    -1.4357  -1.2394  -0.9946  -0.9335  -0.7380  -0.3925  -0.3816  -0.3329
     0.2853   0.3193   0.3334   1.1898   1.2928   1.3468   1.4246   1.4499
     1.6455   1.6954   1.7125   1.8940   2.0838   2.1021   2.1181   2.1969
     2.2538   2.2669

          k = 0.0261 0.0151 0.0000 ( 22708 PWs)   bands (ev):

   -61.4776 -61.4547 -61.4531 -61.4182 -61.3913 -61.3826 -61.3812 -61.0372
   -61.0110 -61.0093 -60.9858 -60.9096 -30.1838 -30.1585 -30.1515 -30.1376
   -30.1368 -30.1256 -30.1199 -30.0636 -30.0613 -30.0367 -29.9843 -29.9554
   -29.9514 -29.8501 -29.7848 -29.7784 -29.7692 -29.7584 -29.7495 -29.7349
   -29.7110 -29.7059 -29.6687 -29.6377 -29.5392 -29.5136 -29.5045 -29.4578
   -29.4454 -29.4366 -29.4075 -29.4072 -29.3827 -29.3147 -29.2997 -29.2795
    -5.1375  -3.8734  -2.5434  -2.2036  -1.9322  -1.7420  -1.6674  -1.5132
    -1.4357  -1.2394  -0.9946  -0.9335  -0.7380  -0.3925  -0.3816  -0.3329
     0.2853   0.3193   0.3334   1.1898   1.2928   1.3469   1.4246   1.4499
     1.6455   1.6954   1.7125   1.8940   2.0838   2.1021   2.1181   2.1969
     2.2538   2.2669

          k = 0.0261 0.0452 0.0000 ( 22675 PWs)   bands (ev):

   -61.4748 -61.4571 -61.4534 -61.4143 -61.3929 -61.3855 -61.3806 -61.0334
   -61.0138 -61.0096 -60.9865 -60.9097 -30.1495 -30.1228 -30.1220 -30.1105
   -30.0974 -30.0807 -30.0732 -30.0598 -30.0537 -30.0274 -29.9813 -29.9625
   -29.9516 -29.8827 -29.8461 -29.7992 -29.7654 -29.7610 -29.7472 -29.7433
   -29.7340 -29.6807 -29.6706 -29.6560 -29.5393 -29.5343 -29.5094 -29.4743
   -29.4544 -29.4438 -29.4370 -29.3957 -29.3949 -29.3674 -29.3038 -29.2958
    -4.7524  -3.5045  -2.4057  -2.2590  -2.1384  -1.8074  -1.5606  -1.3311
    -1.1454  -0.9827  -0.7388  -0.6321  -0.4418  -0.1899  -0.1733  -0.1238
     0.3617   0.3963   0.4216   1.0572   1.1031   1.1148   1.1725   1.2458
     1.3786   1.4003   1.6434   1.6713   1.8151   1.8393   1.8474   1.8612
     1.9268   2.0790

          k = 0.0261-0.1054 0.0000 ( 22643 PWs)   bands (ev):

   -61.4705 -61.4613 -61.4534 -61.4087 -61.3961 -61.3886 -61.3798 -61.0273
   -61.0187 -61.0103 -60.9870 -60.9097 -30.1075 -30.1007 -30.0777 -30.0721
   -30.0592 -30.0416 -30.0342 -30.0144 -30.0085 -29.9840 -29.9726 -29.9656
   -29.9600 -29.9373 -29.9201 -29.8701 -29.8490 -29.7930 -29.7551 -29.7292
   -29.7036 -29.6888 -29.6362 -29.6096 -29.5596 -29.5436 -29.5231 -29.5116
   -29.4728 -29.4520 -29.4498 -29.4373 -29.4208 -29.3668 -29.3264 -29.3003
    -4.0472  -3.1678  -2.8545  -2.3666  -2.1258  -1.6218  -1.3987  -1.0929
    -0.7888  -0.7082  -0.5337  -0.1386  -0.0002   0.1448   0.1716   0.1833
     0.3812   0.5142   0.5870   0.6477   0.7781   0.8716   0.9051   0.9301
     0.9789   1.1185   1.2041   1.3151   1.3743   1.4383   1.4915   1.5365
     1.6698   1.7704

          k = 0.0261-0.0753 0.0000 ( 22643 PWs)   bands (ev):

   -61.4704 -61.4615 -61.4533 -61.4087 -61.3961 -61.3886 -61.3798 -61.0273
   -61.0186 -61.0103 -60.9870 -60.9097 -30.1075 -30.1006 -30.0778 -30.0721
   -30.0591 -30.0415 -30.0341 -30.0144 -30.0086 -29.9840 -29.9726 -29.9656
   -29.9602 -29.9375 -29.9201 -29.8699 -29.8490 -29.7930 -29.7550 -29.7292
   -29.7036 -29.6888 -29.6361 -29.6096 -29.5595 -29.5436 -29.5232 -29.5116
   -29.4729 -29.4520 -29.4498 -29.4373 -29.4207 -29.3668 -29.3264 -29.3003
    -4.0472  -3.1678  -2.8545  -2.3666  -2.1258  -1.6218  -1.3987  -1.0929
    -0.7888  -0.7082  -0.5337  -0.1386  -0.0002   0.1448   0.1716   0.1834
     0.3812   0.5142   0.5869   0.6477   0.7781   0.8716   0.9052   0.9300
     0.9789   1.1185   1.2041   1.3151   1.3743   1.4383   1.4915   1.5365
     1.6698   1.7705

          k = 0.0261-0.0452 0.0000 ( 22675 PWs)   bands (ev):

   -61.4747 -61.4575 -61.4531 -61.4143 -61.3929 -61.3855 -61.3806 -61.0334
   -61.0136 -61.0098 -60.9865 -60.9097 -30.1494 -30.1228 -30.1220 -30.1104
   -30.0976 -30.0806 -30.0734 -30.0601 -30.0534 -30.0274 -29.9813 -29.9625
   -29.9515 -29.8828 -29.8461 -29.7993 -29.7654 -29.7610 -29.7470 -29.7433
   -29.7340 -29.6806 -29.6706 -29.6560 -29.5393 -29.5343 -29.5096 -29.4743
   -29.4544 -29.4438 -29.4371 -29.3958 -29.3949 -29.3674 -29.3038 -29.2957
    -4.7524  -3.5046  -2.4057  -2.2590  -2.1384  -1.8074  -1.5606  -1.3311
    -1.1454  -0.9827  -0.7388  -0.6321  -0.4418  -0.1899  -0.1733  -0.1238
     0.3617   0.3963   0.4216   1.0572   1.1031   1.1148   1.1726   1.2458
     1.3786   1.4004   1.6434   1.6713   1.8151   1.8393   1.8474   1.8612
     1.9268   2.0790

          k = 0.0521-0.0301 0.0000 ( 22648 PWs)   bands (ev):

   -61.4734 -61.4591 -61.4528 -61.4126 -61.3945 -61.3849 -61.3812 -61.0317
   -61.0154 -61.0095 -60.9867 -60.9097 -30.1411 -30.1164 -30.1106 -30.0956
   -30.0804 -30.0750 -30.0561 -30.0506 -30.0336 -30.0233 -29.9821 -29.9617
   -29.9535 -29.8913 -29.8353 -29.8341 -29.8296 -29.7717 -29.7383 -29.7332
   -29.7252 -29.6744 -29.6612 -29.6460 -29.5488 -29.5348 -29.5115 -29.4690
   -29.4582 -29.4533 -29.4404 -29.4332 -29.3999 -29.3639 -29.3026 -29.3005
    -4.5700  -3.3387  -2.8405  -2.1117  -1.9140  -1.6661  -1.5453  -1.3391
    -1.0906  -0.9680  -0.7736  -0.3609  -0.2905  -0.0945  -0.0612  -0.0341
     0.3782   0.3994   0.5043   0.8811   1.0408   1.0553   1.1104   1.1430
     1.3159   1.3344   1.3746   1.5795   1.6724   1.6799   1.7384   1.8384
     1.9660   1.9764

          k = 0.0521 0.0000 0.0000 ( 22675 PWs)   bands (ev):

   -61.4747 -61.4577 -61.4529 -61.4143 -61.3929 -61.3855 -61.3806 -61.0334
   -61.0136 -61.0098 -60.9865 -60.9097 -30.1493 -30.1228 -30.1220 -30.1103
   -30.0976 -30.0805 -30.0735 -30.0603 -30.0532 -30.0274 -29.9813 -29.9626
   -29.9515 -29.8829 -29.8461 -29.7994 -29.7654 -29.7610 -29.7469 -29.7433
   -29.7340 -29.6806 -29.6707 -29.6560 -29.5393 -29.5342 -29.5097 -29.4742
   -29.4544 -29.4438 -29.4371 -29.3958 -29.3949 -29.3674 -29.3038 -29.2957
    -4.7524  -3.5046  -2.4057  -2.2590  -2.1384  -1.8074  -1.5606  -1.3311
    -1.1454  -0.9827  -0.7388  -0.6322  -0.4418  -0.1899  -0.1733  -0.1238
     0.3618   0.3963   0.4216   1.0572   1.1031   1.1148   1.1726   1.2457
     1.3786   1.4004   1.6434   1.6713   1.8151   1.8394   1.8474   1.8612
     1.9268   2.0789

          k = 0.0521 0.0301 0.0000 ( 22648 PWs)   bands (ev):

   -61.4735 -61.4586 -61.4532 -61.4126 -61.3945 -61.3849 -61.3812 -61.0317
   -61.0155 -61.0093 -60.9867 -60.9097 -30.1414 -30.1165 -30.1106 -30.0956
   -30.0802 -30.0748 -30.0559 -30.0509 -30.0336 -30.0233 -29.9821 -29.9617
   -29.9536 -29.8914 -29.8352 -29.8339 -29.8296 -29.7717 -29.7386 -29.7332
   -29.7252 -29.6746 -29.6612 -29.6460 -29.5489 -29.5347 -29.5114 -29.4692
   -29.4581 -29.4533 -29.4405 -29.4331 -29.3998 -29.3639 -29.3026 -29.3006
    -4.5700  -3.3387  -2.8405  -2.1117  -1.9140  -1.6661  -1.5452  -1.3391
    -1.0906  -0.9680  -0.7736  -0.3609  -0.2905  -0.0945  -0.0612  -0.0341
     0.3782   0.3994   0.5043   0.8811   1.0408   1.0553   1.1104   1.1430
     1.3159   1.3343   1.3746   1.5795   1.6725   1.6798   1.7383   1.8385
     1.9660   1.9765

          k = 0.0521-0.1204 0.0000 ( 22643 PWs)   bands (ev):

   -61.4704 -61.4615 -61.4533 -61.4087 -61.3961 -61.3886 -61.3798 -61.0273
   -61.0186 -61.0103 -60.9870 -60.9097 -30.1074 -30.1006 -30.0778 -30.0721
   -30.0592 -30.0416 -30.0342 -30.0144 -30.0086 -29.9841 -29.9726 -29.9656
   -29.9598 -29.9373 -29.9201 -29.8702 -29.8490 -29.7930 -29.7549 -29.7293
   -29.7036 -29.6888 -29.6361 -29.6096 -29.5596 -29.5436 -29.5232 -29.5116
   -29.4728 -29.4520 -29.4498 -29.4373 -29.4208 -29.3668 -29.3264 -29.3003
    -4.0472  -3.1678  -2.8545  -2.3666  -2.1257  -1.6218  -1.3987  -1.0929
    -0.7888  -0.7082  -0.5337  -0.1386  -0.0002   0.1448   0.1716   0.1833
     0.3812   0.5142   0.5869   0.6477   0.7781   0.8716   0.9051   0.9301
     0.9789   1.1185   1.2041   1.3151   1.3743   1.4384   1.4915   1.5365
     1.6698   1.7704

          k = 0.0521-0.0903 0.0000 ( 22614 PWs)   bands (ev):

   -61.4663 -61.4656 -61.4532 -61.4062 -61.3941 -61.3940 -61.3789 -61.0226
   -61.0219 -61.0117 -60.9870 -60.9098 -30.0872 -30.0843 -30.0542 -30.0492
   -30.0334 -30.0304 -30.0091 -30.0075 -30.0009 -29.9931 -29.9858 -29.9443
   -29.9430 -29.9425 -29.9413 -29.9175 -29.9156 -29.7722 -29.7441 -29.7403
   -29.7349 -29.6692 -29.6262 -29.5751 -29.5656 -29.5634 -29.5285 -29.5274
   -29.5116 -29.4517 -29.4493 -29.4387 -29.3910 -29.3687 -29.3653 -29.2991
    -3.3565  -3.2132  -3.2034  -2.3793  -2.0439  -2.0403  -1.2169  -0.6464
    -0.6414  -0.5081  -0.3436  -0.1547  -0.1391   0.2959   0.3183   0.3864
     0.3972   0.4428   0.5890   0.6064   0.6429   0.6459   0.6483   0.8968
     1.0626   1.1019   1.1070   1.1246   1.2586   1.2755   1.4019   1.4369
     1.5202   1.5651

          k = 0.0521-0.0602 0.0000 ( 22643 PWs)   bands (ev):

   -61.4701 -61.4621 -61.4530 -61.4086 -61.3962 -61.3886 -61.3798 -61.0274
   -61.0184 -61.0105 -60.9870 -60.9097 -30.1072 -30.1004 -30.0781 -30.0723
   -30.0592 -30.0415 -30.0342 -30.0144 -30.0087 -29.9842 -29.9726 -29.9656
   -29.9599 -29.9373 -29.9201 -29.8703 -29.8490 -29.7930 -29.7547 -29.7293
   -29.7037 -29.6888 -29.6360 -29.6095 -29.5596 -29.5436 -29.5233 -29.5117
   -29.4728 -29.4520 -29.4498 -29.4374 -29.4208 -29.3669 -29.3263 -29.3003
    -4.0472  -3.1678  -2.8545  -2.3666  -2.1257  -1.6218  -1.3987  -1.0929
    -0.7888  -0.7082  -0.5337  -0.1386  -0.0002   0.1448   0.1716   0.1833
     0.3811   0.5142   0.5869   0.6477   0.7781   0.8716   0.9051   0.9300
     0.9789   1.1185   1.2041   1.3151   1.3743   1.4384   1.4915   1.5365
     1.6698   1.7705

          k =-0.0782 0.0452 0.0000 ( 22668 PWs)   bands (ev):

   -61.4699 -61.4625 -61.4528 -61.4080 -61.3983 -61.3857 -61.3812 -61.0267
   -61.0200 -61.0095 -60.9871 -60.9098 -30.1200 -30.0992 -30.0781 -30.0779
   -30.0644 -30.0484 -30.0290 -30.0137 -30.0052 -29.9662 -29.9628 -29.9609
   -29.9258 -29.9181 -29.9078 -29.9013 -29.8682 -29.8632 -29.7376 -29.7091
   -29.6966 -29.6904 -29.6463 -29.5949 -29.5462 -29.5271 -29.5230 -29.5052
   -29.4849 -29.4813 -29.4519 -29.4468 -29.4364 -29.3446 -29.3208 -29.3015
    -3.7833  -3.6998  -2.7075  -2.5070  -1.6938  -1.4326  -1.3409  -1.2008
    -1.0696  -0.8396  -0.6666   0.0824   0.1230   0.2211   0.2306   0.3521
     0.3628   0.5430   0.5619   0.7141   0.7252   0.7569   0.8652   0.9360
     0.9628   1.0713   1.1742   1.1756   1.2450   1.3626   1.4842   1.5795
     1.7543   2.1126

          k =-0.0782 0.0753 0.0000 ( 22643 PWs)   bands (ev):

   -61.4701 -61.4622 -61.4529 -61.4086 -61.3962 -61.3886 -61.3798 -61.0274
   -61.0184 -61.0105 -60.9870 -60.9097 -30.1072 -30.1004 -30.0781 -30.0723
   -30.0592 -30.0414 -30.0342 -30.0144 -30.0087 -29.9841 -29.9726 -29.9656
   -29.9600 -29.9374 -29.9201 -29.8702 -29.8490 -29.7930 -29.7546 -29.7292
   -29.7037 -29.6888 -29.6360 -29.6095 -29.5596 -29.5436 -29.5233 -29.5117
   -29.4729 -29.4520 -29.4497 -29.4374 -29.4208 -29.3669 -29.3263 -29.3003
    -4.0472  -3.1678  -2.8545  -2.3666  -2.1257  -1.6218  -1.3987  -1.0929
    -0.7888  -0.7082  -0.5337  -0.1386  -0.0002   0.1448   0.1716   0.1834
     0.3812   0.5142   0.5869   0.6477   0.7781   0.8716   0.9051   0.9300
     0.9789   1.1185   1.2041   1.3151   1.3743   1.4384   1.4915   1.5365
     1.6698   1.7705

          k =-0.0782 0.1054 0.0000 ( 22643 PWs)   bands (ev):

   -61.4703 -61.4618 -61.4531 -61.4087 -61.3961 -61.3886 -61.3798 -61.0273
   -61.0185 -61.0104 -60.9870 -60.9097 -30.1074 -30.1005 -30.0780 -30.0722
   -30.0591 -30.0414 -30.0342 -30.0144 -30.0087 -29.9840 -29.9726 -29.9656
   -29.9602 -29.9375 -29.9201 -29.8700 -29.8489 -29.7930 -29.7548 -29.7293
   -29.7036 -29.6888 -29.6361 -29.6096 -29.5595 -29.5436 -29.5233 -29.5116
   -29.4729 -29.4520 -29.4498 -29.4373 -29.4207 -29.3668 -29.3264 -29.3003
    -4.0472  -3.1678  -2.8545  -2.3666  -2.1258  -1.6218  -1.3987  -1.0929
    -0.7888  -0.7082  -0.5337  -0.1386  -0.0002   0.1448   0.1716   0.1834
     0.3812   0.5142   0.5869   0.6477   0.7781   0.8716   0.9051   0.9300
     0.9789   1.1185   1.2041   1.3151   1.3743   1.4383   1.4915   1.5365
     1.6698   1.7705

          k =-0.0782-0.0452 0.0000 ( 22668 PWs)   bands (ev):

   -61.4703 -61.4617 -61.4532 -61.4080 -61.3983 -61.3857 -61.3812 -61.0265
   -61.0203 -61.0093 -60.9872 -60.9098 -30.1203 -30.0996 -30.0778 -30.0775
   -30.0644 -30.0487 -30.0286 -30.0136 -30.0053 -29.9662 -29.9631 -29.9610
   -29.9260 -29.9175 -29.9078 -29.9013 -29.8682 -29.8632 -29.7379 -29.7090
   -29.6966 -29.6904 -29.6464 -29.5950 -29.5461 -29.5271 -29.5228 -29.5053
   -29.4850 -29.4812 -29.4520 -29.4469 -29.4364 -29.3444 -29.3210 -29.3015
    -3.7832  -3.6999  -2.7075  -2.5070  -1.6937  -1.4326  -1.3409  -1.2008
    -1.0695  -0.8397  -0.6666   0.0824   0.1230   0.2211   0.2307   0.3521
     0.3628   0.5430   0.5619   0.7141   0.7253   0.7569   0.8652   0.9360
     0.9628   1.0713   1.1742   1.1757   1.2450   1.3625   1.4842   1.5796
     1.7543   2.1125

     the Fermi energy is     1.2166 ev

!    total energy              =   -1927.76688386 Ry
     Harris-Foulkes estimate   =   -1927.76688530 Ry
     estimated scf accuracy    <       0.00000147 Ry

     The total energy is the sum of the following terms:

     one-electron contribution =   -8328.90298727 Ry
     hartree contribution      =    4146.71870940 Ry
     xc contribution           =    -928.45310543 Ry
     ewald contribution        =    3182.98840773 Ry
     electric field correction =       0.00002861 Ry
     smearing contrib. (-TS)   =      -0.11793690 Ry

     convergence has been achieved in  31 iterations
 
 BEEF-vdW xc energy contributions
           1 :   -839.667905159998     
           2 :    780.463831247708     
           3 :   -675.503194150587     
           4 :    546.449516559748     
           5 :   -415.775979306188     
           6 :    300.430286244035     
           7 :   -209.028623283491     
           8 :    142.741881180149     
           9 :   -98.3343824093392     
          10 :    71.1501968814996     
          11 :   -56.6911931100475     
          12 :    50.7140151070428     
          13 :   -48.8129516680826     
          14 :    46.4793799402506     
          15 :   -39.9993513884874     
          16 :    27.6892667616863     
          17 :   -10.6208221294102     
          18 :   -7.78302718002249     
          19 :    23.1963555629934     
          20 :   -32.1965038762605     
          21 :    33.5340594446602     
          22 :   -28.3348168951470     
          23 :    19.3065330074880     
          24 :   -9.53544743915404     
          25 :    1.52126876825798     
          26 :    3.20625882216177     
          27 :   -4.00391534369169     
          28 :   0.913603809614187     
          29 :    5.38552774076038     
          30 :   -13.4999435289269     
          31 :   -60.2516877234393     
          32 :   -43.3092339251584     

     Forces acting on atoms (Ry/au):


     negative rho (up, down):  1.378E+00 0.000E+00
     atom    1 type  1   force =    -0.00117609   -0.00062519    0.02476144
     atom    2 type  1   force =     0.00117188   -0.00066078    0.02478089
     atom    3 type  1   force =    -0.00002635    0.00132223    0.02476543
     atom    4 type  1   force =     0.00002675   -0.00003396    0.02732789
     atom    5 type  1   force =     0.00003787    0.01208473   -0.01107097
     atom    6 type  1   force =    -0.00004150    0.00003309   -0.00107724
     atom    7 type  1   force =    -0.01043307   -0.00607917   -0.01109711
     atom    8 type  1   force =     0.01043476   -0.00603133   -0.01113093
     atom    9 type  1   force =    -0.00001701    0.00000157   -0.06021357
     atom   10 type  1   force =     0.00001917    0.00264392   -0.02322198
     atom   11 type  1   force =     0.00227264   -0.00131622   -0.02328720
     atom   12 type  1   force =    -0.00226851   -0.00134168   -0.02323329
     atom   13 type  2   force =    -0.00000054    0.00000279    0.06269665

     Total force =     0.095910     Total SCF correction =     0.000501


     entering subroutine stress ...


     negative rho (up, down):  1.378E+00 0.000E+00
          total   stress  (Ry/bohr**3)                   (kbar)     P=  -21.81
  -0.00015771   0.00000000  -0.00000000        -23.20      0.00     -0.00
   0.00000000  -0.00015770   0.00000000          0.00    -23.20      0.00
  -0.00000000   0.00000000  -0.00012932         -0.00      0.00    -19.02


     BFGS Geometry Optimization

     number of scf cycles    =   1
     number of bfgs steps    =   0

     energy   new            =   -1927.7668838582 Ry

     new trust radius        =       0.0626966462 bohr
     new conv_thr            =       0.0000099958 Ry


ATOMIC_POSITIONS (crystal)
Hf1      0.166666667   0.166666667   0.396510335    0   0   0
Hf1      0.666666667   0.166666667   0.396510335    0   0   0
Hf1      0.166666667   0.666666667   0.396510335    0   0   0
Hf1      0.666666667   0.666666667   0.396510335    0   0   0
Hf1      0.833333333   0.333333333   0.500000000    0   0   0
Hf1      0.333333333   0.333333333   0.500000000    0   0   0
Hf1      0.833333333   0.833333333   0.500000000    0   0   0
Hf1      0.333333333   0.833333333   0.500000000    0   0   0
Hf1     -0.000001484   0.000000150   0.602226239
Hf1      0.499875238   0.000252697   0.603002412
Hf1      0.000251011   0.499874200   0.603001043
Hf1      0.499876348   0.499871767   0.603002174
H1      -0.000000178   0.000000266   0.674234152



     Writing output data file calc.save
     Check: negative starting charge=   -1.301285
     NEW-OLD atomic charge density approx. for the potential

     Check: negative/imaginary core charge=   -0.000003    0.000000
     Check: negative starting charge=   -1.300946

     negative rho (up, down):  1.377E+00 0.000E+00
 
     Adding external electric field

     Computed dipole along edir(3) : 
        Dipole               -0.3770 Ry au,         -0.9583 Debye
        Dipole field         -0.0008 Ry au
 
        Potential amp.        0.0731 Ry
        Total length         46.4675 bohr
 

     total cpu time spent up to now is     1261.1 secs

     per-process dynamical memory:   115.2 Mb

     Self-consistent Calculation

     iteration #  1     ecut=    36.75 Ry     beta=0.30
     Davidson diagonalization with overlap
     c_bands:  1 eigenvalues not converged
     ethr =  1.00E-06,  avg # of iterations = 15.3

     negative rho (up, down):  1.378E+00 0.000E+00
 
     Adding external electric field

     Computed dipole along edir(3) : 
        Dipole                5.0580 Ry au,         12.8562 Debye
        Dipole field          0.0106 Ry au
 
        Potential amp.       -0.9805 Ry
        Total length         46.4675 bohr
 

     total cpu time spent up to now is     1311.8 secs

     total energy              =   -1926.55976131 Ry
     Harris-Foulkes estimate   =   -1927.75438507 Ry
     estimated scf accuracy    <       2.47815462 Ry

     iteration #  2     ecut=    36.75 Ry     beta=0.30
     Davidson diagonalization with overlap
     ethr =  1.71E-03,  avg # of iterations = 12.3

     negative rho (up, down):  1.377E+00 0.000E+00
 
     Adding external electric field

     Computed dipole along edir(3) : 
        Dipole               -0.3506 Ry au,         -0.8912 Debye
        Dipole field         -0.0007 Ry au
 
        Potential amp.        0.0680 Ry
        Total length         46.4675 bohr
 

     total cpu time spent up to now is     1357.3 secs

     total energy              =   -1920.67035418 Ry
     Harris-Foulkes estimate   =   -1939.81457202 Ry
     estimated scf accuracy    <     502.72441358 Ry

     iteration #  3     ecut=    36.75 Ry     beta=0.30
     Davidson diagonalization with overlap
     ethr =  1.71E-03,  avg # of iterations =  6.5

     negative rho (up, down):  1.377E+00 0.000E+00
 
     Adding external electric field

     Computed dipole along edir(3) : 
        Dipole               -0.4288 Ry au,         -1.0899 Debye
        Dipole field         -0.0009 Ry au
 
        Potential amp.        0.0831 Ry
        Total length         46.4675 bohr
 

     total cpu time spent up to now is     1401.1 secs

     total energy              =   -1927.74217547 Ry
     Harris-Foulkes estimate   =   -1927.85874380 Ry
     estimated scf accuracy    <       6.76548698 Ry

     iteration #  4     ecut=    36.75 Ry     beta=0.30
     Davidson diagonalization with overlap
     ethr =  1.71E-03,  avg # of iterations =  1.0

     negative rho (up, down):  1.377E+00 0.000E+00
 
     Adding external electric field

     Computed dipole along edir(3) : 
        Dipole               -0.3836 Ry au,         -0.9750 Debye
        Dipole field         -0.0008 Ry au
 
        Potential amp.        0.0744 Ry
        Total length         46.4675 bohr
 

     total cpu time spent up to now is     1437.2 secs

     total energy              =   -1927.75358695 Ry
     Harris-Foulkes estimate   =   -1927.77890187 Ry
     estimated scf accuracy    <       1.59790542 Ry

     iteration #  5     ecut=    36.75 Ry     beta=0.30
     Davidson diagonalization with overlap
     ethr =  1.10E-03,  avg # of iterations =  1.0

     negative rho (up, down):  1.377E+00 0.000E+00
 
     Adding external electric field

     Computed dipole along edir(3) : 
        Dipole               -0.3440 Ry au,         -0.8743 Debye
        Dipole field         -0.0007 Ry au
 
        Potential amp.        0.0667 Ry
        Total length         46.4675 bohr
 

     total cpu time spent up to now is     1473.9 secs

     total energy              =   -1927.76325854 Ry
     Harris-Foulkes estimate   =   -1927.76634818 Ry
     estimated scf accuracy    <       0.16614190 Ry

     iteration #  6     ecut=    36.75 Ry     beta=0.30
     Davidson diagonalization with overlap
     ethr =  1.15E-04,  avg # of iterations =  6.1

     negative rho (up, down):  1.377E+00 0.000E+00
 
     Adding external electric field

     Computed dipole along edir(3) : 
        Dipole               -0.3116 Ry au,         -0.7920 Debye
        Dipole field         -0.0006 Ry au
 
        Potential amp.        0.0604 Ry
        Total length         46.4675 bohr
 

     total cpu time spent up to now is     1514.5 secs

     total energy              =   -1927.77394922 Ry
     Harris-Foulkes estimate   =   -1927.77493485 Ry
     estimated scf accuracy    <       0.03775953 Ry

     iteration #  7     ecut=    36.75 Ry     beta=0.30
     Davidson diagonalization with overlap
     ethr =  2.60E-05,  avg # of iterations =  1.9

     negative rho (up, down):  1.377E+00 0.000E+00
 
     Adding external electric field

     Computed dipole along edir(3) : 
        Dipole               -0.2818 Ry au,         -0.7164 Debye
        Dipole field         -0.0006 Ry au
 
        Potential amp.        0.0546 Ry
        Total length         46.4675 bohr
 

     total cpu time spent up to now is     1551.7 secs

     total energy              =   -1927.77381996 Ry
     Harris-Foulkes estimate   =   -1927.77444141 Ry
     estimated scf accuracy    <       0.01376399 Ry

     iteration #  8     ecut=    36.75 Ry     beta=0.30
     Davidson diagonalization with overlap
     ethr =  9.49E-06,  avg # of iterations =  4.2

     negative rho (up, down):  1.378E+00 0.000E+00
 
     Adding external electric field

     Computed dipole along edir(3) : 
        Dipole               -0.2357 Ry au,         -0.5990 Debye
        Dipole field         -0.0005 Ry au
 
        Potential amp.        0.0457 Ry
        Total length         46.4675 bohr
 

     total cpu time spent up to now is     1589.3 secs

     total energy              =   -1927.77393356 Ry
     Harris-Foulkes estimate   =   -1927.77415075 Ry
     estimated scf accuracy    <       0.00159531 Ry

     iteration #  9     ecut=    36.75 Ry     beta=0.30
     Davidson diagonalization with overlap
     ethr =  1.10E-06,  avg # of iterations =  6.5

     negative rho (up, down):  1.378E+00 0.000E+00
 
     Adding external electric field

     Computed dipole along edir(3) : 
        Dipole               -0.2212 Ry au,         -0.5622 Debye
        Dipole field         -0.0005 Ry au
 
        Potential amp.        0.0429 Ry
        Total length         46.4675 bohr
 

     total cpu time spent up to now is     1631.4 secs

     total energy              =   -1927.77423837 Ry
     Harris-Foulkes estimate   =   -1927.77424888 Ry
     estimated scf accuracy    <       0.00138007 Ry

     iteration # 10     ecut=    36.75 Ry     beta=0.30
     Davidson diagonalization with overlap
     ethr =  9.52E-07,  avg # of iterations =  1.4

     negative rho (up, down):  1.378E+00 0.000E+00
 
     Adding external electric field

     Computed dipole along edir(3) : 
        Dipole               -0.1905 Ry au,         -0.4843 Debye
        Dipole field         -0.0004 Ry au
 
        Potential amp.        0.0369 Ry
        Total length         46.4675 bohr
 

     total cpu time spent up to now is     1668.1 secs

     total energy              =   -1927.77420574 Ry
     Harris-Foulkes estimate   =   -1927.77427791 Ry
     estimated scf accuracy    <       0.00347846 Ry

     iteration # 11     ecut=    36.75 Ry     beta=0.30
     Davidson diagonalization with overlap
     ethr =  9.52E-07,  avg # of iterations =  1.0

     negative rho (up, down):  1.378E+00 0.000E+00
 
     Adding external electric field

     Computed dipole along edir(3) : 
        Dipole               -0.1495 Ry au,         -0.3799 Debye
        Dipole field         -0.0003 Ry au
 
        Potential amp.        0.0290 Ry
        Total length         46.4675 bohr
 

     total cpu time spent up to now is     1704.6 secs

     total energy              =   -1927.77415060 Ry
     Harris-Foulkes estimate   =   -1927.77424568 Ry
     estimated scf accuracy    <       0.00350717 Ry

     iteration # 12     ecut=    36.75 Ry     beta=0.30
     Davidson diagonalization with overlap
     ethr =  9.52E-07,  avg # of iterations =  1.0

     negative rho (up, down):  1.378E+00 0.000E+00
 
     Adding external electric field

     Computed dipole along edir(3) : 
        Dipole               -0.1282 Ry au,         -0.3259 Debye
        Dipole field         -0.0003 Ry au
 
        Potential amp.        0.0249 Ry
        Total length         46.4675 bohr
 

     total cpu time spent up to now is     1741.0 secs

     total energy              =   -1927.77414819 Ry
     Harris-Foulkes estimate   =   -1927.77417999 Ry
     estimated scf accuracy    <       0.00090380 Ry

     iteration # 13     ecut=    36.75 Ry     beta=0.30
     Davidson diagonalization with overlap
     ethr =  6.23E-07,  avg # of iterations =  1.0

     negative rho (up, down):  1.378E+00 0.000E+00
 
     Adding external electric field

     Computed dipole along edir(3) : 
        Dipole               -0.1283 Ry au,         -0.3262 Debye
        Dipole field         -0.0003 Ry au
 
        Potential amp.        0.0249 Ry
        Total length         46.4675 bohr
 

     total cpu time spent up to now is     1777.4 secs

     total energy              =   -1927.77415633 Ry
     Harris-Foulkes estimate   =   -1927.77415739 Ry
     estimated scf accuracy    <       0.00005972 Ry

     iteration # 14     ecut=    36.75 Ry     beta=0.30
     Davidson diagonalization with overlap
     ethr =  4.12E-08,  avg # of iterations =  6.9

     negative rho (up, down):  1.378E+00 0.000E+00

     negative rho (up, down):  1.378E+00 0.000E+00

     negative rho (up, down):  1.378E+00 0.000E+00

     negative rho (up, down):  1.378E+00 0.000E+00

     negative rho (up, down):  1.378E+00 0.000E+00

     negative rho (up, down):  1.378E+00 0.000E+00

     negative rho (up, down):  1.378E+00 0.000E+00

     negative rho (up, down):  1.378E+00 0.000E+00

     negative rho (up, down):  1.378E+00 0.000E+00

     negative rho (up, down):  1.378E+00 0.000E+00

     negative rho (up, down):  1.378E+00 0.000E+00

     negative rho (up, down):  1.378E+00 0.000E+00

     negative rho (up, down):  1.378E+00 0.000E+00

     negative rho (up, down):  1.378E+00 0.000E+00

     negative rho (up, down):  1.378E+00 0.000E+00

     negative rho (up, down):  1.378E+00 0.000E+00

     negative rho (up, down):  1.378E+00 0.000E+00

     negative rho (up, down):  1.378E+00 0.000E+00

     negative rho (up, down):  1.378E+00 0.000E+00

     negative rho (up, down):  1.378E+00 0.000E+00

     negative rho (up, down):  1.378E+00 0.000E+00

     negative rho (up, down):  1.378E+00 0.000E+00

     negative rho (up, down):  1.378E+00 0.000E+00

     negative rho (up, down):  1.378E+00 0.000E+00

     negative rho (up, down):  1.378E+00 0.000E+00

     negative rho (up, down):  1.378E+00 0.000E+00

     negative rho (up, down):  1.378E+00 0.000E+00

     negative rho (up, down):  1.378E+00 0.000E+00

     negative rho (up, down):  1.378E+00 0.000E+00

     negative rho (up, down):  1.378E+00 0.000E+00

     negative rho (up, down):  1.378E+00 0.000E+00

     negative rho (up, down):  1.378E+00 0.000E+00

     negative rho (up, down):  1.378E+00 0.000E+00

     negative rho (up, down):  1.378E+00 0.000E+00

     negative rho (up, down):  1.378E+00 0.000E+00
 
     Adding external electric field

     Computed dipole along edir(3) : 
        Dipole               -0.1428 Ry au,         -0.3631 Debye
        Dipole field         -0.0003 Ry au
 
        Potential amp.        0.0277 Ry
        Total length         46.4675 bohr
 

     total cpu time spent up to now is     1880.2 secs

     End of self-consistent calculation

          k = 0.0000 0.0000 0.0000 ( 22729 PWs)   bands (ev):

   -61.4892 -61.4632 -61.4631 -61.4289 -61.3989 -61.3905 -61.3901 -61.0390
   -61.0081 -61.0079 -60.9901 -60.9564 -30.2168 -30.1889 -30.1887 -30.1691
   -30.1589 -30.1586 -30.1585 -30.0794 -30.0792 -30.0508 -29.9955 -29.9597
   -29.9593 -29.8489 -29.7930 -29.7676 -29.7675 -29.7649 -29.7426 -29.7425
   -29.7275 -29.7274 -29.6382 -29.6382 -29.5513 -29.5153 -29.5152 -29.4669
   -29.4524 -29.4523 -29.3942 -29.3941 -29.3899 -29.3315 -29.2736 -29.2735
    -5.3550  -4.0771  -2.7528  -2.0978  -1.8521  -1.8520  -1.6526  -1.5856
    -1.5856  -1.3808  -1.1728  -1.1728  -0.8629  -0.5156  -0.5156  -0.4545
     0.2282   0.2641   0.2642   1.2049   1.4371   1.5416   1.5852   1.5853
     1.6265   1.6762   1.6763   2.0093   2.2634   2.3038   2.3038   2.3628
     2.4592   2.4592

          k = 0.0000 0.0301 0.0000 ( 22708 PWs)   bands (ev):

   -61.4876 -61.4647 -61.4631 -61.4267 -61.3997 -61.3918 -61.3903 -61.0368
   -61.0097 -61.0081 -60.9907 -60.9565 -30.1948 -30.1693 -30.1627 -30.1504
   -30.1478 -30.1388 -30.1312 -30.0768 -30.0744 -30.0452 -29.9921 -29.9641
   -29.9601 -29.8617 -29.7929 -29.7873 -29.7761 -29.7690 -29.7586 -29.7456
   -29.7139 -29.7087 -29.6776 -29.6467 -29.5504 -29.5312 -29.5186 -29.4642
   -29.4576 -29.4528 -29.4139 -29.4107 -29.3855 -29.3312 -29.3055 -29.2813
    -5.1542  -3.8803  -2.5486  -2.1996  -1.9288  -1.7618  -1.6830  -1.5276
    -1.4584  -1.2385  -1.0086  -0.9503  -0.7396  -0.4092  -0.3990  -0.3506
     0.2727   0.3058   0.3216   1.1894   1.2833   1.3382   1.4199   1.4398
     1.6430   1.6916   1.7048   1.9010   2.0782   2.0922   2.1171   2.1868
     2.2447   2.2496

          k = 0.0000 0.0602 0.0000 ( 22648 PWs)   bands (ev):

   -61.4835 -61.4687 -61.4631 -61.4210 -61.4032 -61.3940 -61.3903 -61.0311
   -61.0145 -61.0081 -60.9916 -60.9565 -30.1527 -30.1302 -30.1208 -30.1048
   -30.0933 -30.0885 -30.0683 -30.0640 -30.0429 -30.0319 -29.9903 -29.9704
   -29.9625 -29.9030 -29.8450 -29.8431 -29.8385 -29.7808 -29.7489 -29.7395
   -29.7341 -29.6774 -29.6701 -29.6500 -29.5739 -29.5459 -29.5282 -29.4713
   -29.4598 -29.4593 -29.4499 -29.4498 -29.4028 -29.3654 -29.3213 -29.3027
    -4.5858  -3.3422  -2.8530  -2.0962  -1.9239  -1.6710  -1.5647  -1.3378
    -1.1112  -0.9848  -0.7780  -0.3803  -0.3048  -0.1093  -0.0804  -0.0524
     0.3649   0.3833   0.4930   0.8749   1.0243   1.0401   1.1049   1.1317
     1.3024   1.3180   1.3578   1.5821   1.6589   1.6672   1.7273   1.8225
     1.9667   1.9679

          k = 0.0000-0.0903 0.0000 ( 22668 PWs)   bands (ev):

   -61.4802 -61.4719 -61.4631 -61.4161 -61.4074 -61.3947 -61.3903 -61.0257
   -61.0196 -61.0081 -60.9920 -60.9566 -30.1316 -30.1133 -30.0911 -30.0876
   -30.0737 -30.0622 -30.0429 -30.0221 -30.0149 -29.9751 -29.9732 -29.9708
   -29.9365 -29.9276 -29.9163 -29.9103 -29.8771 -29.8721 -29.7479 -29.7162
   -29.7052 -29.6997 -29.6495 -29.6175 -29.5619 -29.5380 -29.5278 -29.5091
   -29.4899 -29.4853 -29.4584 -29.4543 -29.4520 -29.3446 -29.3242 -29.3202
    -3.7938  -3.7173  -2.6979  -2.5190  -1.6738  -1.4520  -1.3547  -1.2133
    -1.0668  -0.8580  -0.6814   0.0612   0.1055   0.2034   0.2055   0.3401
     0.3504   0.5223   0.5443   0.7009   0.7121   0.7392   0.8558   0.9292
     0.9469   1.0597   1.1616   1.1665   1.2282   1.3511   1.4817   1.5636
     1.7550   2.0899

          k = 0.0261-0.0151 0.0000 ( 22708 PWs)   bands (ev):

   -61.4876 -61.4646 -61.4632 -61.4267 -61.3998 -61.3915 -61.3905 -61.0368
   -61.0098 -61.0079 -60.9907 -60.9565 -30.1948 -30.1692 -30.1628 -30.1504
   -30.1479 -30.1387 -30.1313 -30.0766 -30.0745 -30.0452 -29.9921 -29.9639
   -29.9603 -29.8617 -29.7929 -29.7874 -29.7761 -29.7689 -29.7585 -29.7457
   -29.7140 -29.7087 -29.6776 -29.6467 -29.5504 -29.5313 -29.5185 -29.4642
   -29.4577 -29.4527 -29.4140 -29.4106 -29.3855 -29.3312 -29.3055 -29.2813
    -5.1542  -3.8803  -2.5486  -2.1996  -1.9288  -1.7618  -1.6830  -1.5276
    -1.4584  -1.2385  -1.0086  -0.9503  -0.7396  -0.4092  -0.3991  -0.3506
     0.2727   0.3058   0.3215   1.1894   1.2833   1.3382   1.4199   1.4397
     1.6430   1.6916   1.7048   1.9010   2.0782   2.0921   2.1171   2.1867
     2.2446   2.2495

          k = 0.0261 0.0151 0.0000 ( 22708 PWs)   bands (ev):

   -61.4876 -61.4647 -61.4631 -61.4267 -61.3997 -61.3919 -61.3902 -61.0368
   -61.0097 -61.0081 -60.9907 -60.9565 -30.1948 -30.1694 -30.1626 -30.1504
   -30.1478 -30.1388 -30.1312 -30.0767 -30.0744 -30.0452 -29.9921 -29.9642
   -29.9600 -29.8617 -29.7930 -29.7872 -29.7762 -29.7690 -29.7586 -29.7456
   -29.7139 -29.7087 -29.6776 -29.6466 -29.5504 -29.5312 -29.5186 -29.4642
   -29.4576 -29.4528 -29.4139 -29.4107 -29.3855 -29.3312 -29.3055 -29.2813
    -5.1542  -3.8803  -2.5486  -2.1996  -1.9288  -1.7618  -1.6830  -1.5276
    -1.4584  -1.2385  -1.0085  -0.9503  -0.7396  -0.4092  -0.3990  -0.3506
     0.2727   0.3058   0.3216   1.1894   1.2833   1.3381   1.4199   1.4398
     1.6430   1.6916   1.7048   1.9010   2.0782   2.0921   2.1171   2.1868
     2.2447   2.2496

          k = 0.0261 0.0452 0.0000 ( 22675 PWs)   bands (ev):

   -61.4847 -61.4675 -61.4631 -61.4228 -61.4013 -61.3948 -61.3896 -61.0329
   -61.0124 -61.0087 -60.9913 -60.9565 -30.1607 -30.1365 -30.1312 -30.1229
   -30.1099 -30.0905 -30.0850 -30.0730 -30.0665 -30.0360 -29.9893 -29.9715
   -29.9602 -29.8945 -29.8549 -29.8098 -29.7739 -29.7698 -29.7572 -29.7517
   -29.7415 -29.6836 -29.6735 -29.6650 -29.5603 -29.5478 -29.5271 -29.4758
   -29.4607 -29.4559 -29.4508 -29.3991 -29.3969 -29.3709 -29.3217 -29.2981
    -4.7685  -3.5096  -2.4011  -2.2779  -2.1467  -1.7934  -1.5788  -1.3404
    -1.1594  -0.9965  -0.7546  -0.6406  -0.4572  -0.2062  -0.1906  -0.1424
     0.3484   0.3812   0.4105   1.0523   1.0980   1.1035   1.1606   1.2305
     1.3648   1.3833   1.6362   1.6737   1.7997   1.8258   1.8381   1.8526
     1.9077   2.0812

          k = 0.0261-0.1054 0.0000 ( 22643 PWs)   bands (ev):

   -61.4802 -61.4718 -61.4631 -61.4168 -61.4050 -61.3978 -61.3889 -61.0266
   -61.0175 -61.0095 -60.9917 -60.9566 -30.1191 -30.1140 -30.0904 -30.0830
   -30.0717 -30.0541 -30.0439 -30.0231 -30.0199 -29.9938 -29.9814 -29.9753
   -29.9703 -29.9469 -29.9290 -29.8811 -29.8580 -29.8018 -29.7651 -29.7381
   -29.7109 -29.6975 -29.6399 -29.6199 -29.5720 -29.5590 -29.5376 -29.5215
   -29.4746 -29.4590 -29.4575 -29.4498 -29.4241 -29.3684 -29.3301 -29.3173
    -4.0616  -3.1776  -2.8567  -2.3743  -2.1289  -1.6153  -1.4100  -1.0906
    -0.8109  -0.7166  -0.5535  -0.1534  -0.0211   0.1264   0.1548   0.1666
     0.3643   0.4961   0.5723   0.6377   0.7630   0.8575   0.8946   0.9175
     0.9669   1.1050   1.1933   1.3053   1.3626   1.4273   1.4770   1.5241
     1.6581   1.7693

          k = 0.0261-0.0753 0.0000 ( 22643 PWs)   bands (ev):

   -61.4803 -61.4718 -61.4632 -61.4168 -61.4051 -61.3976 -61.3889 -61.0266
   -61.0176 -61.0095 -60.9917 -60.9566 -30.1191 -30.1140 -30.0903 -30.0830
   -30.0717 -30.0542 -30.0439 -30.0231 -30.0198 -29.9938 -29.9815 -29.9751
   -29.9704 -29.9469 -29.9290 -29.8811 -29.8579 -29.8018 -29.7652 -29.7381
   -29.7109 -29.6975 -29.6399 -29.6199 -29.5721 -29.5591 -29.5376 -29.5215
   -29.4746 -29.4590 -29.4575 -29.4498 -29.4241 -29.3684 -29.3302 -29.3173
    -4.0616  -3.1776  -2.8567  -2.3743  -2.1289  -1.6153  -1.4100  -1.0906
    -0.8109  -0.7166  -0.5535  -0.1534  -0.0211   0.1264   0.1548   0.1666
     0.3643   0.4961   0.5722   0.6377   0.7630   0.8575   0.8946   0.9175
     0.9669   1.1050   1.1933   1.3053   1.3626   1.4273   1.4770   1.5241
     1.6581   1.7693

          k = 0.0261-0.0452 0.0000 ( 22675 PWs)   bands (ev):

   -61.4847 -61.4674 -61.4632 -61.4228 -61.4015 -61.3945 -61.3897 -61.0329
   -61.0126 -61.0085 -60.9913 -60.9565 -30.1608 -30.1365 -30.1312 -30.1230
   -30.1099 -30.0906 -30.0849 -30.0729 -30.0666 -30.0360 -29.9894 -29.9712
   -29.9604 -29.8945 -29.8549 -29.8097 -29.7739 -29.7699 -29.7572 -29.7518
   -29.7414 -29.6838 -29.6735 -29.6650 -29.5603 -29.5478 -29.5270 -29.4759
   -29.4607 -29.4559 -29.4508 -29.3990 -29.3968 -29.3709 -29.3217 -29.2982
    -4.7685  -3.5096  -2.4011  -2.2779  -2.1467  -1.7934  -1.5788  -1.3404
    -1.1595  -0.9966  -0.7546  -0.6406  -0.4572  -0.2062  -0.1906  -0.1424
     0.3484   0.3813   0.4105   1.0523   1.0980   1.1035   1.1605   1.2305
     1.3647   1.3833   1.6362   1.6737   1.7997   1.8258   1.8381   1.8526
     1.9077   2.0812

          k = 0.0521-0.0301 0.0000 ( 22648 PWs)   bands (ev):

   -61.4835 -61.4685 -61.4632 -61.4210 -61.4033 -61.3936 -61.3905 -61.0311
   -61.0146 -61.0079 -60.9916 -60.9565 -30.1528 -30.1302 -30.1207 -30.1050
   -30.0932 -30.0884 -30.0683 -30.0641 -30.0429 -30.0319 -29.9904 -29.9701
   -29.9627 -29.9031 -29.8449 -29.8430 -29.8386 -29.7808 -29.7491 -29.7394
   -29.7341 -29.6776 -29.6702 -29.6499 -29.5739 -29.5459 -29.5281 -29.4714
   -29.4598 -29.4592 -29.4499 -29.4498 -29.4028 -29.3654 -29.3213 -29.3027
    -4.5858  -3.3422  -2.8530  -2.0962  -1.9239  -1.6710  -1.5647  -1.3378
    -1.1112  -0.9848  -0.7780  -0.3803  -0.3048  -0.1093  -0.0804  -0.0524
     0.3649   0.3833   0.4930   0.8749   1.0243   1.0401   1.1049   1.1317
     1.3024   1.3180   1.3578   1.5821   1.6589   1.6672   1.7273   1.8225
     1.9667   1.9680

          k = 0.0521 0.0000 0.0000 ( 22675 PWs)   bands (ev):

   -61.4847 -61.4674 -61.4632 -61.4228 -61.4014 -61.3946 -61.3897 -61.0329
   -61.0125 -61.0085 -60.9913 -60.9565 -30.1608 -30.1365 -30.1312 -30.1230
   -30.1099 -30.0906 -30.0849 -30.0729 -30.0666 -30.0360 -29.9894 -29.9713
   -29.9604 -29.8945 -29.8549 -29.8097 -29.7739 -29.7698 -29.7573 -29.7518
   -29.7414 -29.6837 -29.6735 -29.6650 -29.5603 -29.5478 -29.5270 -29.4759
   -29.4607 -29.4559 -29.4508 -29.3990 -29.3968 -29.3709 -29.3217 -29.2982
    -4.7685  -3.5096  -2.4011  -2.2779  -2.1467  -1.7934  -1.5788  -1.3404
    -1.1595  -0.9966  -0.7546  -0.6406  -0.4572  -0.2062  -0.1906  -0.1424
     0.3484   0.3813   0.4105   1.0523   1.0980   1.1035   1.1606   1.2305
     1.3648   1.3833   1.6362   1.6737   1.7997   1.8258   1.8381   1.8526
     1.9077   2.0812

          k = 0.0521 0.0301 0.0000 ( 22648 PWs)   bands (ev):

   -61.4835 -61.4686 -61.4631 -61.4210 -61.4031 -61.3942 -61.3902 -61.0311
   -61.0145 -61.0081 -60.9916 -60.9565 -30.1527 -30.1302 -30.1209 -30.1047
   -30.0933 -30.0885 -30.0683 -30.0640 -30.0429 -30.0319 -29.9903 -29.9706
   -29.9624 -29.9030 -29.8450 -29.8432 -29.8384 -29.7808 -29.7490 -29.7395
   -29.7341 -29.6774 -29.6701 -29.6500 -29.5739 -29.5459 -29.5282 -29.4713
   -29.4598 -29.4593 -29.4499 -29.4498 -29.4029 -29.3655 -29.3213 -29.3027
    -4.5858  -3.3422  -2.8530  -2.0962  -1.9239  -1.6710  -1.5648  -1.3378
    -1.1112  -0.9848  -0.7780  -0.3803  -0.3048  -0.1093  -0.0804  -0.0524
     0.3649   0.3833   0.4930   0.8749   1.0243   1.0401   1.1049   1.1317
     1.3024   1.3180   1.3578   1.5822   1.6589   1.6672   1.7273   1.8225
     1.9667   1.9679

          k = 0.0521-0.1204 0.0000 ( 22643 PWs)   bands (ev):

   -61.4803 -61.4718 -61.4632 -61.4168 -61.4049 -61.3979 -61.3888 -61.0266
   -61.0175 -61.0095 -60.9917 -60.9566 -30.1191 -30.1140 -30.0904 -30.0831
   -30.0716 -30.0541 -30.0439 -30.0232 -30.0198 -29.9937 -29.9814 -29.9752
   -29.9704 -29.9469 -29.9290 -29.8811 -29.8579 -29.8018 -29.7652 -29.7381
   -29.7109 -29.6975 -29.6399 -29.6199 -29.5720 -29.5590 -29.5376 -29.5215
   -29.4746 -29.4590 -29.4575 -29.4498 -29.4241 -29.3684 -29.3301 -29.3173
    -4.0616  -3.1776  -2.8567  -2.3743  -2.1289  -1.6153  -1.4100  -1.0906
    -0.8109  -0.7166  -0.5535  -0.1534  -0.0211   0.1264   0.1548   0.1666
     0.3643   0.4961   0.5723   0.6377   0.7630   0.8575   0.8946   0.9175
     0.9669   1.1050   1.1933   1.3053   1.3626   1.4273   1.4770   1.5241
     1.6581   1.7693

          k = 0.0521-0.0903 0.0000 ( 22614 PWs)   bands (ev):

   -61.4761 -61.4758 -61.4632 -61.4141 -61.4034 -61.4030 -61.3880 -61.0219
   -61.0206 -61.0112 -60.9915 -60.9566 -30.1005 -30.0986 -30.0672 -30.0611
   -30.0444 -30.0423 -30.0181 -30.0156 -30.0100 -30.0027 -29.9949 -29.9532
   -29.9520 -29.9516 -29.9501 -29.9304 -29.9275 -29.7821 -29.7529 -29.7488
   -29.7443 -29.6787 -29.6312 -29.5802 -29.5769 -29.5752 -29.5434 -29.5416
   -29.5174 -29.4595 -29.4567 -29.4495 -29.3910 -29.3727 -29.3679 -29.3166
    -3.3588  -3.2302  -3.2215  -2.3600  -2.0552  -2.0539  -1.2038  -0.6584
    -0.6547  -0.5075  -0.3685  -0.1913  -0.1495   0.2848   0.2947   0.3655
     0.3812   0.4274   0.5720   0.5840   0.6304   0.6347   0.6402   0.8860
[...]
     1.5976   1.6420

          k = 0.0261-0.0753 0.0000 ( 22643 PWs)   bands (ev):

   -61.4883 -61.4778 -61.4707 -61.4619 -61.4316 -61.4222 -61.4136 -61.1453
   -61.0191 -61.0108 -61.0027 -60.9316 -30.1593 -30.1424 -30.1346 -30.1147
   -30.1067 -30.0780 -30.0745 -30.0655 -30.0626 -30.0483 -30.0411 -30.0233
   -30.0047 -29.9961 -29.9517 -29.9288 -29.8715 -29.8695 -29.8080 -29.7699
   -29.7652 -29.7468 -29.7210 -29.6515 -29.6176 -29.5959 -29.5594 -29.5218
   -29.4779 -29.4687 -29.4594 -29.4146 -29.4074 -29.3950 -29.3617 -29.3078
    -4.1721  -3.2793  -2.9020  -2.4772  -2.1867  -1.6470  -1.4774  -1.1222
    -0.9370  -0.8117  -0.6775  -0.2567  -0.1613  -0.0244   0.0198   0.0611
     0.2353   0.3775   0.4227   0.5401   0.6705   0.7646   0.8179   0.8530
     0.8921   1.0206   1.1014   1.2048   1.2840   1.3618   1.4067   1.4361
     1.5976   1.6420

          k = 0.0261-0.0452 0.0000 ( 22675 PWs)   bands (ev):

   -61.4947 -61.4734 -61.4678 -61.4628 -61.4362 -61.4179 -61.4135 -61.1451
   -61.0241 -61.0065 -61.0025 -60.9311 -30.2096 -30.1786 -30.1778 -30.1715
   -30.1530 -30.1188 -30.1131 -30.0909 -30.0868 -30.0840 -30.0498 -30.0249
   -30.0122 -29.9242 -29.8826 -29.8424 -29.8394 -29.8176 -29.7959 -29.7845
   -29.7541 -29.7363 -29.6890 -29.6548 -29.6438 -29.6257 -29.5843 -29.4785
   -29.4730 -29.4643 -29.4235 -29.4021 -29.3925 -29.3916 -29.3447 -29.2822
    -4.8846  -3.5550  -2.4831  -2.4031  -2.1943  -1.8379  -1.6913  -1.4466
    -1.2830  -1.0763  -0.8516  -0.7273  -0.5683  -0.3378  -0.3183  -0.2511
     0.2694   0.2953   0.3078   0.9301   1.0188   1.0647   1.0988   1.1250
     1.2879   1.3126   1.5371   1.5920   1.7082   1.7473   1.7752   1.8245
     1.8324   2.0250

          k = 0.0521-0.0301 0.0000 ( 22648 PWs)   bands (ev):

   -61.4929 -61.4755 -61.4668 -61.4635 -61.4349 -61.4191 -61.4135 -61.1452
   -61.0227 -61.0079 -61.0024 -60.9313 -30.1888 -30.1881 -30.1641 -30.1446
   -30.1367 -30.1134 -30.0915 -30.0817 -30.0799 -30.0749 -30.0494 -30.0245
   -30.0174 -29.9112 -29.9083 -29.8898 -29.8513 -29.8350 -29.8060 -29.7773
   -29.7421 -29.7369 -29.7136 -29.6465 -29.6269 -29.6257 -29.5804 -29.4814
   -29.4702 -29.4577 -29.4526 -29.4156 -29.3998 -29.3742 -29.3632 -29.2849
    -4.7005  -3.3851  -2.9644  -2.1239  -1.9844  -1.7620  -1.7019  -1.4040
    -1.2422  -1.0699  -0.8499  -0.4767  -0.4336  -0.2429  -0.2152  -0.1589
     0.2814   0.2950   0.3744   0.7817   0.9260   0.9262   1.0242   1.0902
     1.2233   1.2428   1.2957   1.4331   1.5821   1.5962   1.6665   1.7366
     1.9096   1.9197

          k = 0.0521 0.0000 0.0000 ( 22675 PWs)   bands (ev):

   -61.4947 -61.4734 -61.4678 -61.4628 -61.4362 -61.4179 -61.4135 -61.1451
   -61.0241 -61.0065 -61.0025 -60.9311 -30.2096 -30.1786 -30.1778 -30.1715
   -30.1530 -30.1188 -30.1131 -30.0909 -30.0868 -30.0840 -30.0498 -30.0249
   -30.0122 -29.9242 -29.8826 -29.8424 -29.8394 -29.8176 -29.7959 -29.7845
   -29.7540 -29.7363 -29.6890 -29.6548 -29.6438 -29.6257 -29.5843 -29.4785
   -29.4730 -29.4643 -29.4235 -29.4021 -29.3925 -29.3916 -29.3447 -29.2821
    -4.8846  -3.5550  -2.4831  -2.4031  -2.1943  -1.8379  -1.6913  -1.4466
    -1.2830  -1.0763  -0.8516  -0.7273  -0.5683  -0.3378  -0.3183  -0.2511
     0.2694   0.2953   0.3078   0.9301   1.0188   1.0647   1.0988   1.1250
     1.2879   1.3126   1.5371   1.5920   1.7082   1.7473   1.7752   1.8245
     1.8324   2.0250

          k = 0.0521 0.0301 0.0000 ( 22648 PWs)   bands (ev):

   -61.4929 -61.4755 -61.4668 -61.4635 -61.4349 -61.4191 -61.4135 -61.1452
   -61.0227 -61.0079 -61.0024 -60.9313 -30.1888 -30.1881 -30.1641 -30.1446
   -30.1367 -30.1134 -30.0915 -30.0817 -30.0799 -30.0749 -30.0494 -30.0245
   -30.0174 -29.9112 -29.9083 -29.8897 -29.8513 -29.8350 -29.8060 -29.7773
   -29.7421 -29.7369 -29.7136 -29.6464 -29.6269 -29.6257 -29.5804 -29.4814
   -29.4702 -29.4577 -29.4526 -29.4156 -29.3998 -29.3742 -29.3632 -29.2849
    -4.7005  -3.3851  -2.9644  -2.1239  -1.9844  -1.7620  -1.7019  -1.4040
    -1.2422  -1.0699  -0.8499  -0.4767  -0.4336  -0.2429  -0.2152  -0.1589
     0.2814   0.2950   0.3744   0.7817   0.9260   0.9262   1.0242   1.0902
     1.2233   1.2428   1.2957   1.4331   1.5821   1.5962   1.6665   1.7366
     1.9096   1.9197

          k = 0.0521-0.1204 0.0000 ( 22643 PWs)   bands (ev):

   -61.4883 -61.4778 -61.4707 -61.4619 -61.4316 -61.4222 -61.4136 -61.1453
   -61.0191 -61.0108 -61.0027 -60.9316 -30.1593 -30.1424 -30.1346 -30.1147
   -30.1067 -30.0780 -30.0745 -30.0655 -30.0626 -30.0483 -30.0411 -30.0233
   -30.0047 -29.9961 -29.9518 -29.9288 -29.8715 -29.8695 -29.8080 -29.7699
   -29.7651 -29.7468 -29.7210 -29.6515 -29.6176 -29.5959 -29.5594 -29.5217
   -29.4779 -29.4687 -29.4594 -29.4146 -29.4074 -29.3950 -29.3617 -29.3078
    -4.1721  -3.2793  -2.9020  -2.4772  -2.1867  -1.6470  -1.4774  -1.1222
    -0.9370  -0.8117  -0.6775  -0.2567  -0.1613  -0.0244   0.0198   0.0611
     0.2353   0.3775   0.4227   0.5401   0.6705   0.7646   0.8179   0.8530
     0.8921   1.0206   1.1014   1.2048   1.2840   1.3618   1.4067   1.4361
     1.5976   1.6420

          k = 0.0521-0.0903 0.0000 ( 22614 PWs)   bands (ev):

   -61.4850 -61.4764 -61.4764 -61.4609 -61.4284 -61.4252 -61.4137 -61.1454
   -61.0148 -61.0147 -61.0031 -60.9317 -30.1214 -30.1199 -30.1052 -30.0995
   -30.0858 -30.0725 -30.0634 -30.0493 -30.0489 -30.0475 -30.0241 -30.0215
   -30.0200 -30.0111 -30.0096 -29.9486 -29.9290 -29.8220 -29.8186 -29.8131
   -29.7709 -29.7274 -29.7013 -29.6924 -29.6145 -29.5528 -29.5452 -29.5349
   -29.5247 -29.4761 -29.4597 -29.4155 -29.4027 -29.3897 -29.3459 -29.3459
    -3.4302  -3.3510  -3.3496  -2.3617  -2.1319  -2.1268  -1.1842  -0.7170
    -0.7114  -0.5645  -0.5315  -0.4318  -0.2199   0.1047   0.2040   0.2425
     0.2458   0.2798   0.3510   0.3724   0.5748   0.5954   0.6083   0.7837
     0.9785   1.0250   1.0305   1.0607   1.1344   1.1800   1.3141   1.3421
     1.4077   1.4483

          k = 0.0521-0.0602 0.0000 ( 22643 PWs)   bands (ev):

   -61.4883 -61.4778 -61.4707 -61.4619 -61.4316 -61.4222 -61.4136 -61.1453
   -61.0191 -61.0108 -61.0027 -60.9316 -30.1593 -30.1424 -30.1346 -30.1147
   -30.1067 -30.0780 -30.0745 -30.0654 -30.0626 -30.0483 -30.0411 -30.0233
   -30.0047 -29.9961 -29.9518 -29.9288 -29.8715 -29.8695 -29.8080 -29.7699
   -29.7652 -29.7468 -29.7210 -29.6515 -29.6176 -29.5959 -29.5594 -29.5218
   -29.4779 -29.4687 -29.4595 -29.4146 -29.4074 -29.3950 -29.3617 -29.3078
    -4.1721  -3.2793  -2.9020  -2.4772  -2.1867  -1.6470  -1.4774  -1.1222
    -0.9370  -0.8117  -0.6775  -0.2567  -0.1613  -0.0244   0.0198   0.0611
     0.2353   0.3775   0.4227   0.5401   0.6705   0.7646   0.8179   0.8530
     0.8921   1.0206   1.1014   1.2048   1.2840   1.3618   1.4067   1.4361
     1.5976   1.6420

          k =-0.0782 0.0452 0.0000 ( 22668 PWs)   bands (ev):

   -61.4873 -61.4807 -61.4673 -61.4635 -61.4315 -61.4224 -61.4135 -61.1453
   -61.0188 -61.0115 -61.0024 -60.9316 -30.1580 -30.1558 -30.1377 -30.1213
   -30.1179 -30.0801 -30.0739 -30.0652 -30.0579 -30.0401 -30.0302 -29.9888
   -29.9816 -29.9680 -29.9440 -29.9418 -29.9284 -29.9166 -29.7765 -29.7715
   -29.7710 -29.7421 -29.7296 -29.6380 -29.6152 -29.5988 -29.5257 -29.5173
   -29.5030 -29.4678 -29.4648 -29.4368 -29.4136 -29.3966 -29.3491 -29.2994
    -3.8857  -3.8448  -2.7198  -2.5911  -1.7088  -1.5884  -1.4260  -1.2634
    -1.1294  -0.9823  -0.7610  -0.0894  -0.0647   0.0431   0.0813   0.2135
     0.2598   0.4170   0.4185   0.5793   0.6315   0.6416   0.7888   0.8561
     0.9023   0.9670   1.0701   1.0913   1.1434   1.2816   1.4035   1.4845
     1.6137   1.9440

          k =-0.0782 0.0753 0.0000 ( 22643 PWs)   bands (ev):

   -61.4883 -61.4778 -61.4707 -61.4619 -61.4316 -61.4222 -61.4136 -61.1453
   -61.0191 -61.0108 -61.0027 -60.9316 -30.1593 -30.1424 -30.1346 -30.1147
   -30.1067 -30.0780 -30.0745 -30.0654 -30.0626 -30.0483 -30.0411 -30.0233
   -30.0047 -29.9961 -29.9518 -29.9288 -29.8715 -29.8695 -29.8080 -29.7699
   -29.7652 -29.7468 -29.7210 -29.6515 -29.6176 -29.5959 -29.5594 -29.5217
   -29.4779 -29.4687 -29.4595 -29.4146 -29.4074 -29.3950 -29.3617 -29.3078
    -4.1721  -3.2793  -2.9020  -2.4772  -2.1867  -1.6470  -1.4774  -1.1222
    -0.9370  -0.8117  -0.6775  -0.2567  -0.1613  -0.0244   0.0198   0.0611
     0.2352   0.3775   0.4227   0.5401   0.6705   0.7646   0.8179   0.8530
     0.8921   1.0205   1.1014   1.2048   1.2840   1.3618   1.4067   1.4361
     1.5976   1.6420

          k =-0.0782 0.1054 0.0000 ( 22643 PWs)   bands (ev):

   -61.4883 -61.4778 -61.4707 -61.4619 -61.4316 -61.4222 -61.4136 -61.1453
   -61.0191 -61.0108 -61.0027 -60.9316 -30.1593 -30.1424 -30.1346 -30.1147
   -30.1067 -30.0780 -30.0745 -30.0655 -30.0626 -30.0483 -30.0411 -30.0233
   -30.0047 -29.9961 -29.9517 -29.9288 -29.8715 -29.8695 -29.8080 -29.7699
   -29.7651 -29.7468 -29.7210 -29.6515 -29.6176 -29.5959 -29.5594 -29.5218
   -29.4779 -29.4687 -29.4594 -29.4146 -29.4074 -29.3950 -29.3617 -29.3078
    -4.1721  -3.2793  -2.9020  -2.4772  -2.1867  -1.6470  -1.4774  -1.1222
    -0.9370  -0.8117  -0.6775  -0.2567  -0.1613  -0.0244   0.0198   0.0611
     0.2353   0.3775   0.4227   0.5401   0.6705   0.7646   0.8179   0.8530
     0.8921   1.0206   1.1014   1.2048   1.2840   1.3618   1.4067   1.4361
     1.5976   1.6420

          k =-0.0782-0.0452 0.0000 ( 22668 PWs)   bands (ev):

   -61.4873 -61.4807 -61.4673 -61.4635 -61.4315 -61.4224 -61.4135 -61.1453
   -61.0188 -61.0115 -61.0024 -60.9316 -30.1580 -30.1558 -30.1376 -30.1213
   -30.1178 -30.0801 -30.0739 -30.0652 -30.0579 -30.0401 -30.0302 -29.9888
   -29.9816 -29.9680 -29.9440 -29.9418 -29.9284 -29.9167 -29.7765 -29.7715
   -29.7710 -29.7421 -29.7295 -29.6380 -29.6152 -29.5989 -29.5257 -29.5173
   -29.5030 -29.4678 -29.4648 -29.4368 -29.4136 -29.3966 -29.3491 -29.2994
    -3.8857  -3.8448  -2.7198  -2.5911  -1.7088  -1.5884  -1.4260  -1.2634
    -1.1294  -0.9823  -0.7610  -0.0894  -0.0647   0.0431   0.0813   0.2135
     0.2598   0.4170   0.4185   0.5793   0.6315   0.6416   0.7888   0.8561
     0.9023   0.9670   1.0701   1.0914   1.1434   1.2816   1.4035   1.4845
     1.6137   1.9439

     the Fermi energy is     1.1270 ev

!    total energy              =   -1927.78759658 Ry
     Harris-Foulkes estimate   =   -1927.78759737 Ry
     estimated scf accuracy    <       0.00000004 Ry

     The total energy is the sum of the following terms:

     one-electron contribution =   -8490.52284336 Ry
     hartree contribution      =    4227.41550912 Ry
     xc contribution           =    -928.64809372 Ry
     ewald contribution        =    3264.08374601 Ry
     electric field correction =       0.00008558 Ry
     smearing contrib. (-TS)   =      -0.11600021 Ry

     convergence has been achieved in  17 iterations
 
 BEEF-vdW xc energy contributions
           1 :   -839.864280937051     
           2 :    780.723771361229     
           3 :   -675.821011539838     
           4 :    546.738070449722     
           5 :   -415.925604629291     
           6 :    300.395221723974     
           7 :   -208.867541394224     
           8 :    142.580535623661     
           9 :   -98.2809412648938     
          10 :    71.2272648937696     
          11 :   -56.8283413154934     
          12 :    50.8021727278890     
          13 :   -48.7812033902444     
          14 :    46.3426879969104     
          15 :   -39.8457507767499     
          16 :    27.6161667207352     
          17 :   -10.6631142273352     
          18 :   -7.68182039491899     
          19 :    23.1457864446322     
          20 :   -32.2766337251429     
          21 :    33.7299981613323     
          22 :   -28.5403622323827     
          23 :    19.3979301228097     
          24 :   -9.46169244609450     
          25 :    1.34207362782877     
          26 :    3.36405102810863     
          27 :   -4.03888629877247     
          28 :   0.821079265350136     
          29 :    5.51680618177693     
          30 :   -13.5613185631255     
          31 :   -60.2662910669169     
          32 :   -43.3330841675587     

     Forces acting on atoms (Ry/au):


     negative rho (up, down):  1.378E+00 0.000E+00
     atom    1 type  1   force =    -0.00142300   -0.00082156    0.02017249
     atom    2 type  1   force =     0.00142295   -0.00082059    0.02017035
     atom    3 type  1   force =     0.00000083    0.00164262    0.02017083
     atom    4 type  1   force =    -0.00000078   -0.00000052    0.02426010
     atom    5 type  1   force =    -0.00000054    0.00577339   -0.02111033
     atom    6 type  1   force =     0.00000093   -0.00000061   -0.02317265
     atom    7 type  1   force =    -0.00500096   -0.00288627   -0.02110934
     atom    8 type  1   force =     0.00500143   -0.00288735   -0.02110651
     atom    9 type  1   force =     0.00000078    0.00000041    0.00021152
     atom   10 type  1   force =    -0.00000120    0.00103605    0.00010893
     atom   11 type  1   force =     0.00089803   -0.00051862    0.00011458
     atom   12 type  1   force =    -0.00089842   -0.00051701    0.00010687
     atom   13 type  2   force =    -0.00000006    0.00000006    0.00118316

     Total force =     0.002169     Total SCF correction =     0.000789
     SCF correction compared to forces is large: reduce conv_thr to get better values


     entering subroutine stress ...


     negative rho (up, down):  1.378E+00 0.000E+00
          total   stress  (Ry/bohr**3)                   (kbar)     P=  -17.37
  -0.00013177  -0.00000000  -0.00000000        -19.38     -0.00     -0.00
  -0.00000000  -0.00013177   0.00000000         -0.00    -19.38      0.00
  -0.00000000   0.00000000  -0.00009074         -0.00      0.00    -13.35


     bfgs converged in   9 scf cycles and   8 bfgs steps
     (criteria: energy <  1.0E+00, force <  1.9E-03)

     End of BFGS Geometry Optimization

     Final energy   =   -1927.7875965787 Ry
Begin final coordinates

ATOMIC_POSITIONS (crystal)
Hf1      0.166666667   0.166666667   0.396510335    0   0   0
Hf1      0.666666667   0.166666667   0.396510335    0   0   0
Hf1      0.166666667   0.666666667   0.396510335    0   0   0
Hf1      0.666666667   0.666666667   0.396510335    0   0   0
Hf1      0.833333333   0.333333333   0.500000000    0   0   0
Hf1      0.333333333   0.333333333   0.500000000    0   0   0
Hf1      0.833333333   0.833333333   0.500000000    0   0   0
Hf1      0.333333333   0.833333333   0.500000000    0   0   0
Hf1     -0.000000253  -0.000000087   0.601600765
Hf1      0.498446989   0.003109214   0.596682477
Hf1      0.003108914   0.498444791   0.596681372
Hf1      0.498448375   0.498443092   0.596682595
H1      -0.000001339   0.000000928   0.676890214
End final coordinates



     Writing output data file calc.save
 
     init_run     :     19.04s CPU     19.47s WALL (       1 calls)
     electrons    :   6837.95s CPU   7349.47s WALL (       9 calls)
     update_pot   :     24.75s CPU     25.61s WALL (       8 calls)
     forces       :    285.04s CPU    303.80s WALL (       9 calls)
     stress       :    856.56s CPU    914.44s WALL (       9 calls)

     Called by init_run:
     wfcinit      :      6.30s CPU      6.41s WALL (       1 calls)
     potinit      :      2.20s CPU      2.30s WALL (       1 calls)

     Called by electrons:
     c_bands      :   2057.41s CPU   2185.68s WALL (     185 calls)
     sum_band     :   1785.50s CPU   1920.40s WALL (     185 calls)
     v_of_rho     :    394.97s CPU    439.09s WALL (     194 calls)
     newd         :   1925.82s CPU   1955.87s WALL (     194 calls)
     mix_rho      :     14.40s CPU     14.75s WALL (     185 calls)
     vdW_energy   :    134.99s CPU    149.00s WALL (     518 calls)
     vdW_ffts     :    339.66s CPU    352.52s WALL (    1054 calls)
     vdW_v        :    140.31s CPU    143.48s WALL (     518 calls)

     Called by c_bands:
     init_us_2    :     17.56s CPU     17.64s WALL (    1945 calls)
     cegterg      :   1762.29s CPU   1802.75s WALL (     925 calls)

     Called by *egterg:
     h_psi        :   1187.58s CPU   1212.44s WALL (    4623 calls)
     s_psi        :    147.68s CPU    147.96s WALL (    4623 calls)
     g_psi        :      6.69s CPU      6.70s WALL (    3693 calls)
     cdiaghg      :    122.37s CPU    123.43s WALL (    4578 calls)

     Called by h_psi:
     add_vuspsi   :    149.57s CPU    149.90s WALL (    4623 calls)

     General routines
     calbec       :    223.46s CPU    226.78s WALL (    5638 calls)
     fft          :    539.93s CPU    578.32s WALL (   31739 calls)
     ffts         :      0.78s CPU      0.84s WALL (     379 calls)
     fftw         :    670.81s CPU    697.19s WALL (  452372 calls)
     interpolate  :      8.28s CPU      8.41s WALL (     379 calls)
     davcio       :      0.00s CPU      0.04s WALL (       5 calls)
 
     Parallel routines
     fft_scatter  :    712.19s CPU    772.80s WALL (  484490 calls)
 
     PWSCF        :     2h15m CPU        2h25m WALL

 
   This run was terminated on:  15:10:54   3May2018            

=------------------------------------------------------------------------------=
   JOB DONE.
=------------------------------------------------------------------------------=
Job  /afs/slac/g/suncat/bin/suncat-tsmpirun -x LD_LIBRARY_PATH -wdir /scratch/qe767114_1c8cL pw.x -npool 4 -in pw.inp

TID   HOST_NAME   COMMAND_LINE            STATUS            TERMINATION_TIME
===== ========== ================  =======================  ===================
00000 suncat0040 pw.x -npool 4 -i  Done                     05/03/2018 15:10:54
00001 suncat0040 pw.x -npool 4 -i  Done                     05/03/2018 15:10:54
00002 suncat0040 pw.x -npool 4 -i  Done                     05/03/2018 15:10:54
00003 suncat0040 pw.x -npool 4 -i  Done                     05/03/2018 15:10:54
00004 suncat0040 pw.x -npool 4 -i  Done                     05/03/2018 15:10:54
00005 suncat0040 pw.x -npool 4 -i  Done                     05/03/2018 15:10:54
00006 suncat0040 pw.x -npool 4 -i  Done                     05/03/2018 15:10:54
00007 suncat0040 pw.x -npool 4 -i  Done                     05/03/2018 15:10:54
00008 suncat0037 pw.x -npool 4 -i  Done                     05/03/2018 15:10:54
00009 suncat0037 pw.x -npool 4 -i  Done                     05/03/2018 15:10:54
00010 suncat0037 pw.x -npool 4 -i  Done                     05/03/2018 15:10:54
00011 suncat0037 pw.x -npool 4 -i  Done                     05/03/2018 15:10:54
00012 suncat0037 pw.x -npool 4 -i  Done                     05/03/2018 15:10:54
00013 suncat0037 pw.x -npool 4 -i  Done                     05/03/2018 15:10:54
00014 suncat0037 pw.x -npool 4 -i  Done                     05/03/2018 15:10:54
00015 suncat0037 pw.x -npool 4 -i  Done                     05/03/2018 15:10:54
00016 suncat0025 pw.x -npool 4 -i  Done                     05/03/2018 15:10:54
00017 suncat0025 pw.x -npool 4 -i  Done                     05/03/2018 15:10:54
00018 suncat0025 pw.x -npool 4 -i  Done                     05/03/2018 15:10:54
00019 suncat0025 pw.x -npool 4 -i  Done                     05/03/2018 15:10:54
00020 suncat0025 pw.x -npool 4 -i  Done                     05/03/2018 15:10:54
00021 suncat0025 pw.x -npool 4 -i  Done                     05/03/2018 15:10:54
00022 suncat0025 pw.x -npool 4 -i  Done                     05/03/2018 15:10:54
00023 suncat0025 pw.x -npool 4 -i  Done                     05/03/2018 15:10:54
00024 suncat0199 pw.x -npool 4 -i  Done                     05/03/2018 15:10:54
00025 suncat0199 pw.x -npool 4 -i  Done                     05/03/2018 15:10:54
00026 suncat0199 pw.x -npool 4 -i  Done                     05/03/2018 15:10:54
00027 suncat0199 pw.x -npool 4 -i  Done                     05/03/2018 15:10:54
00028 suncat0199 pw.x -npool 4 -i  Done                     05/03/2018 15:10:54
00029 suncat0199 pw.x -npool 4 -i  Done                     05/03/2018 15:10:54
00030 suncat0199 pw.x -npool 4 -i  Done                     05/03/2018 15:10:54
00031 suncat0199 pw.x -npool 4 -i  Done                     05/03/2018 15:10:54
