  python dir          : /nfs/slac/g/suncatfs/sw/espv20/lib/python2.7/site-packages/espresso
  espresso dir        : /nfs/slac/g/suncatfs/sw/espv18/espresso-dynpy-beef/bin
  pseudo dir          : /afs/slac.stanford.edu/u/if/mamunm/psp/gbrv1.5pbe
  ase-espresso py git : ffa2778-git



     Program PWSCF v.5.1rc2 (svn rev. 11289) starts on 16Jan2018 at 17:31:38 

     This program is part of the open-source Quantum ESPRESSO suite
     for quantum simulation of materials; please cite
         "P. Giannozzi et al., J. Phys.:Condens. Matter 21 395502 (2009);
          URL http://www.quantum-espresso.org", 
     in publications or presentations arising from this work. More details at
     http://www.quantum-espresso.org/quote

     Parallel version (MPI), running on    32 processors
     R & G space division:  proc/nbgrp/npool/nimage =      32
     Reading input from pw.inp
     Message from routine read_cards :
     DEPRECATED: no units specified in CELL_PARAMETERS card

     Current dimensions of program PWSCF are:
     Max number of different atomic species (ntypx) = 10
     Max number of k-points (npk) =  40000
     Max angular momentum in pseudopotentials (lmaxx) =  3
     Presently stress not available with electric field


     **************************************************************************
     Initializing libbeef V0.1.1 with the BEEF-vdW functional.
     Citation: Wellendorff et al., PRB 85, 235149 (2012).
     **************************************************************************


     IMPORTANT: XC functional enforced from input :
     Exchange-correlation      = BEEF-VDW ( 1  4 27 13 2)
     Any further DFT definition will be discarded
     Please, verify this is what you really want


     Subspace diagonalization in iterative solution of the eigenvalue problem:
     a serial algorithm will be used

 
     Parallelization info
     --------------------
     sticks:   dense  smooth     PW     G-vecs:    dense   smooth      PW
     Min         134      54     15                26644     6724    1019
     Max         135      55     16                26659     6775    1034
     Sum        4315    1735    499               852865   215821   32865
 


     bravais-lattice index     =            0
     lattice parameter (alat)  =       1.8897  a.u.
     unit-cell volume          =    7171.5276 (a.u.)^3
     number of atoms/cell      =           13
     number of atomic types    =            2
     number of electrons       =       169.00
     number of Kohn-Sham states=           94
     kinetic-energy cutoff     =      36.7493  Ry
     charge density cutoff     =     367.4932  Ry
     convergence threshold     =      1.0E-05
     mixing beta               =       0.3000
     number of iterations used =           10  plain     mixing
     Exchange-correlation      = BEEF-VDW ( 1  4 27 13 2)
     nstep                     =           50


     celldm(1)=   1.889726  celldm(2)=   0.000000  celldm(3)=   0.000000
     celldm(4)=   0.000000  celldm(5)=   0.000000  celldm(6)=   0.000000

     crystal axes: (cart. coord. in units of alat)
               a(1) = (   6.917003   0.000000   0.000000 )  
               a(2) = (   3.458501   5.990300   0.000000 )  
               a(3) = (   0.000000   0.000000  25.647709 )  

     reciprocal axes: (cart. coord. in units 2 pi/alat)
               b(1) = (  0.144571 -0.083468  0.000000 )  
               b(2) = (  0.000000  0.166937  0.000000 )  
               b(3) = (  0.000000  0.000000  0.038990 )  


     PseudoPot. # 1 for Pb read from file:
     /afs/slac.stanford.edu/u/if/mamunm/psp/gbrv1.5pbe/Pb.UPF
     MD5 check sum: 3d1c1779aa92214d1e8f3a7db79003e2
     Pseudo is Ultrasoft + core correction, Zval = 14.0
     Generated by new atomic code, or converted to UPF format
     Using radial grid of  899 points,  6 beta functions with: 
                l(1) =   0
                l(2) =   0
                l(3) =   1
                l(4) =   1
                l(5) =   2
                l(6) =   2
     Q(r) pseudized with  6 coefficients,  rinner =    1.000   1.000   1.000
                                                       1.000   1.000

     PseudoPot. # 2 for H  read from file:
     /afs/slac.stanford.edu/u/if/mamunm/psp/gbrv1.5pbe/H.UPF
     MD5 check sum: 761ae9a214b05c3daf00ab9f6b793d6f
     Pseudo is Ultrasoft, Zval =  1.0
     Generated by new atomic code, or converted to UPF format
     Using radial grid of  615 points,  2 beta functions with: 
                l(1) =   0
                l(2) =   0
     Q(r) pseudized with  8 coefficients,  rinner =    0.700

     vdW kernel table read from file vdW_kernel_table
     MD5 check sum: 095c7af220d748ca6e76c0b4c6cfb241

     atomic species   valence    mass     pseudopotential
        Pb1           14.00   207.20000     Pb( 1.00)
        H1             1.00     1.00800     H ( 1.00)

     No symmetry found



   Cartesian axes

     site n.     atom                  positions (alat units)
         1           Pb1 tau(   1) = (   1.7292506   0.9983833  10.0000000  )
         2           Pb1 tau(   2) = (   5.1877519   0.9983833  10.0000000  )
         3           Pb1 tau(   3) = (   3.4585013   3.9935333  10.0000000  )
         4           Pb1 tau(   4) = (   6.9170025   3.9935333  10.0000000  )
         5           Pb1 tau(   5) = (   6.9170025   1.9967666  12.8238544  )
         6           Pb1 tau(   6) = (   3.4585013   1.9967666  12.8238544  )
         7           Pb1 tau(   7) = (   8.6462531   4.9919166  12.8238544  )
         8           Pb1 tau(   8) = (   5.1877519   4.9919166  12.8238544  )
         9           Pb1 tau(   9) = (   0.0000000   0.0000000  15.6477089  )
        10           Pb1 tau(  10) = (   3.4585013   0.0000000  15.6477089  )
        11           Pb1 tau(  11) = (   1.7292506   2.9951499  15.6477089  )
        12           Pb1 tau(  12) = (   5.1877519   2.9951499  15.6477089  )
        13           H1  tau(  13) = (   1.7292506   0.9983833  17.4177089  )

     number of k points=    20  Fermi-Dirac smearing, width (Ry)=  0.0110
                       cart. coord. in units 2pi/alat
        k(    1) = (   0.0000000   0.0000000   0.0000000), wk =   0.0555556
        k(    2) = (   0.0000000   0.0278228   0.0000000), wk =   0.1111111
        k(    3) = (   0.0000000   0.0556455   0.0000000), wk =   0.1111111
        k(    4) = (   0.0000000  -0.0834683   0.0000000), wk =   0.0555556
        k(    5) = (   0.0240952  -0.0139114   0.0000000), wk =   0.1111111
        k(    6) = (   0.0240952   0.0139114   0.0000000), wk =   0.1111111
        k(    7) = (   0.0240952   0.0417341   0.0000000), wk =   0.1111111
        k(    8) = (   0.0240952  -0.0973797   0.0000000), wk =   0.1111111
        k(    9) = (   0.0240952  -0.0695569   0.0000000), wk =   0.1111111
        k(   10) = (   0.0240952  -0.0417341   0.0000000), wk =   0.1111111
        k(   11) = (   0.0481904  -0.0278228   0.0000000), wk =   0.1111111
        k(   12) = (   0.0481904   0.0000000   0.0000000), wk =   0.1111111
        k(   13) = (   0.0481904   0.0278228   0.0000000), wk =   0.1111111
        k(   14) = (   0.0481904  -0.1112910   0.0000000), wk =   0.1111111
        k(   15) = (   0.0481904  -0.0834683   0.0000000), wk =   0.1111111
        k(   16) = (   0.0481904  -0.0556455   0.0000000), wk =   0.1111111
        k(   17) = (  -0.0722856   0.0417341   0.0000000), wk =   0.0555556
        k(   18) = (  -0.0722856   0.0695569   0.0000000), wk =   0.1111111
        k(   19) = (  -0.0722856   0.0973797   0.0000000), wk =   0.1111111
        k(   20) = (  -0.0722856  -0.0417341   0.0000000), wk =   0.0555556

     Dense  grid:   852865 G-vectors     FFT dimensions: (  80,  80, 300)

     Smooth grid:   215821 G-vectors     FFT dimensions: (  54,  54, 192)

     Largest allocated arrays     est. size (Mb)     dimensions
        Kohn-Sham Wavefunctions         1.23 Mb     (     858,   94)
        NL pseudopotentials             2.85 Mb     (     858,  218)
        Each V/rho on FFT grid          0.98 Mb     (   64000)
        Each G-vector array             0.20 Mb     (   26644)
        G-vector shells                 0.09 Mb     (   12051)
     Largest temporary arrays     est. size (Mb)     dimensions
        Auxiliary wavefunctions         4.92 Mb     (     858,  376)
        Each subspace H/S matrix        2.16 Mb     (     376,  376)
        Each <psi_i|beta_j> matrix      0.31 Mb     (     218,   94)
        Arrays for rho mixing           9.77 Mb     (   64000,   10)

     Check: negative/imaginary core charge=   -0.000001    0.000000

     Initial potential from superposition of free atoms
     Check: negative starting charge=   -0.198285

     starting charge  168.97177, renormalised to  169.00000

     negative rho (up, down):  1.983E-01 0.000E+00


     ************************************************************************
     *
     * You are using vdW-DF for exchange-correlation in this calculation.
     * Please cite the following three references that made this development
     * possible:
     *
     *   M. Dion, H. Rydberg, E. Schroder, D. C. Langreth, and
     *   B. I. Lundqvist, Phys. Rev. Lett. 92, 246401 (2004).
     *
     *   T. Thonhauser, V. R. Cooper, S. Li, A. Puzder, P. Hyldgaard, and
     *   D. C. Langreth, Phys. Rev. B 76, 125112 (2007).
     *
     *   G. Roman-Perez and J. M. Soler, Phys. Rev. Lett. 103, 096102 (2009).
     *
     *
     * If you are using vdW-DF2, please also cite:
     *
     *   K. Lee, E. D. Murray, L. Kong, B. I. Lundqvist, and
     *   D. C. Langreth, Phys. Rev. B 82, 081101(R) (2010).
     *
     *
     * If you are calculating the stress with vdW-DF, please also cite:
     *
     *   R. Sabatini, E. Kucukbenli, B. Kolb, T. Thonhauser, and
     *   S. de Gironcoli, J. Phys.: Condens. Matter 24, 424209 (2012).
     *
     ************************************************************************

     Carrying out vdW-DF run using the following parameters:

     Nqs =      20    Nr_points =    1024   r_max =   100.000
     q_mesh =
               0.00001000     0.04494208     0.09755937     0.15916263
               0.23128650     0.31572767     0.41458969     0.53033537
               0.66584808     0.82450364     1.01025438     1.22772762
               1.48234092     1.78043706     2.12944203     2.53805004
               3.01644009     3.57652955     4.23227104     5.00000000

     Gradients computed in reciprocal space

     ************************************************************************


 
     Adding external electric field

     Computed dipole along edir(3) : 
        Dipole               -0.0014 Ry au,         -0.0035 Debye
        Dipole field         -0.0000 Ry au
 
        Potential amp.        0.0002 Ry
        Total length         47.2555 bohr
 
     Starting wfc are  109 randomized atomic wfcs

     total cpu time spent up to now is       21.9 secs

     per-process dynamical memory:    60.2 Mb

     Self-consistent Calculation

     iteration #  1     ecut=    36.75 Ry     beta=0.30
     Davidson diagonalization with overlap
     ethr =  1.00E-02,  avg # of iterations =  2.0

     Threshold (ethr) on eigenvalues was too large:
     Diagonalizing with lowered threshold

     Davidson diagonalization with overlap
     ethr =  1.58E-04,  avg # of iterations =  2.4

     negative rho (up, down):  2.000E-01 0.000E+00
 
     Adding external electric field

     Computed dipole along edir(3) : 
        Dipole               -1.2689 Ry au,         -3.2251 Debye
        Dipole field         -0.0022 Ry au
 
        Potential amp.        0.2101 Ry
        Total length         47.2555 bohr
 

     total cpu time spent up to now is      107.3 secs

     total energy              =   -1993.26247865 Ry
     Harris-Foulkes estimate   =   -1993.37124123 Ry
     estimated scf accuracy    <       0.28593041 Ry

     iteration #  2     ecut=    36.75 Ry     beta=0.30
     Davidson diagonalization with overlap
     ethr =  1.69E-04,  avg # of iterations =  4.7

     negative rho (up, down):  1.993E-01 0.000E+00
 
     Adding external electric field

     Computed dipole along edir(3) : 
        Dipole               -0.0544 Ry au,         -0.1383 Debye
        Dipole field         -0.0001 Ry au
 
        Potential amp.        0.0090 Ry
        Total length         47.2555 bohr
 

     total cpu time spent up to now is      158.8 secs

     total energy              =   -1993.08605297 Ry
     Harris-Foulkes estimate   =   -1993.48826728 Ry
     estimated scf accuracy    <       5.03027798 Ry

     iteration #  3     ecut=    36.75 Ry     beta=0.30
     Davidson diagonalization with overlap
     ethr =  1.69E-04,  avg # of iterations =  4.5

     negative rho (up, down):  2.005E-01 0.000E+00
 
     Adding external electric field

     Computed dipole along edir(3) : 
        Dipole               -0.3072 Ry au,         -0.7809 Debye
        Dipole field         -0.0005 Ry au
 
        Potential amp.        0.0509 Ry
        Total length         47.2555 bohr
 

     total cpu time spent up to now is      210.1 secs

     total energy              =   -1993.30605359 Ry
     Harris-Foulkes estimate   =   -1993.34772012 Ry
     estimated scf accuracy    <       0.52387675 Ry

     iteration #  4     ecut=    36.75 Ry     beta=0.30
     Davidson diagonalization with overlap
     ethr =  1.69E-04,  avg # of iterations =  2.7

     negative rho (up, down):  2.019E-01 0.000E+00
 
     Adding external electric field

     Computed dipole along edir(3) : 
        Dipole               -0.2819 Ry au,         -0.7166 Debye
        Dipole field         -0.0005 Ry au
 
        Potential amp.        0.0467 Ry
        Total length         47.2555 bohr
 

     total cpu time spent up to now is      255.4 secs

     total energy              =   -1993.32501738 Ry
     Harris-Foulkes estimate   =   -1993.33295430 Ry
     estimated scf accuracy    <       0.03921473 Ry

     iteration #  5     ecut=    36.75 Ry     beta=0.30
     Davidson diagonalization with overlap
     ethr =  2.32E-05,  avg # of iterations =  3.6

     negative rho (up, down):  2.048E-01 0.000E+00
 
     Adding external electric field

     Computed dipole along edir(3) : 
        Dipole               -0.2977 Ry au,         -0.7567 Debye
        Dipole field         -0.0005 Ry au
 
        Potential amp.        0.0493 Ry
        Total length         47.2555 bohr
 

     total cpu time spent up to now is      302.7 secs

     total energy              =   -1993.32955045 Ry
     Harris-Foulkes estimate   =   -1993.32962675 Ry
     estimated scf accuracy    <       0.00304596 Ry

     iteration #  6     ecut=    36.75 Ry     beta=0.30
     Davidson diagonalization with overlap
     ethr =  1.80E-06,  avg # of iterations =  5.3

     negative rho (up, down):  2.088E-01 0.000E+00
 
     Adding external electric field

     Computed dipole along edir(3) : 
        Dipole               -0.2895 Ry au,         -0.7357 Debye
        Dipole field         -0.0005 Ry au
 
        Potential amp.        0.0479 Ry
        Total length         47.2555 bohr
 

     total cpu time spent up to now is      367.8 secs

     total energy              =   -1993.33179685 Ry
     Harris-Foulkes estimate   =   -1993.33178080 Ry
     estimated scf accuracy    <       0.00081831 Ry

     iteration #  7     ecut=    36.75 Ry     beta=0.30
     Davidson diagonalization with overlap
     ethr =  4.84E-07,  avg # of iterations =  2.0

     negative rho (up, down):  2.139E-01 0.000E+00
 
     Adding external electric field

     Computed dipole along edir(3) : 
        Dipole               -0.2909 Ry au,         -0.7393 Debye
        Dipole field         -0.0005 Ry au
 
        Potential amp.        0.0482 Ry
        Total length         47.2555 bohr
 

     total cpu time spent up to now is      410.5 secs

     total energy              =   -1993.33186240 Ry
     Harris-Foulkes estimate   =   -1993.33184262 Ry
     estimated scf accuracy    <       0.00024371 Ry

     iteration #  8     ecut=    36.75 Ry     beta=0.30
     Davidson diagonalization with overlap
     ethr =  1.44E-07,  avg # of iterations =  3.0

     negative rho (up, down):  2.145E-01 0.000E+00
 
     Adding external electric field

     Computed dipole along edir(3) : 
        Dipole               -0.2907 Ry au,         -0.7388 Debye
        Dipole field         -0.0005 Ry au
 
        Potential amp.        0.0481 Ry
        Total length         47.2555 bohr
 

     total cpu time spent up to now is      459.7 secs

     total energy              =   -1993.33187456 Ry
     Harris-Foulkes estimate   =   -1993.33189913 Ry
     estimated scf accuracy    <       0.00001962 Ry

     iteration #  9     ecut=    36.75 Ry     beta=0.30
     Davidson diagonalization with overlap
     ethr =  1.16E-08,  avg # of iterations =  5.0

     negative rho (up, down):  2.144E-01 0.000E+00

     negative rho (up, down):  2.144E-01 0.000E+00

     negative rho (up, down):  2.144E-01 0.000E+00

     negative rho (up, down):  2.144E-01 0.000E+00

     negative rho (up, down):  2.144E-01 0.000E+00

     negative rho (up, down):  2.144E-01 0.000E+00

     negative rho (up, down):  2.144E-01 0.000E+00

     negative rho (up, down):  2.144E-01 0.000E+00

     negative rho (up, down):  2.144E-01 0.000E+00

     negative rho (up, down):  2.144E-01 0.000E+00

     negative rho (up, down):  2.144E-01 0.000E+00

     negative rho (up, down):  2.144E-01 0.000E+00

     negative rho (up, down):  2.144E-01 0.000E+00

     negative rho (up, down):  2.144E-01 0.000E+00

     negative rho (up, down):  2.144E-01 0.000E+00

     negative rho (up, down):  2.144E-01 0.000E+00

     negative rho (up, down):  2.144E-01 0.000E+00

     negative rho (up, down):  2.144E-01 0.000E+00

     negative rho (up, down):  2.144E-01 0.000E+00

     negative rho (up, down):  2.144E-01 0.000E+00

     negative rho (up, down):  2.144E-01 0.000E+00

     negative rho (up, down):  2.144E-01 0.000E+00

     negative rho (up, down):  2.144E-01 0.000E+00

     negative rho (up, down):  2.144E-01 0.000E+00

     negative rho (up, down):  2.144E-01 0.000E+00

     negative rho (up, down):  2.144E-01 0.000E+00

     negative rho (up, down):  2.144E-01 0.000E+00

     negative rho (up, down):  2.144E-01 0.000E+00

     negative rho (up, down):  2.144E-01 0.000E+00

     negative rho (up, down):  2.144E-01 0.000E+00

     negative rho (up, down):  2.144E-01 0.000E+00

     negative rho (up, down):  2.144E-01 0.000E+00

     negative rho (up, down):  2.144E-01 0.000E+00

     negative rho (up, down):  2.144E-01 0.000E+00

     negative rho (up, down):  2.144E-01 0.000E+00
 
     Adding external electric field

     Computed dipole along edir(3) : 
        Dipole               -0.2919 Ry au,         -0.7421 Debye
        Dipole field         -0.0005 Ry au
 
        Potential amp.        0.0483 Ry
        Total length         47.2555 bohr
 

     total cpu time spent up to now is      622.3 secs

     End of self-consistent calculation

          k = 0.0000 0.0000 0.0000 ( 27033 PWs)   bands (ev):

   -16.6384 -16.6313 -16.6313 -16.5918 -16.5861 -16.5861 -16.5510 -16.5445
   -16.5402 -16.5402 -16.5201 -16.5056 -16.5056 -16.4990 -16.4990 -16.4989
   -16.4871 -16.4720 -16.4720 -16.4673 -16.4673 -16.4585 -16.4571 -16.4571
   -16.4485 -16.4485 -16.4440 -16.4431 -16.4282 -16.4282 -16.3795 -16.3672
   -16.3671 -16.3454 -16.3454 -16.3304 -16.3304 -16.3155 -16.3155 -16.2950
   -16.2573 -16.2572 -16.2560 -16.2325 -16.2325 -16.2294 -16.2276 -16.2262
   -16.2261 -16.2093 -16.2085 -16.2085 -16.1955 -16.1955 -16.1854 -16.1780
   -16.1780 -16.1537 -16.1537 -16.1433 -10.5833  -9.4848  -7.9719  -7.0404
    -7.0345  -7.0345  -6.6125  -6.6124  -6.5934  -5.9761  -5.9700  -5.9700
    -2.9025  -2.7451  -2.7451  -2.4714  -1.9399  -1.6960  -1.6960  -1.6374
    -1.5669  -1.5669  -0.1930   1.2779   2.1500   2.1500   2.1549   2.1887
     2.1887   2.5122   3.4727   3.5622   3.5622   3.5635

          k = 0.0000 0.0278 0.0000 ( 27010 PWs)   bands (ev):

   -16.6270 -16.6157 -16.6116 -16.5833 -16.5708 -16.5672 -16.5424 -16.5367
   -16.5307 -16.5307 -16.5141 -16.5042 -16.4994 -16.4904 -16.4878 -16.4835
   -16.4779 -16.4731 -16.4688 -16.4651 -16.4594 -16.4556 -16.4511 -16.4492
   -16.4475 -16.4409 -16.4399 -16.4379 -16.4263 -16.4209 -16.3796 -16.3694
   -16.3683 -16.3524 -16.3456 -16.3428 -16.3382 -16.3190 -16.3159 -16.3055
   -16.2730 -16.2663 -16.2602 -16.2502 -16.2472 -16.2413 -16.2350 -16.2332
   -16.2284 -16.2194 -16.2176 -16.2124 -16.2078 -16.2065 -16.1966 -16.1866
   -16.1837 -16.1679 -16.1651 -16.1564 -10.4611  -9.3674  -7.8684  -7.7068
    -7.1947  -7.1909  -6.8963  -6.5944  -6.5836  -6.0183  -5.9369  -5.9334
    -2.6447  -2.5042  -2.3665  -2.2170  -1.8243  -1.6488  -1.5398  -1.2147
    -1.1218  -0.6498  -0.1412   0.9722   1.4223   1.6816   2.1081   2.5207
     2.5407   2.7971   2.9459   2.9539   3.4575   3.6540

          k = 0.0000 0.0556 0.0000 ( 26980 PWs)   bands (ev):

   -16.6056 -16.5711 -16.5672 -16.5624 -16.5455 -16.5289 -16.5234 -16.5189
   -16.5086 -16.5043 -16.4990 -16.4915 -16.4878 -16.4790 -16.4788 -16.4707
   -16.4687 -16.4629 -16.4586 -16.4472 -16.4461 -16.4391 -16.4356 -16.4298
   -16.4286 -16.4284 -16.4243 -16.4104 -16.4104 -16.3979 -16.3807 -16.3777
   -16.3756 -16.3699 -16.3677 -16.3583 -16.3399 -16.3392 -16.3210 -16.3134
   -16.3104 -16.2980 -16.2928 -16.2906 -16.2760 -16.2675 -16.2613 -16.2515
   -16.2512 -16.2425 -16.2362 -16.2318 -16.2265 -16.2257 -16.2224 -16.2135
   -16.2129 -16.1965 -16.1697 -16.1638 -10.0949  -9.0171  -8.6653  -7.6878
    -7.5571  -7.4066  -7.4034  -6.6471  -6.6427  -6.4616  -5.8770  -5.8720
    -2.1317  -1.8533  -1.8172  -1.3532  -1.1256  -0.9360  -0.7527  -0.5294
    -0.4768  -0.0713   0.4351   0.9357   0.9904   1.1586   1.6713   1.9582
     2.0899   2.3131   2.3766   2.7087   2.9898   3.0611

          k = 0.0000-0.0835 0.0000 ( 26962 PWs)   bands (ev):

   -16.5839 -16.5699 -16.5489 -16.5369 -16.5335 -16.5202 -16.5135 -16.5075
   -16.4906 -16.4860 -16.4822 -16.4822 -16.4700 -16.4669 -16.4614 -16.4610
   -16.4567 -16.4517 -16.4483 -16.4444 -16.4387 -16.4334 -16.4298 -16.4275
   -16.4193 -16.4189 -16.4160 -16.4115 -16.4041 -16.4013 -16.3788 -16.3775
   -16.3734 -16.3694 -16.3631 -16.3605 -16.3525 -16.3366 -16.3326 -16.3264
   -16.3190 -16.3112 -16.3091 -16.3074 -16.2968 -16.2832 -16.2774 -16.2753
   -16.2746 -16.2695 -16.2688 -16.2625 -16.2502 -16.2332 -16.2301 -16.2197
   -16.2146 -16.1998 -16.1695 -16.1638  -9.4949  -9.4833  -8.4506  -8.4350
    -7.4916  -7.4872  -7.0769  -7.0551  -6.6856  -6.6793  -5.8569  -5.8516
    -1.7692  -1.0961  -1.0420  -1.0205  -1.0156  -1.0076  -0.5385  -0.2036
     0.0458   0.4085   0.5249   0.7116   1.0694   1.6832   1.6837   1.7023
     1.9562   2.0891   2.1730   2.1846   2.2971   2.5072

          k = 0.0241-0.0139 0.0000 ( 27010 PWs)   bands (ev):

   -16.6270 -16.6157 -16.6116 -16.5833 -16.5708 -16.5672 -16.5424 -16.5367
   -16.5307 -16.5307 -16.5141 -16.5042 -16.4994 -16.4904 -16.4878 -16.4835
   -16.4779 -16.4731 -16.4688 -16.4650 -16.4594 -16.4556 -16.4511 -16.4492
   -16.4475 -16.4409 -16.4399 -16.4379 -16.4263 -16.4209 -16.3796 -16.3694
   -16.3683 -16.3524 -16.3456 -16.3428 -16.3382 -16.3190 -16.3159 -16.3055
   -16.2730 -16.2663 -16.2602 -16.2502 -16.2472 -16.2413 -16.2350 -16.2332
   -16.2284 -16.2195 -16.2176 -16.2124 -16.2078 -16.2065 -16.1966 -16.1866
   -16.1837 -16.1679 -16.1651 -16.1564 -10.4611  -9.3674  -7.8684  -7.7068
    -7.1947  -7.1909  -6.8963  -6.5944  -6.5836  -6.0183  -5.9369  -5.9334
    -2.6447  -2.5042  -2.3665  -2.2170  -1.8243  -1.6488  -1.5398  -1.2147
    -1.1218  -0.6498  -0.1412   0.9722   1.4223   1.6816   2.1081   2.5207
     2.5407   2.7971   2.9459   2.9539   3.4575   3.6540

          k = 0.0241 0.0139 0.0000 ( 27010 PWs)   bands (ev):

   -16.6270 -16.6157 -16.6116 -16.5833 -16.5708 -16.5672 -16.5424 -16.5367
   -16.5307 -16.5307 -16.5141 -16.5042 -16.4994 -16.4904 -16.4878 -16.4835
   -16.4779 -16.4731 -16.4688 -16.4650 -16.4594 -16.4556 -16.4511 -16.4492
   -16.4475 -16.4409 -16.4399 -16.4379 -16.4263 -16.4209 -16.3796 -16.3694
   -16.3683 -16.3524 -16.3456 -16.3428 -16.3382 -16.3190 -16.3159 -16.3055
   -16.2730 -16.2663 -16.2602 -16.2502 -16.2472 -16.2413 -16.2350 -16.2332
   -16.2284 -16.2194 -16.2176 -16.2124 -16.2078 -16.2065 -16.1966 -16.1866
   -16.1837 -16.1679 -16.1651 -16.1564 -10.4611  -9.3674  -7.8684  -7.7068
    -7.1947  -7.1909  -6.8963  -6.5944  -6.5836  -6.0183  -5.9369  -5.9334
    -2.6447  -2.5042  -2.3665  -2.2170  -1.8243  -1.6488  -1.5398  -1.2147
    -1.1218  -0.6498  -0.1412   0.9722   1.4223   1.6816   2.1081   2.5207
     2.5407   2.7971   2.9459   2.9539   3.4575   3.6540

          k = 0.0241 0.0417 0.0000 ( 26981 PWs)   bands (ev):

   -16.6025 -16.5980 -16.5721 -16.5611 -16.5593 -16.5338 -16.5268 -16.5204
   -16.5153 -16.5090 -16.5057 -16.5032 -16.4889 -16.4852 -16.4829 -16.4803
   -16.4682 -16.4603 -16.4578 -16.4542 -16.4496 -16.4462 -16.4454 -16.4369
   -16.4349 -16.4296 -16.4271 -16.4226 -16.4165 -16.4021 -16.3774 -16.3740
   -16.3710 -16.3686 -16.3609 -16.3538 -16.3452 -16.3284 -16.3251 -16.3102
   -16.3017 -16.2891 -16.2800 -16.2749 -16.2638 -16.2617 -16.2559 -16.2496
   -16.2414 -16.2342 -16.2316 -16.2244 -16.2236 -16.2226 -16.2157 -16.2057
   -16.1888 -16.1823 -16.1793 -16.1750 -10.2169  -9.1334  -8.1161  -8.1061
    -7.6625  -7.2033  -7.1986  -6.7679  -6.3838  -6.1453  -6.1397  -5.8702
    -2.3980  -2.1260  -1.6288  -1.5712  -1.4189  -1.2547  -1.0250  -0.8938
    -0.2097   0.0532   0.0655   0.8079   0.8817   1.1008   1.6596   2.1158
     2.4595   2.7191   2.7438   2.8888   3.1593   3.1875

          k = 0.0241-0.0974 0.0000 ( 26956 PWs)   bands (ev):

   -16.5768 -16.5511 -16.5487 -16.5378 -16.5330 -16.5200 -16.5132 -16.5055
   -16.4977 -16.4931 -16.4880 -16.4834 -16.4810 -16.4744 -16.4663 -16.4640
   -16.4596 -16.4564 -16.4503 -16.4464 -16.4369 -16.4324 -16.4291 -16.4254
   -16.4213 -16.4122 -16.4100 -16.4056 -16.4012 -16.3967 -16.3894 -16.3811
   -16.3756 -16.3721 -16.3667 -16.3516 -16.3466 -16.3382 -16.3367 -16.3331
   -16.3244 -16.3154 -16.3068 -16.3034 -16.2996 -16.2859 -16.2803 -16.2714
   -16.2688 -16.2624 -16.2559 -16.2498 -16.2348 -16.2279 -16.2261 -16.2207
   -16.2170 -16.2024 -16.1832 -16.1780  -9.7305  -9.0139  -8.6703  -8.3271
    -7.9998  -7.3822  -7.2558  -6.7017  -6.6654  -6.2390  -6.1863  -5.8156
    -1.8881  -1.6146  -1.0960  -0.9553  -0.7209  -0.6721  -0.4401  -0.1983
     0.0453   0.1325   0.5477   0.7626   0.9204   1.0198   1.5005   1.6345
     1.9293   2.4257   2.5297   2.5748   2.7617   2.8859

          k = 0.0241-0.0696 0.0000 ( 26956 PWs)   bands (ev):

   -16.5768 -16.5511 -16.5487 -16.5378 -16.5330 -16.5200 -16.5132 -16.5055
   -16.4977 -16.4931 -16.4880 -16.4834 -16.4810 -16.4744 -16.4663 -16.4640
   -16.4596 -16.4564 -16.4503 -16.4464 -16.4369 -16.4324 -16.4291 -16.4254
   -16.4213 -16.4121 -16.4100 -16.4056 -16.4012 -16.3967 -16.3894 -16.3811
   -16.3756 -16.3721 -16.3667 -16.3516 -16.3466 -16.3382 -16.3367 -16.3331
   -16.3244 -16.3154 -16.3068 -16.3034 -16.2996 -16.2859 -16.2803 -16.2714
   -16.2688 -16.2624 -16.2559 -16.2498 -16.2348 -16.2279 -16.2261 -16.2207
   -16.2170 -16.2024 -16.1832 -16.1780  -9.7305  -9.0139  -8.6703  -8.3271
    -7.9998  -7.3822  -7.2558  -6.7017  -6.6654  -6.2390  -6.1863  -5.8156
    -1.8881  -1.6146  -1.0960  -0.9553  -0.7209  -0.6721  -0.4401  -0.1983
     0.0453   0.1325   0.5477   0.7626   0.9204   1.0198   1.5005   1.6345
     1.9293   2.4257   2.5297   2.5748   2.7617   2.8859

          k = 0.0241-0.0417 0.0000 ( 26981 PWs)   bands (ev):

   -16.6025 -16.5980 -16.5721 -16.5611 -16.5593 -16.5338 -16.5268 -16.5204
   -16.5153 -16.5090 -16.5057 -16.5032 -16.4889 -16.4852 -16.4829 -16.4803
   -16.4682 -16.4603 -16.4578 -16.4542 -16.4496 -16.4462 -16.4454 -16.4369
   -16.4349 -16.4296 -16.4271 -16.4226 -16.4165 -16.4021 -16.3774 -16.3740
   -16.3710 -16.3686 -16.3609 -16.3538 -16.3452 -16.3284 -16.3251 -16.3102
   -16.3017 -16.2891 -16.2800 -16.2749 -16.2638 -16.2617 -16.2559 -16.2496
   -16.2414 -16.2342 -16.2316 -16.2244 -16.2236 -16.2226 -16.2157 -16.2057
   -16.1888 -16.1823 -16.1793 -16.1750 -10.2169  -9.1334  -8.1161  -8.1061
    -7.6625  -7.2033  -7.1986  -6.7679  -6.3838  -6.1453  -6.1397  -5.8702
    -2.3980  -2.1260  -1.6288  -1.5712  -1.4189  -1.2547  -1.0250  -0.8938
    -0.2097   0.0532   0.0655   0.8079   0.8817   1.1008   1.6596   2.1158
     2.4595   2.7191   2.7438   2.8888   3.1593   3.1875

          k = 0.0482-0.0278 0.0000 ( 26980 PWs)   bands (ev):

   -16.6056 -16.5711 -16.5672 -16.5624 -16.5455 -16.5289 -16.5234 -16.5189
   -16.5086 -16.5043 -16.4990 -16.4915 -16.4878 -16.4790 -16.4788 -16.4707
   -16.4687 -16.4629 -16.4586 -16.4472 -16.4461 -16.4391 -16.4356 -16.4298
   -16.4286 -16.4284 -16.4243 -16.4104 -16.4104 -16.3979 -16.3807 -16.3777
   -16.3756 -16.3699 -16.3677 -16.3583 -16.3399 -16.3392 -16.3210 -16.3134
   -16.3104 -16.2980 -16.2928 -16.2906 -16.2760 -16.2675 -16.2613 -16.2515
   -16.2512 -16.2425 -16.2362 -16.2318 -16.2265 -16.2257 -16.2224 -16.2135
   -16.2129 -16.1965 -16.1697 -16.1638 -10.0949  -9.0171  -8.6653  -7.6878
    -7.5571  -7.4066  -7.4034  -6.6471  -6.6427  -6.4616  -5.8770  -5.8720
    -2.1317  -1.8533  -1.8172  -1.3532  -1.1256  -0.9360  -0.7527  -0.5294
    -0.4768  -0.0713   0.4351   0.9357   0.9904   1.1586   1.6713   1.9582
     2.0899   2.3131   2.3766   2.7087   2.9898   3.0611

          k = 0.0482 0.0000 0.0000 ( 26981 PWs)   bands (ev):

   -16.6025 -16.5980 -16.5721 -16.5611 -16.5593 -16.5338 -16.5268 -16.5204
   -16.5153 -16.5090 -16.5057 -16.5032 -16.4889 -16.4852 -16.4829 -16.4803
   -16.4682 -16.4603 -16.4578 -16.4542 -16.4496 -16.4462 -16.4454 -16.4369
   -16.4349 -16.4296 -16.4271 -16.4226 -16.4165 -16.4021 -16.3774 -16.3740
   -16.3710 -16.3686 -16.3609 -16.3538 -16.3452 -16.3284 -16.3251 -16.3102
   -16.3017 -16.2891 -16.2800 -16.2749 -16.2638 -16.2617 -16.2559 -16.2496
   -16.2414 -16.2342 -16.2316 -16.2244 -16.2236 -16.2226 -16.2157 -16.2057
   -16.1888 -16.1823 -16.1793 -16.1750 -10.2169  -9.1334  -8.1161  -8.1061
    -7.6625  -7.2033  -7.1986  -6.7679  -6.3838  -6.1453  -6.1397  -5.8702
    -2.3980  -2.1260  -1.6288  -1.5712  -1.4189  -1.2547  -1.0250  -0.8938
    -0.2097   0.0532   0.0655   0.8079   0.8817   1.1008   1.6596   2.1158
     2.4595   2.7191   2.7438   2.8888   3.1593   3.1875

          k = 0.0482 0.0278 0.0000 ( 26980 PWs)   bands (ev):

   -16.6056 -16.5711 -16.5672 -16.5624 -16.5455 -16.5289 -16.5234 -16.5189
   -16.5086 -16.5043 -16.4990 -16.4915 -16.4878 -16.4790 -16.4788 -16.4707
   -16.4687 -16.4629 -16.4586 -16.4472 -16.4461 -16.4391 -16.4356 -16.4298
   -16.4286 -16.4284 -16.4243 -16.4104 -16.4104 -16.3979 -16.3807 -16.3777
   -16.3756 -16.3699 -16.3677 -16.3583 -16.3399 -16.3392 -16.3210 -16.3134
   -16.3104 -16.2980 -16.2928 -16.2906 -16.2760 -16.2675 -16.2613 -16.2515
   -16.2512 -16.2425 -16.2362 -16.2318 -16.2265 -16.2257 -16.2224 -16.2135
   -16.2129 -16.1965 -16.1697 -16.1638 -10.0949  -9.0171  -8.6653  -7.6878
    -7.5571  -7.4066  -7.4034  -6.6471  -6.6427  -6.4616  -5.8770  -5.8720
    -2.1317  -1.8533  -1.8172  -1.3532  -1.1256  -0.9360  -0.7527  -0.5294
    -0.4768  -0.0713   0.4351   0.9357   0.9904   1.1586   1.6713   1.9582
     2.0899   2.3131   2.3766   2.7087   2.9898   3.0611

          k = 0.0482-0.1113 0.0000 ( 26956 PWs)   bands (ev):

   -16.5768 -16.5511 -16.5487 -16.5378 -16.5330 -16.5200 -16.5132 -16.5055
   -16.4977 -16.4931 -16.4880 -16.4834 -16.4810 -16.4744 -16.4663 -16.4640
   -16.4596 -16.4564 -16.4503 -16.4464 -16.4369 -16.4324 -16.4291 -16.4254
   -16.4213 -16.4122 -16.4100 -16.4056 -16.4012 -16.3967 -16.3894 -16.3811
   -16.3756 -16.3721 -16.3667 -16.3516 -16.3466 -16.3382 -16.3367 -16.3331
   -16.3244 -16.3154 -16.3068 -16.3034 -16.2996 -16.2859 -16.2803 -16.2714
   -16.2688 -16.2624 -16.2559 -16.2498 -16.2348 -16.2279 -16.2261 -16.2207
   -16.2170 -16.2024 -16.1832 -16.1780  -9.7305  -9.0139  -8.6703  -8.3271
    -7.9998  -7.3822  -7.2558  -6.7017  -6.6654  -6.2390  -6.1863  -5.8156
    -1.8881  -1.6146  -1.0960  -0.9553  -0.7209  -0.6721  -0.4401  -0.1983
     0.0453   0.1325   0.5477   0.7626   0.9204   1.0198   1.5005   1.6345
     1.9293   2.4257   2.5297   2.5748   2.7617   2.8859

          k = 0.0482-0.0835 0.0000 ( 26934 PWs)   bands (ev):

   -16.5372 -16.5333 -16.5304 -16.5222 -16.5209 -16.5201 -16.5087 -16.5056
   -16.5030 -16.4988 -16.4942 -16.4892 -16.4735 -16.4726 -16.4711 -16.4586
   -16.4582 -16.4565 -16.4453 -16.4424 -16.4374 -16.4248 -16.4235 -16.4124
   -16.4102 -16.4097 -16.4087 -16.3937 -16.3914 -16.3907 -16.3838 -16.3835
   -16.3800 -16.3784 -16.3642 -16.3570 -16.3527 -16.3476 -16.3445 -16.3409
   -16.3294 -16.3250 -16.3186 -16.3166 -16.3022 -16.3019 -16.2941 -16.2897
   -16.2671 -16.2644 -16.2523 -16.2412 -16.2321 -16.2287 -16.2276 -16.2271
   -16.2151 -16.2131 -16.2075 -16.1956  -9.1430  -9.1269  -9.1255  -8.1198
    -8.1097  -8.0956  -6.8018  -6.7863  -6.7729  -6.1457  -6.0232  -6.0028
    -1.6880  -1.1573  -1.0707  -0.9945  -0.7609  -0.7482  -0.2174   0.2243
     0.4052   0.4740   0.6013   0.6091   1.0145   1.3482   1.3496   1.7076
     2.0311   2.0315   2.0409   2.3452   2.3467   3.2092

          k = 0.0482-0.0556 0.0000 ( 26956 PWs)   bands (ev):

   -16.5768 -16.5511 -16.5487 -16.5378 -16.5330 -16.5200 -16.5132 -16.5055
   -16.4977 -16.4931 -16.4880 -16.4834 -16.4810 -16.4744 -16.4663 -16.4640
   -16.4596 -16.4564 -16.4503 -16.4464 -16.4369 -16.4324 -16.4291 -16.4254
   -16.4213 -16.4121 -16.4100 -16.4056 -16.4012 -16.3967 -16.3894 -16.3811
   -16.3756 -16.3721 -16.3667 -16.3516 -16.3466 -16.3382 -16.3367 -16.3331
   -16.3244 -16.3154 -16.3068 -16.3034 -16.2996 -16.2859 -16.2803 -16.2714
   -16.2688 -16.2624 -16.2559 -16.2498 -16.2348 -16.2279 -16.2261 -16.2207
   -16.2169 -16.2024 -16.1832 -16.1780  -9.7305  -9.0139  -8.6703  -8.3271
    -7.9998  -7.3822  -7.2558  -6.7017  -6.6654  -6.2390  -6.1863  -5.8156
    -1.8881  -1.6146  -1.0960  -0.9553  -0.7209  -0.6721  -0.4401  -0.1983
     0.0453   0.1325   0.5477   0.7626   0.9204   1.0198   1.5005   1.6345
     1.9293   2.4257   2.5297   2.5748   2.7617   2.8859

          k =-0.0723 0.0417 0.0000 ( 26962 PWs)   bands (ev):

   -16.5839 -16.5699 -16.5489 -16.5369 -16.5335 -16.5202 -16.5135 -16.5075
   -16.4906 -16.4860 -16.4822 -16.4822 -16.4700 -16.4669 -16.4614 -16.4610
   -16.4567 -16.4517 -16.4483 -16.4444 -16.4387 -16.4334 -16.4298 -16.4275
   -16.4193 -16.4189 -16.4160 -16.4115 -16.4041 -16.4013 -16.3788 -16.3775
   -16.3734 -16.3694 -16.3631 -16.3605 -16.3525 -16.3366 -16.3326 -16.3264
   -16.3190 -16.3112 -16.3091 -16.3074 -16.2968 -16.2832 -16.2774 -16.2753
   -16.2746 -16.2695 -16.2688 -16.2625 -16.2502 -16.2332 -16.2301 -16.2197
   -16.2146 -16.1998 -16.1695 -16.1638  -9.4949  -9.4833  -8.4506  -8.4350
    -7.4916  -7.4872  -7.0769  -7.0551  -6.6856  -6.6793  -5.8569  -5.8516
    -1.7692  -1.0961  -1.0420  -1.0205  -1.0156  -1.0076  -0.5385  -0.2036
     0.0458   0.4084   0.5249   0.7116   1.0694   1.6832   1.6837   1.7023
     1.9562   2.0891   2.1730   2.1846   2.2971   2.5072

          k =-0.0723 0.0696 0.0000 ( 26956 PWs)   bands (ev):

   -16.5768 -16.5511 -16.5487 -16.5378 -16.5330 -16.5200 -16.5132 -16.5055
   -16.4977 -16.4931 -16.4880 -16.4834 -16.4810 -16.4744 -16.4663 -16.4640
   -16.4596 -16.4564 -16.4503 -16.4464 -16.4369 -16.4324 -16.4291 -16.4254
   -16.4213 -16.4121 -16.4100 -16.4056 -16.4012 -16.3967 -16.3894 -16.3811
   -16.3756 -16.3721 -16.3667 -16.3516 -16.3466 -16.3382 -16.3367 -16.3331
   -16.3244 -16.3154 -16.3068 -16.3034 -16.2996 -16.2859 -16.2803 -16.2714
   -16.2688 -16.2624 -16.2559 -16.2498 -16.2348 -16.2279 -16.2261 -16.2207
   -16.2170 -16.2024 -16.1832 -16.1780  -9.7305  -9.0139  -8.6703  -8.3271
    -7.9998  -7.3822  -7.2558  -6.7017  -6.6654  -6.2390  -6.1863  -5.8156
    -1.8881  -1.6146  -1.0960  -0.9553  -0.7209  -0.6721  -0.4401  -0.1983
     0.0453   0.1325   0.5477   0.7626   0.9204   1.0198   1.5005   1.6345
     1.9293   2.4257   2.5297   2.5748   2.7617   2.8859

          k =-0.0723 0.0974 0.0000 ( 26956 PWs)   bands (ev):

   -16.5768 -16.5511 -16.5487 -16.5378 -16.5330 -16.5200 -16.5132 -16.5055
   -16.4977 -16.4931 -16.4880 -16.4834 -16.4810 -16.4744 -16.4663 -16.4640
   -16.4596 -16.4564 -16.4503 -16.4464 -16.4369 -16.4324 -16.4291 -16.4254
   -16.4213 -16.4122 -16.4100 -16.4056 -16.4012 -16.3967 -16.3894 -16.3811
   -16.3756 -16.3721 -16.3667 -16.3516 -16.3466 -16.3382 -16.3367 -16.3331
   -16.3244 -16.3154 -16.3068 -16.3034 -16.2996 -16.2859 -16.2803 -16.2714
   -16.2688 -16.2624 -16.2559 -16.2498 -16.2348 -16.2279 -16.2261 -16.2207
   -16.2170 -16.2024 -16.1832 -16.1780  -9.7305  -9.0139  -8.6703  -8.3271
    -7.9998  -7.3822  -7.2558  -6.7017  -6.6654  -6.2390  -6.1863  -5.8156
    -1.8881  -1.6146  -1.0960  -0.9553  -0.7209  -0.6721  -0.4401  -0.1983
     0.0453   0.1325   0.5477   0.7626   0.9204   1.0198   1.5005   1.6345
     1.9293   2.4257   2.5297   2.5748   2.7617   2.8859

          k =-0.0723-0.0417 0.0000 ( 26962 PWs)   bands (ev):

   -16.5839 -16.5699 -16.5489 -16.5369 -16.5335 -16.5202 -16.5135 -16.5075
   -16.4906 -16.4860 -16.4822 -16.4822 -16.4700 -16.4669 -16.4614 -16.4610
   -16.4567 -16.4517 -16.4483 -16.4444 -16.4387 -16.4334 -16.4298 -16.4275
   -16.4193 -16.4189 -16.4160 -16.4115 -16.4041 -16.4013 -16.3788 -16.3775
   -16.3734 -16.3694 -16.3631 -16.3605 -16.3525 -16.3366 -16.3326 -16.3264
   -16.3190 -16.3112 -16.3091 -16.3074 -16.2968 -16.2832 -16.2774 -16.2753
   -16.2746 -16.2695 -16.2688 -16.2625 -16.2502 -16.2332 -16.2301 -16.2197
   -16.2146 -16.1998 -16.1695 -16.1638  -9.4949  -9.4833  -8.4506  -8.4350
    -7.4916  -7.4872  -7.0769  -7.0551  -6.6856  -6.6793  -5.8569  -5.8516
    -1.7692  -1.0961  -1.0420  -1.0205  -1.0156  -1.0076  -0.5385  -0.2036
     0.0458   0.4084   0.5249   0.7116   1.0694   1.6832   1.6837   1.7023
     1.9562   2.0891   2.1730   2.1846   2.2971   2.5072

     the Fermi energy is     1.0093 ev

!    total energy              =   -1993.33186936 Ry
     Harris-Foulkes estimate   =   -1993.33189157 Ry
     estimated scf accuracy    <       0.00000354 Ry

     The total energy is the sum of the following terms:

     one-electron contribution =   -9423.31487983 Ry
     hartree contribution      =    4780.56373246 Ry
     xc contribution           =    -784.52987156 Ry
     ewald contribution        =    3433.98956827 Ry
     electric field correction =       0.00014935 Ry
     smearing contrib. (-TS)   =      -0.04056804 Ry

     convergence has been achieved in   9 iterations
 
 BEEF-vdW xc energy contributions
           1 :   -699.411775234555     
           2 :    649.753788031332     
           3 :   -562.278186677839     
           4 :    456.113276914865     
           5 :   -351.026084422771     
           6 :    261.495338984625     
           7 :   -193.562875796610     
           8 :    145.229854735418     
           9 :   -109.715544294320     
          10 :    79.7968357746962     
          11 :   -51.2125898775313     
          12 :    23.8091546946814     
          13 :  -0.353407811221359     
          14 :   -15.9442725938742     
          15 :    23.6971528760610     
          16 :   -24.2591170134770     
          17 :    21.0151773758313     
          18 :   -17.6478554729576     
          19 :    16.4290967392643     
          20 :   -17.4455213689592     
          21 :    19.0631342171923     
          22 :   -19.2420922496891     
          23 :    16.8912808704229     
          24 :   -12.5140668452693     
          25 :    7.85819398783588     
          26 :   -4.86293801170495     
          27 :    4.55696633335299     
          28 :   -6.53135900450388     
          29 :    9.24317173421412     
          30 :   -10.9276576753750     
          31 :   -55.8897198360964     
          32 :   -40.9801808616037     

     Forces acting on atoms (Ry/au):


     negative rho (up, down):  2.144E-01 0.000E+00
     atom    1 type  1   force =     0.00001013   -0.00003508   -0.01123966
     atom    2 type  1   force =     0.00000160   -0.00017799   -0.00754415
     atom    3 type  1   force =    -0.00015719    0.00009349   -0.00767496
     atom    4 type  1   force =     0.00015832    0.00011173   -0.00774621
     atom    5 type  1   force =     0.00183718   -0.00108691   -0.00096986
     atom    6 type  1   force =    -0.00185635   -0.00108758   -0.00097627
     atom    7 type  1   force =     0.00000546   -0.00000409   -0.00850935
     atom    8 type  1   force =     0.00000490    0.00212720   -0.00094578
     atom    9 type  1   force =     0.00709281    0.00414199    0.02225941
     atom   10 type  1   force =    -0.00711446    0.00411594    0.02223483
     atom   11 type  1   force =    -0.00000047   -0.00820894    0.02221287
     atom   12 type  1   force =     0.00001599    0.00000599    0.00737521
     atom   13 type  2   force =     0.00000207    0.00000425   -0.02847607

     Total force =     0.054241     Total SCF correction =     0.009290
     SCF correction compared to forces is large: reduce conv_thr to get better values


     entering subroutine stress ...


     negative rho (up, down):  2.144E-01 0.000E+00
          total   stress  (Ry/bohr**3)                   (kbar)     P=   10.01
   0.00008310  -0.00000000   0.00000000         12.22     -0.00      0.00
  -0.00000000   0.00008310   0.00000000         -0.00     12.22      0.00
   0.00000000   0.00000000   0.00003800          0.00      0.00      5.59

 !ASE

     Writing output data file calc.save
 
     init_run     :     14.94s CPU     21.50s WALL (       1 calls)
     electrons    :    413.74s CPU    600.67s WALL (       1 calls)
     forces       :      6.46s CPU      7.68s WALL (       1 calls)
     stress       :     16.72s CPU     18.88s WALL (       1 calls)

     Called by init_run:
     wfcinit      :     10.94s CPU     16.42s WALL (       1 calls)
     potinit      :      2.14s CPU      2.88s WALL (       1 calls)

     Called by electrons:
     c_bands      :    285.68s CPU    412.36s WALL (      10 calls)
     sum_band     :     49.74s CPU     74.71s WALL (      10 calls)
     v_of_rho     :     17.14s CPU     25.24s WALL (      10 calls)
     newd         :      6.54s CPU      6.84s WALL (      10 calls)
     mix_rho      :      0.54s CPU      0.80s WALL (      10 calls)
     vdW_energy   :      3.26s CPU      3.61s WALL (      46 calls)
     vdW_ffts     :     48.81s CPU     74.56s WALL (      94 calls)
     vdW_v        :      8.91s CPU     12.73s WALL (      46 calls)

     Called by c_bands:
     init_us_2    :      0.80s CPU      0.81s WALL (     460 calls)
     cegterg      :    279.99s CPU    406.15s WALL (     200 calls)

     Called by *egterg:
     h_psi        :    214.09s CPU    337.91s WALL (     926 calls)
     s_psi        :      8.05s CPU      8.07s WALL (     926 calls)
     g_psi        :      0.51s CPU      0.51s WALL (     706 calls)
     cdiaghg      :     32.71s CPU     33.91s WALL (     886 calls)

     Called by h_psi:
     add_vuspsi   :      8.27s CPU      8.31s WALL (     926 calls)

     General routines
     calbec       :     15.60s CPU     18.23s WALL (    1166 calls)
     fft          :     72.74s CPU    111.10s WALL (    2767 calls)
     ffts         :      0.12s CPU      0.20s WALL (      20 calls)
     fftw         :    218.60s CPU    362.15s WALL (  117926 calls)
     interpolate  :      0.65s CPU      0.99s WALL (      20 calls)
     davcio       :      0.00s CPU      0.04s WALL (      20 calls)
 
     Parallel routines
     fft_scatter  :    259.76s CPU    438.37s WALL (  120713 calls)
 
     PWSCF        :  7m32.76s CPU    10m50.17s WALL

 
   This run was terminated on:  17:42:28  16Jan2018            

=------------------------------------------------------------------------------=
   JOB DONE.
=------------------------------------------------------------------------------=
Job  /afs/slac/g/suncat/bin/suncat-tsmpirun -x LD_LIBRARY_PATH -wdir /scratch/qe842467_Qkyn4 pw.x -in pw.inp

TID   HOST_NAME   COMMAND_LINE            STATUS            TERMINATION_TIME
===== ========== ================  =======================  ===================
00000 suncat0100 pw.x -in pw.inp   Done                     01/16/2018 17:42:28
00001 suncat0100 pw.x -in pw.inp   Done                     01/16/2018 17:42:28
00002 suncat0100 pw.x -in pw.inp   Done                     01/16/2018 17:42:28
00003 suncat0100 pw.x -in pw.inp   Done                     01/16/2018 17:42:28
00004 suncat0100 pw.x -in pw.inp   Done                     01/16/2018 17:42:28
00005 suncat0100 pw.x -in pw.inp   Done                     01/16/2018 17:42:28
00006 suncat0100 pw.x -in pw.inp   Done                     01/16/2018 17:42:28
00007 suncat0100 pw.x -in pw.inp   Done                     01/16/2018 17:42:28
00008 suncat0283 pw.x -in pw.inp   Done                     01/16/2018 17:42:28
00009 suncat0283 pw.x -in pw.inp   Done                     01/16/2018 17:42:28
00010 suncat0283 pw.x -in pw.inp   Done                     01/16/2018 17:42:28
00011 suncat0283 pw.x -in pw.inp   Done                     01/16/2018 17:42:28
00012 suncat0283 pw.x -in pw.inp   Done                     01/16/2018 17:42:28
00013 suncat0283 pw.x -in pw.inp   Done                     01/16/2018 17:42:28
00014 suncat0283 pw.x -in pw.inp   Done                     01/16/2018 17:42:28
00015 suncat0283 pw.x -in pw.inp   Done                     01/16/2018 17:42:28
00016 suncat0282 pw.x -in pw.inp   Done                     01/16/2018 17:42:28
00017 suncat0282 pw.x -in pw.inp   Done                     01/16/2018 17:42:28
00018 suncat0282 pw.x -in pw.inp   Done                     01/16/2018 17:42:28
00019 suncat0282 pw.x -in pw.inp   Done                     01/16/2018 17:42:28
00020 suncat0282 pw.x -in pw.inp   Done                     01/16/2018 17:42:28
00021 suncat0282 pw.x -in pw.inp   Done                     01/16/2018 17:42:28
00022 suncat0282 pw.x -in pw.inp   Done                     01/16/2018 17:42:28
00023 suncat0282 pw.x -in pw.inp   Done                     01/16/2018 17:42:28
00024 suncat0214 pw.x -in pw.inp   Done                     01/16/2018 17:42:28
00025 suncat0214 pw.x -in pw.inp   Done                     01/16/2018 17:42:28
00026 suncat0214 pw.x -in pw.inp   Done                     01/16/2018 17:42:28
00027 suncat0214 pw.x -in pw.inp   Done                     01/16/2018 17:42:28
00028 suncat0214 pw.x -in pw.inp   Done                     01/16/2018 17:42:28
00029 suncat0214 pw.x -in pw.inp   Done                     01/16/2018 17:42:28
00030 suncat0214 pw.x -in pw.inp   Done                     01/16/2018 17:42:28
00031 suncat0214 pw.x -in pw.inp   Done                     01/16/2018 17:42:28

     Program PWSCF v.5.1rc2 (svn rev. 11289) starts on 16Jan2018 at 17:42:33 

     This program is part of the open-source Quantum ESPRESSO suite
     for quantum simulation of materials; please cite
         "P. Giannozzi et al., J. Phys.:Condens. Matter 21 395502 (2009);
          URL http://www.quantum-espresso.org", 
     in publications or presentations arising from this work. More details at
     http://www.quantum-espresso.org/quote

     Parallel version (MPI), running on    32 processors
     R & G space division:  proc/nbgrp/npool/nimage =      32
     Reading input from pw.inp
     Message from routine read_cards :
     DEPRECATED: no units specified in CELL_PARAMETERS card

     Current dimensions of program PWSCF are:
     Max number of different atomic species (ntypx) = 10
     Max number of k-points (npk) =  40000
     Max angular momentum in pseudopotentials (lmaxx) =  3
     Presently stress not available with electric field


     **************************************************************************
     Initializing libbeef V0.1.1 with the BEEF-vdW functional.
     Citation: Wellendorff et al., PRB 85, 235149 (2012).
     **************************************************************************


     IMPORTANT: XC functional enforced from input :
     Exchange-correlation      = BEEF-VDW ( 1  4 27 13 2)
     Any further DFT definition will be discarded
     Please, verify this is what you really want


     Subspace diagonalization in iterative solution of the eigenvalue problem:
     a serial algorithm will be used

 
     Parallelization info
     --------------------
     sticks:   dense  smooth     PW     G-vecs:    dense   smooth      PW
     Min         134      54     15                26644     6724    1019
     Max         135      55     16                26659     6775    1034
     Sum        4315    1735    499               852865   215821   32865
 


     bravais-lattice index     =            0
     lattice parameter (alat)  =       1.8897  a.u.
     unit-cell volume          =    7171.5276 (a.u.)^3
     number of atoms/cell      =           13
     number of atomic types    =            2
     number of electrons       =       169.00
     number of Kohn-Sham states=           94
     kinetic-energy cutoff     =      36.7493  Ry
     charge density cutoff     =     367.4932  Ry
     convergence threshold     =      1.0E-05
     mixing beta               =       0.3000
     number of iterations used =           10  plain     mixing
     Exchange-correlation      = BEEF-VDW ( 1  4 27 13 2)
     nstep                     =           50


     celldm(1)=   1.889726  celldm(2)=   0.000000  celldm(3)=   0.000000
     celldm(4)=   0.000000  celldm(5)=   0.000000  celldm(6)=   0.000000

     crystal axes: (cart. coord. in units of alat)
               a(1) = (   6.917003   0.000000   0.000000 )  
               a(2) = (   3.458501   5.990300   0.000000 )  
               a(3) = (   0.000000   0.000000  25.647709 )  

     reciprocal axes: (cart. coord. in units 2 pi/alat)
               b(1) = (  0.144571 -0.083468  0.000000 )  
               b(2) = (  0.000000  0.166937  0.000000 )  
               b(3) = (  0.000000  0.000000  0.038990 )  


     PseudoPot. # 1 for Pb read from file:
     /afs/slac.stanford.edu/u/if/mamunm/psp/gbrv1.5pbe/Pb.UPF
     MD5 check sum: 3d1c1779aa92214d1e8f3a7db79003e2
     Pseudo is Ultrasoft + core correction, Zval = 14.0
     Generated by new atomic code, or converted to UPF format
     Using radial grid of  899 points,  6 beta functions with: 
                l(1) =   0
                l(2) =   0
                l(3) =   1
                l(4) =   1
                l(5) =   2
                l(6) =   2
     Q(r) pseudized with  6 coefficients,  rinner =    1.000   1.000   1.000
                                                       1.000   1.000

     PseudoPot. # 2 for H  read from file:
     /afs/slac.stanford.edu/u/if/mamunm/psp/gbrv1.5pbe/H.UPF
     MD5 check sum: 761ae9a214b05c3daf00ab9f6b793d6f
     Pseudo is Ultrasoft, Zval =  1.0
     Generated by new atomic code, or converted to UPF format
     Using radial grid of  615 points,  2 beta functions with: 
                l(1) =   0
                l(2) =   0
     Q(r) pseudized with  8 coefficients,  rinner =    0.700

     vdW kernel table read from file vdW_kernel_table
     MD5 check sum: 095c7af220d748ca6e76c0b4c6cfb241

     atomic species   valence    mass     pseudopotential
        Pb1           14.00   207.20000     Pb( 1.00)
        H1             1.00     1.00800     H ( 1.00)

     No symmetry found



   Cartesian axes

     site n.     atom                  positions (alat units)
         1           Pb1 tau(   1) = (   1.7292506   0.9983833  10.0000000  )
         2           Pb1 tau(   2) = (   5.1877519   0.9983833  10.0000000  )
         3           Pb1 tau(   3) = (   3.4585013   3.9935333  10.0000000  )
         4           Pb1 tau(   4) = (   6.9170025   3.9935333  10.0000000  )
         5           Pb1 tau(   5) = (   6.9170025   1.9967666  12.8238544  )
         6           Pb1 tau(   6) = (   3.4585013   1.9967666  12.8238544  )
         7           Pb1 tau(   7) = (   8.6462531   4.9919166  12.8238544  )
         8           Pb1 tau(   8) = (   5.1877519   4.9919166  12.8238544  )
         9           Pb1 tau(   9) = (   0.0182363   0.0106495  15.7049401  )
        10           Pb1 tau(  10) = (   3.4402092   0.0105825  15.7048769  )
        11           Pb1 tau(  11) = (   1.7292494   2.9740439  15.7048205  )
        12           Pb1 tau(  12) = (   5.1877930   2.9951653  15.6666713  )
        13           H1  tau(  13) = (   1.7292559   0.9983942  17.3444940  )

     number of k points=    20  Fermi-Dirac smearing, width (Ry)=  0.0110
                       cart. coord. in units 2pi/alat
        k(    1) = (   0.0000000   0.0000000   0.0000000), wk =   0.0555556
        k(    2) = (   0.0000000   0.0278228   0.0000000), wk =   0.1111111
        k(    3) = (   0.0000000   0.0556455   0.0000000), wk =   0.1111111
        k(    4) = (   0.0000000  -0.0834683   0.0000000), wk =   0.0555556
        k(    5) = (   0.0240952  -0.0139114   0.0000000), wk =   0.1111111
        k(    6) = (   0.0240952   0.0139114   0.0000000), wk =   0.1111111
        k(    7) = (   0.0240952   0.0417341   0.0000000), wk =   0.1111111
        k(    8) = (   0.0240952  -0.0973797   0.0000000), wk =   0.1111111
        k(    9) = (   0.0240952  -0.0695569   0.0000000), wk =   0.1111111
        k(   10) = (   0.0240952  -0.0417341   0.0000000), wk =   0.1111111
        k(   11) = (   0.0481904  -0.0278228   0.0000000), wk =   0.1111111
        k(   12) = (   0.0481904   0.0000000   0.0000000), wk =   0.1111111
        k(   13) = (   0.0481904   0.0278228   0.0000000), wk =   0.1111111
        k(   14) = (   0.0481904  -0.1112910   0.0000000), wk =   0.1111111
        k(   15) = (   0.0481904  -0.0834683   0.0000000), wk =   0.1111111
        k(   16) = (   0.0481904  -0.0556455   0.0000000), wk =   0.1111111
        k(   17) = (  -0.0722856   0.0417341   0.0000000), wk =   0.0555556
        k(   18) = (  -0.0722856   0.0695569   0.0000000), wk =   0.1111111
        k(   19) = (  -0.0722856   0.0973797   0.0000000), wk =   0.1111111
        k(   20) = (  -0.0722856  -0.0417341   0.0000000), wk =   0.0555556

     Dense  grid:   852865 G-vectors     FFT dimensions: (  80,  80, 300)

     Smooth grid:   215821 G-vectors     FFT dimensions: (  54,  54, 192)

     Largest allocated arrays     est. size (Mb)     dimensions
        Kohn-Sham Wavefunctions         1.23 Mb     (     858,   94)
        NL pseudopotentials             2.85 Mb     (     858,  218)
        Each V/rho on FFT grid          0.98 Mb     (   64000)
        Each G-vector array             0.20 Mb     (   26644)
        G-vector shells                 0.09 Mb     (   12051)
     Largest temporary arrays     est. size (Mb)     dimensions
        Auxiliary wavefunctions         4.92 Mb     (     858,  376)
        Each subspace H/S matrix        2.16 Mb     (     376,  376)
        Each <psi_i|beta_j> matrix      0.31 Mb     (     218,   94)
        Arrays for rho mixing           9.77 Mb     (   64000,   10)

     Check: negative/imaginary core charge=   -0.000001    0.000000

     Initial potential from superposition of free atoms
     Check: negative starting charge=   -0.196307

     starting charge  168.97177, renormalised to  169.00000

     negative rho (up, down):  1.963E-01 0.000E+00


     ************************************************************************
     *
     * You are using vdW-DF for exchange-correlation in this calculation.
     * Please cite the following three references that made this development
     * possible:
     *
     *   M. Dion, H. Rydberg, E. Schroder, D. C. Langreth, and
     *   B. I. Lundqvist, Phys. Rev. Lett. 92, 246401 (2004).
     *
     *   T. Thonhauser, V. R. Cooper, S. Li, A. Puzder, P. Hyldgaard, and
     *   D. C. Langreth, Phys. Rev. B 76, 125112 (2007).
     *
     *   G. Roman-Perez and J. M. Soler, Phys. Rev. Lett. 103, 096102 (2009).
     *
     *
     * If you are using vdW-DF2, please also cite:
     *
     *   K. Lee, E. D. Murray, L. Kong, B. I. Lundqvist, and
     *   D. C. Langreth, Phys. Rev. B 82, 081101(R) (2010).
     *
     *
     * If you are calculating the stress with vdW-DF, please also cite:
     *
     *   R. Sabatini, E. Kucukbenli, B. Kolb, T. Thonhauser, and
     *   S. de Gironcoli, J. Phys.: Condens. Matter 24, 424209 (2012).
     *
     ************************************************************************

     Carrying out vdW-DF run using the following parameters:

     Nqs =      20    Nr_points =    1024   r_max =   100.000
     q_mesh =
               0.00001000     0.04494208     0.09755937     0.15916263
               0.23128650     0.31572767     0.41458969     0.53033537
               0.66584808     0.82450364     1.01025438     1.22772762
               1.48234092     1.78043706     2.12944203     2.53805004
               3.01644009     3.57652955     4.23227104     5.00000000

     Gradients computed in reciprocal space

     ************************************************************************


 
     Adding external electric field

     Computed dipole along edir(3) : 
        Dipole               -0.0014 Ry au,         -0.0034 Debye
        Dipole field         -0.0000 Ry au
 
        Potential amp.        0.0002 Ry
        Total length         47.2555 bohr
 
     Starting wfc are  109 randomized atomic wfcs

     total cpu time spent up to now is       21.6 secs

     per-process dynamical memory:    60.1 Mb

     Self-consistent Calculation

     iteration #  1     ecut=    36.75 Ry     beta=0.30
     Davidson diagonalization with overlap
     ethr =  1.00E-02,  avg # of iterations =  2.0

     Threshold (ethr) on eigenvalues was too large:
     Diagonalizing with lowered threshold

     Davidson diagonalization with overlap
     ethr =  1.34E-04,  avg # of iterations =  3.0

     negative rho (up, down):  1.980E-01 0.000E+00
 
     Adding external electric field

     Computed dipole along edir(3) : 
        Dipole               -1.0005 Ry au,         -2.5430 Debye
        Dipole field         -0.0018 Ry au
 
        Potential amp.        0.1657 Ry
        Total length         47.2555 bohr
 

     total cpu time spent up to now is      107.6 secs

     total energy              =   -1993.28825793 Ry
     Harris-Foulkes estimate   =   -1993.38004551 Ry
     estimated scf accuracy    <       0.24693248 Ry

     iteration #  2     ecut=    36.75 Ry     beta=0.30
     Davidson diagonalization with overlap
     ethr =  1.46E-04,  avg # of iterations =  4.5

     negative rho (up, down):  1.974E-01 0.000E+00
 
     Adding external electric field

     Computed dipole along edir(3) : 
        Dipole                0.0473 Ry au,          0.1203 Debye
        Dipole field          0.0001 Ry au
 
        Potential amp.       -0.0078 Ry
        Total length         47.2555 bohr
 

     total cpu time spent up to now is      158.6 secs

     total energy              =   -1993.17027897 Ry
     Harris-Foulkes estimate   =   -1993.43946061 Ry
     estimated scf accuracy    <       3.02476145 Ry

     iteration #  3     ecut=    36.75 Ry     beta=0.30
     Davidson diagonalization with overlap
     ethr =  1.46E-04,  avg # of iterations =  4.5

     negative rho (up, down):  1.985E-01 0.000E+00
 
     Adding external electric field

     Computed dipole along edir(3) : 
        Dipole               -0.2619 Ry au,         -0.6657 Debye
        Dipole field         -0.0005 Ry au
 
        Potential amp.        0.0434 Ry
        Total length         47.2555 bohr
 

     total cpu time spent up to now is      209.6 secs

     total energy              =   -1993.31121032 Ry
     Harris-Foulkes estimate   =   -1993.36386945 Ry
     estimated scf accuracy    <       0.66900123 Ry

     iteration #  4     ecut=    36.75 Ry     beta=0.30
     Davidson diagonalization with overlap
     ethr =  1.46E-04,  avg # of iterations =  2.9

     negative rho (up, down):  2.001E-01 0.000E+00
 
     Adding external electric field

     Computed dipole along edir(3) : 
        Dipole               -0.2260 Ry au,         -0.5744 Debye
        Dipole field         -0.0004 Ry au
 
        Potential amp.        0.0374 Ry
        Total length         47.2555 bohr
 

     total cpu time spent up to now is      255.7 secs

     total energy              =   -1993.33599910 Ry
     Harris-Foulkes estimate   =   -1993.34434174 Ry
     estimated scf accuracy    <       0.04125839 Ry

     iteration #  5     ecut=    36.75 Ry     beta=0.30
     Davidson diagonalization with overlap
     ethr =  2.44E-05,  avg # of iterations =  3.5

     negative rho (up, down):  2.030E-01 0.000E+00
 
     Adding external electric field

     Computed dipole along edir(3) : 
        Dipole               -0.2343 Ry au,         -0.5955 Debye
        Dipole field         -0.0004 Ry au
 
        Potential amp.        0.0388 Ry
        Total length         47.2555 bohr
 

     total cpu time spent up to now is      303.5 secs

     total energy              =   -1993.34064201 Ry
     Harris-Foulkes estimate   =   -1993.34065597 Ry
     estimated scf accuracy    <       0.00264620 Ry

     iteration #  6     ecut=    36.75 Ry     beta=0.30
     Davidson diagonalization with overlap
     ethr =  1.57E-06,  avg # of iterations =  5.5

     negative rho (up, down):  2.069E-01 0.000E+00
 
     Adding external electric field

     Computed dipole along edir(3) : 
        Dipole               -0.2287 Ry au,         -0.5812 Debye
        Dipole field         -0.0004 Ry au
 
        Potential amp.        0.0379 Ry
        Total length         47.2555 bohr
 

     total cpu time spent up to now is      369.2 secs

     total energy              =   -1993.34283194 Ry
     Harris-Foulkes estimate   =   -1993.34280657 Ry
     estimated scf accuracy    <       0.00074185 Ry

     iteration #  7     ecut=    36.75 Ry     beta=0.30
     Davidson diagonalization with overlap
     ethr =  4.39E-07,  avg # of iterations =  2.0

     negative rho (up, down):  2.122E-01 0.000E+00
 
     Adding external electric field

     Computed dipole along edir(3) : 
        Dipole               -0.2285 Ry au,         -0.5808 Debye
        Dipole field         -0.0004 Ry au
 
        Potential amp.        0.0378 Ry
        Total length         47.2555 bohr
 

     total cpu time spent up to now is      411.8 secs

     total energy              =   -1993.34288488 Ry
     Harris-Foulkes estimate   =   -1993.34287114 Ry
     estimated scf accuracy    <       0.00024418 Ry

     iteration #  8     ecut=    36.75 Ry     beta=0.30
     Davidson diagonalization with overlap
     ethr =  1.44E-07,  avg # of iterations =  3.0

     negative rho (up, down):  2.128E-01 0.000E+00
 
     Adding external electric field

     Computed dipole along edir(3) : 
        Dipole               -0.2290 Ry au,         -0.5821 Debye
        Dipole field         -0.0004 Ry au
 
        Potential amp.        0.0379 Ry
        Total length         47.2555 bohr
 

     total cpu time spent up to now is      460.6 secs

     total energy              =   -1993.34290359 Ry
     Harris-Foulkes estimate   =   -1993.34291772 Ry
     estimated scf accuracy    <       0.00001535 Ry

     iteration #  9     ecut=    36.75 Ry     beta=0.30
     Davidson diagonalization with overlap
     ethr =  9.08E-09,  avg # of iterations =  5.0

     negative rho (up, down):  2.127E-01 0.000E+00

     negative rho (up, down):  2.127E-01 0.000E+00

     negative rho (up, down):  2.127E-01 0.000E+00

     negative rho (up, down):  2.127E-01 0.000E+00

     negative rho (up, down):  2.127E-01 0.000E+00

     negative rho (up, down):  2.127E-01 0.000E+00

     negative rho (up, down):  2.127E-01 0.000E+00

     negative rho (up, down):  2.127E-01 0.000E+00

     negative rho (up, down):  2.127E-01 0.000E+00

     negative rho (up, down):  2.127E-01 0.000E+00

     negative rho (up, down):  2.127E-01 0.000E+00

     negative rho (up, down):  2.127E-01 0.000E+00

     negative rho (up, down):  2.127E-01 0.000E+00

     negative rho (up, down):  2.127E-01 0.000E+00

     negative rho (up, down):  2.127E-01 0.000E+00

     negative rho (up, down):  2.127E-01 0.000E+00

     negative rho (up, down):  2.127E-01 0.000E+00

     negative rho (up, down):  2.127E-01 0.000E+00

     negative rho (up, down):  2.127E-01 0.000E+00

     negative rho (up, down):  2.127E-01 0.000E+00

     negative rho (up, down):  2.127E-01 0.000E+00

     negative rho (up, down):  2.127E-01 0.000E+00

     negative rho (up, down):  2.127E-01 0.000E+00

     negative rho (up, down):  2.127E-01 0.000E+00

     negative rho (up, down):  2.127E-01 0.000E+00

     negative rho (up, down):  2.127E-01 0.000E+00

     negative rho (up, down):  2.127E-01 0.000E+00

     negative rho (up, down):  2.127E-01 0.000E+00

     negative rho (up, down):  2.127E-01 0.000E+00

     negative rho (up, down):  2.127E-01 0.000E+00

     negative rho (up, down):  2.127E-01 0.000E+00

     negative rho (up, down):  2.127E-01 0.000E+00

     negative rho (up, down):  2.127E-01 0.000E+00

     negative rho (up, down):  2.127E-01 0.000E+00

     negative rho (up, down):  2.127E-01 0.000E+00
 
     Adding external electric field

     Computed dipole along edir(3) : 
        Dipole               -0.2271 Ry au,         -0.5772 Debye
        Dipole field         -0.0004 Ry au
 
        Potential amp.        0.0376 Ry
        Total length         47.2555 bohr
 

     total cpu time spent up to now is      624.5 secs

     End of self-consistent calculation

          k = 0.0000 0.0000 0.0000 ( 27033 PWs)   bands (ev):

   -16.5924 -16.5820 -16.5820 -16.5459 -16.5401 -16.5401 -16.5056 -16.4969
   -16.4886 -16.4886 -16.4692 -16.4593 -16.4593 -16.4540 -16.4516 -16.4516
   -16.4411 -16.4254 -16.4254 -16.4186 -16.4186 -16.4096 -16.4061 -16.4061
   -16.3970 -16.3970 -16.3924 -16.3922 -16.3756 -16.3756 -16.3342 -16.3225
   -16.3225 -16.2977 -16.2977 -16.2874 -16.2874 -16.2652 -16.2652 -16.2447
   -16.2139 -16.2139 -16.2138 -16.1851 -16.1851 -16.1833 -16.1827 -16.1827
   -16.1824 -16.1633 -16.1619 -16.1619 -16.1473 -16.1473 -16.1393 -16.1310
   -16.1310 -16.1069 -16.1069 -16.0960 -10.4952  -9.4383  -7.9748  -6.9658
    -6.9657  -6.9602  -6.5497  -6.5497  -6.5445  -5.9469  -5.9302  -5.9301
    -2.9368  -2.6786  -2.6785  -2.4729  -1.9406  -1.6465  -1.6464  -1.5871
    -1.5372  -1.5371  -0.1878   1.3421   2.1574   2.1575   2.1865   2.2119
     2.2119   2.5947   3.4839   3.6449   3.6449   3.6550

          k = 0.0000 0.0278 0.0000 ( 27010 PWs)   bands (ev):

   -16.5802 -16.5673 -16.5620 -16.5370 -16.5249 -16.5212 -16.4974 -16.4884
   -16.4804 -16.4792 -16.4633 -16.4580 -16.4515 -16.4436 -16.4423 -16.4358
   -16.4307 -16.4242 -16.4213 -16.4182 -16.4091 -16.4053 -16.4018 -16.3998
   -16.3962 -16.3903 -16.3886 -16.3875 -16.3748 -16.3687 -16.3343 -16.3251
   -16.3237 -16.3048 -16.2992 -16.2983 -16.2942 -16.2692 -16.2661 -16.2551
   -16.2307 -16.2224 -16.2167 -16.2035 -16.2008 -16.1945 -16.1894 -16.1882
   -16.1837 -16.1741 -16.1707 -16.1656 -16.1604 -16.1602 -16.1500 -16.1401
   -16.1364 -16.1214 -16.1182 -16.1094 -10.3734  -9.3215  -7.8727  -7.6269
    -7.1190  -7.1171  -6.8480  -6.5386  -6.5311  -5.9926  -5.9020  -5.8955
    -2.6922  -2.4369  -2.3429  -2.1516  -1.8095  -1.5949  -1.4891  -1.1806
    -1.0919  -0.6229  -0.1288   0.9983   1.4723   1.7118   2.1857   2.5459
     2.5837   2.8126   3.0018   3.0169   3.4624   3.7030

          k = 0.0000 0.0556 0.0000 ( 26980 PWs)   bands (ev):

   -16.5592 -16.5236 -16.5186 -16.5115 -16.4980 -16.4841 -16.4765 -16.4694
   -16.4606 -16.4549 -16.4489 -16.4455 -16.4401 -16.4313 -16.4274 -16.4203
   -16.4181 -16.4139 -16.4097 -16.4018 -16.3982 -16.3901 -16.3870 -16.3804
   -16.3795 -16.3784 -16.3760 -16.3628 -16.3608 -16.3468 -16.3363 -16.3327
   -16.3283 -16.3251 -16.3225 -16.3122 -16.2911 -16.2885 -16.2728 -16.2684
   -16.2634 -16.2507 -16.2464 -16.2461 -16.2309 -16.2192 -16.2146 -16.2073
   -16.2067 -16.1955 -16.1901 -16.1859 -16.1814 -16.1799 -16.1770 -16.1676
   -16.1650 -16.1497 -16.1231 -16.1176 -10.0083  -8.9741  -8.5811  -7.6612
    -7.5417  -7.3259  -7.3254  -6.6015  -6.5960  -6.4415  -5.8454  -5.8407
    -2.2235  -1.7820  -1.7556  -1.3423  -1.0663  -0.8669  -0.7125  -0.4802
    -0.4399  -0.0458   0.4782   0.9761   1.0561   1.1915   1.7368   1.9928
     2.1434   2.3680   2.4061   2.7535   2.9891   3.0893

          k = 0.0000-0.0835 0.0000 ( 26962 PWs)   bands (ev):

   -16.5413 -16.5194 -16.5004 -16.4864 -16.4832 -16.4677 -16.4610 -16.4543
   -16.4513 -16.4376 -16.4337 -16.4315 -16.4238 -16.4204 -16.4146 -16.4130
   -16.4070 -16.4050 -16.4044 -16.3959 -16.3928 -16.3834 -16.3818 -16.3777
   -16.3722 -16.3703 -16.3667 -16.3633 -16.3535 -16.3509 -16.3354 -16.3304
   -16.3236 -16.3226 -16.3184 -16.3097 -16.3032 -16.2895 -16.2822 -16.2805
   -16.2712 -16.2676 -16.2663 -16.2597 -16.2515 -16.2361 -16.2305 -16.2285
   -16.2285 -16.2223 -16.2222 -16.2157 -16.2076 -16.1875 -16.1850 -16.1760
   -16.1667 -16.1533 -16.1231 -16.1178  -9.4138  -9.3953  -8.4364  -8.3605
    -7.4153  -7.4080  -7.0923  -7.0321  -6.6353  -6.6266  -5.8271  -5.8236
    -1.9085  -1.0457  -0.9745  -0.9587  -0.9452  -0.9391  -0.5231  -0.1537
     0.0901   0.4815   0.5853   0.7664   1.1441   1.7179   1.7223   1.7473
     2.0152   2.1134   2.1913   2.2419   2.3393   2.5359

          k = 0.0241-0.0139 0.0000 ( 27010 PWs)   bands (ev):

   -16.5802 -16.5673 -16.5620 -16.5370 -16.5249 -16.5212 -16.4974 -16.4884
   -16.4804 -16.4792 -16.4633 -16.4580 -16.4515 -16.4436 -16.4423 -16.4358
   -16.4307 -16.4242 -16.4213 -16.4182 -16.4091 -16.4053 -16.4018 -16.3998
   -16.3962 -16.3903 -16.3886 -16.3875 -16.3748 -16.3687 -16.3343 -16.3251
   -16.3237 -16.3048 -16.2992 -16.2983 -16.2942 -16.2692 -16.2661 -16.2551
   -16.2307 -16.2224 -16.2167 -16.2035 -16.2008 -16.1945 -16.1894 -16.1882
   -16.1837 -16.1741 -16.1707 -16.1656 -16.1604 -16.1602 -16.1500 -16.1401
   -16.1364 -16.1214 -16.1182 -16.1094 -10.3734  -9.3215  -7.8727  -7.6269
    -7.1190  -7.1171  -6.8481  -6.5386  -6.5311  -5.9926  -5.9020  -5.8956
    -2.6922  -2.4369  -2.3429  -2.1516  -1.8095  -1.5950  -1.4891  -1.1806
    -1.0919  -0.6229  -0.1288   0.9983   1.4723   1.7118   2.1857   2.5459
     2.5837   2.8126   3.0018   3.0169   3.4624   3.7030

          k = 0.0241 0.0139 0.0000 ( 27010 PWs)   bands (ev):

   -16.5802 -16.5673 -16.5620 -16.5370 -16.5249 -16.5212 -16.4974 -16.4884
   -16.4804 -16.4792 -16.4633 -16.4580 -16.4515 -16.4436 -16.4423 -16.4358
   -16.4307 -16.4242 -16.4213 -16.4182 -16.4091 -16.4053 -16.4018 -16.3998
   -16.3962 -16.3903 -16.3886 -16.3875 -16.3748 -16.3687 -16.3343 -16.3251
   -16.3237 -16.3048 -16.2992 -16.2983 -16.2942 -16.2692 -16.2661 -16.2551
   -16.2307 -16.2224 -16.2167 -16.2035 -16.2008 -16.1945 -16.1894 -16.1882
   -16.1837 -16.1741 -16.1707 -16.1656 -16.1604 -16.1602 -16.1500 -16.1401
   -16.1364 -16.1214 -16.1182 -16.1094 -10.3734  -9.3215  -7.8727  -7.6269
    -7.1190  -7.1171  -6.8480  -6.5386  -6.5311  -5.9926  -5.9020  -5.8955
    -2.6922  -2.4369  -2.3429  -2.1516  -1.8095  -1.5950  -1.4891  -1.1806
    -1.0919  -0.6229  -0.1288   0.9983   1.4723   1.7118   2.1858   2.5459
     2.5836   2.8126   3.0018   3.0169   3.4624   3.7030

          k = 0.0241 0.0417 0.0000 ( 26981 PWs)   bands (ev):

   -16.5560 -16.5493 -16.5217 -16.5143 -16.5129 -16.4878 -16.4811 -16.4727
   -16.4672 -16.4602 -16.4552 -16.4530 -16.4396 -16.4381 -16.4341 -16.4314
   -16.4174 -16.4120 -16.4089 -16.4064 -16.4008 -16.3971 -16.3965 -16.3889
   -16.3854 -16.3815 -16.3773 -16.3722 -16.3675 -16.3505 -16.3321 -16.3299
   -16.3259 -16.3244 -16.3128 -16.3093 -16.2966 -16.2779 -16.2753 -16.2627
   -16.2585 -16.2447 -16.2321 -16.2281 -16.2194 -16.2154 -16.2100 -16.2046
   -16.1954 -16.1879 -16.1850 -16.1792 -16.1775 -16.1758 -16.1696 -16.1595
   -16.1418 -16.1356 -16.1336 -16.1280 -10.1299  -9.0890  -8.0390  -8.0230
    -7.6653  -7.1754  -7.1280  -6.6973  -6.3257  -6.1359  -6.1098  -5.8292
    -2.4187  -2.1342  -1.5668  -1.5045  -1.3952  -1.2092  -0.9853  -0.8285
    -0.1897   0.0721   0.1104   0.8283   0.9143   1.1796   1.7252   2.1854
     2.4892   2.7228   2.7620   2.9227   3.2318   3.2540

          k = 0.0241-0.0974 0.0000 ( 26956 PWs)   bands (ev):

   -16.5315 -16.5031 -16.5003 -16.4889 -16.4808 -16.4732 -16.4639 -16.4557
   -16.4485 -16.4440 -16.4386 -16.4336 -16.4326 -16.4248 -16.4211 -16.4164
   -16.4142 -16.4078 -16.4017 -16.3983 -16.3895 -16.3851 -16.3806 -16.3766
   -16.3710 -16.3638 -16.3615 -16.3588 -16.3537 -16.3483 -16.3410 -16.3342
   -16.3295 -16.3255 -16.3172 -16.3049 -16.2981 -16.2927 -16.2898 -16.2855
   -16.2755 -16.2701 -16.2592 -16.2569 -16.2521 -16.2402 -16.2341 -16.2256
   -16.2227 -16.2183 -16.2092 -16.2037 -16.1892 -16.1826 -16.1810 -16.1746
   -16.1706 -16.1561 -16.1368 -16.1318  -9.6450  -8.9325  -8.6267  -8.2455
    -7.9537  -7.3474  -7.2388  -6.6923  -6.5935  -6.2216  -6.1342  -5.7701
    -1.9889  -1.5742  -1.0690  -0.9020  -0.6673  -0.5988  -0.3926  -0.1477
     0.1119   0.1884   0.5905   0.8110   0.9595   1.0682   1.5513   1.6727
     1.9800   2.4812   2.5745   2.6084   2.7695   2.9312

          k = 0.0241-0.0696 0.0000 ( 26956 PWs)   bands (ev):

   -16.5315 -16.5031 -16.5003 -16.4889 -16.4808 -16.4732 -16.4639 -16.4557
   -16.4485 -16.4440 -16.4386 -16.4336 -16.4326 -16.4248 -16.4211 -16.4164
   -16.4142 -16.4078 -16.4017 -16.3983 -16.3895 -16.3851 -16.3806 -16.3766
   -16.3710 -16.3638 -16.3615 -16.3588 -16.3537 -16.3483 -16.3410 -16.3342
   -16.3295 -16.3255 -16.3172 -16.3049 -16.2981 -16.2927 -16.2898 -16.2855
   -16.2755 -16.2701 -16.2592 -16.2569 -16.2521 -16.2402 -16.2341 -16.2256
   -16.2227 -16.2183 -16.2092 -16.2037 -16.1892 -16.1826 -16.1810 -16.1746
   -16.1706 -16.1561 -16.1368 -16.1318  -9.6450  -8.9325  -8.6267  -8.2455
    -7.9537  -7.3474  -7.2388  -6.6923  -6.5935  -6.2216  -6.1342  -5.7701
    -1.9889  -1.5742  -1.0690  -0.9020  -0.6673  -0.5988  -0.3926  -0.1477
     0.1118   0.1884   0.5905   0.8110   0.9595   1.0682   1.5513   1.6727
     1.9801   2.4812   2.5745   2.6084   2.7695   2.9312

          k = 0.0241-0.0417 0.0000 ( 26981 PWs)   bands (ev):

   -16.5560 -16.5493 -16.5217 -16.5143 -16.5129 -16.4878 -16.4811 -16.4727
   -16.4672 -16.4602 -16.4552 -16.4530 -16.4396 -16.4381 -16.4341 -16.4314
   -16.4174 -16.4120 -16.4089 -16.4064 -16.4008 -16.3971 -16.3965 -16.3889
   -16.3854 -16.3815 -16.3773 -16.3722 -16.3675 -16.3505 -16.3321 -16.3299
   -16.3259 -16.3244 -16.3128 -16.3093 -16.2966 -16.2779 -16.2753 -16.2627
   -16.2585 -16.2447 -16.2321 -16.2281 -16.2194 -16.2154 -16.2100 -16.2046
   -16.1954 -16.1879 -16.1850 -16.1792 -16.1775 -16.1758 -16.1696 -16.1595
   -16.1418 -16.1356 -16.1336 -16.1280 -10.1299  -9.0890  -8.0390  -8.0230
    -7.6653  -7.1755  -7.1280  -6.6973  -6.3257  -6.1359  -6.1098  -5.8292
    -2.4187  -2.1342  -1.5668  -1.5045  -1.3951  -1.2092  -0.9854  -0.8285
    -0.1897   0.0720   0.1104   0.8283   0.9143   1.1796   1.7252   2.1855
     2.4892   2.7228   2.7620   2.9227   3.2318   3.2540

          k = 0.0482-0.0278 0.0000 ( 26980 PWs)   bands (ev):

   -16.5592 -16.5236 -16.5186 -16.5115 -16.4980 -16.4841 -16.4765 -16.4694
   -16.4606 -16.4549 -16.4489 -16.4455 -16.4401 -16.4313 -16.4274 -16.4203
   -16.4181 -16.4139 -16.4097 -16.4018 -16.3982 -16.3901 -16.3870 -16.3804
   -16.3795 -16.3784 -16.3760 -16.3628 -16.3608 -16.3468 -16.3363 -16.3327
   -16.3283 -16.3251 -16.3225 -16.3122 -16.2911 -16.2885 -16.2728 -16.2684
   -16.2634 -16.2507 -16.2464 -16.2461 -16.2309 -16.2192 -16.2146 -16.2073
   -16.2067 -16.1955 -16.1901 -16.1858 -16.1814 -16.1799 -16.1770 -16.1676
   -16.1650 -16.1497 -16.1231 -16.1176 -10.0083  -8.9741  -8.5811  -7.6612
    -7.5418  -7.3258  -7.3253  -6.6015  -6.5960  -6.4415  -5.8454  -5.8407
    -2.2234  -1.7820  -1.7556  -1.3423  -1.0663  -0.8669  -0.7125  -0.4801
    -0.4399  -0.0459   0.4782   0.9761   1.0561   1.1914   1.7368   1.9928
     2.1434   2.3679   2.4061   2.7535   2.9892   3.0893

          k = 0.0482 0.0000 0.0000 ( 26981 PWs)   bands (ev):

   -16.5560 -16.5493 -16.5217 -16.5143 -16.5129 -16.4878 -16.4811 -16.4727
   -16.4672 -16.4602 -16.4552 -16.4530 -16.4396 -16.4381 -16.4341 -16.4314
   -16.4174 -16.4120 -16.4089 -16.4064 -16.4008 -16.3971 -16.3965 -16.3889
   -16.3854 -16.3815 -16.3773 -16.3722 -16.3675 -16.3505 -16.3321 -16.3299
   -16.3259 -16.3244 -16.3128 -16.3093 -16.2966 -16.2779 -16.2753 -16.2627
   -16.2585 -16.2447 -16.2321 -16.2281 -16.2194 -16.2154 -16.2100 -16.2046
   -16.1954 -16.1879 -16.1850 -16.1792 -16.1775 -16.1758 -16.1696 -16.1595
   -16.1418 -16.1356 -16.1336 -16.1280 -10.1299  -9.0890  -8.0390  -8.0230
    -7.6653  -7.1755  -7.1279  -6.6973  -6.3257  -6.1359  -6.1097  -5.8292
    -2.4186  -2.1342  -1.5668  -1.5046  -1.3951  -1.2092  -0.9854  -0.8285
    -0.1897   0.0720   0.1104   0.8283   0.9143   1.1795   1.7252   2.1855
     2.4892   2.7228   2.7621   2.9226   3.2318   3.2540

          k = 0.0482 0.0278 0.0000 ( 26980 PWs)   bands (ev):

   -16.5592 -16.5236 -16.5186 -16.5115 -16.4980 -16.4841 -16.4765 -16.4694
   -16.4606 -16.4549 -16.4489 -16.4455 -16.4401 -16.4313 -16.4274 -16.4203
   -16.4181 -16.4139 -16.4097 -16.4018 -16.3982 -16.3901 -16.3870 -16.3804
   -16.3795 -16.3784 -16.3760 -16.3628 -16.3608 -16.3468 -16.3363 -16.3327
   -16.3283 -16.3251 -16.3225 -16.3122 -16.2911 -16.2885 -16.2728 -16.2684
   -16.2634 -16.2507 -16.2464 -16.2461 -16.2309 -16.2192 -16.2146 -16.2073
   -16.2067 -16.1955 -16.1901 -16.1859 -16.1814 -16.1799 -16.1770 -16.1676
   -16.1650 -16.1497 -16.1231 -16.1176 -10.0083  -8.9741  -8.5811  -7.6612
    -7.5418  -7.3258  -7.3254  -6.6015  -6.5960  -6.4415  -5.8454  -5.8407
    -2.2234  -1.7820  -1.7556  -1.3423  -1.0663  -0.8669  -0.7125  -0.4801
    -0.4399  -0.0459   0.4782   0.9761   1.0561   1.1914   1.7368   1.9928
     2.1434   2.3679   2.4061   2.7535   2.9892   3.0893

          k = 0.0482-0.1113 0.0000 ( 26956 PWs)   bands (ev):

   -16.5315 -16.5031 -16.5003 -16.4889 -16.4808 -16.4732 -16.4639 -16.4557
   -16.4485 -16.4440 -16.4386 -16.4336 -16.4326 -16.4248 -16.4211 -16.4164
   -16.4142 -16.4078 -16.4017 -16.3983 -16.3895 -16.3851 -16.3806 -16.3766
   -16.3710 -16.3638 -16.3615 -16.3588 -16.3537 -16.3483 -16.3410 -16.3342
   -16.3295 -16.3255 -16.3172 -16.3049 -16.2981 -16.2927 -16.2898 -16.2855
   -16.2755 -16.2701 -16.2592 -16.2569 -16.2521 -16.2402 -16.2341 -16.2256
   -16.2227 -16.2183 -16.2092 -16.2037 -16.1892 -16.1826 -16.1810 -16.1746
   -16.1705 -16.1561 -16.1368 -16.1318  -9.6450  -8.9325  -8.6267  -8.2455
    -7.9537  -7.3474  -7.2388  -6.6923  -6.5935  -6.2216  -6.1342  -5.7701
    -1.9889  -1.5742  -1.0690  -0.9020  -0.6672  -0.5988  -0.3926  -0.1477
     0.1119   0.1884   0.5905   0.8110   0.9595   1.0683   1.5512   1.6727
     1.9800   2.4812   2.5745   2.6084   2.7695   2.9313

          k = 0.0482-0.0835 0.0000 ( 26934 PWs)   bands (ev):

   -16.4901 -16.4870 -16.4836 -16.4779 -16.4695 -16.4681 -16.4589 -16.4551
   -16.4533 -16.4492 -16.4431 -16.4386 -16.4255 -16.4253 -16.4249 -16.4133
   -16.4086 -16.4073 -16.3984 -16.3937 -16.3908 -16.3782 -16.3772 -16.3619
   -16.3613 -16.3589 -16.3581 -16.3487 -16.3442 -16.3414 -16.3380 -16.3375
   -16.3353 -16.3322 -16.3170 -16.3091 -16.3038 -16.3012 -16.2963 -16.2945
   -16.2811 -16.2727 -16.2722 -16.2693 -16.2574 -16.2544 -16.2508 -16.2418
   -16.2216 -16.2214 -16.2058 -16.1960 -16.1860 -16.1830 -16.1829 -16.1802
   -16.1689 -16.1662 -16.1630 -16.1486  -9.0633  -9.0507  -9.0319  -8.1309
    -8.0400  -8.0166  -6.8238  -6.7642  -6.7465  -6.0808  -5.9647  -5.9528
    -1.8389  -1.1062  -0.9922  -0.9201  -0.7048  -0.6991  -0.2071   0.2442
     0.4642   0.5193   0.6643   0.6804   1.0738   1.4103   1.4221   1.8025
     2.0458   2.0490   2.0831   2.3792   2.3796   3.3288

          k = 0.0482-0.0556 0.0000 ( 26956 PWs)   bands (ev):

   -16.5315 -16.5031 -16.5003 -16.4889 -16.4808 -16.4732 -16.4639 -16.4557
[...]
   -16.3053 -16.2985 -16.2935 -16.2901 -16.2818 -16.2744 -16.2721 -16.2664
   -16.2609 -16.2577 -16.2533 -16.2514 -16.2436 -16.2386 -16.2309 -16.2287
   -16.2223 -16.2191 -16.2061 -16.2006 -16.1916 -16.1888 -16.1826 -16.1783
   -16.1704 -16.1632 -16.1557 -16.1488 -16.1432 -16.1348 -16.1292 -16.1246
   -16.1158 -16.1133 -16.1030 -16.1002 -16.0873 -16.0805 -16.0766 -16.0694
   -16.0655 -16.0535 -16.0326 -16.0277  -9.4247  -8.7273  -8.5571  -8.0403
    -7.8711  -7.3286  -7.1816  -6.6939  -6.4158  -6.2061  -6.0139  -5.6706
    -2.3140  -1.3867  -1.0377  -0.7410  -0.5352  -0.4102  -0.2587   0.0125
     0.2734   0.3596   0.6785   0.8944   1.0241   1.1889   1.6287   1.7291
     2.1563   2.5427   2.5692   2.7253   2.7881   3.0449

          k = 0.0241-0.0417 0.0000 ( 26981 PWs)   bands (ev):

   -16.4627 -16.4388 -16.4086 -16.4065 -16.4048 -16.3810 -16.3740 -16.3653
   -16.3601 -16.3451 -16.3391 -16.3361 -16.3317 -16.3276 -16.3220 -16.3194
   -16.3052 -16.2991 -16.2981 -16.2926 -16.2858 -16.2830 -16.2810 -16.2793
   -16.2724 -16.2701 -16.2618 -16.2606 -16.2564 -16.2363 -16.2336 -16.2319
   -16.2272 -16.2222 -16.2118 -16.2011 -16.1883 -16.1671 -16.1659 -16.1621
   -16.1574 -16.1395 -16.1250 -16.1188 -16.1162 -16.1084 -16.1059 -16.0991
   -16.0909 -16.0845 -16.0806 -16.0781 -16.0734 -16.0697 -16.0642 -16.0565
   -16.0356 -16.0321 -16.0284 -16.0232  -9.9053  -9.0140  -7.8577  -7.8091
    -7.6974  -7.1125  -6.9977  -6.5223  -6.1917  -6.1253  -6.0667  -5.7469
    -2.7170  -1.9766  -1.5342  -1.3068  -1.2586  -1.0870  -0.8785  -0.6574
    -0.0399   0.1395   0.2341   0.8140   0.9602   1.3822   1.8481   2.4272
     2.5181   2.6821   2.7520   3.0600   3.3982   3.4260

          k = 0.0482-0.0278 0.0000 ( 26980 PWs)   bands (ev):

   -16.4618 -16.4165 -16.4131 -16.3942 -16.3882 -16.3764 -16.3677 -16.3576
   -16.3565 -16.3437 -16.3365 -16.3335 -16.3296 -16.3198 -16.3096 -16.3054
   -16.3017 -16.2997 -16.2959 -16.2936 -16.2884 -16.2785 -16.2784 -16.2711
   -16.2686 -16.2626 -16.2600 -16.2548 -16.2509 -16.2381 -16.2348 -16.2287
   -16.2246 -16.2244 -16.2227 -16.2060 -16.1826 -16.1756 -16.1669 -16.1668
   -16.1577 -16.1447 -16.1414 -16.1396 -16.1223 -16.1138 -16.1105 -16.1042
   -16.1020 -16.0897 -16.0850 -16.0839 -16.0776 -16.0750 -16.0735 -16.0626
   -16.0594 -16.0469 -16.0171 -16.0145  -9.7847  -8.9026  -8.3679  -7.6759
    -7.4821  -7.1375  -7.1182  -6.5564  -6.4708  -6.3976  -5.7899  -5.7798
    -2.5416  -1.5863  -1.5765  -1.3456  -0.8984  -0.6750  -0.5857  -0.3737
    -0.3473   0.1241   0.5622   1.0262   1.2331   1.2381   1.8794   2.0725
     2.2329   2.4489   2.4946   2.8710   2.9624   3.1560

          k = 0.0482 0.0000 0.0000 ( 26981 PWs)   bands (ev):

   -16.4627 -16.4388 -16.4086 -16.4065 -16.4048 -16.3809 -16.3740 -16.3652
   -16.3601 -16.3451 -16.3391 -16.3361 -16.3317 -16.3276 -16.3220 -16.3194
   -16.3053 -16.2991 -16.2981 -16.2926 -16.2858 -16.2830 -16.2810 -16.2793
   -16.2725 -16.2701 -16.2618 -16.2607 -16.2564 -16.2363 -16.2336 -16.2319
   -16.2272 -16.2222 -16.2118 -16.2011 -16.1883 -16.1671 -16.1660 -16.1621
   -16.1574 -16.1395 -16.1250 -16.1187 -16.1162 -16.1084 -16.1059 -16.0991
   -16.0909 -16.0845 -16.0806 -16.0781 -16.0734 -16.0697 -16.0642 -16.0565
   -16.0356 -16.0321 -16.0284 -16.0232  -9.9053  -9.0140  -7.8577  -7.8090
    -7.6974  -7.1126  -6.9977  -6.5223  -6.1917  -6.1254  -6.0666  -5.7470
    -2.7167  -1.9766  -1.5340  -1.3070  -1.2585  -1.0870  -0.8785  -0.6575
    -0.0400   0.1395   0.2341   0.8140   0.9603   1.3822   1.8480   2.4269
     2.5181   2.6821   2.7521   3.0601   3.3980   3.4262

          k = 0.0482 0.0278 0.0000 ( 26980 PWs)   bands (ev):

   -16.4618 -16.4165 -16.4131 -16.3942 -16.3882 -16.3764 -16.3677 -16.3576
   -16.3565 -16.3437 -16.3365 -16.3335 -16.3296 -16.3198 -16.3096 -16.3054
   -16.3017 -16.2997 -16.2959 -16.2936 -16.2884 -16.2785 -16.2784 -16.2711
   -16.2686 -16.2626 -16.2600 -16.2548 -16.2509 -16.2381 -16.2348 -16.2287
   -16.2246 -16.2244 -16.2227 -16.2060 -16.1826 -16.1756 -16.1669 -16.1668
   -16.1577 -16.1447 -16.1414 -16.1396 -16.1223 -16.1138 -16.1105 -16.1042
   -16.1020 -16.0897 -16.0850 -16.0839 -16.0776 -16.0750 -16.0735 -16.0626
   -16.0594 -16.0469 -16.0171 -16.0145  -9.7847  -8.9026  -8.3679  -7.6759
    -7.4821  -7.1375  -7.1182  -6.5565  -6.4708  -6.3976  -5.7899  -5.7798
    -2.5416  -1.5863  -1.5765  -1.3455  -0.8984  -0.6750  -0.5857  -0.3737
    -0.3473   0.1239   0.5623   1.0262   1.2331   1.2381   1.8794   2.0725
     2.2329   2.4489   2.4945   2.8709   2.9624   3.1560

          k = 0.0482-0.1113 0.0000 ( 26956 PWs)   bands (ev):

   -16.4358 -16.3989 -16.3891 -16.3782 -16.3647 -16.3574 -16.3534 -16.3427
   -16.3358 -16.3299 -16.3254 -16.3223 -16.3193 -16.3137 -16.3093 -16.3060
   -16.3054 -16.2985 -16.2935 -16.2901 -16.2818 -16.2745 -16.2721 -16.2664
   -16.2609 -16.2577 -16.2533 -16.2514 -16.2436 -16.2386 -16.2308 -16.2287
   -16.2223 -16.2191 -16.2061 -16.2006 -16.1916 -16.1888 -16.1826 -16.1784
   -16.1704 -16.1632 -16.1557 -16.1488 -16.1431 -16.1347 -16.1292 -16.1246
   -16.1158 -16.1133 -16.1030 -16.1002 -16.0873 -16.0805 -16.0766 -16.0694
   -16.0655 -16.0535 -16.0326 -16.0277  -9.4247  -8.7273  -8.5570  -8.0403
    -7.8710  -7.3287  -7.1815  -6.6939  -6.4158  -6.2060  -6.0140  -5.6706
    -2.3137  -1.3867  -1.0376  -0.7410  -0.5351  -0.4102  -0.2587   0.0124
     0.2733   0.3596   0.6783   0.8944   1.0242   1.1890   1.6284   1.7293
     2.1563   2.5426   2.5691   2.7253   2.7880   3.0450

          k = 0.0482-0.0835 0.0000 ( 26934 PWs)   bands (ev):

   -16.3992 -16.3899 -16.3777 -16.3593 -16.3561 -16.3473 -16.3465 -16.3366
   -16.3363 -16.3309 -16.3304 -16.3266 -16.3165 -16.3156 -16.3133 -16.3055
   -16.2972 -16.2952 -16.2911 -16.2837 -16.2827 -16.2689 -16.2676 -16.2633
   -16.2491 -16.2487 -16.2461 -16.2446 -16.2414 -16.2377 -16.2300 -16.2277
   -16.2249 -16.2246 -16.2109 -16.2041 -16.1990 -16.1934 -16.1879 -16.1816
   -16.1743 -16.1660 -16.1618 -16.1607 -16.1563 -16.1510 -16.1477 -16.1328
   -16.1194 -16.1122 -16.1030 -16.0971 -16.0825 -16.0800 -16.0774 -16.0737
   -16.0643 -16.0623 -16.0602 -16.0455  -8.8519  -8.8497  -8.8023  -8.1691
    -7.8952  -7.8839  -6.8591  -6.7809  -6.7135  -5.9182  -5.8397  -5.8276
    -2.2036  -0.9801  -0.7125  -0.7053  -0.6072  -0.5696  -0.2190   0.2594
     0.6186   0.6666   0.8085   0.8503   1.2037   1.5515   1.6172   1.9839
     2.0026   2.0813   2.2015   2.4174   2.4185   3.4329

          k = 0.0482-0.0556 0.0000 ( 26956 PWs)   bands (ev):

   -16.4358 -16.3989 -16.3891 -16.3782 -16.3647 -16.3574 -16.3534 -16.3427
   -16.3358 -16.3300 -16.3254 -16.3223 -16.3193 -16.3137 -16.3093 -16.3060
   -16.3054 -16.2985 -16.2935 -16.2901 -16.2818 -16.2744 -16.2721 -16.2664
   -16.2609 -16.2577 -16.2533 -16.2514 -16.2436 -16.2386 -16.2309 -16.2287
   -16.2223 -16.2191 -16.2061 -16.2006 -16.1916 -16.1888 -16.1826 -16.1784
   -16.1704 -16.1632 -16.1557 -16.1488 -16.1431 -16.1347 -16.1292 -16.1246
   -16.1158 -16.1133 -16.1030 -16.1002 -16.0873 -16.0805 -16.0766 -16.0694
   -16.0655 -16.0535 -16.0326 -16.0277  -9.4247  -8.7273  -8.5570  -8.0403
    -7.8710  -7.3287  -7.1815  -6.6939  -6.4158  -6.2061  -6.0140  -5.6706
    -2.3138  -1.3867  -1.0376  -0.7410  -0.5352  -0.4102  -0.2586   0.0125
     0.2733   0.3596   0.6784   0.8944   1.0243   1.1890   1.6285   1.7293
     2.1562   2.5425   2.5691   2.7253   2.7880   3.0451

          k =-0.0723 0.0417 0.0000 ( 26962 PWs)   bands (ev):

   -16.4481 -16.4037 -16.3906 -16.3754 -16.3747 -16.3502 -16.3410 -16.3360
   -16.3355 -16.3248 -16.3233 -16.3218 -16.3196 -16.3128 -16.3071 -16.3022
   -16.3005 -16.2982 -16.2951 -16.2901 -16.2900 -16.2753 -16.2745 -16.2654
   -16.2603 -16.2586 -16.2562 -16.2537 -16.2443 -16.2347 -16.2310 -16.2249
   -16.2206 -16.2141 -16.2082 -16.1944 -16.1887 -16.1854 -16.1780 -16.1739
   -16.1694 -16.1666 -16.1646 -16.1542 -16.1369 -16.1307 -16.1266 -16.1260
   -16.1225 -16.1187 -16.1146 -16.1103 -16.1070 -16.0852 -16.0803 -16.0726
   -16.0615 -16.0512 -16.0174 -16.0151  -9.2025  -9.1704  -8.4288  -8.2190
    -7.2478  -7.1977  -7.1217  -7.0316  -6.5313  -6.5131  -5.7798  -5.7683
    -2.2316  -0.9448  -0.8405  -0.8235  -0.7978  -0.6852  -0.4592  -0.0637
     0.2689   0.6956   0.7468   0.8820   1.3084   1.7865   1.8051   1.8569
     1.9781   2.1599   2.2645   2.3568   2.4391   2.5656

          k =-0.0723 0.0696 0.0000 ( 26956 PWs)   bands (ev):

   -16.4358 -16.3989 -16.3891 -16.3782 -16.3647 -16.3574 -16.3534 -16.3426
   -16.3358 -16.3300 -16.3254 -16.3223 -16.3193 -16.3137 -16.3093 -16.3060
   -16.3053 -16.2984 -16.2935 -16.2901 -16.2819 -16.2744 -16.2721 -16.2664
   -16.2609 -16.2577 -16.2533 -16.2514 -16.2436 -16.2386 -16.2309 -16.2287
   -16.2223 -16.2191 -16.2061 -16.2006 -16.1916 -16.1888 -16.1826 -16.1784
   -16.1704 -16.1632 -16.1557 -16.1488 -16.1431 -16.1348 -16.1292 -16.1246
   -16.1158 -16.1133 -16.1030 -16.1002 -16.0873 -16.0805 -16.0766 -16.0694
   -16.0655 -16.0535 -16.0326 -16.0277  -9.4247  -8.7273  -8.5570  -8.0403
    -7.8710  -7.3286  -7.1818  -6.6939  -6.4158  -6.2060  -6.0140  -5.6707
    -2.3136  -1.3867  -1.0375  -0.7410  -0.5353  -0.4102  -0.2588   0.0125
     0.2734   0.3595   0.6785   0.8945   1.0242   1.1888   1.6287   1.7290
     2.1561   2.5429   2.5691   2.7253   2.7880   3.0450

          k =-0.0723 0.0974 0.0000 ( 26956 PWs)   bands (ev):

   -16.4358 -16.3990 -16.3891 -16.3782 -16.3647 -16.3574 -16.3534 -16.3426
   -16.3358 -16.3300 -16.3254 -16.3223 -16.3193 -16.3137 -16.3093 -16.3060
   -16.3053 -16.2984 -16.2935 -16.2901 -16.2819 -16.2745 -16.2721 -16.2664
   -16.2609 -16.2577 -16.2533 -16.2514 -16.2436 -16.2386 -16.2308 -16.2287
   -16.2223 -16.2191 -16.2061 -16.2006 -16.1916 -16.1888 -16.1826 -16.1784
   -16.1704 -16.1632 -16.1557 -16.1488 -16.1431 -16.1347 -16.1292 -16.1246
   -16.1158 -16.1133 -16.1030 -16.1002 -16.0873 -16.0805 -16.0766 -16.0694
   -16.0655 -16.0535 -16.0326 -16.0277  -9.4247  -8.7273  -8.5570  -8.0403
    -7.8710  -7.3287  -7.1817  -6.6939  -6.4158  -6.2060  -6.0140  -5.6707
    -2.3136  -1.3867  -1.0375  -0.7410  -0.5353  -0.4102  -0.2587   0.0124
     0.2734   0.3595   0.6784   0.8945   1.0242   1.1888   1.6286   1.7290
     2.1561   2.5428   2.5691   2.7254   2.7880   3.0450

          k =-0.0723-0.0417 0.0000 ( 26962 PWs)   bands (ev):

   -16.4482 -16.4037 -16.3906 -16.3754 -16.3747 -16.3502 -16.3409 -16.3359
   -16.3354 -16.3248 -16.3233 -16.3218 -16.3196 -16.3128 -16.3071 -16.3022
   -16.3005 -16.2983 -16.2951 -16.2901 -16.2900 -16.2753 -16.2745 -16.2654
   -16.2603 -16.2586 -16.2562 -16.2537 -16.2443 -16.2347 -16.2310 -16.2249
   -16.2206 -16.2141 -16.2082 -16.1944 -16.1887 -16.1854 -16.1780 -16.1739
   -16.1694 -16.1667 -16.1646 -16.1542 -16.1369 -16.1307 -16.1266 -16.1260
   -16.1225 -16.1187 -16.1146 -16.1103 -16.1070 -16.0851 -16.0803 -16.0726
   -16.0615 -16.0512 -16.0174 -16.0151  -9.2024  -9.1705  -8.4287  -8.2191
    -7.2478  -7.1977  -7.1217  -7.0316  -6.5313  -6.5131  -5.7797  -5.7683
    -2.2315  -0.9448  -0.8404  -0.8235  -0.7978  -0.6852  -0.4592  -0.0637
     0.2687   0.6956   0.7468   0.8820   1.3083   1.7865   1.8051   1.8569
     1.9783   2.1599   2.2647   2.3566   2.4391   2.5655

     the Fermi energy is     1.1521 ev

!    total energy              =   -1993.35948971 Ry
     Harris-Foulkes estimate   =   -1993.35952201 Ry
     estimated scf accuracy    <       0.00000307 Ry

     The total energy is the sum of the following terms:

     one-electron contribution =   -9134.03372210 Ry
     hartree contribution      =    4636.64460687 Ry
     xc contribution           =    -784.45396790 Ry
     ewald contribution        =    3288.52210921 Ry
     electric field correction =       0.00000799 Ry
     smearing contrib. (-TS)   =      -0.03852377 Ry

     convergence has been achieved in   9 iterations
 
 BEEF-vdW xc energy contributions
           1 :   -699.332248347876     
           2 :    649.609334915698     
           3 :   -562.039288226105     
           4 :    455.818739427782     
           5 :   -350.773344888744     
           6 :    261.379083983584     
           7 :   -193.606800909761     
           8 :    145.361358232842     
           9 :   -109.803835272775     
          10 :    79.7326855951793     
          11 :   -50.9798004909715     
          12 :    23.5018485307157     
          13 :  -0.125734911521704     
          14 :   -15.9686236538898     
          15 :    23.5023004921799     
          16 :   -23.9532198790961     
          17 :    20.7724950414110     
          18 :   -17.6085477994520     
          19 :    16.6160577833646     
          20 :   -17.7485274892256     
          21 :    19.3008714971294     
          22 :   -19.2671735253651     
          23 :    16.6769654925267     
          24 :   -12.1713943419214     
          25 :    7.57282784418680     
          26 :   -4.78787740486541     
          27 :    4.72378828342949     
          28 :   -6.83273195509219     
          29 :    9.49662819512946     
          30 :   -10.9825923426897     
          31 :   -55.8816738499834     
          32 :   -40.9536662597574     

     Forces acting on atoms (Ry/au):


     negative rho (up, down):  2.125E-01 0.000E+00
     atom    1 type  1   force =    -0.00000442   -0.00003401   -0.01039279
     atom    2 type  1   force =     0.00001587   -0.00031721   -0.00884684
     atom    3 type  1   force =    -0.00027767    0.00017861   -0.00881560
     atom    4 type  1   force =     0.00027690    0.00018942   -0.00885088
     atom    5 type  1   force =     0.00299228   -0.00174860    0.00981327
     atom    6 type  1   force =    -0.00299260   -0.00175103    0.00975995
     atom    7 type  1   force =     0.00000049    0.00000114    0.00731219
     atom    8 type  1   force =    -0.00000570    0.00346340    0.00978611
     atom    9 type  1   force =    -0.00001007   -0.00001130    0.00026312
     atom   10 type  1   force =     0.00002103   -0.00001068    0.00026801
     atom   11 type  1   force =    -0.00000995    0.00003967    0.00022946
     atom   12 type  1   force =    -0.00000585   -0.00000138   -0.00014344
     atom   13 type  2   force =    -0.00000031    0.00000198   -0.00038257

     Total force =     0.026830     Total SCF correction =     0.010050
     SCF correction compared to forces is large: reduce conv_thr to get better values


     entering subroutine stress ...


     negative rho (up, down):  2.125E-01 0.000E+00
          total   stress  (Ry/bohr**3)                   (kbar)     P=    7.57
   0.00006724   0.00000000   0.00000000          9.89      0.00      0.00
   0.00000000   0.00006724  -0.00000001          0.00      9.89     -0.00
   0.00000000  -0.00000001   0.00001991          0.00     -0.00      2.93

 !ASE

     Writing output data file calc.save
 
     init_run     :     14.65s CPU     21.14s WALL (       1 calls)
     electrons    :    415.18s CPU    604.87s WALL (       1 calls)
     forces       :      6.51s CPU      7.56s WALL (       1 calls)
     stress       :     16.62s CPU     18.71s WALL (       1 calls)

     Called by init_run:
     wfcinit      :     11.06s CPU     16.43s WALL (       1 calls)
     potinit      :      2.00s CPU      2.93s WALL (       1 calls)

     Called by electrons:
     c_bands      :    286.56s CPU    416.10s WALL (      10 calls)
     sum_band     :     50.02s CPU     74.60s WALL (      10 calls)
     v_of_rho     :     17.06s CPU     25.55s WALL (      10 calls)
     newd         :      6.50s CPU      6.84s WALL (      10 calls)
     mix_rho      :      0.55s CPU      0.79s WALL (      10 calls)
     vdW_energy   :      3.33s CPU      3.69s WALL (      46 calls)
     vdW_ffts     :     48.45s CPU     74.50s WALL (      94 calls)
     vdW_v        :      9.07s CPU     12.92s WALL (      46 calls)

     Called by c_bands:
     init_us_2    :      0.87s CPU      0.89s WALL (     460 calls)
     cegterg      :    280.90s CPU    409.91s WALL (     200 calls)

     Called by *egterg:
     h_psi        :    215.40s CPU    342.16s WALL (     930 calls)
     s_psi        :      8.29s CPU      8.31s WALL (     930 calls)
     g_psi        :      0.54s CPU      0.52s WALL (     710 calls)
     cdiaghg      :     31.25s CPU     32.31s WALL (     890 calls)

     Called by h_psi:
     add_vuspsi   :      8.40s CPU      8.43s WALL (     930 calls)

     General routines
     calbec       :     16.20s CPU     18.87s WALL (    1170 calls)
     fft          :     72.63s CPU    111.38s WALL (    2767 calls)
     ffts         :      0.11s CPU      0.19s WALL (      20 calls)
     fftw         :    221.12s CPU    367.26s WALL (  118700 calls)
     interpolate  :      0.65s CPU      0.98s WALL (      20 calls)
     davcio       :      0.00s CPU      0.03s WALL (      20 calls)
 
     Parallel routines
     fft_scatter  :    262.04s CPU    444.21s WALL (  121487 calls)
 
     PWSCF        :  7m33.77s CPU    10m53.69s WALL

 
   This run was terminated on:   0: 7:24  17Jan2018            

=------------------------------------------------------------------------------=
   JOB DONE.
=------------------------------------------------------------------------------=
Job  /afs/slac/g/suncat/bin/suncat-tsmpirun -x LD_LIBRARY_PATH -wdir /scratch/qe842467_Qkyn4 pw.x -in pw.inp

TID   HOST_NAME   COMMAND_LINE            STATUS            TERMINATION_TIME
===== ========== ================  =======================  ===================
00000 suncat0100 pw.x -in pw.inp   Done                     01/17/2018 00:07:24
00001 suncat0100 pw.x -in pw.inp   Done                     01/17/2018 00:07:24
00002 suncat0100 pw.x -in pw.inp   Done                     01/17/2018 00:07:24
00003 suncat0100 pw.x -in pw.inp   Done                     01/17/2018 00:07:24
00004 suncat0100 pw.x -in pw.inp   Done                     01/17/2018 00:07:24
00005 suncat0100 pw.x -in pw.inp   Done                     01/17/2018 00:07:24
00006 suncat0100 pw.x -in pw.inp   Done                     01/17/2018 00:07:24
00007 suncat0100 pw.x -in pw.inp   Done                     01/17/2018 00:07:24
00008 suncat0283 pw.x -in pw.inp   Done                     01/17/2018 00:07:24
00009 suncat0283 pw.x -in pw.inp   Done                     01/17/2018 00:07:24
00010 suncat0283 pw.x -in pw.inp   Done                     01/17/2018 00:07:24
00011 suncat0283 pw.x -in pw.inp   Done                     01/17/2018 00:07:24
00012 suncat0283 pw.x -in pw.inp   Done                     01/17/2018 00:07:24
00013 suncat0283 pw.x -in pw.inp   Done                     01/17/2018 00:07:24
00014 suncat0283 pw.x -in pw.inp   Done                     01/17/2018 00:07:24
00015 suncat0283 pw.x -in pw.inp   Done                     01/17/2018 00:07:24
00016 suncat0282 pw.x -in pw.inp   Done                     01/17/2018 00:07:24
00017 suncat0282 pw.x -in pw.inp   Done                     01/17/2018 00:07:24
00018 suncat0282 pw.x -in pw.inp   Done                     01/17/2018 00:07:24
00019 suncat0282 pw.x -in pw.inp   Done                     01/17/2018 00:07:24
00020 suncat0282 pw.x -in pw.inp   Done                     01/17/2018 00:07:24
00021 suncat0282 pw.x -in pw.inp   Done                     01/17/2018 00:07:24
00022 suncat0282 pw.x -in pw.inp   Done                     01/17/2018 00:07:24
00023 suncat0282 pw.x -in pw.inp   Done                     01/17/2018 00:07:24
00024 suncat0214 pw.x -in pw.inp   Done                     01/17/2018 00:07:24
00025 suncat0214 pw.x -in pw.inp   Done                     01/17/2018 00:07:24
00026 suncat0214 pw.x -in pw.inp   Done                     01/17/2018 00:07:24
00027 suncat0214 pw.x -in pw.inp   Done                     01/17/2018 00:07:24
00028 suncat0214 pw.x -in pw.inp   Done                     01/17/2018 00:07:24
00029 suncat0214 pw.x -in pw.inp   Done                     01/17/2018 00:07:24
00030 suncat0214 pw.x -in pw.inp   Done                     01/17/2018 00:07:24
00031 suncat0214 pw.x -in pw.inp   Done                     01/17/2018 00:07:24
