  python dir          : /u/if/mamunm/src/espresso
  espresso dir        : /nfs/slac/g/suncatfs/sw/espv18/espresso-dynpy-beef/bin
  pseudo dir          : /u/if/mamunm/psp/gbrv1.5pbe
  ase-espresso py git : GITVERSION



     Program PWSCF v.5.1rc2 (svn rev. 11289) starts on  3May2018 at  9: 3: 5 

     This program is part of the open-source Quantum ESPRESSO suite
     for quantum simulation of materials; please cite
         "P. Giannozzi et al., J. Phys.:Condens. Matter 21 395502 (2009);
          URL http://www.quantum-espresso.org", 
     in publications or presentations arising from this work. More details at
     http://www.quantum-espresso.org/quote

     Parallel version (MPI), running on    32 processors
     K-points division:     npool     =       4
     R & G space division:  proc/nbgrp/npool/nimage =       8
     Reading input from pw.inp
     Message from routine read_cards :
     DEPRECATED: no units specified in CELL_PARAMETERS card

     Current dimensions of program PWSCF are:
     Max number of different atomic species (ntypx) = 10
     Max number of k-points (npk) =  40000
     Max angular momentum in pseudopotentials (lmaxx) =  3
     Presently stress not available with electric field


     **************************************************************************
     Initializing libbeef V0.1.1 with the BEEF-vdW functional.
     Citation: Wellendorff et al., PRB 85, 235149 (2012).
     **************************************************************************


     IMPORTANT: XC functional enforced from input :
     Exchange-correlation      = BEEF-VDW ( 1  4 27 13 2)
     Any further DFT definition will be discarded
     Please, verify this is what you really want


     Subspace diagonalization in iterative solution of the eigenvalue problem:
     a serial algorithm will be used

 
     Parallelization info
     --------------------
     sticks:   dense  smooth     PW     G-vecs:    dense   smooth      PW
     Min         402     160     46                77078    19492    3044
     Max         403     161     50                77101    19531    3047
     Sum        3217    1285    379               616691   156085   24367
 


     bravais-lattice index     =            0
     lattice parameter (alat)  =       1.8897  a.u.
     unit-cell volume          =    5182.3421 (a.u.)^3
     number of atoms/cell      =           13
     number of atomic types    =            2
     number of electrons       =       157.00
     number of Kohn-Sham states=           88
     kinetic-energy cutoff     =      36.7493  Ry
     charge density cutoff     =     367.4932  Ry
     convergence threshold     =      1.0E-05
     mixing beta               =       0.3000
     number of iterations used =           10  plain     mixing
     Exchange-correlation      = BEEF-VDW ( 1  4 27 13 2)
     nstep                     =           50


     celldm(1)=   1.889726  celldm(2)=   0.000000  celldm(3)=   0.000000
     celldm(4)=   0.000000  celldm(5)=   0.000000  celldm(6)=   0.000000

     crystal axes: (cart. coord. in units of alat)
               a(1) = (   5.970602   0.000000   0.000000 )  
               a(2) = (   2.985301   5.170693   0.000000 )  
               a(3) = (   0.000000   0.000000  24.874976 )  

     reciprocal axes: (cart. coord. in units 2 pi/alat)
               b(1) = (  0.167487 -0.096699  0.000000 )  
               b(2) = (  0.000000  0.193398  0.000000 )  
               b(3) = (  0.000000  0.000000  0.040201 )  


     PseudoPot. # 1 for Nb read from file:
     /u/if/mamunm/psp/gbrv1.5pbe/Nb.UPF
     MD5 check sum: 573aab8a2fa660278ed4a62cd769473f
     Pseudo is Ultrasoft + core correction, Zval = 13.0
     Generated by new atomic code, or converted to UPF format
     Using radial grid of  887 points,  6 beta functions with: 
                l(1) =   0
                l(2) =   0
                l(3) =   1
                l(4) =   1
                l(5) =   2
                l(6) =   2
     Q(r) pseudized with  6 coefficients,  rinner =    1.000   1.000   1.000
                                                       1.000   1.000

     PseudoPot. # 2 for H  read from file:
     /u/if/mamunm/psp/gbrv1.5pbe/H.UPF
     MD5 check sum: 761ae9a214b05c3daf00ab9f6b793d6f
     Pseudo is Ultrasoft, Zval =  1.0
     Generated by new atomic code, or converted to UPF format
     Using radial grid of  615 points,  2 beta functions with: 
                l(1) =   0
                l(2) =   0
     Q(r) pseudized with  8 coefficients,  rinner =    0.700

     vdW kernel table read from file vdW_kernel_table
     MD5 check sum: 095c7af220d748ca6e76c0b4c6cfb241

     atomic species   valence    mass     pseudopotential
        Nb1           13.00    92.90637     Nb( 1.00)
        H1             1.00     1.00800     H ( 1.00)

     No symmetry found



   Cartesian axes

     site n.     atom                  positions (alat units)
         1           Nb1 tau(   1) = (   1.4926504   0.8617821  10.0000000  )
         2           Nb1 tau(   2) = (   4.4779512   0.8617821  10.0000000  )
         3           Nb1 tau(   3) = (   2.9853008   3.4471284  10.0000000  )
         4           Nb1 tau(   4) = (   5.9706016   3.4471284  10.0000000  )
         5           Nb1 tau(   5) = (   5.9706016   1.7235642  12.4374879  )
         6           Nb1 tau(   6) = (   2.9853008   1.7235642  12.4374879  )
         7           Nb1 tau(   7) = (   7.4632520   4.3089105  12.4374879  )
         8           Nb1 tau(   8) = (   4.4779512   4.3089105  12.4374879  )
         9           Nb1 tau(   9) = (   0.0000000   0.0000000  14.8749758  )
        10           Nb1 tau(  10) = (   2.9853008   0.0000000  14.8749758  )
        11           Nb1 tau(  11) = (   1.4926504   2.5853463  14.8749758  )
        12           Nb1 tau(  12) = (   4.4779512   2.5853463  14.8749758  )
        13           H1  tau(  13) = (   0.0000000   0.0000000  16.5324758  )

     number of k points=    20  Fermi-Dirac smearing, width (Ry)=  0.0110
                       cart. coord. in units 2pi/alat
        k(    1) = (   0.0000000   0.0000000   0.0000000), wk =   0.0555556
        k(    2) = (   0.0000000   0.0322329   0.0000000), wk =   0.1111111
        k(    3) = (   0.0000000   0.0644659   0.0000000), wk =   0.1111111
        k(    4) = (   0.0000000  -0.0966988   0.0000000), wk =   0.0555556
        k(    5) = (   0.0279146  -0.0161165   0.0000000), wk =   0.1111111
        k(    6) = (   0.0279146   0.0161165   0.0000000), wk =   0.1111111
        k(    7) = (   0.0279146   0.0483494   0.0000000), wk =   0.1111111
        k(    8) = (   0.0279146  -0.1128153   0.0000000), wk =   0.1111111
        k(    9) = (   0.0279146  -0.0805824   0.0000000), wk =   0.1111111
        k(   10) = (   0.0279146  -0.0483494   0.0000000), wk =   0.1111111
        k(   11) = (   0.0558291  -0.0322329   0.0000000), wk =   0.1111111
        k(   12) = (   0.0558291   0.0000000   0.0000000), wk =   0.1111111
        k(   13) = (   0.0558291   0.0322329   0.0000000), wk =   0.1111111
        k(   14) = (   0.0558291  -0.1289318   0.0000000), wk =   0.1111111
        k(   15) = (   0.0558291  -0.0966988   0.0000000), wk =   0.1111111
        k(   16) = (   0.0558291  -0.0644659   0.0000000), wk =   0.1111111
        k(   17) = (  -0.0837437   0.0483494   0.0000000), wk =   0.0555556
        k(   18) = (  -0.0837437   0.0805824   0.0000000), wk =   0.1111111
        k(   19) = (  -0.0837437   0.1128153   0.0000000), wk =   0.1111111
        k(   20) = (  -0.0837437  -0.0483494   0.0000000), wk =   0.0555556

     Dense  grid:   616691 G-vectors     FFT dimensions: (  72,  72, 288)

     Smooth grid:   156085 G-vectors     FFT dimensions: (  45,  45, 192)

     Largest allocated arrays     est. size (Mb)     dimensions
        Kohn-Sham Wavefunctions         3.34 Mb     (    2487,   88)
        NL pseudopotentials             8.27 Mb     (    2487,  218)
        Each V/rho on FFT grid          2.85 Mb     (  186624)
        Each G-vector array             0.59 Mb     (   77088)
        G-vector shells                 0.16 Mb     (   20970)
     Largest temporary arrays     est. size (Mb)     dimensions
        Auxiliary wavefunctions        13.36 Mb     (    2487,  352)
        Each subspace H/S matrix        1.89 Mb     (     352,  352)
        Each <psi_i|beta_j> matrix      0.29 Mb     (     218,   88)
        Arrays for rho mixing          28.48 Mb     (  186624,   10)

     Initial potential from superposition of free atoms
     Check: negative starting charge=   -0.005216

     starting charge  156.96719, renormalised to  157.00000

     negative rho (up, down):  5.217E-03 0.000E+00


     ************************************************************************
     *
     * You are using vdW-DF for exchange-correlation in this calculation.
     * Please cite the following three references that made this development
     * possible:
     *
     *   M. Dion, H. Rydberg, E. Schroder, D. C. Langreth, and
     *   B. I. Lundqvist, Phys. Rev. Lett. 92, 246401 (2004).
     *
     *   T. Thonhauser, V. R. Cooper, S. Li, A. Puzder, P. Hyldgaard, and
     *   D. C. Langreth, Phys. Rev. B 76, 125112 (2007).
     *
     *   G. Roman-Perez and J. M. Soler, Phys. Rev. Lett. 103, 096102 (2009).
     *
     *
     * If you are using vdW-DF2, please also cite:
     *
     *   K. Lee, E. D. Murray, L. Kong, B. I. Lundqvist, and
     *   D. C. Langreth, Phys. Rev. B 82, 081101(R) (2010).
     *
     *
     * If you are calculating the stress with vdW-DF, please also cite:
     *
     *   R. Sabatini, E. Kucukbenli, B. Kolb, T. Thonhauser, and
     *   S. de Gironcoli, J. Phys.: Condens. Matter 24, 424209 (2012).
     *
     ************************************************************************

     Carrying out vdW-DF run using the following parameters:

     Nqs =      20    Nr_points =    1024   r_max =   100.000
     q_mesh =
               0.00001000     0.04494208     0.09755937     0.15916263
               0.23128650     0.31572767     0.41458969     0.53033537
               0.66584808     0.82450364     1.01025438     1.22772762
               1.48234092     1.78043706     2.12944203     2.53805004
               3.01644009     3.57652955     4.23227104     5.00000000

     Gradients computed in reciprocal space

     ************************************************************************


 
     Adding external electric field

     Computed dipole along edir(3) : 
        Dipole               -0.0016 Ry au,         -0.0040 Debye
        Dipole field         -0.0000 Ry au
 
        Potential amp.        0.0003 Ry
        Total length         45.8317 bohr
 
     Starting wfc are  157 randomized atomic wfcs

     total cpu time spent up to now is       12.8 secs

     per-process dynamical memory:    87.2 Mb

     Self-consistent Calculation

     iteration #  1     ecut=    36.75 Ry     beta=0.30
     Davidson diagonalization with overlap
     ethr =  1.00E-02,  avg # of iterations =  2.0

     negative rho (up, down):  4.998E-03 0.000E+00
 
     Adding external electric field

     Computed dipole along edir(3) : 
        Dipole               -2.6573 Ry au,         -6.7543 Debye
        Dipole field         -0.0064 Ry au
 
        Potential amp.        0.5906 Ry
        Total length         45.8317 bohr
 

     total cpu time spent up to now is       30.3 secs

     total energy              =   -1421.25654371 Ry
     Harris-Foulkes estimate   =   -1423.75990209 Ry
     estimated scf accuracy    <       5.55652946 Ry

     iteration #  2     ecut=    36.75 Ry     beta=0.30
     Davidson diagonalization with overlap
     ethr =  3.54E-03,  avg # of iterations =  9.7

     negative rho (up, down):  3.304E-03 0.000E+00
 
     Adding external electric field

     Computed dipole along edir(3) : 
        Dipole                2.3727 Ry au,          6.0309 Debye
        Dipole field          0.0058 Ry au
 
        Potential amp.       -0.5274 Ry
        Total length         45.8317 bohr
 

     total cpu time spent up to now is       59.0 secs

     total energy              =   -1411.72140809 Ry
     Harris-Foulkes estimate   =   -1432.24238347 Ry
     estimated scf accuracy    <     545.81281671 Ry

     iteration #  3     ecut=    36.75 Ry     beta=0.30
     Davidson diagonalization with overlap
     ethr =  3.54E-03,  avg # of iterations =  8.8

     negative rho (up, down):  9.457E-04 0.000E+00
 
     Adding external electric field

     Computed dipole along edir(3) : 
        Dipole                0.7133 Ry au,          1.8131 Debye
        Dipole field          0.0017 Ry au
 
        Potential amp.       -0.1585 Ry
        Total length         45.8317 bohr
 

     total cpu time spent up to now is       87.2 secs

     total energy              =   -1418.74613243 Ry
     Harris-Foulkes estimate   =   -1428.18062857 Ry
     estimated scf accuracy    <     278.95914468 Ry

     iteration #  4     ecut=    36.75 Ry     beta=0.30
     Davidson diagonalization with overlap
     ethr =  3.54E-03,  avg # of iterations =  5.4

     negative rho (up, down):  8.149E-04 0.000E+00
 
     Adding external electric field

     Computed dipole along edir(3) : 
        Dipole                0.4770 Ry au,          1.2125 Debye
        Dipole field          0.0012 Ry au
 
        Potential amp.       -0.1060 Ry
        Total length         45.8317 bohr
 

     total cpu time spent up to now is      109.0 secs

     total energy              =   -1423.22621144 Ry
     Harris-Foulkes estimate   =   -1423.39263606 Ry
     estimated scf accuracy    <       1.34296139 Ry

     iteration #  5     ecut=    36.75 Ry     beta=0.30
     Davidson diagonalization with overlap
     ethr =  8.55E-04,  avg # of iterations =  4.3

     negative rho (up, down):  9.213E-04 0.000E+00
 
     Adding external electric field

     Computed dipole along edir(3) : 
        Dipole                0.3015 Ry au,          0.7662 Debye
        Dipole field          0.0007 Ry au
 
        Potential amp.       -0.0670 Ry
        Total length         45.8317 bohr
 

     total cpu time spent up to now is      127.7 secs

     total energy              =   -1423.24195823 Ry
     Harris-Foulkes estimate   =   -1423.31244457 Ry
     estimated scf accuracy    <       0.33184452 Ry

     iteration #  6     ecut=    36.75 Ry     beta=0.30
     Davidson diagonalization with overlap
     ethr =  2.11E-04,  avg # of iterations =  5.0

     negative rho (up, down):  9.552E-04 0.000E+00
 
     Adding external electric field

     Computed dipole along edir(3) : 
        Dipole                0.4488 Ry au,          1.1407 Debye
        Dipole field          0.0011 Ry au
 
        Potential amp.       -0.0998 Ry
        Total length         45.8317 bohr
 

     total cpu time spent up to now is      149.1 secs

     total energy              =   -1423.24774317 Ry
     Harris-Foulkes estimate   =   -1423.29690409 Ry
     estimated scf accuracy    <       0.72452880 Ry

     iteration #  7     ecut=    36.75 Ry     beta=0.30
     Davidson diagonalization with overlap
     ethr =  2.11E-04,  avg # of iterations =  3.5

     negative rho (up, down):  1.186E-03 0.000E+00
 
     Adding external electric field

     Computed dipole along edir(3) : 
        Dipole                0.2734 Ry au,          0.6949 Debye
        Dipole field          0.0007 Ry au
 
        Potential amp.       -0.0608 Ry
        Total length         45.8317 bohr
 

     total cpu time spent up to now is      167.7 secs

     total energy              =   -1423.26468109 Ry
     Harris-Foulkes estimate   =   -1423.27301128 Ry
     estimated scf accuracy    <       0.06288108 Ry

     iteration #  8     ecut=    36.75 Ry     beta=0.30
     Davidson diagonalization with overlap
     ethr =  4.01E-05,  avg # of iterations =  5.1

     negative rho (up, down):  1.652E-03 0.000E+00
 
     Adding external electric field

     Computed dipole along edir(3) : 
        Dipole                0.1868 Ry au,          0.4748 Debye
        Dipole field          0.0005 Ry au
 
        Potential amp.       -0.0415 Ry
        Total length         45.8317 bohr
 

     total cpu time spent up to now is      190.1 secs

     total energy              =   -1423.27124523 Ry
     Harris-Foulkes estimate   =   -1423.27887327 Ry
     estimated scf accuracy    <       0.08954044 Ry

     iteration #  9     ecut=    36.75 Ry     beta=0.30
     Davidson diagonalization with overlap
     ethr =  4.01E-05,  avg # of iterations =  1.3

     negative rho (up, down):  2.153E-03 0.000E+00
 
     Adding external electric field

     Computed dipole along edir(3) : 
        Dipole                0.1119 Ry au,          0.2845 Debye
        Dipole field          0.0003 Ry au
 
        Potential amp.       -0.0249 Ry
        Total length         45.8317 bohr
 

     total cpu time spent up to now is      207.6 secs

     total energy              =   -1423.26954290 Ry
     Harris-Foulkes estimate   =   -1423.27333589 Ry
     estimated scf accuracy    <       0.03680033 Ry

     iteration # 10     ecut=    36.75 Ry     beta=0.30
     Davidson diagonalization with overlap
     ethr =  2.34E-05,  avg # of iterations =  2.9

     negative rho (up, down):  2.505E-03 0.000E+00
 
     Adding external electric field

     Computed dipole along edir(3) : 
        Dipole                0.0411 Ry au,          0.1045 Debye
        Dipole field          0.0001 Ry au
 
        Potential amp.       -0.0091 Ry
        Total length         45.8317 bohr
 

     total cpu time spent up to now is      225.8 secs

     total energy              =   -1423.26993302 Ry
     Harris-Foulkes estimate   =   -1423.27094398 Ry
     estimated scf accuracy    <       0.01013704 Ry

     iteration # 11     ecut=    36.75 Ry     beta=0.30
     Davidson diagonalization with overlap
     ethr =  6.46E-06,  avg # of iterations =  5.1

     negative rho (up, down):  2.866E-03 0.000E+00
 
     Adding external electric field

     Computed dipole along edir(3) : 
        Dipole               -0.0253 Ry au,         -0.0643 Debye
        Dipole field         -0.0001 Ry au
 
        Potential amp.        0.0056 Ry
        Total length         45.8317 bohr
 

     total cpu time spent up to now is      247.0 secs

     total energy              =   -1423.27121543 Ry
     Harris-Foulkes estimate   =   -1423.27130910 Ry
     estimated scf accuracy    <       0.00256129 Ry

     iteration # 12     ecut=    36.75 Ry     beta=0.30
     Davidson diagonalization with overlap
     ethr =  1.63E-06,  avg # of iterations =  3.9

     negative rho (up, down):  3.242E-03 0.000E+00
 
     Adding external electric field

     Computed dipole along edir(3) : 
        Dipole               -0.0696 Ry au,         -0.1770 Debye
        Dipole field         -0.0002 Ry au
 
        Potential amp.        0.0155 Ry
        Total length         45.8317 bohr
 

     total cpu time spent up to now is      265.8 secs

     total energy              =   -1423.27133619 Ry
     Harris-Foulkes estimate   =   -1423.27132069 Ry
     estimated scf accuracy    <       0.00148231 Ry

     iteration # 13     ecut=    36.75 Ry     beta=0.30
     Davidson diagonalization with overlap
     ethr =  9.44E-07,  avg # of iterations =  3.5

     negative rho (up, down):  4.251E-03 0.000E+00
 
     Adding external electric field

     Computed dipole along edir(3) : 
        Dipole               -0.1230 Ry au,         -0.3126 Debye
        Dipole field         -0.0003 Ry au
 
        Potential amp.        0.0273 Ry
        Total length         45.8317 bohr
 

     total cpu time spent up to now is      284.7 secs

     total energy              =   -1423.27146613 Ry
     Harris-Foulkes estimate   =   -1423.27143376 Ry
     estimated scf accuracy    <       0.00038394 Ry

     iteration # 14     ecut=    36.75 Ry     beta=0.30
     Davidson diagonalization with overlap
     ethr =  2.45E-07,  avg # of iterations =  5.0

     negative rho (up, down):  4.361E-03 0.000E+00
 
     Adding external electric field

     Computed dipole along edir(3) : 
        Dipole               -0.1264 Ry au,         -0.3212 Debye
        Dipole field         -0.0003 Ry au
 
        Potential amp.        0.0281 Ry
        Total length         45.8317 bohr
 

     total cpu time spent up to now is      304.5 secs

     total energy              =   -1423.27149250 Ry
     Harris-Foulkes estimate   =   -1423.27150476 Ry
     estimated scf accuracy    <       0.00034516 Ry

     iteration # 15     ecut=    36.75 Ry     beta=0.30
     Davidson diagonalization with overlap
     ethr =  2.20E-07,  avg # of iterations =  1.2

     negative rho (up, down):  4.799E-03 0.000E+00
 
     Adding external electric field

     Computed dipole along edir(3) : 
        Dipole               -0.1376 Ry au,         -0.3497 Debye
        Dipole field         -0.0003 Ry au
 
        Potential amp.        0.0306 Ry
        Total length         45.8317 bohr
 

     total cpu time spent up to now is      322.0 secs

     total energy              =   -1423.27149970 Ry
     Harris-Foulkes estimate   =   -1423.27149394 Ry
     estimated scf accuracy    <       0.00002248 Ry

     iteration # 16     ecut=    36.75 Ry     beta=0.30
     Davidson diagonalization with overlap
     ethr =  1.43E-08,  avg # of iterations =  5.8

     negative rho (up, down):  4.891E-03 0.000E+00
 
     Adding external electric field

     Computed dipole along edir(3) : 
        Dipole               -0.1398 Ry au,         -0.3554 Debye
        Dipole field         -0.0003 Ry au
 
        Potential amp.        0.0311 Ry
        Total length         45.8317 bohr
 

     total cpu time spent up to now is      345.1 secs

     total energy              =   -1423.27150371 Ry
     Harris-Foulkes estimate   =   -1423.27150444 Ry
     estimated scf accuracy    <       0.00003902 Ry

     iteration # 17     ecut=    36.75 Ry     beta=0.30
     Davidson diagonalization with overlap
     ethr =  1.43E-08,  avg # of iterations =  1.1

     negative rho (up, down):  4.916E-03 0.000E+00
 
     Adding external electric field

     Computed dipole along edir(3) : 
        Dipole               -0.1406 Ry au,         -0.3573 Debye
        Dipole field         -0.0003 Ry au
 
        Potential amp.        0.0312 Ry
        Total length         45.8317 bohr
 

     total cpu time spent up to now is      362.5 secs

     total energy              =   -1423.27150288 Ry
     Harris-Foulkes estimate   =   -1423.27150400 Ry
     estimated scf accuracy    <       0.00002142 Ry

     iteration # 18     ecut=    36.75 Ry     beta=0.30
     Davidson diagonalization with overlap
     ethr =  1.36E-08,  avg # of iterations =  3.6

     negative rho (up, down):  4.939E-03 0.000E+00

     negative rho (up, down):  4.939E-03 0.000E+00

     negative rho (up, down):  4.939E-03 0.000E+00

     negative rho (up, down):  4.939E-03 0.000E+00

     negative rho (up, down):  4.939E-03 0.000E+00

     negative rho (up, down):  4.939E-03 0.000E+00

     negative rho (up, down):  4.939E-03 0.000E+00

     negative rho (up, down):  4.939E-03 0.000E+00

     negative rho (up, down):  4.939E-03 0.000E+00

     negative rho (up, down):  4.939E-03 0.000E+00

     negative rho (up, down):  4.939E-03 0.000E+00

     negative rho (up, down):  4.939E-03 0.000E+00

     negative rho (up, down):  4.939E-03 0.000E+00

     negative rho (up, down):  4.939E-03 0.000E+00

     negative rho (up, down):  4.939E-03 0.000E+00

     negative rho (up, down):  4.939E-03 0.000E+00

     negative rho (up, down):  4.939E-03 0.000E+00

     negative rho (up, down):  4.939E-03 0.000E+00

     negative rho (up, down):  4.939E-03 0.000E+00

     negative rho (up, down):  4.939E-03 0.000E+00

     negative rho (up, down):  4.939E-03 0.000E+00

     negative rho (up, down):  4.939E-03 0.000E+00

     negative rho (up, down):  4.939E-03 0.000E+00

     negative rho (up, down):  4.939E-03 0.000E+00

     negative rho (up, down):  4.939E-03 0.000E+00

     negative rho (up, down):  4.939E-03 0.000E+00

     negative rho (up, down):  4.939E-03 0.000E+00

     negative rho (up, down):  4.939E-03 0.000E+00

     negative rho (up, down):  4.939E-03 0.000E+00

     negative rho (up, down):  4.939E-03 0.000E+00

     negative rho (up, down):  4.939E-03 0.000E+00

     negative rho (up, down):  4.939E-03 0.000E+00

     negative rho (up, down):  4.939E-03 0.000E+00

     negative rho (up, down):  4.939E-03 0.000E+00

     negative rho (up, down):  4.939E-03 0.000E+00
 
     Adding external electric field

     Computed dipole along edir(3) : 
        Dipole               -0.1448 Ry au,         -0.3680 Debye
        Dipole field         -0.0004 Ry au
 
        Potential amp.        0.0322 Ry
        Total length         45.8317 bohr
 

     total cpu time spent up to now is      435.1 secs

     End of self-consistent calculation

          k = 0.0000 0.0000 0.0000 ( 19435 PWs)   bands (ev):

   -53.3968 -53.3550 -53.2732 -53.2730 -53.2490 -53.2259 -53.2253 -53.2223
   -53.1721 -53.1459 -53.1456 -53.0005 -29.8258 -29.8249 -29.8249 -29.7817
   -29.7521 -29.7520 -29.7379 -29.7153 -29.6943 -29.6942 -29.4471 -29.3402
   -29.3400 -29.2701 -29.2637 -29.2635 -29.1491 -29.1451 -29.1163 -29.1162
   -29.0684 -29.0403 -29.0403 -29.0241 -29.0240 -29.0180 -28.9463 -28.9378
   -28.9377 -28.9045 -28.8738 -28.8738 -28.8206 -28.8205 -28.7638 -28.7637
    -3.7792  -2.5275  -1.9658  -1.7956  -1.7956  -1.7910  -1.7458  -1.4770
    -1.4770  -1.2387  -1.0940  -1.0940  -1.0171  -0.9981  -0.9980  -0.7452
     0.0901   0.1157   0.1158   1.1356   1.1637   1.1637   1.2428   1.5533
     1.8654   1.8654   1.9282   2.1066   2.1066   2.1175   2.1177   2.1893
     2.2030   2.2030   2.2563   2.2563   2.5690   2.9728   3.0259   3.0260

          k = 0.0000 0.0322 0.0000 ( 19477 PWs)   bands (ev):

   -53.3882 -53.3472 -53.2797 -53.2731 -53.2432 -53.2345 -53.2258 -53.2229
   -53.1738 -53.1500 -53.1456 -53.0015 -29.7945 -29.7941 -29.7733 -29.7622
   -29.7246 -29.7196 -29.7047 -29.6815 -29.6626 -29.6449 -29.4457 -29.3720
   -29.3557 -29.2872 -29.2530 -29.2488 -29.1665 -29.1617 -29.1261 -29.1220
   -29.0992 -29.0848 -29.0348 -29.0215 -29.0077 -29.0075 -28.9764 -28.9745
   -28.9308 -28.9303 -28.9120 -28.8900 -28.8547 -28.8332 -28.8178 -28.7738
    -3.5640  -2.3239  -1.7439  -1.7166  -1.6715  -1.6220  -1.6082  -1.4056
    -1.3091  -1.1327  -0.9742  -0.9558  -0.8894  -0.7958  -0.7688  -0.6462
     0.1381   0.1586   0.1935   1.0777   1.2200   1.2399   1.2760   1.4506
     1.5887   1.7178   1.7478   1.8574   2.0198   2.0567   2.1481   2.1606
     2.2047   2.2470   2.2661   2.3583   2.4548   2.6885   2.7210   2.7256

          k = 0.0000 0.0645 0.0000 ( 19509 PWs)   bands (ev):

   -53.3654 -53.3258 -53.2978 -53.2732 -53.2608 -53.2276 -53.2259 -53.2222
   -53.1820 -53.1573 -53.1455 -53.0035 -29.7181 -29.7169 -29.7120 -29.6639
   -29.6611 -29.6403 -29.6191 -29.6071 -29.5836 -29.4988 -29.4494 -29.4110
   -29.3983 -29.3309 -29.2368 -29.2251 -29.2247 -29.1977 -29.1955 -29.1831
   -29.1372 -29.0968 -29.0748 -29.0690 -29.0547 -29.0379 -29.0023 -28.9935
   -28.9911 -28.9829 -28.9333 -28.9288 -28.9063 -28.8802 -28.8621 -28.8001
    -2.9852  -1.9107  -1.6896  -1.4328  -1.2484  -1.1969  -1.1762  -1.1477
    -0.9105  -0.8369  -0.6660  -0.5435  -0.5420  -0.4025  -0.1848  -0.1720
     0.2432   0.2602   0.4071   0.6678   0.9379   1.0930   1.1209   1.2160
     1.3239   1.5147   1.5210   1.6730   1.7196   1.7541   1.7604   1.8322
     1.9440   2.1363   2.1442   2.2108   2.4080   2.4426   2.5196   2.5231

          k = 0.0000-0.0967 0.0000 ( 19524 PWs)   bands (ev):

   -53.3450 -53.3176 -53.2955 -53.2915 -53.2732 -53.2259 -53.2240 -53.2105
   -53.1945 -53.1599 -53.1455 -53.0044 -29.6664 -29.6587 -29.6557 -29.6446
   -29.6282 -29.6187 -29.5517 -29.5193 -29.5000 -29.4856 -29.4425 -29.3919
   -29.3381 -29.3128 -29.2968 -29.2881 -29.2774 -29.2547 -29.2101 -29.1825
   -29.1802 -29.1510 -29.1322 -29.1278 -29.0992 -29.0660 -29.0257 -29.0011
   -28.9886 -28.9829 -28.9617 -28.9424 -28.9034 -28.8866 -28.8676 -28.8220
    -2.3409  -2.1865  -1.5855  -1.2316  -1.0680  -0.8506  -0.7996  -0.7506
    -0.7492  -0.6507  -0.5698  -0.1212  -0.0628   0.0028   0.0783   0.0895
     0.0942   0.5490   0.5699   0.6282   0.6878   0.7159   0.8224   1.0972
     1.1890   1.2822   1.2992   1.4131   1.4349   1.4365   1.5047   1.5660
     1.6434   1.8102   1.8162   1.9379   1.9851   2.0078   2.3051   2.6258

          k = 0.0279-0.0161 0.0000 ( 19477 PWs)   bands (ev):

   -53.3882 -53.3472 -53.2795 -53.2733 -53.2432 -53.2345 -53.2258 -53.2229
   -53.1738 -53.1499 -53.1457 -53.0015 -29.7946 -29.7940 -29.7733 -29.7623
   -29.7246 -29.7197 -29.7047 -29.6815 -29.6626 -29.6449 -29.4457 -29.3719
   -29.3558 -29.2872 -29.2530 -29.2488 -29.1665 -29.1617 -29.1261 -29.1221
   -29.0992 -29.0847 -29.0348 -29.0215 -29.0077 -29.0076 -28.9763 -28.9745
   -28.9308 -28.9303 -28.9120 -28.8900 -28.8547 -28.8332 -28.8178 -28.7738
    -3.5640  -2.3239  -1.7439  -1.7166  -1.6715  -1.6219  -1.6082  -1.4056
    -1.3091  -1.1327  -0.9742  -0.9558  -0.8894  -0.7958  -0.7688  -0.6462
     0.1381   0.1586   0.1935   1.0777   1.2200   1.2399   1.2760   1.4506
     1.5887   1.7179   1.7478   1.8574   2.0198   2.0567   2.1481   2.1607
     2.2047   2.2470   2.2661   2.3583   2.4548   2.6885   2.7210   2.7256

          k = 0.0279 0.0161 0.0000 ( 19477 PWs)   bands (ev):

   -53.3882 -53.3472 -53.2797 -53.2731 -53.2433 -53.2346 -53.2253 -53.2232
   -53.1738 -53.1497 -53.1458 -53.0015 -29.7945 -29.7940 -29.7733 -29.7622
   -29.7247 -29.7196 -29.7047 -29.6814 -29.6627 -29.6448 -29.4457 -29.3721
   -29.3556 -29.2873 -29.2528 -29.2489 -29.1665 -29.1617 -29.1262 -29.1219
   -29.0992 -29.0849 -29.0348 -29.0213 -29.0077 -29.0076 -28.9764 -28.9745
   -28.9308 -28.9303 -28.9120 -28.8900 -28.8547 -28.8332 -28.8177 -28.7738
    -3.5640  -2.3239  -1.7439  -1.7166  -1.6715  -1.6219  -1.6082  -1.4056
    -1.3091  -1.1327  -0.9742  -0.9558  -0.8894  -0.7958  -0.7689  -0.6462
     0.1382   0.1585   0.1935   1.0777   1.2200   1.2399   1.2760   1.4506
     1.5887   1.7178   1.7479   1.8573   2.0198   2.0567   2.1481   2.1606
     2.2048   2.2471   2.2661   2.3583   2.4548   2.6884   2.7210   2.7257

          k = 0.0279 0.0483 0.0000 ( 19485 PWs)   bands (ev):

   -53.3724 -53.3325 -53.2912 -53.2741 -53.2455 -53.2410 -53.2311 -53.2157
   -53.1777 -53.1579 -53.1444 -53.0030 -29.7540 -29.7277 -29.7064 -29.7010
   -29.6762 -29.6651 -29.6482 -29.6350 -29.5738 -29.5720 -29.4470 -29.4068
   -29.3868 -29.3189 -29.2466 -29.2328 -29.2283 -29.2197 -29.1384 -29.1188
   -29.1104 -29.0893 -29.0752 -29.0639 -29.0382 -29.0179 -29.0037 -28.9819
   -28.9748 -28.9582 -28.9461 -28.9126 -28.9072 -28.8720 -28.8497 -28.8013
    -3.1634  -1.9912  -1.5773  -1.4902  -1.4402  -1.3359  -1.2809  -1.2706
    -1.1008  -0.8514  -0.7494  -0.6706  -0.5843  -0.5537  -0.4511  -0.2899
     0.2033   0.2711   0.2898   0.8375   1.1388   1.1774   1.1870   1.2427
     1.3500   1.3708   1.6351   1.6537   1.8479   1.8830   1.9513   2.0129
     2.0164   2.1196   2.2711   2.3339   2.3668   2.4518   2.5241   2.6213

          k = 0.0279-0.1128 0.0000 ( 19505 PWs)   bands (ev):

   -53.3476 -53.3122 -53.3052 -53.2772 -53.2717 -53.2477 -53.2142 -53.2104
   -53.1874 -53.1669 -53.1426 -53.0044 -29.6729 -29.6712 -29.6383 -29.6226
   -29.6144 -29.5982 -29.5610 -29.5430 -29.4933 -29.4685 -29.4401 -29.4107
   -29.4061 -29.3705 -29.3339 -29.2991 -29.2367 -29.2183 -29.2040 -29.2016
   -29.1562 -29.1288 -29.1183 -29.0877 -29.0630 -29.0504 -29.0296 -29.0196
   -28.9977 -28.9773 -28.9609 -28.9429 -28.9144 -28.8948 -28.8770 -28.8390
    -2.4957  -1.8664  -1.5491  -1.1952  -1.1315  -1.0008  -0.8704  -0.7996
    -0.6907  -0.4854  -0.4181  -0.2489  -0.1563  -0.0763  -0.0497   0.0740
     0.3717   0.3944   0.4429   0.5786   0.6552   0.8029   0.8648   0.9266
     1.0809   1.1364   1.3086   1.3994   1.4106   1.4609   1.5063   1.5574
     1.6291   1.8147   1.9017   1.9597   2.0521   2.2520   2.3382   2.5914

          k = 0.0279-0.0806 0.0000 ( 19505 PWs)   bands (ev):

   -53.3476 -53.3122 -53.3052 -53.2771 -53.2717 -53.2477 -53.2143 -53.2103
   -53.1873 -53.1670 -53.1426 -53.0044 -29.6729 -29.6712 -29.6383 -29.6226
   -29.6144 -29.5982 -29.5610 -29.5430 -29.4933 -29.4684 -29.4403 -29.4106
   -29.4061 -29.3707 -29.3337 -29.2989 -29.2368 -29.2183 -29.2042 -29.2017
   -29.1562 -29.1288 -29.1182 -29.0877 -29.0631 -29.0504 -29.0297 -29.0195
   -28.9977 -28.9773 -28.9609 -28.9430 -28.9144 -28.8948 -28.8770 -28.8390
    -2.4957  -1.8664  -1.5491  -1.1952  -1.1314  -1.0008  -0.8704  -0.7996
    -0.6907  -0.4855  -0.4181  -0.2489  -0.1563  -0.0763  -0.0497   0.0740
     0.3717   0.3944   0.4429   0.5787   0.6551   0.8029   0.8648   0.9266
     1.0809   1.1364   1.3086   1.3994   1.4106   1.4609   1.5063   1.5574
     1.6291   1.8147   1.9017   1.9596   2.0521   2.2520   2.3382   2.5914

          k = 0.0279-0.0483 0.0000 ( 19485 PWs)   bands (ev):

   -53.3724 -53.3325 -53.2911 -53.2743 -53.2451 -53.2414 -53.2311 -53.2156
   -53.1776 -53.1581 -53.1443 -53.0030 -29.7541 -29.7277 -29.7064 -29.7010
   -29.6761 -29.6652 -29.6482 -29.6351 -29.5737 -29.5720 -29.4471 -29.4066
   -29.3869 -29.3189 -29.2466 -29.2328 -29.2283 -29.2198 -29.1383 -29.1188
   -29.1104 -29.0894 -29.0752 -29.0640 -29.0382 -29.0179 -29.0035 -28.9820
   -28.9748 -28.9582 -28.9462 -28.9126 -28.9072 -28.8720 -28.8497 -28.8013
    -3.1634  -1.9912  -1.5773  -1.4902  -1.4402  -1.3359  -1.2810  -1.2706
    -1.1008  -0.8514  -0.7494  -0.6706  -0.5843  -0.5538  -0.4511  -0.2899
     0.2033   0.2712   0.2898   0.8375   1.1388   1.1774   1.1871   1.2427
     1.3500   1.3708   1.6351   1.6537   1.8479   1.8830   1.9512   2.0129
     2.0164   2.1197   2.2711   2.3339   2.3667   2.4518   2.5241   2.6214

          k = 0.0558-0.0322 0.0000 ( 19509 PWs)   bands (ev):

   -53.3655 -53.3258 -53.2976 -53.2733 -53.2608 -53.2276 -53.2259 -53.2222
   -53.1820 -53.1572 -53.1456 -53.0035 -29.7182 -29.7169 -29.7120 -29.6639
   -29.6611 -29.6403 -29.6191 -29.6072 -29.5835 -29.4988 -29.4494 -29.4110
   -29.3983 -29.3309 -29.2368 -29.2252 -29.2247 -29.1977 -29.1955 -29.1830
   -29.1372 -29.0968 -29.0749 -29.0690 -29.0547 -29.0379 -29.0024 -28.9936
   -28.9911 -28.9829 -28.9334 -28.9288 -28.9063 -28.8802 -28.8621 -28.8001
    -2.9852  -1.9107  -1.6896  -1.4328  -1.2484  -1.1969  -1.1762  -1.1477
    -0.9104  -0.8369  -0.6660  -0.5435  -0.5420  -0.4025  -0.1848  -0.1720
     0.2431   0.2603   0.4071   0.6678   0.9379   1.0930   1.1210   1.2160
     1.3239   1.5147   1.5210   1.6729   1.7196   1.7541   1.7604   1.8322
     1.9440   2.1363   2.1442   2.2108   2.4080   2.4426   2.5196   2.5231

          k = 0.0558 0.0000 0.0000 ( 19485 PWs)   bands (ev):

   -53.3724 -53.3325 -53.2911 -53.2743 -53.2455 -53.2410 -53.2311 -53.2157
   -53.1777 -53.1578 -53.1444 -53.0030 -29.7540 -29.7277 -29.7064 -29.7010
   -29.6762 -29.6651 -29.6482 -29.6350 -29.5738 -29.5720 -29.4470 -29.4068
   -29.3868 -29.3189 -29.2466 -29.2328 -29.2283 -29.2197 -29.1384 -29.1188
   -29.1104 -29.0893 -29.0752 -29.0639 -29.0382 -29.0179 -29.0037 -28.9820
   -28.9748 -28.9581 -28.9462 -28.9126 -28.9072 -28.8720 -28.8497 -28.8013
    -3.1634  -1.9912  -1.5773  -1.4902  -1.4402  -1.3359  -1.2809  -1.2706
    -1.1008  -0.8514  -0.7494  -0.6706  -0.5843  -0.5538  -0.4511  -0.2899
     0.2033   0.2711   0.2898   0.8375   1.1388   1.1774   1.1870   1.2427
     1.3500   1.3708   1.6351   1.6537   1.8479   1.8830   1.9513   2.0129
     2.0164   2.1197   2.2711   2.3339   2.3668   2.4518   2.5241   2.6213

          k = 0.0558 0.0322 0.0000 ( 19509 PWs)   bands (ev):

   -53.3654 -53.3258 -53.2978 -53.2732 -53.2608 -53.2276 -53.2254 -53.2225
   -53.1821 -53.1570 -53.1458 -53.0035 -29.7181 -29.7168 -29.7120 -29.6640
   -29.6612 -29.6403 -29.6191 -29.6070 -29.5837 -29.4988 -29.4494 -29.4111
   -29.3982 -29.3309 -29.2367 -29.2249 -29.2248 -29.1979 -29.1952 -29.1832
   -29.1373 -29.0967 -29.0750 -29.0690 -29.0546 -29.0380 -29.0024 -28.9935
   -28.9911 -28.9829 -28.9333 -28.9288 -28.9063 -28.8802 -28.8621 -28.8001
    -2.9852  -1.9107  -1.6896  -1.4328  -1.2484  -1.1969  -1.1762  -1.1477
    -0.9105  -0.8369  -0.6659  -0.5435  -0.5420  -0.4025  -0.1849  -0.1719
     0.2432   0.2602   0.4071   0.6678   0.9378   1.0930   1.1209   1.2161
     1.3240   1.5148   1.5210   1.6729   1.7197   1.7541   1.7604   1.8322
     1.9441   2.1363   2.1442   2.2107   2.4080   2.4426   2.5197   2.5231

          k = 0.0558-0.1289 0.0000 ( 19505 PWs)   bands (ev):

   -53.3476 -53.3122 -53.3052 -53.2772 -53.2717 -53.2476 -53.2142 -53.2104
   -53.1876 -53.1668 -53.1427 -53.0044 -29.6729 -29.6712 -29.6382 -29.6226
   -29.6145 -29.5982 -29.5609 -29.5430 -29.4933 -29.4685 -29.4401 -29.4106
   -29.4061 -29.3706 -29.3338 -29.2990 -29.2367 -29.2182 -29.2041 -29.2017
   -29.1562 -29.1289 -29.1183 -29.0877 -29.0631 -29.0504 -29.0297 -29.0196
   -28.9978 -28.9773 -28.9608 -28.9430 -28.9145 -28.8946 -28.8770 -28.8391
    -2.4957  -1.8664  -1.5491  -1.1952  -1.1315  -1.0008  -0.8703  -0.7996
    -0.6907  -0.4855  -0.4181  -0.2489  -0.1563  -0.0763  -0.0497   0.0740
     0.3717   0.3945   0.4429   0.5786   0.6552   0.8029   0.8648   0.9266
     1.0809   1.1364   1.3086   1.3994   1.4106   1.4609   1.5063   1.5574
     1.6291   1.8147   1.9017   1.9597   2.0521   2.2519   2.3382   2.5914

          k = 0.0558-0.0967 0.0000 ( 19521 PWs)   bands (ev):

   -53.3284 -53.3258 -53.2855 -53.2809 -53.2737 -53.2724 -53.2056 -53.2053
   -53.1858 -53.1790 -53.1406 -53.0049 -29.6362 -29.6237 -29.6046 -29.5767
   -29.5766 -29.5758 -29.5234 -29.5220 -29.4783 -29.4563 -29.4270 -29.4164
   -29.3846 -29.3652 -29.3615 -29.3368 -29.3277 -29.3254 -29.2041 -29.1906
   -29.1864 -29.1662 -29.1007 -29.0567 -29.0507 -29.0381 -29.0272 -29.0124
   -28.9933 -28.9907 -28.9659 -28.9624 -28.9541 -28.8971 -28.8925 -28.8739
    -2.0338  -1.7160  -1.7141  -1.3504  -0.8299  -0.8289  -0.6396  -0.4566
    -0.4131  -0.2692  -0.1191  -0.1119  -0.1025   0.1016   0.1102   0.2257
     0.3987   0.4362   0.4483   0.4488   0.4566   0.5381   0.5516   0.7422
     0.9684   0.9738   0.9885   1.0015   1.0205   1.2969   1.3090   1.5215
     1.5311   1.5414   1.5519   2.1596   2.1763   2.2735   2.4927   2.4970

          k = 0.0558-0.0645 0.0000 ( 19505 PWs)   bands (ev):

   -53.3477 -53.3121 -53.3051 -53.2772 -53.2717 -53.2477 -53.2143 -53.2103
   -53.1874 -53.1669 -53.1426 -53.0044 -29.6729 -29.6712 -29.6383 -29.6225
   -29.6144 -29.5982 -29.5610 -29.5430 -29.4933 -29.4683 -29.4403 -29.4106
   -29.4061 -29.3706 -29.3338 -29.2990 -29.2367 -29.2183 -29.2041 -29.2017
   -29.1562 -29.1288 -29.1182 -29.0877 -29.0632 -29.0504 -29.0297 -29.0195
   -28.9977 -28.9773 -28.9609 -28.9430 -28.9144 -28.8947 -28.8770 -28.8390
    -2.4957  -1.8664  -1.5491  -1.1952  -1.1315  -1.0008  -0.8704  -0.7996
    -0.6907  -0.4855  -0.4181  -0.2489  -0.1563  -0.0763  -0.0497   0.0740
     0.3717   0.3944   0.4429   0.5787   0.6551   0.8029   0.8648   0.9266
     1.0809   1.1364   1.3086   1.3994   1.4106   1.4609   1.5063   1.5574
     1.6291   1.8147   1.9017   1.9596   2.0521   2.2520   2.3382   2.5914

          k =-0.0837 0.0483 0.0000 ( 19524 PWs)   bands (ev):

   -53.3451 -53.3174 -53.2955 -53.2915 -53.2734 -53.2259 -53.2240 -53.2105
   -53.1945 -53.1598 -53.1456 -53.0044 -29.6664 -29.6587 -29.6557 -29.6446
   -29.6282 -29.6188 -29.5517 -29.5192 -29.5001 -29.4855 -29.4426 -29.3919
   -29.3382 -29.3127 -29.2967 -29.2880 -29.2775 -29.2548 -29.2101 -29.1825
   -29.1801 -29.1510 -29.1322 -29.1279 -29.0992 -29.0660 -29.0258 -29.0011
   -28.9886 -28.9829 -28.9617 -28.9424 -28.9034 -28.8866 -28.8676 -28.8220
    -2.3409  -2.1865  -1.5855  -1.2317  -1.0679  -0.8505  -0.7996  -0.7506
    -0.7492  -0.6507  -0.5698  -0.1212  -0.0628   0.0028   0.0783   0.0895
     0.0942   0.5490   0.5699   0.6282   0.6878   0.7159   0.8224   1.0972
     1.1890   1.2822   1.2992   1.4131   1.4349   1.4365   1.5047   1.5660
     1.6434   1.8102   1.8162   1.9379   1.9851   2.0078   2.3051   2.6257

          k =-0.0837 0.0806 0.0000 ( 19505 PWs)   bands (ev):

   -53.3477 -53.3121 -53.3051 -53.2773 -53.2717 -53.2477 -53.2142 -53.2104
   -53.1875 -53.1669 -53.1427 -53.0044 -29.6729 -29.6712 -29.6384 -29.6225
   -29.6144 -29.5982 -29.5610 -29.5430 -29.4933 -29.4684 -29.4401 -29.4107
   -29.4061 -29.3705 -29.3339 -29.2991 -29.2367 -29.2183 -29.2040 -29.2016
   -29.1562 -29.1289 -29.1183 -29.0877 -29.0631 -29.0504 -29.0296 -29.0196
   -28.9978 -28.9773 -28.9609 -28.9429 -28.9144 -28.8947 -28.8770 -28.8390
    -2.4957  -1.8664  -1.5491  -1.1952  -1.1315  -1.0008  -0.8704  -0.7996
    -0.6907  -0.4854  -0.4181  -0.2489  -0.1563  -0.0763  -0.0497   0.0740
     0.3717   0.3944   0.4429   0.5786   0.6552   0.8029   0.8648   0.9266
     1.0809   1.1364   1.3086   1.3995   1.4106   1.4609   1.5063   1.5574
     1.6291   1.8147   1.9017   1.9597   2.0521   2.2520   2.3382   2.5914

          k =-0.0837 0.1128 0.0000 ( 19505 PWs)   bands (ev):

   -53.3476 -53.3121 -53.3052 -53.2772 -53.2718 -53.2476 -53.2141 -53.2104
   -53.1876 -53.1667 -53.1427 -53.0044 -29.6729 -29.6712 -29.6382 -29.6226
   -29.6145 -29.5982 -29.5610 -29.5430 -29.4933 -29.4685 -29.4401 -29.4106
   -29.4061 -29.3706 -29.3338 -29.2990 -29.2368 -29.2182 -29.2041 -29.2017
   -29.1562 -29.1289 -29.1183 -29.0877 -29.0631 -29.0504 -29.0297 -29.0196
   -28.9978 -28.9773 -28.9608 -28.9430 -28.9145 -28.8946 -28.8770 -28.8391
    -2.4957  -1.8664  -1.5491  -1.1952  -1.1315  -1.0008  -0.8703  -0.7996
    -0.6907  -0.4855  -0.4181  -0.2489  -0.1563  -0.0763  -0.0497   0.0740
     0.3717   0.3945   0.4429   0.5786   0.6552   0.8029   0.8648   0.9266
     1.0809   1.1364   1.3086   1.3994   1.4106   1.4609   1.5063   1.5574
     1.6291   1.8147   1.9017   1.9597   2.0521   2.2519   2.3382   2.5914

          k =-0.0837-0.0483 0.0000 ( 19524 PWs)   bands (ev):

   -53.3449 -53.3176 -53.2953 -53.2918 -53.2732 -53.2255 -53.2243 -53.2105
   -53.1947 -53.1596 -53.1457 -53.0044 -29.6663 -29.6585 -29.6556 -29.6447
   -29.6284 -29.6188 -29.5515 -29.5194 -29.5002 -29.4855 -29.4425 -29.3918
   -29.3381 -29.3128 -29.2970 -29.2882 -29.2773 -29.2544 -29.2103 -29.1821
   -29.1802 -29.1511 -29.1322 -29.1281 -29.0992 -29.0660 -29.0256 -29.0012
   -28.9886 -28.9829 -28.9616 -28.9423 -28.9035 -28.8866 -28.8674 -28.8221
    -2.3409  -2.1865  -1.5855  -1.2317  -1.0679  -0.8505  -0.7996  -0.7505
    -0.7493  -0.6507  -0.5698  -0.1211  -0.0628   0.0027   0.0783   0.0895
     0.0941   0.5490   0.5698   0.6282   0.6880   0.7158   0.8225   1.0972
     1.1890   1.2823   1.2992   1.4130   1.4349   1.4365   1.5048   1.5659
     1.6433   1.8102   1.8162   1.9380   1.9852   2.0078   2.3051   2.6260

     the Fermi energy is     1.7590 ev

!    total energy              =   -1423.27149927 Ry
     Harris-Foulkes estimate   =   -1423.27150177 Ry
     estimated scf accuracy    <       0.00000585 Ry

     The total energy is the sum of the following terms:

     one-electron contribution =  -11439.37334839 Ry
     hartree contribution      =    5711.29378113 Ry
     xc contribution           =    -228.96430093 Ry
     ewald contribution        =    4533.89262555 Ry
     electric field correction =       0.00005083 Ry
     smearing contrib. (-TS)   =      -0.12030747 Ry

     convergence has been achieved in  18 iterations
 
 BEEF-vdW xc energy contributions
           1 :   -196.338393294097     
           2 :    178.523568927826     
           3 :   -148.153585871486     
           4 :    113.380741524873     
           5 :   -82.0515194147136     
           6 :    59.0704506981622     
           7 :   -45.3565455854197     
           8 :    38.5038858485449     
           9 :   -34.5858781144244     
          10 :    30.1260516926812     
          11 :   -23.4127135335077     
          12 :    14.7455481234117     
          13 :   -5.74954723164032     
          14 :   -1.76438203563768     
          15 :    6.77790436353092     
          16 :   -9.45829970114127     
          17 :    10.8654791361354     
          18 :   -12.2352442086919     
          19 :    14.2677862831416     
          20 :   -16.8075745317580     
          21 :    19.0337115497319     
          22 :   -20.0002240060130     
          23 :    19.1900881938059     
          24 :   -16.7890610062448     
          25 :    13.5639784256556     
          26 :   -10.4586231756040     
          27 :    8.14542523737776     
          28 :   -6.76987533444097     
          29 :    5.99235820883143     
          30 :   -5.27251405866747     
          31 :   -22.6275941959350     
          32 :   -17.0889398068630     

     Forces acting on atoms (Ry/au):


     negative rho (up, down):  4.939E-03 0.000E+00
     atom    1 type  1   force =    -0.00028756   -0.00016208   -0.00606446
     atom    2 type  1   force =     0.00028165   -0.00016658   -0.00609435
     atom    3 type  1   force =    -0.00000740    0.00032413   -0.00609936
     atom    4 type  1   force =     0.00000640    0.00000029   -0.00485509
     atom    5 type  1   force =     0.00001175    0.00278723   -0.00695455
     atom    6 type  1   force =    -0.00000630   -0.00000457    0.00036666
     atom    7 type  1   force =    -0.00242418   -0.00139681   -0.00695579
     atom    8 type  1   force =     0.00242016   -0.00138376   -0.00695428
     atom    9 type  1   force =    -0.00000416    0.00000376   -0.04429651
     atom   10 type  1   force =     0.00000379   -0.00297107    0.00202981
     atom   11 type  1   force =    -0.00257421    0.00148486    0.00204819
     atom   12 type  1   force =     0.00257892    0.00148345    0.00201218
     atom   13 type  2   force =     0.00000115    0.00000117    0.08181755

     Total force =     0.093248     Total SCF correction =     0.000895


     entering subroutine stress ...


     negative rho (up, down):  4.939E-03 0.000E+00
          total   stress  (Ry/bohr**3)                   (kbar)     P=  -18.31
  -0.00024057  -0.00000000   0.00000000        -35.39     -0.00      0.00
  -0.00000000  -0.00024056   0.00000000         -0.00    -35.39      0.00
   0.00000000   0.00000000   0.00010769          0.00      0.00     15.84


     BFGS Geometry Optimization

     number of scf cycles    =   1
     number of bfgs steps    =   0

     energy   new            =   -1423.2714992720 Ry

     new trust radius        =       0.0818175485 bohr
     new conv_thr            =       0.0000099958 Ry


ATOMIC_POSITIONS (crystal)
Nb1      0.166666667   0.166666667   0.402010442    0   0   0
Nb1      0.666666667   0.166666667   0.402010442    0   0   0
Nb1      0.166666667   0.666666667   0.402010442    0   0   0
Nb1      0.666666667   0.666666667   0.402010442    0   0   0
Nb1      0.833333333   0.333333333   0.500000000    0   0   0
Nb1      0.333333333   0.333333333   0.500000000    0   0   0
Nb1      0.833333333   0.833333333   0.500000000    0   0   0
Nb1      0.333333333   0.833333333   0.500000000    0   0   0
Nb1     -0.000000561   0.000000384   0.597047217
Nb1      0.500152369  -0.000304064   0.598032739
Nb1     -0.000304135   0.500151963   0.598033130
Nb1      0.500152661   0.500151819   0.598032364
H1       0.000000042   0.000000120   0.666363333



     Writing output data file calc.save
     Check: negative starting charge=   -0.005216
     NEW-OLD atomic charge density approx. for the potential
     Check: negative starting charge=   -0.005220

     negative rho (up, down):  4.944E-03 0.000E+00
 
     Adding external electric field

     Computed dipole along edir(3) : 
        Dipole               -0.1449 Ry au,         -0.3683 Debye
        Dipole field         -0.0004 Ry au
 
        Potential amp.        0.0322 Ry
        Total length         45.8317 bohr
 

     total cpu time spent up to now is      497.3 secs

     per-process dynamical memory:    81.5 Mb

     Self-consistent Calculation

     iteration #  1     ecut=    36.75 Ry     beta=0.30
     Davidson diagonalization with overlap
     ethr =  1.00E-06,  avg # of iterations =  6.8

     negative rho (up, down):  4.941E-03 0.000E+00
 
     Adding external electric field

     Computed dipole along edir(3) : 
        Dipole                0.1069 Ry au,          0.2717 Debye
        Dipole field          0.0003 Ry au
 
        Potential amp.       -0.0238 Ry
        Total length         45.8317 bohr
 

     total cpu time spent up to now is      525.7 secs

     total energy              =   -1423.27432111 Ry
     Harris-Foulkes estimate   =   -1423.27793688 Ry
     estimated scf accuracy    <       0.00752253 Ry

     iteration #  2     ecut=    36.75 Ry     beta=0.30
     Davidson diagonalization with overlap
     ethr =  4.79E-06,  avg # of iterations =  8.6

     negative rho (up, down):  4.959E-03 0.000E+00
 
     Adding external electric field

     Computed dipole along edir(3) : 
        Dipole               -0.1388 Ry au,         -0.3527 Debye
        Dipole field         -0.0003 Ry au
 
        Potential amp.        0.0308 Ry
        Total length         45.8317 bohr
 

     total cpu time spent up to now is      554.1 secs

     total energy              =   -1423.21553402 Ry
     Harris-Foulkes estimate   =   -1423.34067331 Ry
     estimated scf accuracy    <       7.02681181 Ry

     iteration #  3     ecut=    36.75 Ry     beta=0.30
     Davidson diagonalization with overlap
     ethr =  4.79E-06,  avg # of iterations =  7.2

     negative rho (up, down):  4.949E-03 0.000E+00
 
     Adding external electric field

     Computed dipole along edir(3) : 
        Dipole               -0.1399 Ry au,         -0.3556 Debye
        Dipole field         -0.0003 Ry au
 
        Potential amp.        0.0311 Ry
        Total length         45.8317 bohr
 

     total cpu time spent up to now is      580.0 secs

     total energy              =   -1423.27754239 Ry
     Harris-Foulkes estimate   =   -1423.27795394 Ry
     estimated scf accuracy    <       0.00315804 Ry

     iteration #  4     ecut=    36.75 Ry     beta=0.30
     Davidson diagonalization with overlap
     ethr =  2.01E-06,  avg # of iterations =  3.0

     negative rho (up, down):  4.944E-03 0.000E+00
 
     Adding external electric field

     Computed dipole along edir(3) : 
        Dipole               -0.1426 Ry au,         -0.3625 Debye
        Dipole field         -0.0003 Ry au
 
        Potential amp.        0.0317 Ry
        Total length         45.8317 bohr
 

     total cpu time spent up to now is      599.6 secs

     total energy              =   -1423.27770064 Ry
     Harris-Foulkes estimate   =   -1423.27780622 Ry
     estimated scf accuracy    <       0.00082861 Ry

     iteration #  5     ecut=    36.75 Ry     beta=0.30
     Davidson diagonalization with overlap
     ethr =  5.28E-07,  avg # of iterations =  4.3

     negative rho (up, down):  4.941E-03 0.000E+00
 
     Adding external electric field

     Computed dipole along edir(3) : 
        Dipole               -0.1479 Ry au,         -0.3760 Debye
        Dipole field         -0.0004 Ry au
 
        Potential amp.        0.0329 Ry
        Total length         45.8317 bohr
 

     total cpu time spent up to now is      620.7 secs

     total energy              =   -1423.27778597 Ry
     Harris-Foulkes estimate   =   -1423.27781461 Ry
     estimated scf accuracy    <       0.00035683 Ry

     iteration #  6     ecut=    36.75 Ry     beta=0.30
     Davidson diagonalization with overlap
     ethr =  2.27E-07,  avg # of iterations =  3.9

     negative rho (up, down):  4.940E-03 0.000E+00
 
     Adding external electric field

     Computed dipole along edir(3) : 
        Dipole               -0.1488 Ry au,         -0.3781 Debye
        Dipole field         -0.0004 Ry au
 
        Potential amp.        0.0331 Ry
        Total length         45.8317 bohr
 

     total cpu time spent up to now is      641.7 secs

     total energy              =   -1423.27780639 Ry
     Harris-Foulkes estimate   =   -1423.27781763 Ry
     estimated scf accuracy    <       0.00009948 Ry

     iteration #  7     ecut=    36.75 Ry     beta=0.30
     Davidson diagonalization with overlap
     ethr =  6.34E-08,  avg # of iterations =  4.3

     negative rho (up, down):  4.941E-03 0.000E+00
 
     Adding external electric field

     Computed dipole along edir(3) : 
        Dipole               -0.1470 Ry au,         -0.3737 Debye
        Dipole field         -0.0004 Ry au
 
        Potential amp.        0.0327 Ry
        Total length         45.8317 bohr
 

     total cpu time spent up to now is      664.2 secs

     total energy              =   -1423.27781859 Ry
     Harris-Foulkes estimate   =   -1423.27782006 Ry
     estimated scf accuracy    <       0.00002369 Ry

     iteration #  8     ecut=    36.75 Ry     beta=0.30
     Davidson diagonalization with overlap
     ethr =  1.51E-08,  avg # of iterations =  3.5

     negative rho (up, down):  4.943E-03 0.000E+00

     negative rho (up, down):  4.943E-03 0.000E+00

     negative rho (up, down):  4.943E-03 0.000E+00

     negative rho (up, down):  4.943E-03 0.000E+00

     negative rho (up, down):  4.943E-03 0.000E+00

     negative rho (up, down):  4.943E-03 0.000E+00

     negative rho (up, down):  4.943E-03 0.000E+00

     negative rho (up, down):  4.943E-03 0.000E+00

     negative rho (up, down):  4.943E-03 0.000E+00

     negative rho (up, down):  4.943E-03 0.000E+00

     negative rho (up, down):  4.943E-03 0.000E+00

     negative rho (up, down):  4.943E-03 0.000E+00

     negative rho (up, down):  4.943E-03 0.000E+00

     negative rho (up, down):  4.943E-03 0.000E+00

     negative rho (up, down):  4.943E-03 0.000E+00

     negative rho (up, down):  4.943E-03 0.000E+00

     negative rho (up, down):  4.943E-03 0.000E+00

     negative rho (up, down):  4.943E-03 0.000E+00

     negative rho (up, down):  4.943E-03 0.000E+00

     negative rho (up, down):  4.943E-03 0.000E+00

     negative rho (up, down):  4.943E-03 0.000E+00

     negative rho (up, down):  4.943E-03 0.000E+00

     negative rho (up, down):  4.943E-03 0.000E+00

     negative rho (up, down):  4.943E-03 0.000E+00

     negative rho (up, down):  4.943E-03 0.000E+00

     negative rho (up, down):  4.943E-03 0.000E+00

     negative rho (up, down):  4.943E-03 0.000E+00

     negative rho (up, down):  4.943E-03 0.000E+00

     negative rho (up, down):  4.943E-03 0.000E+00

     negative rho (up, down):  4.943E-03 0.000E+00

     negative rho (up, down):  4.943E-03 0.000E+00

     negative rho (up, down):  4.943E-03 0.000E+00

     negative rho (up, down):  4.943E-03 0.000E+00

     negative rho (up, down):  4.943E-03 0.000E+00

     negative rho (up, down):  4.943E-03 0.000E+00
 
     Adding external electric field

     Computed dipole along edir(3) : 
        Dipole               -0.1450 Ry au,         -0.3687 Debye
        Dipole field         -0.0004 Ry au
 
        Potential amp.        0.0322 Ry
        Total length         45.8317 bohr
 

     total cpu time spent up to now is      740.3 secs

     End of self-consistent calculation

          k = 0.0000 0.0000 0.0000 ( 19435 PWs)   bands (ev):

   -53.4051 -53.3623 -53.2826 -53.2822 -53.2540 -53.2319 -53.2316 -53.2292
   -53.1776 -53.1474 -53.1470 -53.0335 -29.8326 -29.8325 -29.8314 -29.7886
   -29.7600 -29.7600 -29.7454 -29.7218 -29.7059 -29.7058 -29.4562 -29.3506
   -29.3503 -29.2772 -29.2692 -29.2690 -29.1574 -29.1521 -29.1241 -29.1240
   -29.0756 -29.0478 -29.0477 -29.0301 -29.0300 -29.0260 -28.9501 -28.9430
   -28.9429 -28.8993 -28.8815 -28.8815 -28.8355 -28.8355 -28.7722 -28.7722
    -3.7822  -2.5301  -1.9744  -1.8071  -1.8071  -1.7932  -1.7066  -1.4863
    -1.4863  -1.2224  -1.1017  -1.1017  -1.0272  -1.0077  -1.0077  -0.6949
     0.0822   0.1101   0.1102   1.1315   1.1625   1.1625   1.2345   1.5460
     1.8560   1.8560   1.9386   2.0963   2.0963   2.1103   2.1104   2.1830
     2.1876   2.1876   2.2469   2.2469   2.5593   2.9728   3.0213   3.0215

          k = 0.0000 0.0322 0.0000 ( 19477 PWs)   bands (ev):

   -53.3965 -53.3544 -53.2887 -53.2826 -53.2485 -53.2406 -53.2317 -53.2298
   -53.1791 -53.1518 -53.1470 -53.0344 -29.8017 -29.8009 -29.7801 -29.7693
   -29.7328 -29.7278 -29.7120 -29.6886 -29.6744 -29.6552 -29.4546 -29.3812
   -29.3653 -29.2946 -29.2590 -29.2560 -29.1740 -29.1688 -29.1353 -29.1286
   -29.1069 -29.0932 -29.0430 -29.0277 -29.0148 -29.0126 -28.9814 -28.9787
   -28.9363 -28.9356 -28.9156 -28.8978 -28.8619 -28.8482 -28.8268 -28.7823
    -3.5661  -2.3230  -1.7530  -1.7170  -1.6412  -1.6333  -1.6099  -1.4089
    -1.3183  -1.1191  -0.9812  -0.9633  -0.8996  -0.8037  -0.7794  -0.6108
     0.1310   0.1522   0.1895   1.0705   1.2178   1.2390   1.2700   1.4481
     1.5796   1.7150   1.7408   1.8526   2.0082   2.0471   2.1388   2.1533
     2.1964   2.2365   2.2532   2.3499   2.4452   2.6843   2.7161   2.7168

          k = 0.0000 0.0645 0.0000 ( 19509 PWs)   bands (ev):

   -53.3740 -53.3327 -53.3067 -53.2827 -53.2673 -53.2336 -53.2318 -53.2282
   -53.1865 -53.1600 -53.1469 -53.0363 -29.7248 -29.7242 -29.7191 -29.6702
   -29.6699 -29.6487 -29.6257 -29.6146 -29.5958 -29.5078 -29.4577 -29.4196
   -29.4064 -29.3399 -29.2452 -29.2333 -29.2322 -29.2043 -29.2007 -29.1916
   -29.1451 -29.1058 -29.0814 -29.0780 -29.0590 -29.0490 -29.0093 -28.9986
   -28.9982 -28.9886 -28.9412 -28.9382 -28.9120 -28.8764 -28.8761 -28.8092
    -2.9840  -1.8778  -1.6966  -1.4158  -1.2430  -1.2078  -1.1828  -1.1438
    -0.9197  -0.8396  -0.6692  -0.5513  -0.5493  -0.4013  -0.1981  -0.1734
     0.2376   0.2519   0.4046   0.6591   0.9339   1.0871   1.1138   1.2123
     1.3174   1.5111   1.5152   1.6676   1.7135   1.7479   1.7502   1.8224
     1.9394   2.1236   2.1419   2.2091   2.4032   2.4298   2.5135   2.5167

          k = 0.0000-0.0967 0.0000 ( 19524 PWs)   bands (ev):

   -53.3538 -53.3260 -53.3021 -53.2984 -53.2827 -53.2319 -53.2312 -53.2166
   -53.1974 -53.1632 -53.1469 -53.0372 -29.6735 -29.6646 -29.6632 -29.6501
   -29.6395 -29.6258 -29.5585 -29.5323 -29.5071 -29.4930 -29.4496 -29.4010
   -29.3480 -29.3197 -29.3042 -29.2951 -29.2860 -29.2625 -29.2184 -29.1930
   -29.1894 -29.1580 -29.1386 -29.1299 -29.1155 -29.0725 -29.0317 -29.0074
   -28.9964 -28.9886 -28.9683 -28.9500 -28.9180 -28.8800 -28.8729 -28.8333
    -2.3186  -2.1928  -1.5376  -1.2383  -1.0551  -0.8606  -0.8048  -0.7598
    -0.7586  -0.6610  -0.5686  -0.1270  -0.0708  -0.0025   0.0743   0.0758
     0.0841   0.5457   0.5636   0.6216   0.6812   0.7083   0.8035   1.0986
     1.1829   1.2784   1.2867   1.4035   1.4239   1.4292   1.5084   1.5522
     1.6472   1.7995   1.8130   1.9347   1.9896   1.9942   2.3168   2.6175

          k = 0.0279-0.0161 0.0000 ( 19477 PWs)   bands (ev):

   -53.3965 -53.3544 -53.2891 -53.2822 -53.2485 -53.2406 -53.2318 -53.2297
   -53.1792 -53.1514 -53.1473 -53.0344 -29.8017 -29.8009 -29.7802 -29.7693
   -29.7328 -29.7277 -29.7120 -29.6886 -29.6745 -29.6552 -29.4546 -29.3814
   -29.3651 -29.2946 -29.2590 -29.2560 -29.1740 -29.1687 -29.1354 -29.1287
   -29.1068 -29.0934 -29.0430 -29.0275 -29.0148 -29.0126 -28.9814 -28.9788
   -28.9363 -28.9355 -28.9156 -28.8979 -28.8619 -28.8483 -28.8267 -28.7823
    -3.5661  -2.3230  -1.7530  -1.7170  -1.6412  -1.6333  -1.6099  -1.4089
    -1.3183  -1.1191  -0.9812  -0.9632  -0.8996  -0.8037  -0.7794  -0.6108
     0.1311   0.1522   0.1895   1.0706   1.2177   1.2390   1.2700   1.4481
     1.5796   1.7149   1.7408   1.8527   2.0082   2.0471   2.1388   2.1533
     2.1964   2.2365   2.2532   2.3499   2.4452   2.6842   2.7160   2.7169

          k = 0.0279 0.0161 0.0000 ( 19477 PWs)   bands (ev):

   -53.3965 -53.3544 -53.2889 -53.2825 -53.2485 -53.2406 -53.2320 -53.2296
   -53.1792 -53.1515 -53.1472 -53.0344 -29.8016 -29.8009 -29.7801 -29.7693
   -29.7328 -29.7277 -29.7120 -29.6886 -29.6743 -29.6552 -29.4546 -29.3812
   -29.3652 -29.2945 -29.2591 -29.2560 -29.1741 -29.1687 -29.1353 -29.1287
   -29.1068 -29.0932 -29.0430 -29.0276 -29.0147 -29.0127 -28.9814 -28.9788
   -28.9363 -28.9355 -28.9156 -28.8978 -28.8619 -28.8483 -28.8267 -28.7823
    -3.5661  -2.3230  -1.7530  -1.7170  -1.6412  -1.6333  -1.6099  -1.4089
    -1.3183  -1.1191  -0.9812  -0.9633  -0.8996  -0.8037  -0.7794  -0.6108
     0.1310   0.1522   0.1895   1.0705   1.2177   1.2390   1.2700   1.4481
     1.5796   1.7150   1.7407   1.8527   2.0082   2.0471   2.1388   2.1533
     2.1964   2.2365   2.2532   2.3499   2.4452   2.6843   2.7160   2.7169

          k = 0.0279 0.0483 0.0000 ( 19485 PWs)   bands (ev):

   -53.3809 -53.3395 -53.3001 -53.2837 -53.2518 -53.2478 -53.2359 -53.2222
   -53.1827 -53.1600 -53.1458 -53.0358 -29.7610 -29.7353 -29.7120 -29.7084
   -29.6849 -29.6730 -29.6553 -29.6443 -29.5833 -29.5821 -29.4556 -29.4152
   -29.3957 -29.3273 -29.2546 -29.2402 -29.2349 -29.2284 -29.1450 -29.1273
   -29.1177 -29.0965 -29.0817 -29.0713 -29.0445 -29.0273 -29.0107 -28.9897
   -28.9796 -28.9635 -28.9511 -28.9237 -28.9140 -28.8723 -28.8621 -28.8100
    -3.1635  -1.9727  -1.5520  -1.4986  -1.4340  -1.3446  -1.2923  -1.2804
    -1.0853  -0.8558  -0.7563  -0.6775  -0.5942  -0.5638  -0.4384  -0.2973
     0.1958   0.2644   0.2877   0.8290   1.1288   1.1738   1.1868   1.2415
     1.3428   1.3644   1.6296   1.6493   1.8423   1.8726   1.9426   2.0032
     2.0121   2.1113   2.2636   2.3269   2.3548   2.4430   2.5124   2.6196

          k = 0.0279-0.1128 0.0000 ( 19505 PWs)   bands (ev):

   -53.3564 -53.3206 -53.3122 -53.2859 -53.2790 -53.2541 -53.2202 -53.2167
   -53.1911 -53.1697 -53.1442 -53.0373 -29.6803 -29.6781 -29.6450 -29.6307
   -29.6235 -29.6044 -29.5687 -29.5503 -29.5033 -29.4761 -29.4479 -29.4188
   -29.4157 -29.3797 -29.3423 -29.3078 -29.2458 -29.2258 -29.2122 -29.2093
   -29.1621 -29.1380 -29.1246 -29.0964 -29.0713 -29.0577 -29.0348 -29.0268
   -29.0054 -28.9846 -28.9691 -28.9498 -28.9233 -28.9030 -28.8744 -28.8486
    -2.4873  -1.8384  -1.5200  -1.1985  -1.1356  -1.0009  -0.8800  -0.8008
    -0.6982  -0.4951  -0.4239  -0.2567  -0.1624  -0.0856  -0.0578   0.0671
     0.3655   0.3871   0.4346   0.5742   0.6455   0.7964   0.8569   0.9232
     1.0678   1.1350   1.3010   1.3893   1.4039   1.4546   1.5084   1.5470
     1.6347   1.8047   1.8995   1.9559   2.0448   2.2523   2.3301   2.5814

          k = 0.0279-0.0806 0.0000 ( 19505 PWs)   bands (ev):

   -53.3564 -53.3207 -53.3122 -53.2860 -53.2789 -53.2541 -53.2201 -53.2167
   -53.1911 -53.1697 -53.1442 -53.0373 -29.6803 -29.6781 -29.6450 -29.6307
   -29.6235 -29.6044 -29.5686 -29.5503 -29.5033 -29.4762 -29.4478 -29.4189
   -29.4157 -29.3796 -29.3424 -29.3079 -29.2457 -29.2258 -29.2121 -29.2093
   -29.1621 -29.1380 -29.1247 -29.0964 -29.0712 -29.0577 -29.0348 -29.0268
   -29.0054 -28.9846 -28.9691 -28.9498 -28.9234 -28.9030 -28.8744 -28.8486
    -2.4873  -1.8384  -1.5201  -1.1985  -1.1357  -1.0009  -0.8800  -0.8008
    -0.6982  -0.4951  -0.4239  -0.2567  -0.1624  -0.0856  -0.0578   0.0671
     0.3655   0.3871   0.4346   0.5742   0.6455   0.7964   0.8569   0.9232
     1.0679   1.1350   1.3010   1.3893   1.4038   1.4546   1.5084   1.5470
     1.6347   1.8047   1.8994   1.9559   2.0448   2.2523   2.3301   2.5814

          k = 0.0279-0.0483 0.0000 ( 19485 PWs)   bands (ev):

   -53.3808 -53.3395 -53.3003 -53.2835 -53.2519 -53.2477 -53.2359 -53.2222
   -53.1828 -53.1600 -53.1459 -53.0358 -29.7610 -29.7353 -29.7120 -29.7084
   -29.6849 -29.6730 -29.6552 -29.6443 -29.5834 -29.5820 -29.4555 -29.4153
   -29.3955 -29.3273 -29.2546 -29.2403 -29.2349 -29.2284 -29.1450 -29.1273
   -29.1177 -29.0964 -29.0818 -29.0713 -29.0445 -29.0273 -29.0107 -28.9896
   -28.9796 -28.9635 -28.9510 -28.9237 -28.9140 -28.8723 -28.8621 -28.8100
    -3.1635  -1.9727  -1.5520  -1.4986  -1.4340  -1.3446  -1.2923  -1.2804
    -1.0853  -0.8558  -0.7563  -0.6775  -0.5942  -0.5638  -0.4384  -0.2973
     0.1959   0.2644   0.2877   0.8290   1.1288   1.1738   1.1868   1.2415
     1.3428   1.3643   1.6297   1.6492   1.8423   1.8726   1.9426   2.0032
     2.0121   2.1113   2.2636   2.3269   2.3548   2.4430   2.5124   2.6196

          k = 0.0558-0.0322 0.0000 ( 19509 PWs)   bands (ev):

   -53.3739 -53.3327 -53.3071 -53.2823 -53.2673 -53.2337 -53.2319 -53.2281
   -53.1867 -53.1596 -53.1472 -53.0363 -29.7248 -29.7241 -29.7190 -29.6703
   -29.6700 -29.6487 -29.6257 -29.6146 -29.5960 -29.5078 -29.4577 -29.4198
   -29.4063 -29.3398 -29.2451 -29.2331 -29.2324 -29.2043 -29.2008 -29.1918
   -29.1451 -29.1057 -29.0815 -29.0780 -29.0589 -29.0491 -29.0093 -28.9986
   -28.9982 -28.9885 -28.9413 -28.9381 -28.9119 -28.8765 -28.8761 -28.8093
    -2.9840  -1.8778  -1.6966  -1.4157  -1.2431  -1.2078  -1.1828  -1.1438
    -0.9197  -0.8396  -0.6692  -0.5513  -0.5493  -0.4013  -0.1981  -0.1734
     0.2377   0.2518   0.4046   0.6590   0.9339   1.0871   1.1138   1.2123
     1.3174   1.5111   1.5152   1.6677   1.7135   1.7479   1.7502   1.8224
     1.9395   2.1236   2.1418   2.2091   2.4032   2.4298   2.5136   2.5167

          k = 0.0558 0.0000 0.0000 ( 19485 PWs)   bands (ev):

   -53.3808 -53.3395 -53.3005 -53.2834 -53.2517 -53.2478 -53.2359 -53.2222
   -53.1828 -53.1598 -53.1460 -53.0358 -29.7610 -29.7352 -29.7119 -29.7084
   -29.6850 -29.6730 -29.6552 -29.6443 -29.5834 -29.5820 -29.4555 -29.4154
   -29.3955 -29.3272 -29.2546 -29.2403 -29.2349 -29.2284 -29.1450 -29.1273
   -29.1177 -29.0964 -29.0818 -29.0713 -29.0445 -29.0273 -29.0109 -28.9896
   -28.9795 -28.9634 -28.9511 -28.9237 -28.9140 -28.8723 -28.8621 -28.8100
    -3.1635  -1.9727  -1.5520  -1.4986  -1.4340  -1.3446  -1.2923  -1.2804
    -1.0854  -0.8558  -0.7563  -0.6775  -0.5942  -0.5638  -0.4384  -0.2973
     0.1959   0.2644   0.2878   0.8290   1.1288   1.1738   1.1867   1.2415
     1.3428   1.3643   1.6297   1.6492   1.8423   1.8727   1.9425   2.0032
     2.0121   2.1113   2.2636   2.3269   2.3549   2.4430   2.5124   2.6196

          k = 0.0558 0.0322 0.0000 ( 19509 PWs)   bands (ev):

   -53.3740 -53.3327 -53.3068 -53.2826 -53.2672 -53.2336 -53.2320 -53.2280
   -53.1866 -53.1596 -53.1472 -53.0363 -29.7248 -29.7241 -29.7190 -29.6702
   -29.6699 -29.6487 -29.6257 -29.6147 -29.5958 -29.5078 -29.4577 -29.4196
   -29.4065 -29.3398 -29.2452 -29.2333 -29.2323 -29.2042 -29.2009 -29.1916
   -29.1450 -29.1057 -29.0815 -29.0780 -29.0590 -29.0490 -29.0093 -28.9987
   -28.9982 -28.9886 -28.9413 -28.9382 -28.9119 -28.8764 -28.8761 -28.8093
    -2.9840  -1.8778  -1.6966  -1.4158  -1.2431  -1.2077  -1.1828  -1.1438
    -0.9197  -0.8396  -0.6692  -0.5513  -0.5493  -0.4013  -0.1981  -0.1735
     0.2376   0.2519   0.4046   0.6590   0.9339   1.0871   1.1138   1.2123
     1.3174   1.5111   1.5152   1.6676   1.7135   1.7479   1.7503   1.8224
     1.9395   2.1236   2.1418   2.2091   2.4032   2.4298   2.5135   2.5168

          k = 0.0558-0.1289 0.0000 ( 19505 PWs)   bands (ev):

   -53.3564 -53.3207 -53.3122 -53.2859 -53.2789 -53.2542 -53.2202 -53.2166
   -53.1912 -53.1695 -53.1443 -53.0373 -29.6803 -29.6780 -29.6449 -29.6306
   -29.6236 -29.6045 -29.5687 -29.5503 -29.5034 -29.4761 -29.4479 -29.4188
   -29.4157 -29.3796 -29.3423 -29.3078 -29.2458 -29.2257 -29.2123 -29.2093
   -29.1621 -29.1380 -29.1247 -29.0962 -29.0713 -29.0577 -29.0348 -29.0268
   -29.0054 -28.9845 -28.9692 -28.9498 -28.9232 -28.9029 -28.8744 -28.8486
    -2.4873  -1.8384  -1.5201  -1.1985  -1.1356  -1.0009  -0.8799  -0.8009
    -0.6983  -0.4951  -0.4239  -0.2567  -0.1624  -0.0856  -0.0578   0.0671
     0.3655   0.3871   0.4346   0.5742   0.6455   0.7964   0.8569   0.9232
     1.0679   1.1351   1.3010   1.3893   1.4039   1.4546   1.5084   1.5470
     1.6347   1.8047   1.8995   1.9559   2.0448   2.2523   2.3301   2.5814

          k = 0.0558-0.0967 0.0000 ( 19521 PWs)   bands (ev):

   -53.3369 -53.3351 -53.2929 -53.2875 -53.2805 -53.2804 -53.2122 -53.2121
   -53.1889 -53.1812 -53.1422 -53.0378 -29.6438 -29.6323 -29.6110 -29.5859
   -29.5829 -29.5827 -29.5289 -29.5287 -29.4862 -29.4638 -29.4351 -29.4239
   -29.3951 -29.3727 -29.3688 -29.3452 -29.3401 -29.3397 -29.2124 -29.1983
   -29.1919 -29.1715 -29.1068 -29.0658 -29.0599 -29.0434 -29.0327 -29.0189
   -29.0013 -28.9996 -28.9736 -28.9666 -28.9656 -28.9061 -28.9044 -28.8686
    -1.9758  -1.7223  -1.7214  -1.3188  -0.8391  -0.8346  -0.6406  -0.4713
    -0.4188  -0.2796  -0.1247  -0.1223  -0.1144   0.0949   0.1055   0.2174
     0.3924   0.4262   0.4345   0.4428   0.4468   0.5264   0.5370   0.7534
     0.9608   0.9667   0.9864   0.9952   1.0093   1.2894   1.3316   1.5144
     1.5251   1.5321   1.5413   2.1626   2.1753   2.2703   2.4862   2.4866

          k = 0.0558-0.0645 0.0000 ( 19505 PWs)   bands (ev):

   -53.3562 -53.3209 -53.3123 -53.2857 -53.2789 -53.2541 -53.2201 -53.2167
   -53.1913 -53.1694 -53.1443 -53.0373 -29.6803 -29.6780 -29.6448 -29.6307
   -29.6236 -29.6045 -29.5687 -29.5503 -29.5034 -29.4763 -29.4478 -29.4188
   -29.4157 -29.3796 -29.3423 -29.3079 -29.2458 -29.2257 -29.2123 -29.2093
   -29.1621 -29.1379 -29.1247 -29.0962 -29.0712 -29.0577 -29.0348 -29.0268
   -29.0053 -28.9845 -28.9692 -28.9497 -28.9233 -28.9029 -28.8744 -28.8487
    -2.4873  -1.8384  -1.5201  -1.1985  -1.1356  -1.0009  -0.8799  -0.8009
    -0.6983  -0.4951  -0.4239  -0.2567  -0.1624  -0.0856  -0.0578   0.0671
     0.3655   0.3871   0.4346   0.5742   0.6455   0.7964   0.8569   0.9232
     1.0679   1.1350   1.3010   1.3893   1.4039   1.4546   1.5084   1.5470
     1.6347   1.8047   1.8995   1.9560   2.0448   2.2523   2.3301   2.5814

          k =-0.0837 0.0483 0.0000 ( 19524 PWs)   bands (ev):

   -53.3535 -53.3266 -53.3021 -53.2984 -53.2824 -53.2319 -53.2311 -53.2165
   -53.1976 -53.1627 -53.1472 -53.0373 -29.6734 -29.6643 -29.6630 -29.6503
   -29.6397 -29.6260 -29.5585 -29.5325 -29.5070 -29.4932 -29.4495 -29.4008
   -29.3478 -29.3199 -29.3043 -29.2954 -29.2857 -29.2624 -29.2184 -29.1931
   -29.1893 -29.1580 -29.1387 -29.1301 -29.1153 -29.0725 -29.0314 -29.0075
   -28.9964 -28.9887 -28.9682 -28.9498 -28.9182 -28.8800 -28.8727 -28.8336
    -2.3187  -2.1927  -1.5376  -1.2382  -1.0552  -0.8605  -0.8049  -0.7597
    -0.7588  -0.6611  -0.5685  -0.1269  -0.0709  -0.0025   0.0743   0.0758
     0.0842   0.5456   0.5636   0.6215   0.6813   0.7082   0.8036   1.0986
     1.1830   1.2784   1.2867   1.4035   1.4239   1.4291   1.5084   1.5522
     1.6473   1.7995   1.8130   1.9348   1.9896   1.9942   2.3168   2.6176

          k =-0.0837 0.0806 0.0000 ( 19505 PWs)   bands (ev):

   -53.3562 -53.3210 -53.3123 -53.2857 -53.2789 -53.2542 -53.2202 -53.2166
   -53.1913 -53.1693 -53.1444 -53.0373 -29.6803 -29.6780 -29.6448 -29.6308
   -29.6236 -29.6045 -29.5687 -29.5503 -29.5034 -29.4763 -29.4478 -29.4188
   -29.4157 -29.3796 -29.3423 -29.3078 -29.2458 -29.2257 -29.2122 -29.2093
   -29.1621 -29.1380 -29.1247 -29.0963 -29.0712 -29.0577 -29.0348 -29.0268
   -29.0054 -28.9845 -28.9691 -28.9497 -28.9233 -28.9029 -28.8744 -28.8487
    -2.4873  -1.8384  -1.5201  -1.1985  -1.1356  -1.0009  -0.8799  -0.8009
    -0.6983  -0.4951  -0.4239  -0.2566  -0.1624  -0.0856  -0.0579   0.0671
     0.3655   0.3871   0.4346   0.5741   0.6455   0.7964   0.8569   0.9232
     1.0679   1.1350   1.3010   1.3893   1.4038   1.4545   1.5084   1.5470
     1.6347   1.8047   1.8995   1.9560   2.0448   2.2523   2.3301   2.5814

          k =-0.0837 0.1128 0.0000 ( 19505 PWs)   bands (ev):

   -53.3563 -53.3208 -53.3122 -53.2858 -53.2789 -53.2542 -53.2202 -53.2166
   -53.1913 -53.1694 -53.1444 -53.0373 -29.6803 -29.6780 -29.6449 -29.6308
   -29.6235 -29.6045 -29.5687 -29.5503 -29.5033 -29.4762 -29.4478 -29.4189
   -29.4157 -29.3796 -29.3424 -29.3079 -29.2457 -29.2258 -29.2122 -29.2093
   -29.1621 -29.1381 -29.1247 -29.0963 -29.0712 -29.0577 -29.0348 -29.0268
   -29.0054 -28.9845 -28.9692 -28.9497 -28.9233 -28.9029 -28.8744 -28.8487
    -2.4873  -1.8384  -1.5201  -1.1985  -1.1356  -1.0009  -0.8799  -0.8009
    -0.6983  -0.4951  -0.4239  -0.2566  -0.1624  -0.0856  -0.0578   0.0671
     0.3655   0.3871   0.4346   0.5741   0.6455   0.7964   0.8569   0.9232
     1.0679   1.1350   1.3010   1.3893   1.4038   1.4546   1.5085   1.5470
     1.6347   1.8047   1.8995   1.9560   2.0448   2.2523   2.3301   2.5814

          k =-0.0837-0.0483 0.0000 ( 19524 PWs)   bands (ev):

   -53.3537 -53.3262 -53.3021 -53.2983 -53.2826 -53.2321 -53.2310 -53.2165
   -53.1976 -53.1628 -53.1471 -53.0372 -29.6735 -29.6644 -29.6631 -29.6502
   -29.6395 -29.6260 -29.5586 -29.5323 -29.5070 -29.4931 -29.4496 -29.4008
   -29.3479 -29.3198 -29.3042 -29.2951 -29.2859 -29.2626 -29.2183 -29.1930
   -29.1895 -29.1580 -29.1386 -29.1301 -29.1153 -29.0725 -29.0316 -29.0075
   -28.9963 -28.9887 -28.9683 -28.9498 -28.9181 -28.8800 -28.8728 -28.8335
    -2.3187  -2.1928  -1.5376  -1.2382  -1.0552  -0.8605  -0.8049  -0.7598
    -0.7587  -0.6610  -0.5686  -0.1269  -0.0709  -0.0024   0.0742   0.0758
     0.0841   0.5456   0.5636   0.6215   0.6812   0.7083   0.8036   1.0986
     1.1830   1.2784   1.2867   1.4036   1.4239   1.4292   1.5083   1.5522
     1.6473   1.7995   1.8130   1.9347   1.9896   1.9942   2.3168   2.6171

     the Fermi energy is     1.7532 ev

!    total energy              =   -1423.27781880 Ry
     Harris-Foulkes estimate   =   -1423.27782271 Ry
     estimated scf accuracy    <       0.00000553 Ry

     The total energy is the sum of the following terms:

     one-electron contribution =  -11445.30481177 Ry
     hartree contribution      =    5714.22803269 Ry
     xc contribution           =    -228.94839429 Ry
     ewald contribution        =    4536.86787317 Ry
     electric field correction =       0.00005101 Ry
     smearing contrib. (-TS)   =      -0.12056961 Ry

     convergence has been achieved in   8 iterations
 
 BEEF-vdW xc energy contributions
           1 :   -196.323759189622     
           2 :    178.510481992743     
           3 :   -148.144331055160     
           4 :    113.376878639037     
           5 :   -82.0521248022952     
           6 :    59.0724951519592     
           7 :   -45.3574001442474     
           8 :    38.5040252108394     
           9 :   -34.5890549864030     
          10 :    30.1363703034596     
          11 :   -23.4310079189406     
          12 :    14.7678676412608     
          13 :   -5.76890431720511     
          14 :   -1.75396330569026     
          15 :    6.77772146913239     
          16 :   -9.46404573392294     
          17 :    10.8695812721103     
          18 :   -12.2310906728703     
          19 :    14.2535942200841     
          20 :   -16.7874536904456     
          21 :    19.0152588771623     
          22 :   -19.9904570935441     
          23 :    19.1916672524005     
          24 :   -16.7988818625024     
          25 :    13.5752927217645     
          26 :   -10.4651811683035     
          27 :    8.14484939350552     
          28 :   -6.76465627759956     
          29 :    5.98803890944828     
          30 :   -5.27406135254017     
          31 :   -22.6266837094693     
          32 :   -17.0885814383690     

     Forces acting on atoms (Ry/au):


     negative rho (up, down):  4.943E-03 0.000E+00
     atom    1 type  1   force =    -0.00011349   -0.00005417   -0.00593927
     atom    2 type  1   force =     0.00011206   -0.00005118   -0.00593197
     atom    3 type  1   force =     0.00000172    0.00011807   -0.00593670
     atom    4 type  1   force =    -0.00000050   -0.00001225   -0.00436881
     atom    5 type  1   force =     0.00000428    0.00339168   -0.00874868
     atom    6 type  1   force =    -0.00000354    0.00001345    0.00105950
     atom    7 type  1   force =    -0.00293392   -0.00170892   -0.00879463
     atom    8 type  1   force =     0.00293145   -0.00170488   -0.00878696
     atom    9 type  1   force =    -0.00000179    0.00001264   -0.00844944
     atom   10 type  1   force =     0.00000096   -0.00178954    0.00340381
     atom   11 type  1   force =    -0.00156157    0.00089136    0.00341561
     atom   12 type  1   force =     0.00156182    0.00089170    0.00339808
     atom   13 type  2   force =     0.00000252    0.00000204    0.04567947

     Total force =     0.046931     Total SCF correction =     0.001919


     entering subroutine stress ...


     negative rho (up, down):  4.943E-03 0.000E+00
          total   stress  (Ry/bohr**3)                   (kbar)     P=  -18.81
  -0.00023749   0.00000000   0.00000001        -34.94      0.00      0.00
   0.00000000  -0.00023748   0.00000001          0.00    -34.93      0.00
   0.00000001   0.00000001   0.00009136          0.00      0.00     13.44


     number of scf cycles    =   2
     number of bfgs steps    =   1

     energy   old            =   -1423.2714992720 Ry
     energy   new            =   -1423.2778187982 Ry

     CASE: energy  _new < energy  _old

     new trust radius        =       0.0950411097 bohr
     new conv_thr            =       0.0000001000 Ry


ATOMIC_POSITIONS (crystal)
Nb1      0.166666667   0.166666667   0.402010442    0   0   0
Nb1      0.666666667   0.166666667   0.402010442    0   0   0
Nb1      0.166666667   0.666666667   0.402010442    0   0   0
Nb1      0.666666667   0.666666667   0.402010442    0   0   0
Nb1      0.833333333   0.333333333   0.500000000    0   0   0
Nb1      0.333333333   0.333333333   0.500000000    0   0   0
Nb1      0.833333333   0.833333333   0.500000000    0   0   0
Nb1      0.333333333   0.833333333   0.500000000    0   0   0
Nb1     -0.000002153   0.000002894   0.596614965
Nb1      0.500341963  -0.000682864   0.598175272
Nb1     -0.000684606   0.500340689   0.598176180
Nb1      0.500344462   0.500340598   0.598174629
H1       0.000000273   0.000000531   0.668385187



     Writing output data file calc.save
     Check: negative starting charge=   -0.005220
     NEW-OLD atomic charge density approx. for the potential
     Check: negative starting charge=   -0.005215

     negative rho (up, down):  4.938E-03 0.000E+00
 
     Adding external electric field

     Computed dipole along edir(3) : 
        Dipole               -0.1450 Ry au,         -0.3687 Debye
        Dipole field         -0.0004 Ry au
 
        Potential amp.        0.0322 Ry
        Total length         45.8317 bohr
 

     total cpu time spent up to now is      819.6 secs

     per-process dynamical memory:    81.5 Mb

     Self-consistent Calculation

     iteration #  1     ecut=    36.75 Ry     beta=0.30
     Davidson diagonalization with overlap
     ethr =  1.00E-06,  avg # of iterations =  4.8

     negative rho (up, down):  4.935E-03 0.000E+00
 
     Adding external electric field

     Computed dipole along edir(3) : 
        Dipole               -0.1665 Ry au,         -0.4233 Debye
        Dipole field         -0.0004 Ry au
 
        Potential amp.        0.0370 Ry
        Total length         45.8317 bohr
 

     total cpu time spent up to now is      849.1 secs

     total energy              =   -1423.28057534 Ry
     Harris-Foulkes estimate   =   -1423.28096883 Ry
     estimated scf accuracy    <       0.00118577 Ry

     iteration #  2     ecut=    36.75 Ry     beta=0.30
     Davidson diagonalization with overlap
     ethr =  7.55E-07,  avg # of iterations =  6.5

     negative rho (up, down):  4.934E-03 0.000E+00
 
     Adding external electric field

     Computed dipole along edir(3) : 
        Dipole               -0.1226 Ry au,         -0.3116 Debye
        Dipole field         -0.0003 Ry au
 
        Potential amp.        0.0273 Ry
        Total length         45.8317 bohr
 

     total cpu time spent up to now is      874.3 secs

     total energy              =   -1423.27959617 Ry
     Harris-Foulkes estimate   =   -1423.28159781 Ry
     estimated scf accuracy    <       0.05009804 Ry

     iteration #  3     ecut=    36.75 Ry     beta=0.30
     Davidson diagonalization with overlap
     ethr =  7.55E-07,  avg # of iterations =  5.6

     negative rho (up, down):  4.934E-03 0.000E+00
 
     Adding external electric field

     Computed dipole along edir(3) : 
        Dipole               -0.1501 Ry au,         -0.3814 Debye
        Dipole field         -0.0004 Ry au
 
        Potential amp.        0.0334 Ry
[...]
    -0.7380  -0.6056  -0.5296  -0.4075  -0.3158  -0.2354  -0.1827  -0.0341
     0.1658   0.2585   0.3333   0.3880   0.5232   0.6106   0.6918   0.7655
     0.9263   0.9907   1.0975   1.1863   1.2008   1.2889   1.3526   1.4254
     1.5713   1.6210   1.7665   1.7916   1.8924   2.0910   2.2423   2.4489

          k = 0.0279-0.0483 0.0000 ( 19485 PWs)   bands (ev):

   -53.5241 -53.4865 -53.4278 -53.4136 -53.4046 -53.3980 -53.3912 -53.3725
   -53.3490 -53.3351 -53.3250 -53.3139 -29.9211 -29.8859 -29.8701 -29.8607
   -29.8343 -29.8285 -29.7976 -29.7830 -29.7395 -29.7305 -29.5916 -29.5558
   -29.5356 -29.4594 -29.4061 -29.3891 -29.3738 -29.3668 -29.3329 -29.2854
   -29.2724 -29.2481 -29.2471 -29.2304 -29.2178 -29.1947 -29.1821 -29.1633
   -29.1511 -29.1165 -29.1134 -29.1078 -29.0969 -29.0695 -29.0399 -28.9812
    -3.2699  -2.0444  -1.6375  -1.6292  -1.5243  -1.4596  -1.4020  -1.3683
    -1.0676  -0.9599  -0.8792  -0.7907  -0.7320  -0.6663  -0.5507  -0.4185
     0.0354   0.1521   0.1944   0.6934   0.9249   1.0154   1.0485   1.0651
     1.1628   1.2127   1.4513   1.5052   1.6551   1.7004   1.8055   1.8524
     1.8902   1.9526   2.0974   2.1759   2.2825   2.3157   2.4018   2.4410

          k = 0.0558-0.0322 0.0000 ( 19509 PWs)   bands (ev):

   -53.5161 -53.4802 -53.4382 -53.4184 -53.4082 -53.3883 -53.3865 -53.3768
   -53.3505 -53.3408 -53.3220 -53.3154 -29.8928 -29.8767 -29.8613 -29.8267
   -29.8196 -29.8002 -29.7732 -29.7539 -29.7479 -29.6621 -29.5952 -29.5599
   -29.5538 -29.4673 -29.3847 -29.3759 -29.3645 -29.3563 -29.3554 -29.3492
   -29.3310 -29.2791 -29.2431 -29.2358 -29.2271 -29.2249 -29.1705 -29.1642
   -29.1536 -29.1506 -29.1373 -29.1078 -29.0882 -29.0682 -29.0576 -28.9823
    -3.0885  -1.9078  -1.8366  -1.5155  -1.3634  -1.3156  -1.2831  -1.1204
    -1.0380  -0.9211  -0.7344  -0.6972  -0.6855  -0.5250  -0.3508  -0.2772
     0.0540   0.1917   0.2594   0.5309   0.7408   0.9267   0.9658   1.0475
     1.1744   1.2492   1.3841   1.4680   1.5254   1.5933   1.6390   1.7064
     1.7958   1.9421   2.0136   2.0716   2.2285   2.2683   2.3252   2.3933

          k = 0.0558 0.0000 0.0000 ( 19485 PWs)   bands (ev):

   -53.5241 -53.4865 -53.4277 -53.4137 -53.4046 -53.3980 -53.3912 -53.3725
   -53.3490 -53.3351 -53.3250 -53.3139 -29.9211 -29.8859 -29.8701 -29.8607
   -29.8343 -29.8285 -29.7976 -29.7830 -29.7395 -29.7305 -29.5916 -29.5558
   -29.5356 -29.4594 -29.4061 -29.3891 -29.3738 -29.3668 -29.3328 -29.2854
   -29.2724 -29.2481 -29.2471 -29.2304 -29.2178 -29.1947 -29.1821 -29.1632
   -29.1511 -29.1165 -29.1134 -29.1078 -29.0969 -29.0695 -29.0399 -28.9811
    -3.2699  -2.0444  -1.6375  -1.6292  -1.5243  -1.4596  -1.4020  -1.3683
    -1.0676  -0.9599  -0.8792  -0.7907  -0.7320  -0.6663  -0.5507  -0.4185
     0.0354   0.1521   0.1944   0.6934   0.9249   1.0154   1.0485   1.0651
     1.1628   1.2127   1.4513   1.5052   1.6551   1.7004   1.8055   1.8524
     1.8902   1.9526   2.0974   2.1758   2.2825   2.3157   2.4018   2.4410

          k = 0.0558 0.0322 0.0000 ( 19509 PWs)   bands (ev):

   -53.5161 -53.4803 -53.4381 -53.4184 -53.4083 -53.3883 -53.3865 -53.3768
   -53.3505 -53.3408 -53.3221 -53.3154 -29.8928 -29.8768 -29.8613 -29.8267
   -29.8196 -29.8002 -29.7732 -29.7539 -29.7479 -29.6621 -29.5952 -29.5599
   -29.5538 -29.4673 -29.3847 -29.3759 -29.3645 -29.3563 -29.3555 -29.3491
   -29.3310 -29.2791 -29.2431 -29.2358 -29.2271 -29.2249 -29.1705 -29.1643
   -29.1535 -29.1506 -29.1373 -29.1078 -29.0882 -29.0682 -29.0576 -28.9823
    -3.0885  -1.9078  -1.8366  -1.5155  -1.3633  -1.3156  -1.2831  -1.1204
    -1.0380  -0.9212  -0.7344  -0.6972  -0.6855  -0.5249  -0.3508  -0.2772
     0.0540   0.1917   0.2594   0.5309   0.7408   0.9267   0.9658   1.0476
     1.1744   1.2492   1.3841   1.4680   1.5254   1.5933   1.6390   1.7064
     1.7958   1.9421   2.0136   2.0716   2.2285   2.2683   2.3252   2.3933

          k = 0.0558-0.1289 0.0000 ( 19505 PWs)   bands (ev):

   -53.4951 -53.4655 -53.4486 -53.4314 -53.4151 -53.4043 -53.3727 -53.3681
   -53.3518 -53.3462 -53.3312 -53.3122 -29.8447 -29.8195 -29.8017 -29.7848
   -29.7705 -29.7493 -29.7217 -29.6955 -29.6585 -29.6177 -29.6022 -29.5827
   -29.5563 -29.5074 -29.4894 -29.4495 -29.3951 -29.3695 -29.3567 -29.3474
   -29.3223 -29.2999 -29.2932 -29.2712 -29.2517 -29.2200 -29.2040 -29.1876
   -29.1766 -29.1456 -29.1291 -29.1207 -29.1083 -29.0890 -29.0706 -29.0246
    -2.5818  -1.9074  -1.5268  -1.3370  -1.2550  -1.0701  -0.9787  -0.8868
    -0.7380  -0.6056  -0.5296  -0.4075  -0.3158  -0.2354  -0.1827  -0.0341
     0.1658   0.2585   0.3333   0.3880   0.5232   0.6106   0.6919   0.7655
     0.9262   0.9908   1.0975   1.1863   1.2008   1.2889   1.3526   1.4254
     1.5713   1.6210   1.7665   1.7916   1.8923   2.0910   2.2423   2.4489

          k = 0.0558-0.0967 0.0000 ( 19521 PWs)   bands (ev):

   -53.4763 -53.4631 -53.4465 -53.4356 -53.4264 -53.4187 -53.3637 -53.3606
   -53.3518 -53.3456 -53.3438 -53.3104 -29.7983 -29.7759 -29.7720 -29.7357
   -29.7340 -29.7297 -29.6856 -29.6768 -29.6207 -29.6142 -29.6058 -29.5709
   -29.5356 -29.5236 -29.5194 -29.5103 -29.4885 -29.4675 -29.3431 -29.3380
   -29.3379 -29.3210 -29.3011 -29.2308 -29.2240 -29.2123 -29.2052 -29.1741
   -29.1674 -29.1647 -29.1464 -29.1386 -29.1369 -29.0910 -29.0829 -29.0724
    -1.9659  -1.8587  -1.8485  -1.2719  -0.9895  -0.9619  -0.6322  -0.6227
    -0.5185  -0.4007  -0.2723  -0.2551  -0.2124  -0.0538  -0.0537   0.0677
     0.2029   0.2070   0.2852   0.3324   0.3446   0.4405   0.4891   0.5012
     0.7732   0.7859   0.7990   0.8061   0.9168   1.0981   1.1757   1.3514
     1.3654   1.3725   1.4847   1.9670   2.0191   2.0929   2.3827   2.4026

          k = 0.0558-0.0645 0.0000 ( 19505 PWs)   bands (ev):

   -53.4951 -53.4655 -53.4487 -53.4314 -53.4151 -53.4043 -53.3727 -53.3681
   -53.3519 -53.3462 -53.3312 -53.3122 -29.8447 -29.8195 -29.8017 -29.7848
   -29.7705 -29.7493 -29.7217 -29.6955 -29.6585 -29.6177 -29.6022 -29.5827
   -29.5563 -29.5074 -29.4894 -29.4495 -29.3951 -29.3695 -29.3567 -29.3474
   -29.3223 -29.2999 -29.2932 -29.2712 -29.2517 -29.2200 -29.2040 -29.1876
   -29.1766 -29.1457 -29.1291 -29.1207 -29.1083 -29.0890 -29.0706 -29.0246
    -2.5818  -1.9074  -1.5268  -1.3370  -1.2550  -1.0701  -0.9787  -0.8868
    -0.7380  -0.6056  -0.5296  -0.4075  -0.3158  -0.2354  -0.1827  -0.0340
     0.1658   0.2585   0.3333   0.3880   0.5232   0.6106   0.6919   0.7655
     0.9262   0.9907   1.0975   1.1862   1.2009   1.2889   1.3526   1.4254
     1.5713   1.6210   1.7665   1.7917   1.8924   2.0910   2.2423   2.4489

          k =-0.0837 0.0483 0.0000 ( 19524 PWs)   bands (ev):

   -53.4899 -53.4705 -53.4482 -53.4441 -53.4083 -53.3883 -53.3780 -53.3679
   -53.3592 -53.3496 -53.3229 -53.3154 -29.8343 -29.8203 -29.8147 -29.8071
   -29.7809 -29.7633 -29.7106 -29.6914 -29.6566 -29.6308 -29.6039 -29.5478
   -29.4974 -29.4598 -29.4480 -29.4307 -29.4184 -29.3996 -29.3788 -29.3572
   -29.3260 -29.3148 -29.3099 -29.3053 -29.2837 -29.2791 -29.1862 -29.1679
   -29.1579 -29.1508 -29.1236 -29.1163 -29.1109 -29.1037 -29.0273 -29.0192
    -2.3744  -2.3296  -1.5155  -1.3940  -1.0546  -0.9559  -0.9490  -0.8890
    -0.8459  -0.7513  -0.6036  -0.2878  -0.2364  -0.1762  -0.1096  -0.0536
     0.0484   0.3445   0.3884   0.4749   0.5245   0.5560   0.7299   0.8117
     1.0680   1.0803   1.1367   1.2338   1.2737   1.3122   1.3833   1.4329
     1.4765   1.4844   1.7319   1.7459   1.7648   2.0724   2.1664   2.4690

          k =-0.0837 0.0806 0.0000 ( 19505 PWs)   bands (ev):

   -53.4951 -53.4655 -53.4486 -53.4314 -53.4151 -53.4043 -53.3727 -53.3681
   -53.3519 -53.3462 -53.3312 -53.3122 -29.8447 -29.8195 -29.8017 -29.7848
   -29.7705 -29.7493 -29.7217 -29.6955 -29.6585 -29.6177 -29.6022 -29.5827
   -29.5563 -29.5074 -29.4894 -29.4495 -29.3951 -29.3695 -29.3567 -29.3474
   -29.3223 -29.2999 -29.2931 -29.2712 -29.2517 -29.2200 -29.2040 -29.1876
   -29.1766 -29.1457 -29.1291 -29.1207 -29.1083 -29.0890 -29.0706 -29.0246
    -2.5818  -1.9074  -1.5268  -1.3370  -1.2550  -1.0701  -0.9787  -0.8868
    -0.7380  -0.6056  -0.5296  -0.4075  -0.3158  -0.2354  -0.1827  -0.0340
     0.1658   0.2585   0.3333   0.3880   0.5232   0.6106   0.6919   0.7655
     0.9262   0.9908   1.0975   1.1862   1.2009   1.2889   1.3526   1.4254
     1.5713   1.6210   1.7665   1.7917   1.8923   2.0910   2.2423   2.4489

          k =-0.0837 0.1128 0.0000 ( 19505 PWs)   bands (ev):

   -53.4951 -53.4655 -53.4486 -53.4314 -53.4151 -53.4043 -53.3727 -53.3681
   -53.3518 -53.3462 -53.3312 -53.3122 -29.8447 -29.8195 -29.8017 -29.7848
   -29.7705 -29.7493 -29.7217 -29.6955 -29.6585 -29.6177 -29.6022 -29.5827
   -29.5563 -29.5074 -29.4894 -29.4495 -29.3951 -29.3695 -29.3567 -29.3474
   -29.3223 -29.2999 -29.2932 -29.2712 -29.2517 -29.2200 -29.2040 -29.1876
   -29.1766 -29.1457 -29.1291 -29.1207 -29.1083 -29.0890 -29.0706 -29.0246
    -2.5818  -1.9074  -1.5268  -1.3370  -1.2550  -1.0701  -0.9787  -0.8868
    -0.7380  -0.6056  -0.5296  -0.4075  -0.3158  -0.2354  -0.1827  -0.0341
     0.1658   0.2585   0.3333   0.3880   0.5232   0.6107   0.6919   0.7655
     0.9262   0.9908   1.0975   1.1863   1.2008   1.2889   1.3526   1.4254
     1.5713   1.6210   1.7665   1.7916   1.8923   2.0910   2.2423   2.4489

          k =-0.0837-0.0483 0.0000 ( 19524 PWs)   bands (ev):

   -53.4899 -53.4705 -53.4482 -53.4440 -53.4083 -53.3883 -53.3780 -53.3679
   -53.3592 -53.3496 -53.3229 -53.3154 -29.8343 -29.8204 -29.8147 -29.8071
   -29.7809 -29.7633 -29.7106 -29.6913 -29.6566 -29.6307 -29.6039 -29.5478
   -29.4974 -29.4598 -29.4480 -29.4307 -29.4184 -29.3996 -29.3788 -29.3572
   -29.3260 -29.3148 -29.3099 -29.3053 -29.2837 -29.2792 -29.1862 -29.1679
   -29.1578 -29.1508 -29.1235 -29.1163 -29.1109 -29.1036 -29.0274 -29.0191
    -2.3744  -2.3296  -1.5155  -1.3939  -1.0546  -0.9559  -0.9490  -0.8890
    -0.8459  -0.7513  -0.6036  -0.2878  -0.2364  -0.1762  -0.1096  -0.0536
     0.0484   0.3445   0.3884   0.4749   0.5245   0.5560   0.7299   0.8118
     1.0679   1.0803   1.1368   1.2338   1.2738   1.3122   1.3832   1.4329
     1.4764   1.4844   1.7319   1.7459   1.7648   2.0724   2.1663   2.4690

     the Fermi energy is     1.6014 ev

!    total energy              =   -1423.29352342 Ry
     Harris-Foulkes estimate   =   -1423.29352333 Ry
     estimated scf accuracy    <       0.00000001 Ry

     The total energy is the sum of the following terms:

     one-electron contribution =  -11344.36691872 Ry
     hartree contribution      =    5662.92213406 Ry
     xc contribution           =    -228.83592776 Ry
     ewald contribution        =    4487.10475265 Ry
     electric field correction =       0.00020180 Ry
     smearing contrib. (-TS)   =      -0.11776546 Ry

     convergence has been achieved in  11 iterations
 
 BEEF-vdW xc energy contributions
           1 :   -196.208575403397     
           2 :    178.348431304575     
           3 :   -147.927484321172     
           4 :    113.142120913279     
           5 :   -81.8594419907983     
           6 :    58.9704776576877     
           7 :   -45.3509784112249     
           8 :    38.5450030929572     
           9 :   -34.6009948462147     
          10 :    30.0609934425784     
          11 :   -23.2648404782411     
          12 :    14.5617519285218     
          13 :   -5.58963572705866     
          14 :   -1.87074738835292     
          15 :    6.84908814053261     
          16 :   -9.54430187017269     
          17 :    11.0107363258243     
          18 :   -12.4456843036228     
          19 :    14.5047826819566     
          20 :   -17.0121725527796     
          21 :    19.1645042566985     
          22 :   -20.0596909272900     
          23 :    19.2227221728486     
          24 :   -16.8532579597775     
          25 :    13.6963172349703     
          26 :   -10.6536684131491     
          27 :    8.36199562225016     
          28 :   -6.95816299523736     
          29 :    6.12412895857727     
          30 :   -5.35450548193435     
          31 :   -22.6179095292803     
          32 :   -17.0685041104561     

     Forces acting on atoms (Ry/au):


     negative rho (up, down):  4.972E-03 0.000E+00
     atom    1 type  1   force =    -0.00145127   -0.00083766   -0.00519283
     atom    2 type  1   force =     0.00145129   -0.00083963   -0.00519127
     atom    3 type  1   force =    -0.00000168    0.00167622   -0.00519082
     atom    4 type  1   force =     0.00000149   -0.00000022   -0.00610297
     atom    5 type  1   force =     0.00000493   -0.01230268    0.00700001
     atom    6 type  1   force =    -0.00000466   -0.00000066    0.00012145
     atom    7 type  1   force =     0.01065392    0.00614663    0.00700362
     atom    8 type  1   force =    -0.01065465    0.00615285    0.00699753
     atom    9 type  1   force =    -0.00000043   -0.00000004    0.00006400
     atom   10 type  1   force =     0.00000178    0.00100272    0.00004049
     atom   11 type  1   force =     0.00086677   -0.00049734    0.00003723
     atom   12 type  1   force =    -0.00086757   -0.00049968    0.00004502
     atom   13 type  2   force =     0.00000007   -0.00000051    0.00036854

     Total force =     0.001775     Total SCF correction =     0.000366
     SCF correction compared to forces is large: reduce conv_thr to get better values


     entering subroutine stress ...


     negative rho (up, down):  4.972E-03 0.000E+00
          total   stress  (Ry/bohr**3)                   (kbar)     P=  -23.24
  -0.00024615  -0.00000000   0.00000000        -36.21     -0.00      0.00
  -0.00000000  -0.00024615   0.00000000         -0.00    -36.21      0.00
   0.00000000   0.00000000   0.00001834          0.00      0.00      2.70


     bfgs converged in  14 scf cycles and  13 bfgs steps
     (criteria: energy <  1.0E+00, force <  1.9E-03)

     End of BFGS Geometry Optimization

     Final energy   =   -1423.2935234229 Ry
Begin final coordinates

ATOMIC_POSITIONS (crystal)
Nb1      0.166666667   0.166666667   0.402010442    0   0   0
Nb1      0.666666667   0.166666667   0.402010442    0   0   0
Nb1      0.166666667   0.666666667   0.402010442    0   0   0
Nb1      0.666666667   0.666666667   0.402010442    0   0   0
Nb1      0.833333333   0.333333333   0.500000000    0   0   0
Nb1      0.333333333   0.333333333   0.500000000    0   0   0
Nb1      0.833333333   0.833333333   0.500000000    0   0   0
Nb1      0.333333333   0.833333333   0.500000000    0   0   0
Nb1     -0.000004016   0.000006802   0.609029591
Nb1      0.503316237  -0.006631853   0.596698054
Nb1     -0.006638048   0.503321958   0.596699978
Nb1      0.503316270   0.503322207   0.596696977
H1       0.000004024  -0.000001433   0.681818793
End final coordinates



     Writing output data file calc.save
 
     init_run     :     11.83s CPU     12.20s WALL (       1 calls)
     electrons    :   4585.72s CPU   4899.80s WALL (      14 calls)
     update_pot   :     34.38s CPU     36.10s WALL (      13 calls)
     forces       :    207.31s CPU    220.22s WALL (      14 calls)
     stress       :    629.17s CPU    660.44s WALL (      14 calls)

     Called by init_run:
     wfcinit      :      5.06s CPU      5.13s WALL (       1 calls)
     potinit      :      1.96s CPU      2.13s WALL (       1 calls)

     Called by electrons:
     c_bands      :   1854.68s CPU   1961.44s WALL (     185 calls)
     sum_band     :    902.93s CPU    961.03s WALL (     185 calls)
     v_of_rho     :    333.00s CPU    370.69s WALL (     198 calls)
     newd         :    784.32s CPU    794.13s WALL (     198 calls)
     mix_rho      :     11.45s CPU     11.67s WALL (     185 calls)
     vdW_energy   :    160.21s CPU    176.50s WALL (     702 calls)
     vdW_ffts     :    378.52s CPU    392.14s WALL (    1432 calls)
     vdW_v        :    141.42s CPU    148.93s WALL (     702 calls)

     Called by c_bands:
     init_us_2    :     10.84s CPU     10.89s WALL (    1995 calls)
     cegterg      :   1663.04s CPU   1704.82s WALL (     925 calls)

     Called by *egterg:
     h_psi        :   1105.95s CPU   1126.84s WALL (    4850 calls)
     s_psi        :     96.53s CPU     96.83s WALL (    4850 calls)
     g_psi        :      6.63s CPU      6.67s WALL (    3920 calls)
     cdiaghg      :    151.97s CPU    153.13s WALL (    4775 calls)

     Called by h_psi:
     add_vuspsi   :     99.42s CPU     99.73s WALL (    4850 calls)

     General routines
     calbec       :    150.10s CPU    152.38s WALL (    5915 calls)
     fft          :    577.66s CPU    611.31s WALL (   42527 calls)
     ffts         :      0.73s CPU      0.75s WALL (     383 calls)
     fftw         :    697.16s CPU    721.32s WALL (  505954 calls)
     interpolate  :      6.66s CPU      6.99s WALL (     383 calls)
     davcio       :      0.00s CPU      0.03s WALL (       5 calls)
 
     Parallel routines
     fft_scatter  :    728.15s CPU    778.26s WALL (  548864 calls)
 
     PWSCF        :     1h32m CPU        1h38m WALL

 
   This run was terminated on:  10:41:24   3May2018            

=------------------------------------------------------------------------------=
   JOB DONE.
=------------------------------------------------------------------------------=
Job  /afs/slac/g/suncat/bin/suncat-tsmpirun -x LD_LIBRARY_PATH -wdir /scratch/qe698186_ACNZQ pw.x -npool 4 -in pw.inp

TID   HOST_NAME   COMMAND_LINE            STATUS            TERMINATION_TIME
===== ========== ================  =======================  ===================
00000 suncat0028 pw.x -npool 4 -i  Done                     05/03/2018 10:41:24
00001 suncat0028 pw.x -npool 4 -i  Done                     05/03/2018 10:41:24
00002 suncat0028 pw.x -npool 4 -i  Done                     05/03/2018 10:41:24
00003 suncat0028 pw.x -npool 4 -i  Done                     05/03/2018 10:41:24
00004 suncat0028 pw.x -npool 4 -i  Done                     05/03/2018 10:41:24
00005 suncat0028 pw.x -npool 4 -i  Done                     05/03/2018 10:41:24
00006 suncat0028 pw.x -npool 4 -i  Done                     05/03/2018 10:41:24
00007 suncat0028 pw.x -npool 4 -i  Done                     05/03/2018 10:41:24
00008 suncat0016 pw.x -npool 4 -i  Done                     05/03/2018 10:41:24
00009 suncat0016 pw.x -npool 4 -i  Done                     05/03/2018 10:41:24
00010 suncat0016 pw.x -npool 4 -i  Done                     05/03/2018 10:41:24
00011 suncat0016 pw.x -npool 4 -i  Done                     05/03/2018 10:41:24
00012 suncat0016 pw.x -npool 4 -i  Done                     05/03/2018 10:41:24
00013 suncat0016 pw.x -npool 4 -i  Done                     05/03/2018 10:41:24
00014 suncat0016 pw.x -npool 4 -i  Done                     05/03/2018 10:41:24
00015 suncat0016 pw.x -npool 4 -i  Done                     05/03/2018 10:41:24
00016 suncat0170 pw.x -npool 4 -i  Done                     05/03/2018 10:41:24
00017 suncat0170 pw.x -npool 4 -i  Done                     05/03/2018 10:41:24
00018 suncat0170 pw.x -npool 4 -i  Done                     05/03/2018 10:41:24
00019 suncat0170 pw.x -npool 4 -i  Done                     05/03/2018 10:41:24
00020 suncat0170 pw.x -npool 4 -i  Done                     05/03/2018 10:41:24
00021 suncat0170 pw.x -npool 4 -i  Done                     05/03/2018 10:41:24
00022 suncat0170 pw.x -npool 4 -i  Done                     05/03/2018 10:41:24
00023 suncat0170 pw.x -npool 4 -i  Done                     05/03/2018 10:41:24
00024 suncat0169 pw.x -npool 4 -i  Done                     05/03/2018 10:41:24
00025 suncat0169 pw.x -npool 4 -i  Done                     05/03/2018 10:41:24
00026 suncat0169 pw.x -npool 4 -i  Done                     05/03/2018 10:41:24
00027 suncat0169 pw.x -npool 4 -i  Done                     05/03/2018 10:41:24
00028 suncat0169 pw.x -npool 4 -i  Done                     05/03/2018 10:41:24
00029 suncat0169 pw.x -npool 4 -i  Done                     05/03/2018 10:41:24
00030 suncat0169 pw.x -npool 4 -i  Done                     05/03/2018 10:41:24
00031 suncat0169 pw.x -npool 4 -i  Done                     05/03/2018 10:41:24
