  python dir          : /home/mamunm/src/espresso
  espresso dir        : /home/vossj/suncat/esdld/espresso-dynpy-beef/bin
  pseudo dir          : /home/mamunm/src/pseudo/gbrv1.5pbe
  ase-espresso py git : GITVERSION



     Program PWSCF v.5.1rc2 (svn rev. ) starts on 17Apr2018 at  8:35:47 

     This program is part of the open-source Quantum ESPRESSO suite
     for quantum simulation of materials; please cite
         "P. Giannozzi et al., J. Phys.:Condens. Matter 21 395502 (2009);
          URL http://www.quantum-espresso.org", 
     in publications or presentations arising from this work. More details at
     http://www.quantum-espresso.org/quote

     Parallel version (MPI), running on    16 processors
     R & G space division:  proc/nbgrp/npool/nimage =      16
     Reading input from pw.inp
     Message from routine read_cards :
     DEPRECATED: no units specified in CELL_PARAMETERS card

     Current dimensions of program PWSCF are:
     Max number of different atomic species (ntypx) = 10
     Max number of k-points (npk) =  40000
     Max angular momentum in pseudopotentials (lmaxx) =  3
     Presently stress not available with electric field


     **************************************************************************
     Initializing libbeef V0.1.1 with the BEEF-vdW functional.
     Citation: Wellendorff et al., PRB 85, 235149 (2012).
     **************************************************************************


     IMPORTANT: XC functional enforced from input :
     Exchange-correlation      = BEEF-VDW ( 1  4 27 13 2)
     Any further DFT definition will be discarded
     Please, verify this is what you really want


     Subspace diagonalization in iterative solution of the eigenvalue problem:
     a serial algorithm will be used

 
     Parallelization info
     --------------------
     sticks:   dense  smooth     PW     G-vecs:    dense   smooth      PW
     Min         151      60     18                28279     7123    1152
     Max         152      61     19                28301     7170    1159
     Sum        2419     967    295               452661   114411   18499
 


     bravais-lattice index     =            0
     lattice parameter (alat)  =       1.8897  a.u.
     unit-cell volume          =    3807.2308 (a.u.)^3
     number of atoms/cell      =           14
     number of atomic types    =            3
     number of electrons       =       235.00
     number of Kohn-Sham states=          127
     kinetic-energy cutoff     =      36.7493  Ry
     charge density cutoff     =     367.4932  Ry
     convergence threshold     =      1.0E-05
     mixing beta               =       0.3000
     number of iterations used =           10  plain     mixing
     Exchange-correlation      = BEEF-VDW ( 1  4 27 13 2)
     nstep                     =           50


     celldm(1)=   1.889726  celldm(2)=   0.000000  celldm(3)=   0.000000
     celldm(4)=   0.000000  celldm(5)=   0.000000  celldm(6)=   0.000000

     crystal axes: (cart. coord. in units of alat)
               a(1) = (   5.184823   0.000000   0.000000 )  
               a(2) = (   2.592411   4.490188   0.000000 )  
               a(3) = (   0.000000   0.000000  24.233390 )  

     reciprocal axes: (cart. coord. in units 2 pi/alat)
               b(1) = (  0.192871 -0.111354  0.000000 )  
               b(2) = (  0.000000  0.222708  0.000000 )  
               b(3) = (  0.000000  0.000000  0.041265 )  


     PseudoPot. # 1 for Cu read from file:
     /home/mamunm/src/pseudo/gbrv1.5pbe/Cu.UPF
     MD5 check sum: 6e991ff952a84172a2a52a1c1e996048
     Pseudo is Ultrasoft + core correction, Zval = 19.0
     Generated by new atomic code, or converted to UPF format
     Using radial grid of  867 points,  6 beta functions with: 
                l(1) =   0
                l(2) =   0
                l(3) =   1
                l(4) =   1
                l(5) =   2
                l(6) =   2
     Q(r) pseudized with  8 coefficients,  rinner =    1.150   1.150   1.150
                                                       1.150   1.150

     PseudoPot. # 2 for O  read from file:
     /home/mamunm/src/pseudo/gbrv1.5pbe/O.UPF
     MD5 check sum: 734c27235a0248c51dbae37a1fbe46ec
     Pseudo is Ultrasoft + core correction, Zval =  6.0
     Generated by new atomic code, or converted to UPF format
     Using radial grid of  737 points,  5 beta functions with: 
                l(1) =   0
                l(2) =   0
                l(3) =   1
                l(4) =   1
                l(5) =   2
     Q(r) pseudized with  8 coefficients,  rinner =    0.900   0.900   0.900
                                                       0.900   0.900

     PseudoPot. # 3 for H  read from file:
     /home/mamunm/src/pseudo/gbrv1.5pbe/H.UPF
     MD5 check sum: 761ae9a214b05c3daf00ab9f6b793d6f
     Pseudo is Ultrasoft, Zval =  1.0
     Generated by new atomic code, or converted to UPF format
     Using radial grid of  615 points,  2 beta functions with: 
                l(1) =   0
                l(2) =   0
     Q(r) pseudized with  8 coefficients,  rinner =    0.700

     vdW kernel table read from file vdW_kernel_table
     MD5 check sum: 095c7af220d748ca6e76c0b4c6cfb241

     atomic species   valence    mass     pseudopotential
        Cu1           19.00    63.54600     Cu( 1.00)
        O1             6.00    15.99900     O ( 1.00)
        H1             1.00     1.00800     H ( 1.00)

     No symmetry found



   Cartesian axes

     site n.     atom                  positions (alat units)
         1           Cu1 tau(   1) = (   1.2962057   0.7483647  10.0000000  )
         2           Cu1 tau(   2) = (   3.8886170   0.7483647  10.0000000  )
         3           Cu1 tau(   3) = (   2.5924113   2.9934587  10.0000000  )
         4           Cu1 tau(   4) = (   5.1848226   2.9934587  10.0000000  )
         5           Cu1 tau(   5) = (   5.1848226   1.4967294  12.1166950  )
         6           Cu1 tau(   6) = (   2.5924113   1.4967294  12.1166950  )
         7           Cu1 tau(   7) = (   6.4810283   3.7418234  12.1166950  )
         8           Cu1 tau(   8) = (   3.8886170   3.7418234  12.1166950  )
         9           Cu1 tau(   9) = (   0.0000000   0.0000000  14.2333899  )
        10           Cu1 tau(  10) = (   2.5924113   0.0000000  14.2333899  )
        11           Cu1 tau(  11) = (   1.2962057   2.2450940  14.2333899  )
        12           Cu1 tau(  12) = (   3.8886170   2.2450940  14.2333899  )
        13           O1  tau(  13) = (   0.0000000   0.0000000  15.9163899  )
        14           H1  tau(  14) = (   0.0000000   0.0000000  16.8663899  )

     number of k points=    20  Fermi-Dirac smearing, width (Ry)=  0.0110
                       cart. coord. in units 2pi/alat
        k(    1) = (   0.0000000   0.0000000   0.0000000), wk =   0.0555556
        k(    2) = (   0.0000000   0.0371180   0.0000000), wk =   0.1111111
        k(    3) = (   0.0000000   0.0742359   0.0000000), wk =   0.1111111
        k(    4) = (   0.0000000  -0.1113539   0.0000000), wk =   0.0555556
        k(    5) = (   0.0321451  -0.0185590   0.0000000), wk =   0.1111111
        k(    6) = (   0.0321451   0.0185590   0.0000000), wk =   0.1111111
        k(    7) = (   0.0321451   0.0556770   0.0000000), wk =   0.1111111
        k(    8) = (   0.0321451  -0.1299129   0.0000000), wk =   0.1111111
        k(    9) = (   0.0321451  -0.0927949   0.0000000), wk =   0.1111111
        k(   10) = (   0.0321451  -0.0556770   0.0000000), wk =   0.1111111
        k(   11) = (   0.0642902  -0.0371180   0.0000000), wk =   0.1111111
        k(   12) = (   0.0642902  -0.0000000   0.0000000), wk =   0.1111111
        k(   13) = (   0.0642902   0.0371180   0.0000000), wk =   0.1111111
        k(   14) = (   0.0642902  -0.1484719   0.0000000), wk =   0.1111111
        k(   15) = (   0.0642902  -0.1113539   0.0000000), wk =   0.1111111
        k(   16) = (   0.0642902  -0.0742359   0.0000000), wk =   0.1111111
        k(   17) = (  -0.0964353   0.0556770   0.0000000), wk =   0.0555556
        k(   18) = (  -0.0964353   0.0927949   0.0000000), wk =   0.1111111
        k(   19) = (  -0.0964353   0.1299129   0.0000000), wk =   0.1111111
        k(   20) = (  -0.0964353  -0.0556770   0.0000000), wk =   0.0555556

     Dense  grid:   452661 G-vectors     FFT dimensions: (  60,  60, 288)

     Smooth grid:   114411 G-vectors     FFT dimensions: (  40,  40, 180)

     Largest allocated arrays     est. size (Mb)     dimensions
        Kohn-Sham Wavefunctions         1.78 Mb     (     920,  127)
        NL pseudopotentials             3.24 Mb     (     920,  231)
        Each V/rho on FFT grid          0.99 Mb     (   64800)
        Each G-vector array             0.22 Mb     (   28299)
        G-vector shells                 0.09 Mb     (   11246)
     Largest temporary arrays     est. size (Mb)     dimensions
        Auxiliary wavefunctions         7.13 Mb     (     920,  508)
        Each subspace H/S matrix        3.94 Mb     (     508,  508)
        Each <psi_i|beta_j> matrix      0.45 Mb     (     231,  127)
        Arrays for rho mixing           9.89 Mb     (   64800,   10)

     Initial potential from superposition of free atoms
     Check: negative starting charge=   -0.000235

     starting charge  222.99997, renormalised to  235.00000

     negative rho (up, down):  2.472E-04 0.000E+00


     ************************************************************************
     *
     * You are using vdW-DF for exchange-correlation in this calculation.
     * Please cite the following three references that made this development
     * possible:
     *
     *   M. Dion, H. Rydberg, E. Schroder, D. C. Langreth, and
     *   B. I. Lundqvist, Phys. Rev. Lett. 92, 246401 (2004).
     *
     *   T. Thonhauser, V. R. Cooper, S. Li, A. Puzder, P. Hyldgaard, and
     *   D. C. Langreth, Phys. Rev. B 76, 125112 (2007).
     *
     *   G. Roman-Perez and J. M. Soler, Phys. Rev. Lett. 103, 096102 (2009).
     *
     *
     * If you are using vdW-DF2, please also cite:
     *
     *   K. Lee, E. D. Murray, L. Kong, B. I. Lundqvist, and
     *   D. C. Langreth, Phys. Rev. B 82, 081101(R) (2010).
     *
     *
     * If you are calculating the stress with vdW-DF, please also cite:
     *
     *   R. Sabatini, E. Kucukbenli, B. Kolb, T. Thonhauser, and
     *   S. de Gironcoli, J. Phys.: Condens. Matter 24, 424209 (2012).
     *
     ************************************************************************

     Carrying out vdW-DF run using the following parameters:

     Nqs =      20    Nr_points =    1024   r_max =   100.000
     q_mesh =
               0.00001000     0.04494208     0.09755937     0.15916263
               0.23128650     0.31572767     0.41458969     0.53033537
               0.66584808     0.82450364     1.01025438     1.22772762
               1.48234092     1.78043706     2.12944203     2.53805004
               3.01644009     3.57652955     4.23227104     5.00000000

     Gradients computed in reciprocal space

     ************************************************************************


 
     Adding external electric field

     Computed dipole along edir(3) : 
        Dipole               -2.8012 Ry au,         -7.1200 Debye
        Dipole field         -0.0092 Ry au
 
        Potential amp.        0.8257 Ry
        Total length         44.6496 bohr
 
     Starting wfc are  161 randomized atomic wfcs

     total cpu time spent up to now is        7.2 secs

     Self-consistent Calculation

     iteration #  1     ecut=    36.75 Ry     beta=0.30
     Davidson diagonalization with overlap
     ethr =  1.00E-02,  avg # of iterations =  7.7

     negative rho (up, down):  3.887E-05 0.000E+00
 
     Adding external electric field

     Computed dipole along edir(3) : 
        Dipole               82.3049 Ry au,        209.1982 Debye
        Dipole field          0.2717 Ry au
 
        Potential amp.      -24.2591 Ry
        Total length         44.6496 bohr
 

     total cpu time spent up to now is       43.2 secs

     total energy              =   -4477.53048161 Ry
     Harris-Foulkes estimate   =   -4887.04749408 Ry
     estimated scf accuracy    <     861.98440148 Ry

     iteration #  2     ecut=    36.75 Ry     beta=0.30
     Davidson diagonalization with overlap
     ethr =  1.00E-02,  avg # of iterations = 22.4
 
     Adding external electric field

     Computed dipole along edir(3) : 
        Dipole               17.8991 Ry au,         45.4949 Debye
        Dipole field          0.0591 Ry au
 
        Potential amp.       -5.2757 Ry
        Total length         44.6496 bohr
 

     total cpu time spent up to now is      120.2 secs

     total energy              =   -4223.86516647 Ry
     Harris-Foulkes estimate   =   -6197.61850857 Ry
     estimated scf accuracy    <   35042.56258662 Ry

     iteration #  3     ecut=    36.75 Ry     beta=0.30
     Davidson diagonalization with overlap
     ethr =  1.00E-02,  avg # of iterations =  9.2
 
     Adding external electric field

     Computed dipole along edir(3) : 
        Dipole               19.9094 Ry au,         50.6047 Debye
        Dipole field          0.0657 Ry au
 
        Potential amp.       -5.8682 Ry
        Total length         44.6496 bohr
 

     total cpu time spent up to now is      155.8 secs

     total energy              =   -4865.38189610 Ry
     Harris-Foulkes estimate   =   -5179.96596778 Ry
     estimated scf accuracy    <    2549.46127137 Ry

     iteration #  4     ecut=    36.75 Ry     beta=0.30
     Davidson diagonalization with overlap
     ethr =  1.00E-02,  avg # of iterations =  9.5
 
     Adding external electric field

     Computed dipole along edir(3) : 
        Dipole               16.4988 Ry au,         41.9357 Debye
        Dipole field          0.0545 Ry au
 
        Potential amp.       -4.8630 Ry
        Total length         44.6496 bohr
 

     total cpu time spent up to now is      183.9 secs

     total energy              =   -4905.37867088 Ry
     Harris-Foulkes estimate   =   -4926.65607976 Ry
     estimated scf accuracy    <      94.41860131 Ry

     iteration #  5     ecut=    36.75 Ry     beta=0.30
     Davidson diagonalization with overlap
     ethr =  1.00E-02,  avg # of iterations =  3.0
 
     Adding external electric field

     Computed dipole along edir(3) : 
        Dipole               14.3901 Ry au,         36.5760 Debye
        Dipole field          0.0475 Ry au
 
        Potential amp.       -4.2414 Ry
        Total length         44.6496 bohr
 

     total cpu time spent up to now is      196.6 secs

     total energy              =   -4899.91702362 Ry
     Harris-Foulkes estimate   =   -4911.21682458 Ry
     estimated scf accuracy    <     194.77288412 Ry

     iteration #  6     ecut=    36.75 Ry     beta=0.30
     Davidson diagonalization with overlap
     ethr =  1.00E-02,  avg # of iterations =  2.3
 
     Adding external electric field

     Computed dipole along edir(3) : 
        Dipole               12.6705 Ry au,         32.2052 Debye
        Dipole field          0.0418 Ry au
 
        Potential amp.       -3.7346 Ry
        Total length         44.6496 bohr
 

     total cpu time spent up to now is      207.4 secs

     total energy              =   -4900.57111694 Ry
     Harris-Foulkes estimate   =   -4903.37740622 Ry
     estimated scf accuracy    <      29.80631428 Ry

     iteration #  7     ecut=    36.75 Ry     beta=0.30
     Davidson diagonalization with overlap
     ethr =  1.00E-02,  avg # of iterations =  1.0
 
     Adding external electric field

     Computed dipole along edir(3) : 
        Dipole               10.7403 Ry au,         27.2992 Debye
        Dipole field          0.0355 Ry au
 
        Potential amp.       -3.1657 Ry
        Total length         44.6496 bohr
 

     total cpu time spent up to now is      216.7 secs

     total energy              =   -4898.24567784 Ry
     Harris-Foulkes estimate   =   -4901.18331892 Ry
     estimated scf accuracy    <      34.22729876 Ry

     iteration #  8     ecut=    36.75 Ry     beta=0.30
     Davidson diagonalization with overlap
     ethr =  1.00E-02,  avg # of iterations =  1.0
 
     Adding external electric field

     Computed dipole along edir(3) : 
        Dipole                7.9358 Ry au,         20.1707 Debye
        Dipole field          0.0262 Ry au
 
        Potential amp.       -2.3390 Ry
        Total length         44.6496 bohr
 

     total cpu time spent up to now is      226.2 secs

     total energy              =   -4895.39184365 Ry
     Harris-Foulkes estimate   =   -4898.62006781 Ry
     estimated scf accuracy    <      33.78230754 Ry

     iteration #  9     ecut=    36.75 Ry     beta=0.30
     Davidson diagonalization with overlap
     ethr =  1.00E-02,  avg # of iterations =  1.0
 
     Adding external electric field

     Computed dipole along edir(3) : 
        Dipole                5.5008 Ry au,         13.9816 Debye
        Dipole field          0.0182 Ry au
 
        Potential amp.       -1.6213 Ry
        Total length         44.6496 bohr
 

     total cpu time spent up to now is      235.6 secs

     total energy              =   -4893.74344183 Ry
     Harris-Foulkes estimate   =   -4895.91828900 Ry
     estimated scf accuracy    <      17.38922600 Ry

     iteration # 10     ecut=    36.75 Ry     beta=0.30
     Davidson diagonalization with overlap
     ethr =  7.40E-03,  avg # of iterations =  2.6
 
     Adding external electric field

     Computed dipole along edir(3) : 
        Dipole                5.2287 Ry au,         13.2899 Debye
        Dipole field          0.0173 Ry au
 
        Potential amp.       -1.5411 Ry
        Total length         44.6496 bohr
 

     total cpu time spent up to now is      246.7 secs

     total energy              =   -4893.96861096 Ry
     Harris-Foulkes estimate   =   -4894.16164926 Ry
     estimated scf accuracy    <       4.80901806 Ry

     iteration # 11     ecut=    36.75 Ry     beta=0.30
     Davidson diagonalization with overlap
     ethr =  2.05E-03,  avg # of iterations =  3.2
 
     Adding external electric field

     Computed dipole along edir(3) : 
        Dipole                5.2014 Ry au,         13.2206 Debye
        Dipole field          0.0172 Ry au
 
        Potential amp.       -1.5331 Ry
        Total length         44.6496 bohr
 

     total cpu time spent up to now is      258.3 secs

     total energy              =   -4894.05772346 Ry
     Harris-Foulkes estimate   =   -4894.03735621 Ry
     estimated scf accuracy    <       3.83898412 Ry

     iteration # 12     ecut=    36.75 Ry     beta=0.30
     Davidson diagonalization with overlap
     ethr =  1.63E-03,  avg # of iterations =  1.1
 
     Adding external electric field

     Computed dipole along edir(3) : 
        Dipole               -0.9036 Ry au,         -2.2966 Debye
        Dipole field         -0.0030 Ry au
 
        Potential amp.        0.2663 Ry
        Total length         44.6496 bohr
 

     total cpu time spent up to now is      267.9 secs

     total energy              =   -4892.21294437 Ry
     Harris-Foulkes estimate   =   -4894.17738375 Ry
     estimated scf accuracy    <       4.74063973 Ry

     iteration # 13     ecut=    36.75 Ry     beta=0.30
     Davidson diagonalization with overlap
     ethr =  1.63E-03,  avg # of iterations =  7.5
 
     Adding external electric field

     Computed dipole along edir(3) : 
        Dipole                0.0439 Ry au,          0.1116 Debye
        Dipole field          0.0001 Ry au
 
        Potential amp.       -0.0129 Ry
        Total length         44.6496 bohr
 

     total cpu time spent up to now is      289.6 secs

     total energy              =   -4892.86222285 Ry
     Harris-Foulkes estimate   =   -4893.48364779 Ry
     estimated scf accuracy    <       9.92863091 Ry

     iteration # 14     ecut=    36.75 Ry     beta=0.30
     Davidson diagonalization with overlap
     ethr =  1.63E-03,  avg # of iterations =  6.7
 
     Adding external electric field

     Computed dipole along edir(3) : 
        Dipole                0.1453 Ry au,          0.3693 Debye
        Dipole field          0.0005 Ry au
 
        Potential amp.       -0.0428 Ry
        Total length         44.6496 bohr
 

     total cpu time spent up to now is      304.7 secs

     total energy              =   -4893.04251740 Ry
     Harris-Foulkes estimate   =   -4893.08289741 Ry
     estimated scf accuracy    <       1.48541053 Ry

     iteration # 15     ecut=    36.75 Ry     beta=0.30
     Davidson diagonalization with overlap
     ethr =  6.32E-04,  avg # of iterations =  3.2

     negative rho (up, down):  2.835E-08 0.000E+00
 
     Adding external electric field

     Computed dipole along edir(3) : 
        Dipole                0.0457 Ry au,          0.1161 Debye
        Dipole field          0.0002 Ry au
 
        Potential amp.       -0.0135 Ry
        Total length         44.6496 bohr
 

     total cpu time spent up to now is      316.2 secs

     total energy              =   -4892.92514007 Ry
     Harris-Foulkes estimate   =   -4893.05753923 Ry
     estimated scf accuracy    <       1.45509869 Ry

     iteration # 16     ecut=    36.75 Ry     beta=0.30
     Davidson diagonalization with overlap
     ethr =  6.19E-04,  avg # of iterations =  1.3

     negative rho (up, down):  8.567E-06 0.000E+00
 
     Adding external electric field

     Computed dipole along edir(3) : 
        Dipole               -0.1198 Ry au,         -0.3044 Debye
        Dipole field         -0.0004 Ry au
 
        Potential amp.        0.0353 Ry
        Total length         44.6496 bohr
 

     total cpu time spent up to now is      325.9 secs

     total energy              =   -4892.97018956 Ry
     Harris-Foulkes estimate   =   -4892.96134082 Ry
     estimated scf accuracy    <       0.44224479 Ry

     iteration # 17     ecut=    36.75 Ry     beta=0.30
     Davidson diagonalization with overlap
     ethr =  1.88E-04,  avg # of iterations =  4.0

     negative rho (up, down):  2.072E-02 0.000E+00
 
     Adding external electric field

     Computed dipole along edir(3) : 
        Dipole               -0.0677 Ry au,         -0.1721 Debye
        Dipole field         -0.0002 Ry au
 
        Potential amp.        0.0200 Ry
        Total length         44.6496 bohr
 

     total cpu time spent up to now is      338.3 secs

     total energy              =   -4892.90684353 Ry
     Harris-Foulkes estimate   =   -4892.98088530 Ry
     estimated scf accuracy    <       0.72753390 Ry

     iteration # 18     ecut=    36.75 Ry     beta=0.30
     Davidson diagonalization with overlap
     ethr =  1.88E-04,  avg # of iterations =  2.9

     negative rho (up, down):  1.629E-02 0.000E+00
 
     Adding external electric field

     Computed dipole along edir(3) : 
        Dipole                0.0429 Ry au,          0.1091 Debye
        Dipole field          0.0001 Ry au
 
        Potential amp.       -0.0127 Ry
        Total length         44.6496 bohr
 

     total cpu time spent up to now is      349.7 secs

     total energy              =   -4892.92856347 Ry
     Harris-Foulkes estimate   =   -4892.93765944 Ry
     estimated scf accuracy    <       0.08750373 Ry

     iteration # 19     ecut=    36.75 Ry     beta=0.30
     Davidson diagonalization with overlap
     ethr =  3.72E-05,  avg # of iterations =  5.8

     negative rho (up, down):  1.588E-02 0.000E+00
 
     Adding external electric field

     Computed dipole along edir(3) : 
        Dipole               -0.0057 Ry au,         -0.0146 Debye
        Dipole field         -0.0000 Ry au
 
        Potential amp.        0.0017 Ry
        Total length         44.6496 bohr
 

     total cpu time spent up to now is      364.7 secs

     total energy              =   -4892.93367621 Ry
     Harris-Foulkes estimate   =   -4892.93570622 Ry
     estimated scf accuracy    <       0.01201768 Ry

     iteration # 20     ecut=    36.75 Ry     beta=0.30
     Davidson diagonalization with overlap
     ethr =  5.11E-06,  avg # of iterations =  5.2

     negative rho (up, down):  1.102E-02 0.000E+00
 
     Adding external electric field

     Computed dipole along edir(3) : 
        Dipole                0.0287 Ry au,          0.0729 Debye
        Dipole field          0.0001 Ry au
 
        Potential amp.       -0.0085 Ry
        Total length         44.6496 bohr
 

     total cpu time spent up to now is      379.0 secs

     total energy              =   -4892.93430139 Ry
     Harris-Foulkes estimate   =   -4892.93502414 Ry
     estimated scf accuracy    <       0.01018747 Ry

     iteration # 21     ecut=    36.75 Ry     beta=0.30
     Davidson diagonalization with overlap
     ethr =  4.34E-06,  avg # of iterations =  5.2

     negative rho (up, down):  4.705E-03 0.000E+00
 
     Adding external electric field

     Computed dipole along edir(3) : 
        Dipole                0.1012 Ry au,          0.2572 Debye
        Dipole field          0.0003 Ry au
 
        Potential amp.       -0.0298 Ry
        Total length         44.6496 bohr
 

     total cpu time spent up to now is      392.4 secs

     total energy              =   -4892.93329529 Ry
     Harris-Foulkes estimate   =   -4892.93435555 Ry
     estimated scf accuracy    <       0.00860943 Ry

     iteration # 22     ecut=    36.75 Ry     beta=0.30
     Davidson diagonalization with overlap
     ethr =  3.66E-06,  avg # of iterations =  8.6

     negative rho (up, down):  4.658E-03 0.000E+00
 
     Adding external electric field

     Computed dipole along edir(3) : 
        Dipole                0.1089 Ry au,          0.2767 Debye
        Dipole field          0.0004 Ry au
 
        Potential amp.       -0.0321 Ry
        Total length         44.6496 bohr
 

     total cpu time spent up to now is      409.3 secs

     total energy              =   -4892.93335446 Ry
     Harris-Foulkes estimate   =   -4892.93345435 Ry
     estimated scf accuracy    <       0.00257647 Ry

     iteration # 23     ecut=    36.75 Ry     beta=0.30
     Davidson diagonalization with overlap
     ethr =  1.10E-06,  avg # of iterations =  2.6

     negative rho (up, down):  2.324E-03 0.000E+00
 
     Adding external electric field

     Computed dipole along edir(3) : 
        Dipole                0.1438 Ry au,          0.3654 Debye
        Dipole field          0.0005 Ry au
 
        Potential amp.       -0.0424 Ry
        Total length         44.6496 bohr
 

     total cpu time spent up to now is      420.3 secs

     total energy              =   -4892.93313256 Ry
     Harris-Foulkes estimate   =   -4892.93335115 Ry
     estimated scf accuracy    <       0.00173965 Ry

     iteration # 24     ecut=    36.75 Ry     beta=0.30
     Davidson diagonalization with overlap
     ethr =  7.40E-07,  avg # of iterations =  8.6

     negative rho (up, down):  7.955E-04 0.000E+00
 
     Adding external electric field

     Computed dipole along edir(3) : 
        Dipole                0.1875 Ry au,          0.4766 Debye
        Dipole field          0.0006 Ry au
 
        Potential amp.       -0.0553 Ry
        Total length         44.6496 bohr
 

     total cpu time spent up to now is      437.8 secs

     total energy              =   -4892.93307898 Ry
     Harris-Foulkes estimate   =   -4892.93312027 Ry
     estimated scf accuracy    <       0.00055881 Ry

     iteration # 25     ecut=    36.75 Ry     beta=0.30
     Davidson diagonalization with overlap
     ethr =  2.38E-07,  avg # of iterations =  7.7

     negative rho (up, down):  6.763E-04 0.000E+00
 
     Adding external electric field

     Computed dipole along edir(3) : 
        Dipole                0.1930 Ry au,          0.4905 Debye
        Dipole field          0.0006 Ry au
 
        Potential amp.       -0.0569 Ry
        Total length         44.6496 bohr
 

     total cpu time spent up to now is      454.1 secs

     total energy              =   -4892.93312783 Ry
     Harris-Foulkes estimate   =   -4892.93311503 Ry
     estimated scf accuracy    <       0.00002192 Ry

     iteration # 26     ecut=    36.75 Ry     beta=0.30
     Davidson diagonalization with overlap
     ethr =  9.33E-09,  avg # of iterations =  5.3

     negative rho (up, down):  1.125E-03 0.000E+00

     negative rho (up, down):  1.125E-03 0.000E+00

     negative rho (up, down):  1.125E-03 0.000E+00

     negative rho (up, down):  1.125E-03 0.000E+00

     negative rho (up, down):  1.125E-03 0.000E+00

     negative rho (up, down):  1.125E-03 0.000E+00

     negative rho (up, down):  1.125E-03 0.000E+00

     negative rho (up, down):  1.125E-03 0.000E+00

     negative rho (up, down):  1.125E-03 0.000E+00

     negative rho (up, down):  1.125E-03 0.000E+00

     negative rho (up, down):  1.125E-03 0.000E+00

     negative rho (up, down):  1.125E-03 0.000E+00

     negative rho (up, down):  1.125E-03 0.000E+00

     negative rho (up, down):  1.125E-03 0.000E+00

     negative rho (up, down):  1.125E-03 0.000E+00

     negative rho (up, down):  1.125E-03 0.000E+00

     negative rho (up, down):  1.125E-03 0.000E+00

     negative rho (up, down):  1.125E-03 0.000E+00

     negative rho (up, down):  1.125E-03 0.000E+00

     negative rho (up, down):  1.125E-03 0.000E+00

     negative rho (up, down):  1.125E-03 0.000E+00

     negative rho (up, down):  1.125E-03 0.000E+00

     negative rho (up, down):  1.125E-03 0.000E+00

     negative rho (up, down):  1.125E-03 0.000E+00

     negative rho (up, down):  1.125E-03 0.000E+00

     negative rho (up, down):  1.125E-03 0.000E+00

     negative rho (up, down):  1.125E-03 0.000E+00

     negative rho (up, down):  1.125E-03 0.000E+00

     negative rho (up, down):  1.125E-03 0.000E+00

     negative rho (up, down):  1.125E-03 0.000E+00

     negative rho (up, down):  1.125E-03 0.000E+00

     negative rho (up, down):  1.125E-03 0.000E+00

     negative rho (up, down):  1.125E-03 0.000E+00

     negative rho (up, down):  1.125E-03 0.000E+00

     negative rho (up, down):  1.125E-03 0.000E+00
 
     Adding external electric field

     Computed dipole along edir(3) : 
        Dipole                0.1882 Ry au,          0.4783 Debye
        Dipole field          0.0006 Ry au
 
        Potential amp.       -0.0555 Ry
        Total length         44.6496 bohr
 

     total cpu time spent up to now is      481.9 secs

     End of self-consistent calculation

          k = 0.0000 0.0000 0.0000 ( 14321 PWs)   bands (ev):

  -112.0356-111.8724-111.8556-111.8509-111.8501-111.6151-111.5974-111.5927
  -111.5912-111.5454-111.5400-111.5396 -69.5130 -69.3943 -69.3943 -69.2970
   -69.2967 -69.2882 -69.2766 -69.2451 -69.2441 -69.2438 -69.2404 -69.2386
   -69.2381 -69.2220 -69.2217 -69.0591 -69.0584 -69.0471 -69.0208 -69.0056
   -69.0055 -69.0011 -68.9836 -68.9830 -68.9762 -68.9760 -68.9751 -68.9521
   -68.9475 -68.9461 -68.9402 -68.9401 -68.9297 -68.9139 -68.9087 -68.9084
   -18.7172  -7.9195  -7.2919  -5.5277  -4.2250  -3.8650  -3.8649  -3.7727
    -3.6556  -3.6554  -3.5698  -3.4366  -3.4365  -3.2534  -3.2491  -3.2489
    -3.1810  -3.1322  -3.1321  -2.5594  -2.3717  -2.3714  -2.2637  -2.2042
    -2.1713  -2.1712  -2.1159  -2.1156  -2.0427  -1.9998  -1.9998  -1.9605
    -1.9165  -1.9161  -1.8855  -1.8855  -1.7000  -1.6995  -1.5875  -1.3951
    -1.3950  -1.3546  -1.3544  -1.3398  -1.3119  -1.1418  -1.1413  -1.0288
    -1.0287  -0.9599  -0.9261  -0.9259  -0.9074  -0.9069  -0.8871  -0.8868
    -0.8718  -0.8703  -0.7559  -0.7557  -0.7456  -0.7454  -0.6631  -0.6623
    -0.6583  -0.6274  -0.1122   0.8583   1.0481   1.0481   1.3713   1.8997
     2.0966   2.0967   2.3252   2.6436   2.6437   3.8445   4.7797

          k = 0.0000 0.0371 0.0000 ( 14383 PWs)   bands (ev):

  -112.0356-111.8722-111.8554-111.8510-111.8504-111.6150-111.5973-111.5927
  -111.5914-111.5451-111.5400-111.5399 -69.5130 -69.3941 -69.3938 -69.2944
   -69.2930 -69.2849 -69.2764 -69.2464 -69.2449 -69.2446 -69.2411 -69.2392
   -69.2383 -69.2261 -69.2230 -69.0563 -69.0551 -69.0439 -69.0177 -69.0084
   -69.0064 -69.0015 -68.9874 -68.9846 -68.9773 -68.9751 -68.9746 -68.9519
   -68.9475 -68.9463 -68.9427 -68.9405 -68.9309 -68.9136 -68.9088 -68.9086
   -18.7166  -7.8472  -7.1429  -5.3468  -4.0818  -3.9844  -3.8131  -3.7531
    -3.6417  -3.5924  -3.5183  -3.4182  -3.4035  -3.2643  -3.2014  -3.1932
    -3.0962  -3.0525  -3.0396  -2.5519  -2.3927  -2.3715  -2.2630  -2.2316
    -2.2127  -2.1617  -2.1402  -2.1311  -2.0953  -2.0332  -2.0201  -1.9642
    -1.9503  -1.9231  -1.9056  -1.8160  -1.7870  -1.7365  -1.6995  -1.4606
    -1.4294  -1.4223  -1.3870  -1.3613  -1.3311  -1.2643  -1.1840  -1.1360
    -1.1018  -1.0760  -1.0307  -1.0272  -1.0066  -0.9856  -0.9659  -0.9503
    -0.9295  -0.9071  -0.8752  -0.8234  -0.8017  -0.7662  -0.7471  -0.7397
    -0.7308  -0.6269  -0.1913   0.1816   0.7449   0.8862   1.0421   1.6674
     1.9835   2.1307   3.0849   3.2831   3.4448   4.0928   4.9921

          k = 0.0000 0.0742 0.0000 ( 14316 PWs)   bands (ev):

  -112.0356-111.8720-111.8549-111.8514-111.8506-111.6148-111.5969-111.5927
  -111.5920-111.5443-111.5408-111.5399 -69.5129 -69.3937 -69.3928 -69.2888
   -69.2836 -69.2762 -69.2755 -69.2531 -69.2496 -69.2441 -69.2423 -69.2404
   -69.2373 -69.2360 -69.2256 -69.0512 -69.0453 -69.0356 -69.0153 -69.0106
   -69.0099 -68.9998 -68.9988 -68.9873 -68.9810 -68.9749 -68.9712 -68.9515
   -68.9478 -68.9474 -68.9469 -68.9419 -68.9334 -68.9129 -68.9095 -68.9087
   -18.7152  -7.7474  -6.6104  -4.8439  -4.6433  -3.7670  -3.6868  -3.6831
    -3.5944  -3.4485  -3.4215  -3.3236  -3.3187  -3.1899  -3.0775  -3.0626
    -2.8802  -2.8356  -2.8255  -2.5546  -2.4851  -2.4718  -2.4579  -2.3525
    -2.2833  -2.2808  -2.2190  -2.1908  -2.1011  -2.1005  -2.0310  -1.9562
    -1.9192  -1.9114  -1.9088  -1.8942  -1.8529  -1.8096  -1.6793  -1.6243
    -1.6184  -1.5875  -1.5803  -1.4960  -1.4832  -1.4614  -1.4425  -1.4179
    -1.3906  -1.2522  -1.2341  -1.2220  -1.1917  -1.1325  -1.1317  -1.1169
    -1.0749  -1.0393  -0.9997  -0.9344  -0.9096  -0.8965  -0.8737  -0.8064
    -0.8000  -0.6112  -0.5366  -0.0257   0.6726   0.7194   0.8008   1.8691
     2.1230   2.3665   2.8005   4.2189   4.3171   4.6809   5.4699

          k = 0.0000-0.1114 0.0000 ( 14294 PWs)   bands (ev):

  -112.0356-111.8719-111.8546-111.8518-111.8507-111.6147-111.5967-111.5925
  -111.5925-111.5437-111.5414-111.5399 -69.5129 -69.3936 -69.3924 -69.2853
   -69.2769 -69.2761 -69.2665 -69.2572 -69.2529 -69.2518 -69.2432 -69.2399
   -69.2394 -69.2360 -69.2274 -69.0481 -69.0366 -69.0318 -69.0174 -69.0133
   -69.0096 -69.0045 -68.9982 -68.9892 -68.9842 -68.9748 -68.9691 -68.9515
   -68.9503 -68.9474 -68.9472 -68.9431 -68.9345 -68.9123 -68.9101 -68.9087
   -18.7145  -7.7141  -5.7492  -5.6467  -4.2318  -4.0771  -3.6088  -3.5411
    -3.4757  -3.3739  -3.2676  -3.2440  -3.2365  -3.1595  -2.9273  -2.9226
    -2.8074  -2.7621  -2.7171  -2.6455  -2.5350  -2.5031  -2.4950  -2.4537
    -2.4183  -2.4106  -2.2161  -2.1868  -2.1565  -2.0563  -2.0348  -2.0232
    -1.9928  -1.9253  -1.9155  -1.8852  -1.8780  -1.8666  -1.8445  -1.8383
    -1.8314  -1.7877  -1.6296  -1.6100  -1.5645  -1.4778  -1.4715  -1.4350
    -1.4031  -1.3825  -1.3534  -1.3450  -1.2915  -1.2699  -1.2245  -1.1576
    -1.1478  -1.1290  -1.0980  -0.9500  -0.9411  -0.9134  -0.8870  -0.8362
    -0.7977  -0.6063  -0.3881  -0.3413   0.6705   0.7938   1.2275   1.4919
     2.1178   2.1422   3.7643   3.8764   4.5583   4.7551   5.6293

          k = 0.0321-0.0186 0.0000 ( 14383 PWs)   bands (ev):

  -112.0356-111.8722-111.8554-111.8510-111.8503-111.6150-111.5972-111.5928
  -111.5914-111.5451-111.5402-111.5397 -69.5130 -69.3941 -69.3938 -69.2944
   -69.2930 -69.2849 -69.2764 -69.2464 -69.2449 -69.2446 -69.2411 -69.2392
   -69.2383 -69.2261 -69.2230 -69.0565 -69.0549 -69.0439 -69.0177 -69.0084
   -69.0061 -69.0017 -68.9876 -68.9844 -68.9774 -68.9751 -68.9746 -68.9519
   -68.9476 -68.9462 -68.9426 -68.9406 -68.9309 -68.9136 -68.9090 -68.9085
   -18.7166  -7.8472  -7.1429  -5.3468  -4.0818  -3.9844  -3.8132  -3.7531
    -3.6417  -3.5924  -3.5183  -3.4181  -3.4036  -3.2643  -3.2015  -3.1932
    -3.0961  -3.0526  -3.0395  -2.5518  -2.3927  -2.3717  -2.2630  -2.2316
    -2.2127  -2.1617  -2.1402  -2.1312  -2.0953  -2.0332  -2.0202  -1.9642
    -1.9503  -1.9231  -1.9056  -1.8161  -1.7871  -1.7364  -1.6995  -1.4606
    -1.4294  -1.4223  -1.3870  -1.3614  -1.3311  -1.2643  -1.1839  -1.1360
    -1.1018  -1.0760  -1.0309  -1.0272  -1.0066  -0.9857  -0.9658  -0.9504
    -0.9296  -0.9070  -0.8751  -0.8235  -0.8016  -0.7664  -0.7470  -0.7397
    -0.7308  -0.6268  -0.1913   0.1816   0.7449   0.8862   1.0421   1.6674
     1.9836   2.1306   3.0849   3.2831   3.4449   4.0928   4.9921

          k = 0.0321 0.0186 0.0000 ( 14383 PWs)   bands (ev):

  -112.0356-111.8722-111.8553-111.8513-111.8501-111.6150-111.5972-111.5931
  -111.5912-111.5451-111.5403-111.5397 -69.5130 -69.3941 -69.3938 -69.2947
   -69.2927 -69.2849 -69.2764 -69.2466 -69.2446 -69.2443 -69.2412 -69.2396
   -69.2381 -69.2264 -69.2227 -69.0570 -69.0545 -69.0439 -69.0177 -69.0084
   -69.0056 -69.0023 -68.9880 -68.9840 -68.9775 -68.9751 -68.9745 -68.9518
   -68.9478 -68.9461 -68.9425 -68.9407 -68.9309 -68.9136 -68.9090 -68.9084
   -18.7166  -7.8472  -7.1429  -5.3468  -4.0818  -3.9844  -3.8132  -3.7530
    -3.6417  -3.5925  -3.5183  -3.4181  -3.4036  -3.2643  -3.2016  -3.1932
    -3.0959  -3.0528  -3.0395  -2.5518  -2.3925  -2.3719  -2.2629  -2.2316
    -2.2127  -2.1616  -2.1400  -2.1314  -2.0952  -2.0330  -2.0205  -1.9642
    -1.9504  -1.9230  -1.9056  -1.8161  -1.7872  -1.7362  -1.6996  -1.4607
    -1.4294  -1.4222  -1.3869  -1.3617  -1.3310  -1.2643  -1.1836  -1.1361
    -1.1017  -1.0761  -1.0312  -1.0270  -1.0065  -0.9858  -0.9657  -0.9506
    -0.9296  -0.9069  -0.8748  -0.8236  -0.8014  -0.7668  -0.7469  -0.7397
    -0.7308  -0.6267  -0.1913   0.1816   0.7448   0.8864   1.0420   1.6674
     1.9835   2.1307   3.0849   3.2831   3.4448   4.0928   4.9921

          k = 0.0321 0.0557 0.0000 ( 14335 PWs)   bands (ev):

  -112.0356-111.8721-111.8549-111.8517-111.8503-111.6149-111.5968-111.5933
  -111.5914-111.5445-111.5408-111.5398 -69.5129 -69.3938 -69.3932 -69.2905
   -69.2857 -69.2789 -69.2763 -69.2532 -69.2442 -69.2434 -69.2424 -69.2413
   -69.2384 -69.2332 -69.2250 -69.0528 -69.0479 -69.0381 -69.0149 -69.0120
   -69.0054 -69.0034 -68.9951 -68.9864 -68.9804 -68.9749 -68.9717 -68.9515
   -68.9481 -68.9466 -68.9463 -68.9412 -68.9330 -68.9131 -68.9095 -68.9085
   -18.7155  -7.7681  -6.7945  -4.9989  -4.1446  -4.1125  -3.8275  -3.6448
    -3.5800  -3.5328  -3.4252  -3.3556  -3.3134  -3.1762  -3.1706  -3.0760
    -2.9356  -2.9073  -2.8878  -2.5509  -2.4670  -2.4279  -2.4032  -2.2886
    -2.2539  -2.2343  -2.1925  -2.1636  -2.1366  -2.0438  -2.0273  -2.0024
    -1.9692  -1.9462  -1.8916  -1.8576  -1.8397  -1.7952  -1.6784  -1.6113
    -1.5248  -1.5030  -1.4882  -1.4484  -1.4237  -1.4085  -1.3955  -1.3598
    -1.3204  -1.2784  -1.1927  -1.1668  -1.1415  -1.1247  -1.0596  -1.0491
    -1.0073  -0.9666  -0.9417  -0.9159  -0.8956  -0.8742  -0.8435  -0.7236
    -0.6818  -0.6149  -0.3749  -0.3418   0.4962   0.5096   0.8502   2.1464
     2.2869   2.8165   3.0528   3.4954   3.5949   4.4940   5.3832

          k = 0.0321-0.1299 0.0000 ( 14299 PWs)   bands (ev):

  -112.0356-111.8719-111.8544-111.8522-111.8504-111.6147-111.5965-111.5935
  -111.5918-111.5436-111.5415-111.5399 -69.5129 -69.3934 -69.3926 -69.2842
   -69.2761 -69.2759 -69.2697 -69.2612 -69.2520 -69.2451 -69.2431 -69.2408
   -69.2386 -69.2376 -69.2283 -69.0468 -69.0382 -69.0310 -69.0213 -69.0128
   -69.0041 -69.0037 -68.9998 -68.9901 -68.9860 -68.9748 -68.9682 -68.9513
   -68.9504 -68.9482 -68.9466 -68.9417 -68.9356 -68.9123 -68.9102 -68.9086
   -18.7145  -7.7158  -6.0523  -5.0351  -4.3884  -4.1974  -3.7948  -3.5521
    -3.5286  -3.4205  -3.2743  -3.1546  -3.1210  -3.0838  -2.9693  -2.9386
    -2.7952  -2.7275  -2.7222  -2.6029  -2.5848  -2.5710  -2.5295  -2.4689
    -2.4130  -2.3172  -2.2680  -2.2349  -2.1357  -2.1140  -2.0748  -2.0423
    -1.9996  -1.9957  -1.9706  -1.9404  -1.8880  -1.8349  -1.8135  -1.7883
    -1.7568  -1.7172  -1.6773  -1.5811  -1.5208  -1.4923  -1.4614  -1.4092
    -1.3904  -1.3589  -1.3272  -1.3075  -1.2528  -1.2122  -1.1613  -1.0910
    -1.0592  -1.0446  -0.9947  -0.9606  -0.9516  -0.9249  -0.9043  -0.8648
    -0.8437  -0.6712  -0.4340  -0.3089  -0.1583   0.5807   1.1463   2.0367
     2.4034   3.0448   3.5369   3.8486   4.6790   4.8488   5.2731

          k = 0.0321-0.0928 0.0000 ( 14299 PWs)   bands (ev):

  -112.0356-111.8719-111.8546-111.8519-111.8506-111.6147-111.5967-111.5931
  -111.5920-111.5437-111.5415-111.5399 -69.5129 -69.3934 -69.3926 -69.2841
   -69.2761 -69.2758 -69.2697 -69.2619 -69.2513 -69.2452 -69.2433 -69.2407
   -69.2387 -69.2375 -69.2284 -69.0468 -69.0379 -69.0312 -69.0226 -69.0113
   -69.0043 -69.0038 -68.9998 -68.9902 -68.9859 -68.9748 -68.9682 -68.9514
   -68.9504 -68.9478 -68.9469 -68.9416 -68.9356 -68.9123 -68.9102 -68.9087
   -18.7145  -7.7158  -6.0523  -5.0352  -4.3884  -4.1974  -3.7948  -3.5521
    -3.5285  -3.4205  -3.2743  -3.1547  -3.1210  -3.0837  -2.9693  -2.9386
    -2.7952  -2.7275  -2.7222  -2.6029  -2.5848  -2.5710  -2.5295  -2.4689
    -2.4130  -2.3173  -2.2680  -2.2349  -2.1357  -2.1140  -2.0749  -2.0424
    -1.9994  -1.9958  -1.9706  -1.9403  -1.8879  -1.8349  -1.8134  -1.7884
    -1.7568  -1.7172  -1.6774  -1.5811  -1.5207  -1.4924  -1.4614  -1.4093
    -1.3904  -1.3588  -1.3270  -1.3076  -1.2528  -1.2121  -1.1613  -1.0909
    -1.0593  -1.0446  -0.9948  -0.9606  -0.9516  -0.9248  -0.9044  -0.8648
    -0.8437  -0.6712  -0.4340  -0.3089  -0.1583   0.5807   1.1463   2.0367
     2.4034   3.0448   3.5369   3.8485   4.6790   4.8488   5.2731

          k = 0.0321-0.0557 0.0000 ( 14335 PWs)   bands (ev):

  -112.0356-111.8721-111.8551-111.8511-111.8508-111.6148-111.5970-111.5927
  -111.5919-111.5445-111.5406-111.5399 -69.5129 -69.3938 -69.3932 -69.2903
   -69.2858 -69.2790 -69.2763 -69.2535 -69.2442 -69.2436 -69.2421 -69.2410
   -69.2386 -69.2330 -69.2252 -69.0524 -69.0481 -69.0382 -69.0156 -69.0120
   -69.0047 -69.0031 -68.9948 -68.9869 -68.9803 -68.9749 -68.9718 -68.9516
   -68.9474 -68.9468 -68.9465 -68.9411 -68.9330 -68.9131 -68.9093 -68.9087
   -18.7155  -7.7681  -6.7945  -4.9989  -4.1446  -4.1126  -3.8274  -3.6448
    -3.5800  -3.5328  -3.4252  -3.3556  -3.3134  -3.1762  -3.1705  -3.0760
    -2.9357  -2.9072  -2.8879  -2.5510  -2.4670  -2.4279  -2.4031  -2.2886
    -2.2539  -2.2344  -2.1926  -2.1635  -2.1367  -2.0438  -2.0272  -2.0024
    -1.9692  -1.9462  -1.8915  -1.8576  -1.8398  -1.7952  -1.6784  -1.6111
    -1.5247  -1.5032  -1.4880  -1.4485  -1.4239  -1.4086  -1.3952  -1.3597
    -1.3204  -1.2784  -1.1929  -1.1668  -1.1414  -1.1248  -1.0595  -1.0492
    -1.0072  -0.9667  -0.9416  -0.9159  -0.8955  -0.8742  -0.8437  -0.7235
    -0.6818  -0.6149  -0.3748  -0.3419   0.4961   0.5096   0.8502   2.1464
     2.2870   2.8166   3.0527   3.4954   3.5949   4.4940   5.3832

          k = 0.0643-0.0371 0.0000 ( 14316 PWs)   bands (ev):

  -112.0356-111.8720-111.8549-111.8515-111.8506-111.6148-111.5968-111.5932
  -111.5917-111.5442-111.5410-111.5398 -69.5129 -69.3938 -69.3928 -69.2889
   -69.2835 -69.2762 -69.2755 -69.2531 -69.2495 -69.2441 -69.2424 -69.2403
   -69.2373 -69.2361 -69.2256 -69.0514 -69.0451 -69.0355 -69.0154 -69.0101
   -69.0099 -69.0003 -68.9991 -68.9870 -68.9811 -68.9749 -68.9711 -68.9514
   -68.9480 -68.9476 -68.9465 -68.9421 -68.9333 -68.9128 -68.9097 -68.9085
   -18.7152  -7.7474  -6.6104  -4.8439  -4.6433  -3.7669  -3.6869  -3.6831
    -3.5943  -3.4485  -3.4215  -3.3236  -3.3187  -3.1899  -3.0775  -3.0626
    -2.8802  -2.8358  -2.8254  -2.5544  -2.4851  -2.4719  -2.4580  -2.3525
    -2.2834  -2.2807  -2.2190  -2.1908  -2.1011  -2.1005  -2.0310  -1.9561
    -1.9192  -1.9114  -1.9088  -1.8942  -1.8529  -1.8096  -1.6794  -1.6243
    -1.6185  -1.5873  -1.5803  -1.4961  -1.4832  -1.4615  -1.4425  -1.4178
    -1.3906  -1.2522  -1.2343  -1.2219  -1.1916  -1.1324  -1.1318  -1.1168
    -1.0750  -1.0393  -0.9997  -0.9344  -0.9094  -0.8966  -0.8736  -0.8066
    -0.7998  -0.6111  -0.5366  -0.0257   0.6725   0.7194   0.8008   1.8691
     2.1230   2.3665   2.8004   4.2189   4.3171   4.6809   5.4699

          k = 0.0643-0.0000 0.0000 ( 14335 PWs)   bands (ev):

  -112.0356-111.8721-111.8549-111.8517-111.8502-111.6149-111.5967-111.5935
  -111.5913-111.5445-111.5409-111.5397 -69.5129 -69.3938 -69.3932 -69.2905
   -69.2857 -69.2789 -69.2763 -69.2532 -69.2442 -69.2434 -69.2424 -69.2414
   -69.2384 -69.2332 -69.2250 -69.0529 -69.0479 -69.0380 -69.0147 -69.0120
   -69.0053 -69.0038 -68.9951 -68.9863 -68.9805 -68.9749 -68.9717 -68.9514
   -68.9483 -68.9465 -68.9461 -68.9412 -68.9330 -68.9130 -68.9096 -68.9084
   -18.7155  -7.7681  -6.7945  -4.9989  -4.1446  -4.1125  -3.8274  -3.6448
    -3.5800  -3.5328  -3.4251  -3.3556  -3.3134  -3.1762  -3.1706  -3.0760
    -2.9356  -2.9074  -2.8878  -2.5509  -2.4669  -2.4279  -2.4032  -2.2886
    -2.2539  -2.2343  -2.1925  -2.1636  -2.1366  -2.0438  -2.0273  -2.0024
    -1.9692  -1.9462  -1.8916  -1.8576  -1.8397  -1.7952  -1.6784  -1.6113
    -1.5248  -1.5030  -1.4883  -1.4483  -1.4236  -1.4085  -1.3956  -1.3598
    -1.3203  -1.2784  -1.1927  -1.1668  -1.1415  -1.1247  -1.0597  -1.0491
    -1.0074  -0.9665  -0.9417  -0.9159  -0.8956  -0.8742  -0.8435  -0.7236
    -0.6817  -0.6149  -0.3749  -0.3418   0.4962   0.5095   0.8502   2.1464
     2.2870   2.8165   3.0528   3.4954   3.5949   4.4940   5.3831

          k = 0.0643 0.0371 0.0000 ( 14316 PWs)   bands (ev):

  -112.0356-111.8720-111.8546-111.8522-111.8501-111.6148-111.5964-111.5940
  -111.5912-111.5442-111.5412-111.5397 -69.5129 -69.3937 -69.3928 -69.2893
   -69.2831 -69.2762 -69.2754 -69.2533 -69.2490 -69.2438 -69.2430 -69.2401
   -69.2376 -69.2366 -69.2252 -69.0520 -69.0446 -69.0353 -69.0154 -69.0098
   -69.0092 -69.0014 -68.9997 -68.9863 -68.9813 -68.9749 -68.9710 -68.9511
   -68.9488 -68.9475 -68.9461 -68.9423 -68.9332 -68.9128 -68.9099 -68.9084
   -18.7152  -7.7474  -6.6104  -4.8439  -4.6433  -3.7669  -3.6869  -3.6831
    -3.5943  -3.4486  -3.4215  -3.3234  -3.3188  -3.1899  -3.0776  -3.0625
    -2.8801  -2.8360  -2.8253  -2.5543  -2.4849  -2.4721  -2.4581  -2.3525
    -2.2836  -2.2805  -2.2189  -2.1908  -2.1009  -2.1006  -2.0310  -1.9561
    -1.9192  -1.9114  -1.9087  -1.8942  -1.8530  -1.8097  -1.6796  -1.6244
    -1.6186  -1.5870  -1.5803  -1.4962  -1.4832  -1.4617  -1.4425  -1.4178
    -1.3905  -1.2521  -1.2346  -1.2217  -1.1916  -1.1322  -1.1319  -1.1166
    -1.0751  -1.0394  -0.9998  -0.9344  -0.9093  -0.8968  -0.8736  -0.8070
    -0.7994  -0.6111  -0.5366  -0.0257   0.6724   0.7192   0.8011   1.8690
     2.1232   2.3665   2.8005   4.2189   4.3171   4.6809   5.4699

          k = 0.0643-0.1485 0.0000 ( 14299 PWs)   bands (ev):

  -112.0356-111.8719-111.8541-111.8528-111.8502-111.6147-111.5960-111.5944
  -111.5914-111.5435-111.5418-111.5397 -69.5129 -69.3934 -69.3926 -69.2845
   -69.2761 -69.2755 -69.2695 -69.2616 -69.2515 -69.2454 -69.2427 -69.2407
   -69.2392 -69.2379 -69.2279 -69.0475 -69.0376 -69.0303 -69.0221 -69.0114
   -69.0050 -69.0036 -69.0011 -68.9892 -68.9862 -68.9748 -68.9681 -68.9509
   -68.9503 -68.9490 -68.9462 -68.9420 -68.9354 -68.9121 -68.9105 -68.9085
   -18.7145  -7.7158  -6.0523  -5.0351  -4.3884  -4.1974  -3.7948  -3.5522
    -3.5285  -3.4205  -3.2743  -3.1547  -3.1210  -3.0838  -2.9693  -2.9385
    -2.7952  -2.7276  -2.7221  -2.6027  -2.5850  -2.5710  -2.5296  -2.4688
    -2.4130  -2.3173  -2.2679  -2.2349  -2.1356  -2.1139  -2.0750  -2.0422
    -1.9994  -1.9958  -1.9707  -1.9403  -1.8881  -1.8349  -1.8135  -1.7882
    -1.7570  -1.7171  -1.6773  -1.5811  -1.5208  -1.4926  -1.4614  -1.4092
    -1.3907  -1.3586  -1.3271  -1.3076  -1.2530  -1.2118  -1.1613  -1.0910
    -1.0593  -1.0447  -0.9948  -0.9607  -0.9515  -0.9248  -0.9045  -0.8643
    -0.8439  -0.6712  -0.4340  -0.3089  -0.1583   0.5807   1.1463   2.0367
     2.4034   3.0448   3.5369   3.8486   4.6790   4.8489   5.2731

          k = 0.0643-0.1114 0.0000 ( 14310 PWs)   bands (ev):

  -112.0356-111.8718-111.8539-111.8529-111.8503-111.6146-111.5961-111.5941
  -111.5916-111.5428-111.5425-111.5398 -69.5129 -69.3928 -69.3928 -69.2763
   -69.2761 -69.2760 -69.2636 -69.2632 -69.2626 -69.2430 -69.2422 -69.2406
   -69.2390 -69.2389 -69.2310 -69.0399 -69.0394 -69.0236 -69.0234 -69.0221
   -69.0018 -69.0009 -68.9950 -68.9946 -68.9929 -68.9748 -68.9662 -68.9522
   -68.9505 -68.9488 -68.9464 -68.9393 -68.9390 -68.9114 -68.9111 -68.9085
   -18.7141  -7.7037  -5.2109  -5.2081  -5.0957  -3.8803  -3.8628  -3.6964
    -3.4941  -3.4671  -2.9893  -2.9644  -2.9543  -2.9463  -2.9322  -2.9159
    -2.7795  -2.7675  -2.7519  -2.7501  -2.7162  -2.5489  -2.5216  -2.5113
    -2.3736  -2.3597  -2.3216  -2.2604  -2.2462  -2.2070  -2.1972  -2.1854
    -2.1299  -2.1151  -1.9690  -1.9442  -1.9357  -1.8296  -1.8269  -1.8210
    -1.8170  -1.7757  -1.6285  -1.5656  -1.5228  -1.4843  -1.4561  -1.4182
    -1.3547  -1.3480  -1.3199  -1.3084  -1.2070  -1.0981  -1.0722  -1.0444
    -1.0353  -1.0249  -0.9877  -0.9805  -0.9693  -0.9678  -0.9265  -0.9219
    -0.8750  -0.8628  -0.7817  -0.2274  -0.1799  -0.0824   1.7002   1.7050
     2.4662   4.3139   4.3877   4.4017   4.5614   4.8368   4.9652

          k = 0.0643-0.0742 0.0000 ( 14299 PWs)   bands (ev):

  -112.0356-111.8719-111.8546-111.8520-111.8506-111.6147-111.5966-111.5934
  -111.5918-111.5436-111.5416-111.5398 -69.5129 -69.3934 -69.3926 -69.2842
   -69.2761 -69.2758 -69.2697 -69.2619 -69.2512 -69.2452 -69.2433 -69.2406
   -69.2387 -69.2375 -69.2284 -69.0470 -69.0378 -69.0310 -69.0228 -69.0109
   -69.0046 -69.0037 -69.0002 -68.9899 -68.9861 -68.9748 -68.9682 -68.9513
   -68.9504 -68.9481 -68.9466 -68.9418 -68.9355 -68.9122 -68.9103 -68.9086
   -18.7145  -7.7158  -6.0523  -5.0351  -4.3884  -4.1974  -3.7949  -3.5522
    -3.5285  -3.4205  -3.2743  -3.1547  -3.1210  -3.0837  -2.9692  -2.9386
    -2.7952  -2.7276  -2.7222  -2.6029  -2.5849  -2.5709  -2.5295  -2.4688
    -2.4130  -2.3173  -2.2680  -2.2349  -2.1356  -2.1139  -2.0750  -2.0423
    -1.9994  -1.9959  -1.9706  -1.9403  -1.8880  -1.8348  -1.8135  -1.7883
    -1.7569  -1.7171  -1.6773  -1.5811  -1.5207  -1.4925  -1.4614  -1.4093
    -1.3905  -1.3587  -1.3270  -1.3077  -1.2529  -1.2120  -1.1614  -1.0909
    -1.0593  -1.0446  -0.9949  -0.9606  -0.9515  -0.9248  -0.9044  -0.8647
    -0.8437  -0.6712  -0.4340  -0.3089  -0.1583   0.5807   1.1463   2.0367
     2.4034   3.0448   3.5369   3.8486   4.6790   4.8489   5.2731

          k =-0.0964 0.0557 0.0000 ( 14294 PWs)   bands (ev):

  -112.0356-111.8719-111.8546-111.8519-111.8506-111.6147-111.5965-111.5934
  -111.5918-111.5436-111.5417-111.5398 -69.5129 -69.3936 -69.3924 -69.2854
   -69.2768 -69.2761 -69.2666 -69.2571 -69.2528 -69.2519 -69.2431 -69.2399
   -69.2394 -69.2360 -69.2274 -69.0483 -69.0362 -69.0318 -69.0172 -69.0126
   -69.0105 -69.0044 -68.9987 -68.9887 -68.9845 -68.9748 -68.9690 -68.9513
   -68.9501 -68.9482 -68.9466 -68.9434 -68.9343 -68.9122 -68.9104 -68.9085
   -18.7145  -7.7141  -5.7491  -5.6467  -4.2318  -4.0771  -3.6088  -3.5411
    -3.4756  -3.3739  -3.2676  -3.2440  -3.2365  -3.1595  -2.9273  -2.9226
    -2.8075  -2.7621  -2.7171  -2.6454  -2.5351  -2.5030  -2.4951  -2.4537
    -2.4183  -2.4104  -2.2161  -2.1867  -2.1565  -2.0563  -2.0348  -2.0231
    -1.9928  -1.9253  -1.9155  -1.8854  -1.8779  -1.8667  -1.8446  -1.8383
    -1.8313  -1.7877  -1.6297  -1.6100  -1.5644  -1.4777  -1.4717  -1.4351
    -1.4032  -1.3825  -1.3533  -1.3451  -1.2916  -1.2697  -1.2244  -1.1576
    -1.1478  -1.1289  -1.0980  -0.9501  -0.9413  -0.9133  -0.8869  -0.8363
    -0.7976  -0.6063  -0.3881  -0.3413   0.6704   0.7939   1.2275   1.4919
     2.1178   2.1422   3.7643   3.8764   4.5583   4.7551   5.6290

          k =-0.0964 0.0928 0.0000 ( 14299 PWs)   bands (ev):

  -112.0356-111.8719-111.8544-111.8523-111.8504-111.6147-111.5963-111.5938
  -111.5916-111.5435-111.5417-111.5398 -69.5129 -69.3934 -69.3926 -69.2842
   -69.2761 -69.2759 -69.2697 -69.2612 -69.2520 -69.2451 -69.2431 -69.2408
   -69.2386 -69.2376 -69.2283 -69.0471 -69.0382 -69.0307 -69.0210 -69.0130
   -69.0043 -69.0036 -69.0001 -68.9897 -68.9862 -68.9748 -68.9682 -68.9512
   -68.9503 -68.9486 -68.9464 -68.9419 -68.9355 -68.9121 -68.9104 -68.9085
   -18.7145  -7.7158  -6.0523  -5.0351  -4.3884  -4.1974  -3.7948  -3.5522
    -3.5286  -3.4205  -3.2743  -3.1546  -3.1210  -3.0837  -2.9693  -2.9386
    -2.7952  -2.7276  -2.7221  -2.6028  -2.5849  -2.5710  -2.5295  -2.4689
    -2.4130  -2.3172  -2.2680  -2.2349  -2.1356  -2.1140  -2.0748  -2.0423
    -1.9996  -1.9956  -1.9706  -1.9404  -1.8880  -1.8349  -1.8135  -1.7882
    -1.7570  -1.7172  -1.6773  -1.5811  -1.5209  -1.4924  -1.4614  -1.4091
    -1.3905  -1.3588  -1.3272  -1.3074  -1.2528  -1.2121  -1.1613  -1.0910
    -1.0592  -1.0446  -0.9948  -0.9607  -0.9515  -0.9249  -0.9042  -0.8647
    -0.8438  -0.6712  -0.4340  -0.3089  -0.1583   0.5807   1.1463   2.0367
     2.4034   3.0448   3.5369   3.8486   4.6790   4.8488   5.2731

          k =-0.0964 0.1299 0.0000 ( 14299 PWs)   bands (ev):

  -112.0356-111.8719-111.8540-111.8529-111.8502-111.6147-111.5959-111.5946
  -111.5913-111.5435-111.5419-111.5397 -69.5129 -69.3934 -69.3926 -69.2845
   -69.2761 -69.2756 -69.2695 -69.2615 -69.2515 -69.2454 -69.2427 -69.2407
   -69.2392 -69.2379 -69.2279 -69.0475 -69.0377 -69.0302 -69.0216 -69.0119
   -69.0049 -69.0036 -69.0010 -68.9891 -68.9863 -68.9748 -68.9681 -68.9509
   -68.9502 -68.9491 -68.9462 -68.9420 -68.9354 -68.9121 -68.9106 -68.9085
   -18.7145  -7.7158  -6.0523  -5.0351  -4.3884  -4.1974  -3.7948  -3.5521
    -3.5285  -3.4205  -3.2743  -3.1547  -3.1210  -3.0838  -2.9693  -2.9385
    -2.7952  -2.7276  -2.7221  -2.6027  -2.5849  -2.5709  -2.5296  -2.4689
    -2.4130  -2.3173  -2.2679  -2.2349  -2.1356  -2.1139  -2.0749  -2.0422
    -1.9995  -1.9957  -1.9707  -1.9403  -1.8881  -1.8350  -1.8135  -1.7881
    -1.7570  -1.7171  -1.6773  -1.5810  -1.5209  -1.4926  -1.4614  -1.4091
    -1.3907  -1.3586  -1.3272  -1.3075  -1.2530  -1.2119  -1.1613  -1.0910
    -1.0593  -1.0447  -0.9949  -0.9606  -0.9515  -0.9249  -0.9044  -0.8643
    -0.8439  -0.6712  -0.4340  -0.3089  -0.1583   0.5807   1.1463   2.0367
     2.4034   3.0448   3.5369   3.8485   4.6790   4.8488   5.2731

          k =-0.0964-0.0557 0.0000 ( 14294 PWs)   bands (ev):

  -112.0356-111.8719-111.8539-111.8531-111.8501-111.6147-111.5955-111.5950
  -111.5912-111.5434-111.5420-111.5397 -69.5129 -69.3936 -69.3924 -69.2858
   -69.2762 -69.2761 -69.2666 -69.2565 -69.2530 -69.2523 -69.2425 -69.2406
   -69.2394 -69.2367 -69.2268 -69.0490 -69.0351 -69.0319 -69.0157 -69.0125
   -69.0120 -69.0042 -69.0001 -68.9877 -68.9848 -68.9748 -68.9689 -68.9506
   -68.9500 -68.9494 -68.9461 -68.9436 -68.9342 -68.9120 -68.9106 -68.9084
   -18.7145  -7.7141  -5.7492  -5.6467  -4.2318  -4.0771  -3.6088  -3.5411
    -3.4757  -3.3739  -3.2675  -3.2442  -3.2362  -3.1595  -2.9276  -2.9223
    -2.8075  -2.7620  -2.7173  -2.6451  -2.5353  -2.5028  -2.4952  -2.4541
    -2.4184  -2.4101  -2.2160  -2.1867  -2.1566  -2.0562  -2.0348  -2.0228
    -1.9929  -1.9252  -1.9156  -1.8858  -1.8776  -1.8669  -1.8444  -1.8382
    -1.8316  -1.7875  -1.6300  -1.6097  -1.5644  -1.4776  -1.4718  -1.4354
    -1.4033  -1.3822  -1.3530  -1.3455  -1.2920  -1.2692  -1.2242  -1.1576
    -1.1480  -1.1287  -1.0981  -0.9502  -0.9414  -0.9131  -0.8869  -0.8368
    -0.7971  -0.6062  -0.3881  -0.3414   0.6701   0.7942   1.2275   1.4918
     2.1179   2.1421   3.7643   3.8764   4.5583   4.7552   5.6290

     the Fermi energy is     0.7340 ev

!    total energy              =   -4892.93312848 Ry
     Harris-Foulkes estimate   =   -4892.93313780 Ry
     estimated scf accuracy    <       0.00000788 Ry

     The total energy is the sum of the following terms:

     one-electron contribution =  -37898.62336215 Ry
     hartree contribution      =   18969.12036119 Ry
     xc contribution           =    -488.53787912 Ry
     ewald contribution        =   14525.13759867 Ry
     electric field correction =       0.00011688 Ry
     smearing contrib. (-TS)   =      -0.02996395 Ry

     convergence has been achieved in  26 iterations
 
 BEEF-vdW xc energy contributions
           1 :   -432.742807073725     
           2 :    392.062948327242     
           3 :   -323.262443998539     
           4 :    245.368619872005     
           5 :   -175.577638968442     
           6 :    123.134563129920     
           7 :   -87.9778375309227     
           8 :    63.9777975898375     
           9 :   -44.2563384945965     
          10 :    25.3295016074835     
          11 :   -8.03282914276809     
          12 :   -4.59302169716767     
          13 :    10.4760977529830     
          14 :   -10.4566233065892     
          15 :    7.86867001896047     
          16 :   -6.36415196584488     
          17 :    7.68636955710792     
          18 :   -10.9230177628947     
          19 :    13.5843903042380     
          20 :   -13.5991233494266     
          21 :    10.7970526259900     
          22 :   -6.92649030607873     
          23 :    4.32498591372081     
          24 :   -4.27382889611778     
          25 :    6.19546302350415     
          26 :   -8.18986111415489     
          27 :    8.45172874448025     
          28 :   -6.53126486737438     
          29 :    3.56938033726630     
          30 :   -1.40584964526016     
          31 :   -34.6628708226237     
          32 :   -23.6443740040390     

     Forces acting on atoms (Ry/au):


     negative rho (up, down):  1.125E-03 0.000E+00
     atom    1 type  1   force =    -0.00057877   -0.00032559    0.00038774
     atom    2 type  1   force =     0.00063929   -0.00026765    0.00203328
     atom    3 type  1   force =     0.00013233    0.00066432    0.00077972
     atom    4 type  1   force =    -0.00013500   -0.00005388    0.00352303
     atom    5 type  1   force =     0.00018405   -0.00191811    0.00294983
     atom    6 type  1   force =    -0.00011870   -0.00010774    0.00425641
     atom    7 type  1   force =     0.00148471    0.00090311    0.00305315
     atom    8 type  1   force =    -0.00157319    0.00106828    0.00261070
     atom    9 type  1   force =     0.00003984    0.00006697   -0.14128359
     atom   10 type  1   force =    -0.00004822    0.00009347   -0.01293958
     atom   11 type  1   force =     0.00000961   -0.00009373   -0.01238077
     atom   12 type  1   force =    -0.00002780   -0.00003090   -0.01237443
     atom   13 type  2   force =    -0.00000319    0.00000165    0.12123144
     atom   14 type  3   force =    -0.00000496   -0.00000020    0.03815307

     Total force =     0.191279     Total SCF correction =     0.003428


     entering subroutine stress ...


     negative rho (up, down):  1.125E-03 0.000E+00
          total   stress  (Ry/bohr**3)                   (kbar)     P=   -3.56
  -0.00008293  -0.00000001  -0.00000001        -12.20     -0.00     -0.00
  -0.00000001  -0.00008291  -0.00000001         -0.00    -12.20     -0.00
  -0.00000001  -0.00000001   0.00009330         -0.00     -0.00     13.72


     BFGS Geometry Optimization

     number of scf cycles    =   1
     number of bfgs steps    =   0

     energy   new            =   -4892.9331284782 Ry

     new trust radius        =       0.1412836088 bohr
     new conv_thr            =       0.0000099958 Ry


ATOMIC_POSITIONS (crystal)
Cu1      0.166666667   0.166666667   0.412653782    0   0   0
Cu1      0.666666667   0.166666667   0.412653782    0   0   0
Cu1      0.166666667   0.666666667   0.412653782    0   0   0
Cu1      0.666666667   0.666666667   0.412653782    0   0   0
Cu1      0.833333333   0.333333333   0.500000000    0   0   0
Cu1      0.333333333   0.333333333   0.500000000    0   0   0
Cu1      0.833333333   0.833333333   0.500000000    0   0   0
Cu1      0.333333333   0.833333333   0.500000000    0   0   0
Cu1      0.000000120   0.000007893   0.584261051
Cu1      0.499989571   0.000011015   0.587063661
Cu1      0.000006504   0.499988954   0.587075863
Cu1      0.499998984   0.499996358   0.587076001
O1      -0.000000423   0.000000195   0.659443144
H1      -0.000000494  -0.000000024   0.696831096



     Writing output data file calc.save
     Check: negative starting charge=   -0.000235
     NEW-OLD atomic charge density approx. for the potential
     Check: negative starting charge=   -0.000248

     negative rho (up, down):  1.242E-03 0.000E+00
 
     Adding external electric field

     Computed dipole along edir(3) : 
        Dipole                0.0092 Ry au,          0.0234 Debye
        Dipole field          0.0000 Ry au
 
        Potential amp.       -0.0027 Ry
        Total length         44.6496 bohr
 

     total cpu time spent up to now is      497.4 secs

     Self-consistent Calculation

     iteration #  1     ecut=    36.75 Ry     beta=0.30
     Davidson diagonalization with overlap
     ethr =  1.00E-06,  avg # of iterations =  8.2

     negative rho (up, down):  1.066E-03 0.000E+00
 
     Adding external electric field

     Computed dipole along edir(3) : 
        Dipole                0.8609 Ry au,          2.1882 Debye
        Dipole field          0.0028 Ry au
 
        Potential amp.       -0.2537 Ry
        Total length         44.6496 bohr
 

     total cpu time spent up to now is      527.6 secs

     total energy              =   -4892.88908191 Ry
     Harris-Foulkes estimate   =   -4892.95653107 Ry
     estimated scf accuracy    <       0.14276835 Ry

     iteration #  2     ecut=    36.75 Ry     beta=0.30
     Davidson diagonalization with overlap
     ethr =  6.08E-05,  avg # of iterations =  6.2

     negative rho (up, down):  1.046E-03 0.000E+00
 
     Adding external electric field

     Computed dipole along edir(3) : 
        Dipole                0.0857 Ry au,          0.2178 Debye
        Dipole field          0.0003 Ry au
 
        Potential amp.       -0.0253 Ry
        Total length         44.6496 bohr
 

     total cpu time spent up to now is      546.2 secs

     total energy              =   -4892.70154444 Ry
     Harris-Foulkes estimate   =   -4893.16599607 Ry
     estimated scf accuracy    <       6.77990870 Ry

     iteration #  3     ecut=    36.75 Ry     beta=0.30
     Davidson diagonalization with overlap
     ethr =  6.08E-05,  avg # of iterations =  5.8

     negative rho (up, down):  1.064E-03 0.000E+00
 
     Adding external electric field

     Computed dipole along edir(3) : 
        Dipole                0.0890 Ry au,          0.2261 Debye
        Dipole field          0.0003 Ry au
 
        Potential amp.       -0.0262 Ry
        Total length         44.6496 bohr
 

     total cpu time spent up to now is      563.0 secs

     total energy              =   -4892.94214151 Ry
     Harris-Foulkes estimate   =   -4892.95150401 Ry
     estimated scf accuracy    <       0.04930225 Ry

     iteration #  4     ecut=    36.75 Ry     beta=0.30
     Davidson diagonalization with overlap
     ethr =  2.10E-05,  avg # of iterations =  2.6

     negative rho (up, down):  1.035E-03 0.000E+00
 
     Adding external electric field

     Computed dipole along edir(3) : 
        Dipole                0.0800 Ry au,          0.2034 Debye
        Dipole field          0.0003 Ry au
 
        Potential amp.       -0.0236 Ry
        Total length         44.6496 bohr
 

     total cpu time spent up to now is      574.1 secs

     total energy              =   -4892.94568683 Ry
     Harris-Foulkes estimate   =   -4892.94690146 Ry
     estimated scf accuracy    <       0.00432603 Ry

     iteration #  5     ecut=    36.75 Ry     beta=0.30
     Davidson diagonalization with overlap
     ethr =  1.84E-06,  avg # of iterations =  4.2

     negative rho (up, down):  1.046E-03 0.000E+00
 
     Adding external electric field

     Computed dipole along edir(3) : 
        Dipole                0.0853 Ry au,          0.2168 Debye
        Dipole field          0.0003 Ry au
 
        Potential amp.       -0.0251 Ry
        Total length         44.6496 bohr
 

     total cpu time spent up to now is      589.3 secs

     total energy              =   -4892.94612945 Ry
     Harris-Foulkes estimate   =   -4892.94664548 Ry
     estimated scf accuracy    <       0.00208797 Ry

     iteration #  6     ecut=    36.75 Ry     beta=0.30
     Davidson diagonalization with overlap
     ethr =  8.88E-07,  avg # of iterations =  2.5

     negative rho (up, down):  1.063E-03 0.000E+00
 
     Adding external electric field

     Computed dipole along edir(3) : 
        Dipole                0.0912 Ry au,          0.2318 Debye
        Dipole field          0.0003 Ry au
 
        Potential amp.       -0.0269 Ry
        Total length         44.6496 bohr
 

     total cpu time spent up to now is      600.6 secs

     total energy              =   -4892.94630822 Ry
     Harris-Foulkes estimate   =   -4892.94640893 Ry
     estimated scf accuracy    <       0.00057048 Ry

     iteration #  7     ecut=    36.75 Ry     beta=0.30
     Davidson diagonalization with overlap
     ethr =  2.43E-07,  avg # of iterations =  2.0

     negative rho (up, down):  1.077E-03 0.000E+00
 
     Adding external electric field

     Computed dipole along edir(3) : 
        Dipole                0.0920 Ry au,          0.2337 Debye
        Dipole field          0.0003 Ry au
 
        Potential amp.       -0.0271 Ry
        Total length         44.6496 bohr
 

     total cpu time spent up to now is      611.1 secs

     total energy              =   -4892.94635955 Ry
     Harris-Foulkes estimate   =   -4892.94636861 Ry
     estimated scf accuracy    <       0.00010859 Ry

     iteration #  8     ecut=    36.75 Ry     beta=0.30
     Davidson diagonalization with overlap
     ethr =  4.62E-08,  avg # of iterations =  2.8

     negative rho (up, down):  1.092E-03 0.000E+00
 
     Adding external electric field

     Computed dipole along edir(3) : 
        Dipole                0.0945 Ry au,          0.2403 Debye
        Dipole field          0.0003 Ry au
 
        Potential amp.       -0.0279 Ry
        Total length         44.6496 bohr
 

     total cpu time spent up to now is      623.0 secs

     total energy              =   -4892.94637264 Ry
     Harris-Foulkes estimate   =   -4892.94637117 Ry
     estimated scf accuracy    <       0.00002779 Ry

     iteration #  9     ecut=    36.75 Ry     beta=0.30
     Davidson diagonalization with overlap
     ethr =  1.18E-08,  avg # of iterations =  2.0

     negative rho (up, down):  1.121E-03 0.000E+00

     negative rho (up, down):  1.121E-03 0.000E+00

     negative rho (up, down):  1.121E-03 0.000E+00

     negative rho (up, down):  1.121E-03 0.000E+00

     negative rho (up, down):  1.121E-03 0.000E+00

     negative rho (up, down):  1.121E-03 0.000E+00

     negative rho (up, down):  1.121E-03 0.000E+00

     negative rho (up, down):  1.121E-03 0.000E+00

     negative rho (up, down):  1.121E-03 0.000E+00

     negative rho (up, down):  1.121E-03 0.000E+00

     negative rho (up, down):  1.121E-03 0.000E+00

     negative rho (up, down):  1.121E-03 0.000E+00

     negative rho (up, down):  1.121E-03 0.000E+00

     negative rho (up, down):  1.121E-03 0.000E+00

     negative rho (up, down):  1.121E-03 0.000E+00

     negative rho (up, down):  1.121E-03 0.000E+00

     negative rho (up, down):  1.121E-03 0.000E+00

     negative rho (up, down):  1.121E-03 0.000E+00

     negative rho (up, down):  1.121E-03 0.000E+00

     negative rho (up, down):  1.121E-03 0.000E+00

     negative rho (up, down):  1.121E-03 0.000E+00

     negative rho (up, down):  1.121E-03 0.000E+00

     negative rho (up, down):  1.121E-03 0.000E+00

     negative rho (up, down):  1.121E-03 0.000E+00

     negative rho (up, down):  1.121E-03 0.000E+00

     negative rho (up, down):  1.121E-03 0.000E+00

     negative rho (up, down):  1.121E-03 0.000E+00

     negative rho (up, down):  1.121E-03 0.000E+00

     negative rho (up, down):  1.121E-03 0.000E+00

     negative rho (up, down):  1.121E-03 0.000E+00

     negative rho (up, down):  1.121E-03 0.000E+00

     negative rho (up, down):  1.121E-03 0.000E+00

     negative rho (up, down):  1.121E-03 0.000E+00

     negative rho (up, down):  1.121E-03 0.000E+00

     negative rho (up, down):  1.121E-03 0.000E+00
 
     Adding external electric field

     Computed dipole along edir(3) : 
        Dipole                0.1059 Ry au,          0.2691 Debye
        Dipole field          0.0003 Ry au
 
        Potential amp.       -0.0312 Ry
        Total length         44.6496 bohr
 

     total cpu time spent up to now is      645.6 secs

     End of self-consistent calculation

          k = 0.0000 0.0000 0.0000 ( 14321 PWs)   bands (ev):

  -112.0427-112.0318-112.0269-112.0260-112.0255-111.7934-111.7698-111.7647
  -111.7624-111.7076-111.7022-111.7017 -69.4730 -69.4697 -69.4695 -69.4467
   -69.4399 -69.4305 -69.4303 -69.4144 -69.4141 -69.4139 -69.4128 -69.4064
   -69.4062 -69.3958 -69.3956 -69.2340 -69.2331 -69.2186 -69.1839 -69.1796
   -69.1793 -69.1723 -69.1556 -69.1544 -69.1539 -69.1391 -69.1389 -69.1252
   -69.1203 -69.1181 -69.1033 -69.1031 -69.0935 -69.0730 -69.0679 -69.0675
   -18.5477  -7.8463  -7.0238  -5.6221  -4.3759  -4.0007  -4.0006  -3.9575
    -3.8114  -3.8112  -3.7458  -3.4654  -3.4653  -3.4326  -3.3909  -3.3904
    -3.3417  -3.0297  -3.0293  -2.7287  -2.4949  -2.4946  -2.4291  -2.3644
    -2.3480  -2.3479  -2.2236  -2.2233  -2.2025  -2.1599  -2.1599  -2.1378
    -2.0439  -2.0438  -2.0410  -2.0408  -1.8544  -1.8538  -1.7853  -1.5588
    -1.5588  -1.5162  -1.5158  -1.5024  -1.4779  -1.2949  -1.2942  -1.1909
    -1.1906  -1.1290  -1.0914  -1.0912  -1.0645  -1.0637  -1.0547  -1.0543
    -1.0405  -1.0039  -0.8853  -0.8852  -0.8685  -0.8681  -0.8322  -0.8312
    -0.8289  -0.7907  -0.3227   0.7032   0.8648   0.8648   1.2357   1.7386
     1.9103   1.9103   2.1580   2.4384   2.4384   4.0520   4.6498

          k = 0.0000 0.0371 0.0000 ( 14383 PWs)   bands (ev):

  -112.0426-112.0317-112.0271-112.0260-112.0256-111.7933-111.7697-111.7647
  -111.7627-111.7073-111.7023-111.7019 -69.4706 -69.4671 -69.4655 -69.4463
   -69.4398 -69.4304 -69.4302 -69.4166 -69.4165 -69.4131 -69.4125 -69.4063
   -69.4062 -69.3999 -69.3968 -69.2312 -69.2300 -69.2155 -69.1824 -69.1807
   -69.1798 -69.1729 -69.1589 -69.1565 -69.1539 -69.1403 -69.1376 -69.1251
   -69.1202 -69.1183 -69.1059 -69.1037 -69.0947 -69.0727 -69.0680 -69.0676
   -18.5471  -7.6684  -6.9670  -5.4527  -4.2323  -4.1550  -3.9452  -3.9176
    -3.7978  -3.7413  -3.6901  -3.4408  -3.4119  -3.4067  -3.3054  -3.3047
    -3.2411  -3.0130  -3.0031  -2.7209  -2.5042  -2.4778  -2.4337  -2.3930
    -2.3728  -2.3255  -2.2870  -2.2697  -2.2593  -2.1825  -2.1713  -2.1150
    -2.1148  -2.0854  -2.0674  -1.9722  -1.9509  -1.8903  -1.8794  -1.6210
    -1.5840  -1.5837  -1.5473  -1.5223  -1.4955  -1.4302  -1.3381  -1.2915
    -1.2626  -1.2284  -1.1920  -1.1853  -1.1699  -1.1405  -1.1201  -1.1110
    -1.0934  -1.0699  -1.0291  -0.9715  -0.9487  -0.9166  -0.9141  -0.9028
    -0.8840  -0.7703  -0.3576  -0.0180   0.5873   0.7038   0.8547   1.5541
     1.8192   1.9267   2.9237   3.1050   3.2954   4.2650   4.8608

          k = 0.0000 0.0742 0.0000 ( 14316 PWs)   bands (ev):

  -112.0422-112.0314-112.0277-112.0260-112.0258-111.7932-111.7694-111.7646
  -111.7632-111.7065-111.7030-111.7020 -69.4653 -69.4613 -69.4542 -69.4457
   -69.4395 -69.4308 -69.4299 -69.4230 -69.4214 -69.4120 -69.4106 -69.4103
   -69.4064 -69.4061 -69.3995 -69.2264 -69.2202 -69.2079 -69.1888 -69.1827
   -69.1730 -69.1721 -69.1699 -69.1591 -69.1538 -69.1441 -69.1342 -69.1248
   -69.1201 -69.1188 -69.1113 -69.1052 -69.0971 -69.0720 -69.0687 -69.0677
   -18.5458  -7.3000  -6.6834  -4.9748  -4.8213  -3.8805  -3.8366  -3.8008
    -3.7682  -3.5660  -3.5317  -3.3754  -3.2611  -3.2591  -3.1727  -3.1452
    -2.9887  -2.9360  -2.9338  -2.7200  -2.6524  -2.6037  -2.5875  -2.5156
    -2.4715  -2.4255  -2.3651  -2.3504  -2.2510  -2.2475  -2.1878  -2.1098
    -2.0908  -2.0793  -2.0717  -2.0696  -2.0096  -1.9739  -1.8409  -1.7754
    -1.7624  -1.7522  -1.7448  -1.6529  -1.6191  -1.6126  -1.5888  -1.5836
    -1.5549  -1.3975  -1.3964  -1.3753  -1.3585  -1.3012  -1.2924  -1.2865
    -1.2416  -1.1936  -1.1634  -1.0944  -1.0663  -1.0489  -1.0366  -0.9667
    -0.9601  -0.7519  -0.7205  -0.2074   0.5088   0.5508   0.6178   1.7173
     1.9236   2.2581   2.6798   4.1105   4.1691   4.8246   5.3627

          k = 0.0000-0.1114 0.0000 ( 14294 PWs)   bands (ev):

  -112.0420-112.0311-112.0280-112.0260-112.0258-111.7931-111.7693-111.7644
  -111.7636-111.7059-111.7036-111.7021 -69.4622 -69.4575 -69.4461 -69.4445
   -69.4373 -69.4331 -69.4320 -69.4264 -69.4238 -69.4188 -69.4107 -69.4088
   -69.4067 -69.4059 -69.4016 -69.2236 -69.2095 -69.2083 -69.1893 -69.1847
   -69.1803 -69.1708 -69.1675 -69.1609 -69.1537 -69.1473 -69.1322 -69.1246
   -69.1199 -69.1192 -69.1142 -69.1064 -69.0982 -69.0714 -69.0693 -69.0677
   -18.5452  -7.1748  -5.9285  -5.8091  -4.3499  -4.2219  -3.6985  -3.6669
    -3.4798  -3.4466  -3.4337  -3.4126  -3.1681  -3.1112  -3.0922  -3.0002
    -2.9755  -2.9364  -2.8676  -2.7959  -2.7091  -2.6682  -2.6442  -2.6377
    -2.5683  -2.5612  -2.3561  -2.3208  -2.2570  -2.2006  -2.1977  -2.1778
    -2.1556  -2.0894  -2.0645  -2.0505  -2.0328  -2.0253  -2.0215  -2.0057
    -2.0052  -1.9296  -1.8007  -1.7846  -1.7085  -1.6338  -1.6217  -1.5945
    -1.5420  -1.5218  -1.5166  -1.4993  -1.4609  -1.4355  -1.3915  -1.3220
    -1.3196  -1.2956  -1.2694  -1.1078  -1.0868  -1.0694  -1.0517  -0.9950
    -0.9648  -0.7467  -0.5987  -0.5112   0.5108   0.6110   1.1163   1.3281
     1.9213   1.9664   3.6859   3.7816   4.4285   4.7367   5.7479

          k = 0.0321-0.0186 0.0000 ( 14383 PWs)   bands (ev):

  -112.0426-112.0317-112.0271-112.0260-112.0256-111.7933-111.7697-111.7648
  -111.7626-111.7073-111.7023-111.7019 -69.4706 -69.4671 -69.4655 -69.4463
   -69.4398 -69.4304 -69.4302 -69.4166 -69.4164 -69.4131 -69.4125 -69.4064
   -69.4062 -69.4000 -69.3968 -69.2315 -69.2297 -69.2154 -69.1824 -69.1807
   -69.1794 -69.1732 -69.1592 -69.1561 -69.1539 -69.1403 -69.1376 -69.1251
   -69.1203 -69.1182 -69.1059 -69.1036 -69.0947 -69.0727 -69.0680 -69.0677
   -18.5471  -7.6684  -6.9670  -5.4527  -4.2323  -4.1550  -3.9452  -3.9176
    -3.7977  -3.7413  -3.6901  -3.4408  -3.4119  -3.4066  -3.3055  -3.3047
    -3.2410  -3.0131  -3.0030  -2.7209  -2.5042  -2.4780  -2.4337  -2.3929
    -2.3728  -2.3255  -2.2870  -2.2698  -2.2593  -2.1824  -2.1714  -2.1150
    -2.1148  -2.0854  -2.0674  -1.9722  -1.9510  -1.8903  -1.8795  -1.6211
    -1.5839  -1.5836  -1.5473  -1.5225  -1.4955  -1.4302  -1.3379  -1.2915
    -1.2626  -1.2284  -1.1920  -1.1856  -1.1699  -1.1405  -1.1201  -1.1111
    -1.0935  -1.0698  -1.0289  -0.9716  -0.9486  -0.9165  -0.9143  -0.9028
    -0.8840  -0.7703  -0.3576  -0.0180   0.5873   0.7039   0.8546   1.5540
     1.8192   1.9267   2.9237   3.1049   3.2954   4.2650   4.8608

          k = 0.0321 0.0186 0.0000 ( 14383 PWs)   bands (ev):

  -112.0426-112.0317-112.0271-112.0260-112.0256-111.7933-111.7696-111.7650
  -111.7625-111.7072-111.7025-111.7017 -69.4705 -69.4673 -69.4654 -69.4463
   -69.4399 -69.4304 -69.4302 -69.4166 -69.4164 -69.4133 -69.4125 -69.4064
   -69.4061 -69.4001 -69.3967 -69.2320 -69.2293 -69.2153 -69.1821 -69.1807
   -69.1793 -69.1738 -69.1599 -69.1554 -69.1539 -69.1405 -69.1374 -69.1250
   -69.1206 -69.1181 -69.1057 -69.1039 -69.0947 -69.0727 -69.0682 -69.0674
   -18.5471  -7.6684  -6.9670  -5.4527  -4.2323  -4.1550  -3.9453  -3.9175
    -3.7977  -3.7414  -3.6900  -3.4408  -3.4120  -3.4065  -3.3058  -3.3047
    -3.2408  -3.0133  -3.0029  -2.7208  -2.5040  -2.4782  -2.4337  -2.3929
    -2.3728  -2.3254  -2.2869  -2.2701  -2.2591  -2.1822  -2.1717  -2.1150
    -2.1146  -2.0853  -2.0673  -1.9722  -1.9512  -1.8901  -1.8796  -1.6212
    -1.5839  -1.5836  -1.5471  -1.5229  -1.4955  -1.4302  -1.3375  -1.2915
    -1.2626  -1.2285  -1.1919  -1.1860  -1.1697  -1.1407  -1.1200  -1.1112
    -1.0936  -1.0695  -1.0284  -0.9719  -0.9483  -0.9165  -0.9148  -0.9027
    -0.8840  -0.7701  -0.3576  -0.0180   0.5871   0.7040   0.8546   1.5540
     1.8192   1.9267   2.9237   3.1049   3.2954   4.2650   4.8608

          k = 0.0321 0.0557 0.0000 ( 14335 PWs)   bands (ev):

  -112.0423-112.0314-112.0276-112.0261-112.0256-111.7932-111.7693-111.7652
  -111.7627-111.7066-111.7031-111.7018 -69.4668 -69.4619 -69.4585 -69.4458
   -69.4398 -69.4307 -69.4299 -69.4232 -69.4157 -69.4138 -69.4119 -69.4071
   -69.4066 -69.4059 -69.3989 -69.2279 -69.2230 -69.2097 -69.1881 -69.1790
   -69.1750 -69.1750 -69.1666 -69.1580 -69.1538 -69.1435 -69.1347 -69.1246
   -69.1207 -69.1183 -69.1100 -69.1044 -69.0967 -69.0721 -69.0687 -69.0675
   -18.5462  -7.3880  -6.8039  -5.1191  -4.3248  -4.2993  -3.9597  -3.7558
    -3.7113  -3.6660  -3.5334  -3.3545  -3.3457  -3.2959  -3.2092  -3.1752
    -3.0658  -2.9729  -2.9501  -2.7198  -2.6038  -2.5716  -2.5133  -2.4594
    -2.4295  -2.3821  -2.3551  -2.3172  -2.2788  -2.2215  -2.1948  -2.1529
    -2.1389  -2.1106  -2.0569  -2.0206  -2.0038  -1.9527  -1.8264  -1.7727
    -1.6826  -1.6539  -1.6367  -1.6148  -1.5752  -1.5617  -1.5451  -1.5247
    -1.4844  -1.4273  -1.3593  -1.3342  -1.3029  -1.2713  -1.2280  -1.2105
    -1.1694  -1.1235  -1.1028  -1.0732  -1.0549  -1.0379  -1.0081  -0.8713
    -0.8190  -0.7939  -0.5388  -0.5103   0.3271   0.3444   0.6447   1.9679
     2.2020   2.6534   2.9002   3.3499   3.4340   4.6554   5.2456

          k = 0.0321-0.1299 0.0000 ( 14299 PWs)   bands (ev):

  -112.0420-112.0310-112.0282-112.0261-112.0256-111.7931-111.7691-111.7651
  -111.7631-111.7058-111.7038-111.7020 -69.4620 -69.4556 -69.4473 -69.4455
   -69.4407 -69.4336 -69.4295 -69.4273 -69.4220 -69.4153 -69.4111 -69.4104
   -69.4070 -69.4057 -69.4023 -69.2223 -69.2140 -69.2038 -69.1927 -69.1853
   -69.1756 -69.1719 -69.1668 -69.1617 -69.1537 -69.1491 -69.1312 -69.1244
   -69.1206 -69.1187 -69.1143 -69.1051 -69.0993 -69.0713 -69.0694 -69.0676
   -18.5452  -7.1830  -6.2066  -5.2177  -4.5177  -4.3817  -3.9266  -3.6104
    -3.5347  -3.4226  -3.3183  -3.2838  -3.1596  -3.1366  -3.1028  -3.0867
    -2.9558  -2.8748  -2.8511  -2.7756  -2.7491  -2.7234  -2.6998  -2.6277
    -2.5627  -2.4770  -2.4050  -2.3806  -2.2753  -2.2523  -2.2177  -2.1909
    -2.1665  -2.1554  -2.1317  -2.1003  -2.0424  -1.9956  -1.9795  -1.9465
    -1.9233  -1.8887  -1.8319  -1.7296  -1.6630  -1.6513  -1.6108  -1.5724
    -1.5452  -1.5253  -1.4939  -1.4680  -1.4122  -1.3804  -1.3295  -1.2545
    -1.2228  -1.2023  -1.1541  -1.1197  -1.1117  -1.0813  -1.0655  -1.0320
    -0.9990  -0.8085  -0.6255  -0.4766  -0.3408   0.4073   1.0006   1.8926
     2.2263   2.9192   3.4269   3.6838   4.5285   4.8190   5.4019

          k = 0.0321-0.0928 0.0000 ( 14299 PWs)   bands (ev):

  -112.0420-112.0311-112.0281-112.0261-112.0257-111.7931-111.7692-111.7647
  -111.7634-111.7059-111.7036-111.7021 -69.4620 -69.4556 -69.4472 -69.4455
   -69.4407 -69.4338 -69.4296 -69.4274 -69.4217 -69.4153 -69.4111 -69.4104
   -69.4069 -69.4058 -69.4023 -69.2222 -69.2137 -69.2041 -69.1946 -69.1829
   -69.1758 -69.1721 -69.1669 -69.1620 -69.1537 -69.1490 -69.1313 -69.1245
   -69.1202 -69.1190 -69.1144 -69.1050 -69.0994 -69.0714 -69.0693 -69.0677
   -18.5452  -7.1830  -6.2066  -5.2177  -4.5177  -4.3817  -3.9266  -3.6104
    -3.5347  -3.4225  -3.3184  -3.2838  -3.1596  -3.1366  -3.1028  -3.0867
    -2.9558  -2.8749  -2.8510  -2.7755  -2.7491  -2.7235  -2.6998  -2.6277
    -2.5627  -2.4770  -2.4049  -2.3806  -2.2753  -2.2524  -2.2178  -2.1910
    -2.1666  -2.1552  -2.1318  -2.1002  -2.0425  -1.9955  -1.9795  -1.9466
    -1.9232  -1.8887  -1.8320  -1.7296  -1.6628  -1.6513  -1.6107  -1.5725
    -1.5453  -1.5251  -1.4938  -1.4683  -1.4122  -1.3803  -1.3295  -1.2544
    -1.2228  -1.2024  -1.1541  -1.1197  -1.1117  -1.0811  -1.0658  -1.0320
    -0.9989  -0.8085  -0.6255  -0.4765  -0.3407   0.4073   1.0006   1.8926
[...]
    -1.2703  -1.2205  -1.1951  -1.1679  -1.1502  -1.1353  -1.1054  -0.9653
    -0.8630  -0.8566  -0.6145  -0.5851   0.2431   0.2515   0.4958   1.8557
     2.1740   2.5683   2.8218   3.2312   3.2866   4.6672   5.1679

          k = 0.0643-0.0371 0.0000 ( 14316 PWs)   bands (ev):

  -112.1657-112.1422-112.1391-112.1379-112.0497-111.8869-111.8724-111.8694
  -111.8683-111.8331-111.8299-111.8287 -69.5798 -69.5730 -69.5717 -69.5625
   -69.5422 -69.5375 -69.5364 -69.5329 -69.5313 -69.5269 -69.5251 -69.5123
   -69.4468 -69.4451 -69.4382 -69.3245 -69.3186 -69.3107 -69.2960 -69.2891
   -69.2845 -69.2747 -69.2743 -69.2676 -69.2622 -69.2577 -69.2466 -69.2369
   -69.2305 -69.2287 -69.2258 -69.2248 -69.2232 -69.1999 -69.1970 -69.1959
   -17.9286  -7.1263  -6.5047  -5.0813  -4.9354  -3.9853  -3.9341  -3.9186
    -3.8924  -3.6845  -3.6497  -3.4869  -3.3817  -3.3675  -3.2229  -3.1555
    -3.1146  -2.9547  -2.9196  -2.8426  -2.7735  -2.6779  -2.6709  -2.6252
    -2.5537  -2.4851  -2.4787  -2.4368  -2.3562  -2.3413  -2.2867  -2.2238
    -2.2149  -2.2022  -2.1844  -2.1575  -2.1263  -2.0692  -1.9486  -1.8821
    -1.8715  -1.8527  -1.8458  -1.7563  -1.7376  -1.7279  -1.7112  -1.6859
    -1.6768  -1.5038  -1.5033  -1.4852  -1.4477  -1.4086  -1.3833  -1.3776
    -1.3193  -1.2985  -1.2652  -1.1859  -1.1651  -1.1403  -1.1272  -1.0652
    -1.0492  -0.7935  -0.7501  -0.2931   0.4149   0.4389   0.5066   1.6381
     1.8066   2.1568   2.6198   4.0327   4.0339   4.8235   5.2978

          k = 0.0643-0.0000 0.0000 ( 14335 PWs)   bands (ev):

  -112.1658-112.1424-112.1389-112.1379-112.0497-111.8870-111.8725-111.8692
  -111.8683-111.8334-111.8297-111.8287 -69.5810 -69.5762 -69.5717 -69.5651
   -69.5418 -69.5378 -69.5326 -69.5316 -69.5310 -69.5300 -69.5208 -69.5120
   -69.4468 -69.4457 -69.4382 -69.3258 -69.3211 -69.3139 -69.2981 -69.2890
   -69.2788 -69.2778 -69.2704 -69.2670 -69.2618 -69.2582 -69.2466 -69.2355
   -69.2294 -69.2289 -69.2256 -69.2248 -69.2230 -69.2002 -69.1968 -69.1959
   -17.9289  -7.3031  -6.5397  -5.2126  -4.4604  -4.4146  -4.0537  -3.8645
    -3.8324  -3.7794  -3.6546  -3.4715  -3.4619  -3.3964  -3.2516  -3.2463
    -3.1779  -2.9666  -2.9451  -2.8466  -2.7182  -2.6292  -2.5730  -2.5664
    -2.5361  -2.4899  -2.4539  -2.4088  -2.3602  -2.3291  -2.2904  -2.2628
    -2.2423  -2.2208  -2.1700  -2.1332  -2.0986  -2.0398  -1.9255  -1.8790
    -1.7897  -1.7682  -1.7370  -1.7103  -1.6902  -1.6747  -1.6641  -1.6350
    -1.6005  -1.5339  -1.4614  -1.4292  -1.4084  -1.3828  -1.3200  -1.3033
    -1.2703  -1.2205  -1.1951  -1.1679  -1.1502  -1.1354  -1.1054  -0.9653
    -0.8630  -0.8567  -0.6144  -0.5851   0.2431   0.2515   0.4958   1.8557
     2.1740   2.5683   2.8219   3.2311   3.2866   4.6672   5.1680

          k = 0.0643 0.0371 0.0000 ( 14316 PWs)   bands (ev):

  -112.1657-112.1422-112.1391-112.1380-112.0497-111.8869-111.8724-111.8694
  -111.8683-111.8331-111.8299-111.8287 -69.5798 -69.5730 -69.5717 -69.5626
   -69.5422 -69.5375 -69.5365 -69.5329 -69.5313 -69.5269 -69.5251 -69.5123
   -69.4468 -69.4451 -69.4382 -69.3245 -69.3186 -69.3107 -69.2960 -69.2891
   -69.2845 -69.2747 -69.2743 -69.2676 -69.2622 -69.2577 -69.2466 -69.2369
   -69.2305 -69.2288 -69.2258 -69.2248 -69.2232 -69.1999 -69.1970 -69.1959
   -17.9286  -7.1263  -6.5047  -5.0813  -4.9354  -3.9853  -3.9341  -3.9186
    -3.8924  -3.6845  -3.6497  -3.4869  -3.3818  -3.3675  -3.2229  -3.1555
    -3.1146  -2.9547  -2.9196  -2.8426  -2.7736  -2.6778  -2.6709  -2.6252
    -2.5536  -2.4852  -2.4787  -2.4368  -2.3562  -2.3413  -2.2867  -2.2237
    -2.2149  -2.2022  -2.1844  -2.1575  -2.1263  -2.0692  -1.9486  -1.8821
    -1.8715  -1.8527  -1.8458  -1.7563  -1.7376  -1.7279  -1.7112  -1.6859
    -1.6768  -1.5038  -1.5033  -1.4852  -1.4477  -1.4086  -1.3833  -1.3776
    -1.3193  -1.2985  -1.2652  -1.1859  -1.1651  -1.1403  -1.1272  -1.0652
    -1.0492  -0.7935  -0.7501  -0.2931   0.4149   0.4389   0.5066   1.6382
     1.8066   2.1568   2.6198   4.0327   4.0340   4.8235   5.2978

          k = 0.0643-0.1485 0.0000 ( 14299 PWs)   bands (ev):

  -112.1657-112.1417-112.1398-112.1379-112.0497-111.8868-111.8719-111.8701
  -111.8682-111.8325-111.8306-111.8287 -69.5753 -69.5715 -69.5658 -69.5578
   -69.5486 -69.5385 -69.5365 -69.5339 -69.5312 -69.5306 -69.5267 -69.5151
   -69.4460 -69.4445 -69.4381 -69.3200 -69.3112 -69.3054 -69.2966 -69.2899
   -69.2865 -69.2794 -69.2743 -69.2725 -69.2653 -69.2547 -69.2465 -69.2404
   -69.2307 -69.2282 -69.2265 -69.2254 -69.2246 -69.1993 -69.1976 -69.1959
   -17.9279  -6.7677  -6.2678  -5.3417  -4.6196  -4.5008  -4.0281  -3.7251
    -3.6221  -3.5217  -3.4397  -3.3895  -3.2747  -3.2465  -3.1147  -3.0702
    -3.0592  -2.9308  -2.9053  -2.8897  -2.8541  -2.8179  -2.7633  -2.7136
    -2.6589  -2.5686  -2.5212  -2.4676  -2.3760  -2.3713  -2.3303  -2.3119
    -2.2829  -2.2700  -2.2438  -2.2073  -2.1514  -2.1116  -2.0924  -2.0617
    -2.0298  -2.0038  -1.9550  -1.8275  -1.7749  -1.7516  -1.7256  -1.6806
    -1.6453  -1.6221  -1.5928  -1.5726  -1.5165  -1.4730  -1.4229  -1.3461
    -1.3176  -1.2917  -1.2463  -1.2130  -1.2079  -1.1783  -1.1599  -1.1295
    -1.0797  -0.8476  -0.7065  -0.5563  -0.4083   0.3046   0.8993   1.8037
     2.1077   2.8223   3.3749   3.5717   4.4285   4.7411   5.4009

          k = 0.0643-0.1114 0.0000 ( 14310 PWs)   bands (ev):

  -112.1656-112.1408-112.1408-112.1379-112.0497-111.8867-111.8711-111.8711
  -111.8682-111.8315-111.8315-111.8287 -69.5715 -69.5678 -69.5677 -69.5503
   -69.5498 -69.5493 -69.5356 -69.5349 -69.5311 -69.5278 -69.5277 -69.5183
   -69.4451 -69.4449 -69.4381 -69.3125 -69.3122 -69.2983 -69.2982 -69.2977
   -69.2812 -69.2810 -69.2756 -69.2755 -69.2688 -69.2525 -69.2464 -69.2421
   -69.2288 -69.2287 -69.2273 -69.2273 -69.2246 -69.1985 -69.1984 -69.1959
   -17.9276  -6.6726  -5.5349  -5.5289  -5.3650  -4.0845  -4.0783  -3.9519
    -3.3120  -3.3114  -3.2620  -3.2560  -3.2386  -3.2304  -3.1017  -3.0838
    -3.0784  -3.0668  -3.0069  -2.9319  -2.8909  -2.7880  -2.7721  -2.7633
    -2.6310  -2.5963  -2.5782  -2.5085  -2.4959  -2.4848  -2.4837  -2.4643
    -2.3723  -2.3550  -2.2432  -2.2087  -2.2002  -2.1020  -2.0999  -2.0946
    -2.0904  -2.0491  -1.8890  -1.8243  -1.7849  -1.7649  -1.6984  -1.6980
    -1.6160  -1.5976  -1.5946  -1.5943  -1.4736  -1.3314  -1.3278  -1.3072
    -1.2937  -1.2929  -1.2478  -1.2428  -1.2241  -1.2034  -1.1927  -1.1876
    -1.1288  -1.0735  -0.9799  -0.4425  -0.4367  -0.3981   1.5122   1.5193
     2.0941   4.1044   4.1093   4.2997   4.3590   4.5401   4.9113

          k = 0.0643-0.0742 0.0000 ( 14299 PWs)   bands (ev):

  -112.1657-112.1417-112.1398-112.1379-112.0497-111.8868-111.8719-111.8701
  -111.8682-111.8324-111.8306-111.8287 -69.5753 -69.5715 -69.5658 -69.5578
   -69.5486 -69.5385 -69.5365 -69.5339 -69.5312 -69.5306 -69.5267 -69.5151
   -69.4460 -69.4445 -69.4381 -69.3200 -69.3112 -69.3054 -69.2966 -69.2899
   -69.2865 -69.2794 -69.2743 -69.2725 -69.2653 -69.2547 -69.2465 -69.2404
   -69.2307 -69.2282 -69.2265 -69.2254 -69.2246 -69.1993 -69.1976 -69.1959
   -17.9279  -6.7677  -6.2678  -5.3417  -4.6196  -4.5008  -4.0281  -3.7251
    -3.6221  -3.5217  -3.4397  -3.3895  -3.2747  -3.2465  -3.1147  -3.0702
    -3.0592  -2.9307  -2.9053  -2.8897  -2.8541  -2.8179  -2.7633  -2.7137
    -2.6589  -2.5685  -2.5212  -2.4676  -2.3760  -2.3712  -2.3303  -2.3120
    -2.2829  -2.2700  -2.2438  -2.2073  -2.1514  -2.1116  -2.0924  -2.0617
    -2.0297  -2.0038  -1.9550  -1.8275  -1.7749  -1.7516  -1.7256  -1.6806
    -1.6453  -1.6221  -1.5928  -1.5726  -1.5164  -1.4730  -1.4229  -1.3461
    -1.3176  -1.2917  -1.2463  -1.2130  -1.2079  -1.1783  -1.1599  -1.1295
    -1.0797  -0.8476  -0.7065  -0.5563  -0.4082   0.3046   0.8994   1.8037
     2.1077   2.8223   3.3749   3.5717   4.4285   4.7411   5.4009

          k =-0.0964 0.0557 0.0000 ( 14294 PWs)   bands (ev):

  -112.1657-112.1417-112.1397-112.1379-112.0497-111.8868-111.8720-111.8699
  -111.8683-111.8325-111.8306-111.8287 -69.5767 -69.5715 -69.5629 -69.5599
   -69.5433 -69.5394 -69.5374 -69.5363 -69.5335 -69.5312 -69.5255 -69.5139
   -69.4464 -69.4441 -69.4381 -69.3212 -69.3114 -69.3037 -69.2914 -69.2906
   -69.2876 -69.2867 -69.2725 -69.2707 -69.2642 -69.2556 -69.2465 -69.2403
   -69.2320 -69.2283 -69.2264 -69.2248 -69.2240 -69.1993 -69.1976 -69.1959
   -17.9279  -6.7251  -6.0710  -5.8843  -4.4465  -4.3192  -3.8168  -3.7945
    -3.5700  -3.5533  -3.5412  -3.5300  -3.2699  -3.2274  -3.0750  -3.0731
    -3.0403  -2.9778  -2.9192  -2.8847  -2.8360  -2.7784  -2.7308  -2.7038
    -2.6615  -2.6134  -2.4734  -2.4099  -2.3562  -2.3202  -2.3143  -2.3031
    -2.2631  -2.1996  -2.1765  -2.1568  -2.1535  -2.1436  -2.1421  -2.1385
    -2.1094  -2.0542  -1.9162  -1.9042  -1.8151  -1.7273  -1.7252  -1.6938
    -1.6350  -1.6243  -1.6196  -1.5983  -1.5694  -1.5443  -1.4944  -1.4124
    -1.4028  -1.4013  -1.3146  -1.1964  -1.1879  -1.1680  -1.1426  -1.0974
    -1.0637  -0.7427  -0.7294  -0.5356   0.4080   0.5004   1.0315   1.2648
     1.7978   1.8074   3.6480   3.7623   4.2998   4.6021   5.6990

          k =-0.0964 0.0928 0.0000 ( 14299 PWs)   bands (ev):

  -112.1657-112.1417-112.1398-112.1379-112.0497-111.8868-111.8719-111.8701
  -111.8682-111.8324-111.8306-111.8287 -69.5753 -69.5715 -69.5658 -69.5578
   -69.5486 -69.5385 -69.5365 -69.5339 -69.5312 -69.5306 -69.5267 -69.5151
   -69.4460 -69.4445 -69.4381 -69.3200 -69.3112 -69.3054 -69.2966 -69.2899
   -69.2865 -69.2794 -69.2743 -69.2725 -69.2653 -69.2547 -69.2465 -69.2404
   -69.2307 -69.2282 -69.2265 -69.2254 -69.2246 -69.1993 -69.1976 -69.1959
   -17.9279  -6.7677  -6.2678  -5.3417  -4.6196  -4.5008  -4.0281  -3.7251
    -3.6221  -3.5217  -3.4397  -3.3895  -3.2747  -3.2465  -3.1147  -3.0702
    -3.0592  -2.9307  -2.9053  -2.8898  -2.8541  -2.8179  -2.7632  -2.7137
    -2.6589  -2.5685  -2.5213  -2.4676  -2.3760  -2.3713  -2.3303  -2.3120
    -2.2829  -2.2700  -2.2438  -2.2073  -2.1514  -2.1116  -2.0924  -2.0617
    -2.0297  -2.0038  -1.9550  -1.8275  -1.7749  -1.7516  -1.7256  -1.6806
    -1.6453  -1.6221  -1.5928  -1.5726  -1.5165  -1.4730  -1.4228  -1.3461
    -1.3176  -1.2917  -1.2462  -1.2129  -1.2079  -1.1783  -1.1599  -1.1295
    -1.0798  -0.8476  -0.7065  -0.5563  -0.4082   0.3046   0.8994   1.8037
     2.1077   2.8223   3.3749   3.5717   4.4285   4.7411   5.4009

          k =-0.0964 0.1299 0.0000 ( 14299 PWs)   bands (ev):

  -112.1657-112.1417-112.1398-112.1379-112.0497-111.8868-111.8719-111.8701
  -111.8682-111.8324-111.8306-111.8287 -69.5753 -69.5715 -69.5658 -69.5578
   -69.5486 -69.5385 -69.5365 -69.5339 -69.5312 -69.5306 -69.5267 -69.5151
   -69.4460 -69.4445 -69.4381 -69.3200 -69.3112 -69.3054 -69.2966 -69.2899
   -69.2865 -69.2794 -69.2743 -69.2725 -69.2653 -69.2547 -69.2465 -69.2404
   -69.2307 -69.2282 -69.2265 -69.2254 -69.2246 -69.1993 -69.1976 -69.1959
   -17.9279  -6.7677  -6.2678  -5.3417  -4.6196  -4.5008  -4.0281  -3.7251
    -3.6221  -3.5217  -3.4397  -3.3895  -3.2747  -3.2465  -3.1147  -3.0702
    -3.0592  -2.9307  -2.9053  -2.8898  -2.8541  -2.8179  -2.7632  -2.7136
    -2.6589  -2.5686  -2.5212  -2.4676  -2.3760  -2.3713  -2.3303  -2.3119
    -2.2829  -2.2700  -2.2438  -2.2073  -2.1514  -2.1116  -2.0924  -2.0617
    -2.0297  -2.0038  -1.9550  -1.8275  -1.7749  -1.7516  -1.7256  -1.6806
    -1.6453  -1.6221  -1.5928  -1.5726  -1.5165  -1.4730  -1.4229  -1.3461
    -1.3176  -1.2917  -1.2462  -1.2129  -1.2079  -1.1783  -1.1599  -1.1295
    -1.0797  -0.8476  -0.7065  -0.5563  -0.4082   0.3046   0.8993   1.8037
     2.1077   2.8223   3.3749   3.5717   4.4285   4.7411   5.4009

          k =-0.0964-0.0557 0.0000 ( 14294 PWs)   bands (ev):

  -112.1657-112.1417-112.1397-112.1380-112.0497-111.8868-111.8720-111.8699
  -111.8683-111.8325-111.8306-111.8287 -69.5767 -69.5715 -69.5630 -69.5599
   -69.5433 -69.5394 -69.5374 -69.5363 -69.5335 -69.5312 -69.5255 -69.5139
   -69.4464 -69.4441 -69.4381 -69.3212 -69.3114 -69.3037 -69.2914 -69.2906
   -69.2876 -69.2867 -69.2725 -69.2707 -69.2642 -69.2556 -69.2465 -69.2403
   -69.2320 -69.2283 -69.2264 -69.2248 -69.2240 -69.1993 -69.1976 -69.1959
   -17.9279  -6.7251  -6.0710  -5.8843  -4.4465  -4.3192  -3.8168  -3.7945
    -3.5699  -3.5533  -3.5412  -3.5300  -3.2699  -3.2274  -3.0750  -3.0730
    -3.0403  -2.9778  -2.9192  -2.8847  -2.8360  -2.7784  -2.7308  -2.7037
    -2.6614  -2.6135  -2.4734  -2.4099  -2.3563  -2.3201  -2.3143  -2.3031
    -2.2631  -2.1996  -2.1765  -2.1568  -2.1535  -2.1436  -2.1421  -2.1384
    -2.1094  -2.0542  -1.9162  -1.9042  -1.8151  -1.7273  -1.7252  -1.6938
    -1.6350  -1.6242  -1.6196  -1.5984  -1.5694  -1.5443  -1.4943  -1.4124
    -1.4028  -1.4013  -1.3146  -1.1964  -1.1879  -1.1680  -1.1426  -1.0974
    -1.0637  -0.7427  -0.7294  -0.5356   0.4080   0.5004   1.0315   1.2648
     1.7979   1.8074   3.6480   3.7623   4.2998   4.6022   5.6990

     the Fermi energy is     0.4523 ev

!    total energy              =   -4892.95857956 Ry
     Harris-Foulkes estimate   =   -4892.95857958 Ry
     estimated scf accuracy    <       0.00000002 Ry

     The total energy is the sum of the following terms:

     one-electron contribution =  -37985.25543962 Ry
     hartree contribution      =   19010.59406970 Ry
     xc contribution           =    -488.46114792 Ry
     ewald contribution        =   14570.19437265 Ry
     electric field correction =       0.00000645 Ry
     smearing contrib. (-TS)   =      -0.03044083 Ry

     convergence has been achieved in  10 iterations
 
 BEEF-vdW xc energy contributions
           1 :   -432.662177236858     
           2 :    391.957714049764     
           3 :   -323.141866405137     
           4 :    245.267249027376     
           5 :   -175.524760413049     
           6 :    123.135348782821     
           7 :   -88.0164599903110     
           8 :    64.0346234272070     
           9 :   -44.3196443177960     
          10 :    25.3937080988244     
          11 :   -8.09014147513392     
          12 :   -4.55637889262158     
          13 :    10.4730254052665     
          14 :   -10.4875913075857     
          15 :    7.91680330081419     
          16 :   -6.40270788244999     
          17 :    7.69533850389746     
          18 :   -10.9025506194637     
          19 :    13.5539224744548     
          20 :   -13.5820179671093     
          21 :    10.8021774802316     
          22 :   -6.94118753180680     
          23 :    4.32575711285347     
          24 :   -4.24653361823329     
          25 :    6.14889253486626     
          26 :   -8.15240516658542     
          27 :    8.45315715417109     
          28 :   -6.58081110994732     
          29 :    3.64481514674731     
          30 :   -1.46306110743456     
          31 :   -34.6587097573241     
          32 :   -23.6359406069926     

     Forces acting on atoms (Ry/au):


     negative rho (up, down):  1.093E-03 0.000E+00
     atom    1 type  1   force =    -0.00029685   -0.00017145    0.00210932
     atom    2 type  1   force =     0.00029669   -0.00017135    0.00210934
     atom    3 type  1   force =     0.00000001    0.00034261    0.00210934
     atom    4 type  1   force =    -0.00000034   -0.00000042    0.00407326
     atom    5 type  1   force =    -0.00000136   -0.00374853   -0.00183528
     atom    6 type  1   force =     0.00000143    0.00000037   -0.00475832
     atom    7 type  1   force =     0.00324654    0.00187537   -0.00182070
     atom    8 type  1   force =    -0.00324657    0.00187376   -0.00182926
     atom    9 type  1   force =    -0.00001204   -0.00001165    0.00061942
     atom   10 type  1   force =     0.00002103   -0.00001451   -0.00004990
     atom   11 type  1   force =     0.00000728    0.00003116   -0.00004792
     atom   12 type  1   force =    -0.00000634    0.00000770   -0.00004973
     atom   13 type  2   force =    -0.00002130   -0.00002989    0.00044721
     atom   14 type  3   force =     0.00001184    0.00001683   -0.00107677

     Total force =     0.001324     Total SCF correction =     0.000644
     SCF correction compared to forces is large: reduce conv_thr to get better values


     entering subroutine stress ...


     negative rho (up, down):  1.093E-03 0.000E+00
          total   stress  (Ry/bohr**3)                   (kbar)     P=  -19.64
  -0.00014974  -0.00000000  -0.00000000        -22.03     -0.00     -0.00
  -0.00000000  -0.00014974  -0.00000001         -0.00    -22.03     -0.00
  -0.00000000  -0.00000001  -0.00010100         -0.00     -0.00    -14.86


     bfgs converged in  15 scf cycles and  14 bfgs steps
     (criteria: energy <  1.0E+00, force <  1.9E-03)

     End of BFGS Geometry Optimization

     Final energy   =   -4892.9585795617 Ry
Begin final coordinates

ATOMIC_POSITIONS (crystal)
Cu1      0.166666667   0.166666667   0.412653782    0   0   0
Cu1      0.666666667   0.166666667   0.412653782    0   0   0
Cu1      0.166666667   0.666666667   0.412653782    0   0   0
Cu1      0.666666667   0.666666667   0.412653782    0   0   0
Cu1      0.833333333   0.333333333   0.500000000    0   0   0
Cu1      0.333333333   0.333333333   0.500000000    0   0   0
Cu1      0.833333333   0.833333333   0.500000000    0   0   0
Cu1      0.333333333   0.833333333   0.500000000    0   0   0
Cu1      0.000003569   0.000021721   0.587082683
Cu1      0.499963355   0.000054275   0.585040005
Cu1      0.000048505   0.499963297   0.585039071
Cu1      0.499983050   0.499976324   0.585039555
O1      -0.000003525  -0.000035177   0.664073422
H1       0.000001492   0.000019039   0.704020124
End final coordinates



     Writing output data file calc.save
 
     init_run     :      4.58s CPU      6.93s WALL (       1 calls)
     electrons    :   2352.72s CPU   2646.71s WALL (      15 calls)
     update_pot   :     13.63s CPU     15.73s WALL (      14 calls)
     forces       :     40.31s CPU     43.27s WALL (      15 calls)
     stress       :    143.46s CPU    152.44s WALL (      15 calls)

     Called by init_run:
     wfcinit      :      3.06s CPU      5.15s WALL (       1 calls)
     potinit      :      0.51s CPU      0.61s WALL (       1 calls)

     Called by electrons:
     c_bands      :   1834.00s CPU   2041.91s WALL (     170 calls)
     sum_band     :    252.64s CPU    268.52s WALL (     170 calls)
     v_of_rho     :     53.43s CPU     71.83s WALL (     185 calls)
     newd         :     89.17s CPU     93.92s WALL (     185 calls)
     mix_rho      :      1.84s CPU      1.90s WALL (     170 calls)
     vdW_energy   :     45.27s CPU     58.58s WALL (     725 calls)
     vdW_ffts     :     59.74s CPU     84.89s WALL (    1480 calls)
     vdW_v        :     26.10s CPU     31.68s WALL (     725 calls)

     Called by c_bands:
     init_us_2    :      8.98s CPU      9.44s WALL (    7420 calls)
     cegterg      :   1768.20s CPU   1973.95s WALL (    3420 calls)

     Called by *egterg:
     h_psi        :    748.76s CPU    833.12s WALL (   15616 calls)
     s_psi        :     64.83s CPU     66.92s WALL (   15616 calls)
     g_psi        :      8.13s CPU      8.49s WALL (   12176 calls)
     cdiaghg      :    616.45s CPU    631.71s WALL (   15316 calls)

     Called by h_psi:
     add_vuspsi   :     64.38s CPU     66.35s WALL (   15616 calls)

     General routines
     calbec       :    111.56s CPU    114.52s WALL (   19616 calls)
     fft          :     95.49s CPU    133.06s WALL (   43769 calls)
     ffts         :      0.27s CPU      0.29s WALL (     355 calls)
     fftw         :    610.65s CPU    697.15s WALL ( 2595800 calls)
     interpolate  :      1.28s CPU      1.40s WALL (     355 calls)
     davcio       :      0.00s CPU      0.22s WALL (      20 calls)
 
     Parallel routines
     fft_scatter  :    363.74s CPU    429.00s WALL ( 2639924 calls)
 
     PWSCF        : 42m44.78s CPU    48m 3.48s WALL

 
   This run was terminated on:   9:23:51  17Apr2018            

=------------------------------------------------------------------------------=
   JOB DONE.
=------------------------------------------------------------------------------=
