  python dir          : /u/if/mamunm/src/espresso
  espresso dir        : /nfs/slac/g/suncatfs/sw/espv18/espresso-dynpy-beef/bin
  pseudo dir          : /u/if/mamunm/psp/gbrv1.5pbe
  ase-espresso py git : GITVERSION



     Program PWSCF v.5.1rc2 (svn rev. 11289) starts on  3May2018 at  9:38:20 

     This program is part of the open-source Quantum ESPRESSO suite
     for quantum simulation of materials; please cite
         "P. Giannozzi et al., J. Phys.:Condens. Matter 21 395502 (2009);
          URL http://www.quantum-espresso.org", 
     in publications or presentations arising from this work. More details at
     http://www.quantum-espresso.org/quote

     Parallel version (MPI), running on    32 processors
     K-points division:     npool     =       4
     R & G space division:  proc/nbgrp/npool/nimage =       8
     Reading input from pw.inp
     Message from routine read_cards :
     DEPRECATED: no units specified in CELL_PARAMETERS card

     Current dimensions of program PWSCF are:
     Max number of different atomic species (ntypx) = 10
     Max number of k-points (npk) =  40000
     Max angular momentum in pseudopotentials (lmaxx) =  3
     Presently stress not available with electric field


     **************************************************************************
     Initializing libbeef V0.1.1 with the BEEF-vdW functional.
     Citation: Wellendorff et al., PRB 85, 235149 (2012).
     **************************************************************************


     IMPORTANT: XC functional enforced from input :
     Exchange-correlation      = BEEF-VDW ( 1  4 27 13 2)
     Any further DFT definition will be discarded
     Please, verify this is what you really want


     Subspace diagonalization in iterative solution of the eigenvalue problem:
     a serial algorithm will be used

 
     Parallelization info
     --------------------
     sticks:   dense  smooth     PW     G-vecs:    dense   smooth      PW
     Min         402     160     46                77078    19492    3044
     Max         403     161     50                77101    19531    3047
     Sum        3217    1285    379               616691   156085   24367
 


     bravais-lattice index     =            0
     lattice parameter (alat)  =       1.8897  a.u.
     unit-cell volume          =    5182.3421 (a.u.)^3
     number of atoms/cell      =           13
     number of atomic types    =            2
     number of electrons       =       162.00
     number of Kohn-Sham states=           91
     kinetic-energy cutoff     =      36.7493  Ry
     charge density cutoff     =     367.4932  Ry
     convergence threshold     =      1.0E-05
     mixing beta               =       0.3000
     number of iterations used =           10  plain     mixing
     Exchange-correlation      = BEEF-VDW ( 1  4 27 13 2)
     nstep                     =           50


     celldm(1)=   1.889726  celldm(2)=   0.000000  celldm(3)=   0.000000
     celldm(4)=   0.000000  celldm(5)=   0.000000  celldm(6)=   0.000000

     crystal axes: (cart. coord. in units of alat)
               a(1) = (   5.970602   0.000000   0.000000 )  
               a(2) = (   2.985301   5.170693   0.000000 )  
               a(3) = (   0.000000   0.000000  24.874976 )  

     reciprocal axes: (cart. coord. in units 2 pi/alat)
               b(1) = (  0.167487 -0.096699  0.000000 )  
               b(2) = (  0.000000  0.193398  0.000000 )  
               b(3) = (  0.000000  0.000000  0.040201 )  


     PseudoPot. # 1 for Nb read from file:
     /u/if/mamunm/psp/gbrv1.5pbe/Nb.UPF
     MD5 check sum: 573aab8a2fa660278ed4a62cd769473f
     Pseudo is Ultrasoft + core correction, Zval = 13.0
     Generated by new atomic code, or converted to UPF format
     Using radial grid of  887 points,  6 beta functions with: 
                l(1) =   0
                l(2) =   0
                l(3) =   1
                l(4) =   1
                l(5) =   2
                l(6) =   2
     Q(r) pseudized with  6 coefficients,  rinner =    1.000   1.000   1.000
                                                       1.000   1.000

     PseudoPot. # 2 for S  read from file:
     /u/if/mamunm/psp/gbrv1.5pbe/S.UPF
     MD5 check sum: 88d86576ff6df21479756cfb9bdac1df
     Pseudo is Ultrasoft + core correction, Zval =  6.0
     Generated by new atomic code, or converted to UPF format
     Using radial grid of  907 points,  6 beta functions with: 
                l(1) =   0
                l(2) =   0
                l(3) =   1
                l(4) =   1
                l(5) =   2
                l(6) =   2
     Q(r) pseudized with  8 coefficients,  rinner =    1.300   1.300   1.300
                                                       1.300   1.300

     vdW kernel table read from file vdW_kernel_table
     MD5 check sum: 095c7af220d748ca6e76c0b4c6cfb241

     atomic species   valence    mass     pseudopotential
        Nb1           13.00    92.90637     Nb( 1.00)
        S1             6.00    32.06000     S ( 1.00)

     No symmetry found



   Cartesian axes

     site n.     atom                  positions (alat units)
         1           Nb1 tau(   1) = (   1.4926504   0.8617821  10.0000000  )
         2           Nb1 tau(   2) = (   4.4779512   0.8617821  10.0000000  )
         3           Nb1 tau(   3) = (   2.9853008   3.4471284  10.0000000  )
         4           Nb1 tau(   4) = (   5.9706016   3.4471284  10.0000000  )
         5           Nb1 tau(   5) = (   5.9706016   1.7235642  12.4374879  )
         6           Nb1 tau(   6) = (   2.9853008   1.7235642  12.4374879  )
         7           Nb1 tau(   7) = (   7.4632520   4.3089105  12.4374879  )
         8           Nb1 tau(   8) = (   4.4779512   4.3089105  12.4374879  )
         9           Nb1 tau(   9) = (   0.0000000   0.0000000  14.8749758  )
        10           Nb1 tau(  10) = (   2.9853008   0.0000000  14.8749758  )
        11           Nb1 tau(  11) = (   1.4926504   2.5853463  14.8749758  )
        12           Nb1 tau(  12) = (   4.4779512   2.5853463  14.8749758  )
        13           S1  tau(  13) = (   0.0000000   0.0000000  17.1614758  )

     number of k points=    20  Fermi-Dirac smearing, width (Ry)=  0.0110
                       cart. coord. in units 2pi/alat
        k(    1) = (   0.0000000   0.0000000   0.0000000), wk =   0.0555556
        k(    2) = (   0.0000000   0.0322329   0.0000000), wk =   0.1111111
        k(    3) = (   0.0000000   0.0644659   0.0000000), wk =   0.1111111
        k(    4) = (   0.0000000  -0.0966988   0.0000000), wk =   0.0555556
        k(    5) = (   0.0279146  -0.0161165   0.0000000), wk =   0.1111111
        k(    6) = (   0.0279146   0.0161165   0.0000000), wk =   0.1111111
        k(    7) = (   0.0279146   0.0483494   0.0000000), wk =   0.1111111
        k(    8) = (   0.0279146  -0.1128153   0.0000000), wk =   0.1111111
        k(    9) = (   0.0279146  -0.0805824   0.0000000), wk =   0.1111111
        k(   10) = (   0.0279146  -0.0483494   0.0000000), wk =   0.1111111
        k(   11) = (   0.0558291  -0.0322329   0.0000000), wk =   0.1111111
        k(   12) = (   0.0558291   0.0000000   0.0000000), wk =   0.1111111
        k(   13) = (   0.0558291   0.0322329   0.0000000), wk =   0.1111111
        k(   14) = (   0.0558291  -0.1289318   0.0000000), wk =   0.1111111
        k(   15) = (   0.0558291  -0.0966988   0.0000000), wk =   0.1111111
        k(   16) = (   0.0558291  -0.0644659   0.0000000), wk =   0.1111111
        k(   17) = (  -0.0837437   0.0483494   0.0000000), wk =   0.0555556
        k(   18) = (  -0.0837437   0.0805824   0.0000000), wk =   0.1111111
        k(   19) = (  -0.0837437   0.1128153   0.0000000), wk =   0.1111111
        k(   20) = (  -0.0837437  -0.0483494   0.0000000), wk =   0.0555556

     Dense  grid:   616691 G-vectors     FFT dimensions: (  72,  72, 288)

     Smooth grid:   156085 G-vectors     FFT dimensions: (  45,  45, 192)

     Largest allocated arrays     est. size (Mb)     dimensions
        Kohn-Sham Wavefunctions         3.45 Mb     (    2487,   91)
        NL pseudopotentials             8.88 Mb     (    2487,  234)
        Each V/rho on FFT grid          2.85 Mb     (  186624)
        Each G-vector array             0.59 Mb     (   77088)
        G-vector shells                 0.16 Mb     (   20970)
     Largest temporary arrays     est. size (Mb)     dimensions
        Auxiliary wavefunctions        13.81 Mb     (    2487,  364)
        Each subspace H/S matrix        2.02 Mb     (     364,  364)
        Each <psi_i|beta_j> matrix      0.32 Mb     (     234,   91)
        Arrays for rho mixing          28.48 Mb     (  186624,   10)

     Initial potential from superposition of free atoms
     Check: negative starting charge=   -0.004859

     starting charge  161.96717, renormalised to  162.00000

     negative rho (up, down):  4.860E-03 0.000E+00


     ************************************************************************
     *
     * You are using vdW-DF for exchange-correlation in this calculation.
     * Please cite the following three references that made this development
     * possible:
     *
     *   M. Dion, H. Rydberg, E. Schroder, D. C. Langreth, and
     *   B. I. Lundqvist, Phys. Rev. Lett. 92, 246401 (2004).
     *
     *   T. Thonhauser, V. R. Cooper, S. Li, A. Puzder, P. Hyldgaard, and
     *   D. C. Langreth, Phys. Rev. B 76, 125112 (2007).
     *
     *   G. Roman-Perez and J. M. Soler, Phys. Rev. Lett. 103, 096102 (2009).
     *
     *
     * If you are using vdW-DF2, please also cite:
     *
     *   K. Lee, E. D. Murray, L. Kong, B. I. Lundqvist, and
     *   D. C. Langreth, Phys. Rev. B 82, 081101(R) (2010).
     *
     *
     * If you are calculating the stress with vdW-DF, please also cite:
     *
     *   R. Sabatini, E. Kucukbenli, B. Kolb, T. Thonhauser, and
     *   S. de Gironcoli, J. Phys.: Condens. Matter 24, 424209 (2012).
     *
     ************************************************************************

     Carrying out vdW-DF run using the following parameters:

     Nqs =      20    Nr_points =    1024   r_max =   100.000
     q_mesh =
               0.00001000     0.04494208     0.09755937     0.15916263
               0.23128650     0.31572767     0.41458969     0.53033537
               0.66584808     0.82450364     1.01025438     1.22772762
               1.48234092     1.78043706     2.12944203     2.53805004
               3.01644009     3.57652955     4.23227104     5.00000000

     Gradients computed in reciprocal space

     ************************************************************************


 
     Adding external electric field

     Computed dipole along edir(3) : 
        Dipole               -0.0105 Ry au,         -0.0267 Debye
        Dipole field         -0.0000 Ry au
 
        Potential amp.        0.0023 Ry
        Total length         45.8317 bohr
 
     Starting wfc are  160 randomized atomic wfcs

     total cpu time spent up to now is       13.9 secs

     per-process dynamical memory:    90.9 Mb

     Self-consistent Calculation

     iteration #  1     ecut=    36.75 Ry     beta=0.30
     Davidson diagonalization with overlap
     ethr =  1.00E-02,  avg # of iterations =  2.0

     negative rho (up, down):  4.581E-03 0.000E+00
 
     Adding external electric field

     Computed dipole along edir(3) : 
        Dipole               -2.2281 Ry au,         -5.6632 Debye
        Dipole field         -0.0054 Ry au
 
        Potential amp.        0.4952 Ry
        Total length         45.8317 bohr
 

     total cpu time spent up to now is       32.8 secs

     total energy              =   -1444.69846055 Ry
     Harris-Foulkes estimate   =   -1447.11641993 Ry
     estimated scf accuracy    <       5.36622660 Ry

     iteration #  2     ecut=    36.75 Ry     beta=0.30
     Davidson diagonalization with overlap
     ethr =  3.31E-03,  avg # of iterations =  8.9

     negative rho (up, down):  3.057E-03 0.000E+00
 
     Adding external electric field

     Computed dipole along edir(3) : 
        Dipole                2.2744 Ry au,          5.7810 Debye
        Dipole field          0.0055 Ry au
 
        Potential amp.       -0.5055 Ry
        Total length         45.8317 bohr
 

     total cpu time spent up to now is       61.3 secs

     total energy              =   -1437.79364996 Ry
     Harris-Foulkes estimate   =   -1453.39515837 Ry
     estimated scf accuracy    <     328.77908182 Ry

     iteration #  3     ecut=    36.75 Ry     beta=0.30
     Davidson diagonalization with overlap
     ethr =  3.31E-03,  avg # of iterations =  9.9

     negative rho (up, down):  1.632E-03 0.000E+00
 
     Adding external electric field

     Computed dipole along edir(3) : 
        Dipole                0.0327 Ry au,          0.0832 Debye
        Dipole field          0.0001 Ry au
 
        Potential amp.       -0.0073 Ry
        Total length         45.8317 bohr
 

     total cpu time spent up to now is       92.7 secs

     total energy              =   -1441.16774197 Ry
     Harris-Foulkes estimate   =   -1452.93022143 Ry
     estimated scf accuracy    <     393.74414599 Ry

     iteration #  4     ecut=    36.75 Ry     beta=0.30
     Davidson diagonalization with overlap
     ethr =  3.31E-03,  avg # of iterations =  6.4

     negative rho (up, down):  1.478E-03 0.000E+00
 
     Adding external electric field

     Computed dipole along edir(3) : 
        Dipole                0.3201 Ry au,          0.8135 Debye
        Dipole field          0.0008 Ry au
 
        Potential amp.       -0.0711 Ry
        Total length         45.8317 bohr
 

     total cpu time spent up to now is      116.9 secs

     total energy              =   -1446.59814935 Ry
     Harris-Foulkes estimate   =   -1446.74941210 Ry
     estimated scf accuracy    <       0.91111920 Ry

     iteration #  5     ecut=    36.75 Ry     beta=0.30
     Davidson diagonalization with overlap
     ethr =  5.62E-04,  avg # of iterations =  5.7

     negative rho (up, down):  1.433E-03 0.000E+00
 
     Adding external electric field

     Computed dipole along edir(3) : 
        Dipole               -0.0653 Ry au,         -0.1659 Debye
        Dipole field         -0.0002 Ry au
 
        Potential amp.        0.0145 Ry
        Total length         45.8317 bohr
 

     total cpu time spent up to now is      138.2 secs

     total energy              =   -1446.60971795 Ry
     Harris-Foulkes estimate   =   -1446.68060568 Ry
     estimated scf accuracy    <       0.39335517 Ry

     iteration #  6     ecut=    36.75 Ry     beta=0.30
     Davidson diagonalization with overlap
     ethr =  2.43E-04,  avg # of iterations =  3.2

     negative rho (up, down):  1.529E-03 0.000E+00
 
     Adding external electric field

     Computed dipole along edir(3) : 
        Dipole                0.0709 Ry au,          0.1802 Debye
        Dipole field          0.0002 Ry au
 
        Potential amp.       -0.0158 Ry
        Total length         45.8317 bohr
 

     total cpu time spent up to now is      158.3 secs

     total energy              =   -1446.62457910 Ry
     Harris-Foulkes estimate   =   -1446.64803184 Ry
     estimated scf accuracy    <       0.29662815 Ry

     iteration #  7     ecut=    36.75 Ry     beta=0.30
     Davidson diagonalization with overlap
     ethr =  1.83E-04,  avg # of iterations =  2.4

     negative rho (up, down):  1.923E-03 0.000E+00
 
     Adding external electric field

     Computed dipole along edir(3) : 
        Dipole               -0.0501 Ry au,         -0.1272 Debye
        Dipole field         -0.0001 Ry au
 
        Potential amp.        0.0111 Ry
        Total length         45.8317 bohr
 

     total cpu time spent up to now is      177.3 secs

     total energy              =   -1446.63477877 Ry
     Harris-Foulkes estimate   =   -1446.63688058 Ry
     estimated scf accuracy    <       0.02764639 Ry

     iteration #  8     ecut=    36.75 Ry     beta=0.30
     Davidson diagonalization with overlap
     ethr =  1.71E-05,  avg # of iterations =  6.8

     negative rho (up, down):  2.297E-03 0.000E+00
 
     Adding external electric field

     Computed dipole along edir(3) : 
        Dipole               -0.1514 Ry au,         -0.3849 Debye
        Dipole field         -0.0004 Ry au
 
        Potential amp.        0.0337 Ry
        Total length         45.8317 bohr
 

     total cpu time spent up to now is      202.6 secs

     total energy              =   -1446.63698566 Ry
     Harris-Foulkes estimate   =   -1446.64190441 Ry
     estimated scf accuracy    <       0.05005505 Ry

     iteration #  9     ecut=    36.75 Ry     beta=0.30
     Davidson diagonalization with overlap
     ethr =  1.71E-05,  avg # of iterations =  2.7

     negative rho (up, down):  2.681E-03 0.000E+00
 
     Adding external electric field

     Computed dipole along edir(3) : 
        Dipole               -0.2100 Ry au,         -0.5339 Debye
        Dipole field         -0.0005 Ry au
 
        Potential amp.        0.0467 Ry
        Total length         45.8317 bohr
 

     total cpu time spent up to now is      222.1 secs

     total energy              =   -1446.63789555 Ry
     Harris-Foulkes estimate   =   -1446.63868229 Ry
     estimated scf accuracy    <       0.00755479 Ry

     iteration # 10     ecut=    36.75 Ry     beta=0.30
     Davidson diagonalization with overlap
     ethr =  4.66E-06,  avg # of iterations =  5.0

     negative rho (up, down):  3.354E-03 0.000E+00
 
     Adding external electric field

     Computed dipole along edir(3) : 
        Dipole               -0.2457 Ry au,         -0.6244 Debye
        Dipole field         -0.0006 Ry au
 
        Potential amp.        0.0546 Ry
        Total length         45.8317 bohr
 

     total cpu time spent up to now is      244.9 secs

     total energy              =   -1446.63903818 Ry
     Harris-Foulkes estimate   =   -1446.63912104 Ry
     estimated scf accuracy    <       0.00303973 Ry

     iteration # 11     ecut=    36.75 Ry     beta=0.30
     Davidson diagonalization with overlap
     ethr =  1.88E-06,  avg # of iterations =  2.4

     negative rho (up, down):  3.675E-03 0.000E+00
 
     Adding external electric field

     Computed dipole along edir(3) : 
        Dipole               -0.2571 Ry au,         -0.6535 Debye
        Dipole field         -0.0006 Ry au
 
        Potential amp.        0.0572 Ry
        Total length         45.8317 bohr
 

     total cpu time spent up to now is      264.1 secs

     total energy              =   -1446.63921756 Ry
     Harris-Foulkes estimate   =   -1446.63920385 Ry
     estimated scf accuracy    <       0.00033841 Ry

     iteration # 12     ecut=    36.75 Ry     beta=0.30
     Davidson diagonalization with overlap
     ethr =  2.09E-07,  avg # of iterations =  5.5

     negative rho (up, down):  3.911E-03 0.000E+00
 
     Adding external electric field

     Computed dipole along edir(3) : 
        Dipole               -0.2637 Ry au,         -0.6703 Debye
        Dipole field         -0.0006 Ry au
 
        Potential amp.        0.0586 Ry
        Total length         45.8317 bohr
 

     total cpu time spent up to now is      287.6 secs

     total energy              =   -1446.63927653 Ry
     Harris-Foulkes estimate   =   -1446.63928301 Ry
     estimated scf accuracy    <       0.00021693 Ry

     iteration # 13     ecut=    36.75 Ry     beta=0.30
     Davidson diagonalization with overlap
     ethr =  1.34E-07,  avg # of iterations =  3.0

     negative rho (up, down):  4.139E-03 0.000E+00
 
     Adding external electric field

     Computed dipole along edir(3) : 
        Dipole               -0.2691 Ry au,         -0.6839 Debye
        Dipole field         -0.0007 Ry au
 
        Potential amp.        0.0598 Ry
        Total length         45.8317 bohr
 

     total cpu time spent up to now is      306.9 secs

     total energy              =   -1446.63928293 Ry
     Harris-Foulkes estimate   =   -1446.63928207 Ry
     estimated scf accuracy    <       0.00008954 Ry

     iteration # 14     ecut=    36.75 Ry     beta=0.30
     Davidson diagonalization with overlap
     ethr =  5.53E-08,  avg # of iterations =  3.8

     negative rho (up, down):  4.328E-03 0.000E+00
 
     Adding external electric field

     Computed dipole along edir(3) : 
        Dipole               -0.2737 Ry au,         -0.6956 Debye
        Dipole field         -0.0007 Ry au
 
        Potential amp.        0.0608 Ry
        Total length         45.8317 bohr
 

     total cpu time spent up to now is      327.9 secs

     total energy              =   -1446.63928904 Ry
     Harris-Foulkes estimate   =   -1446.63928512 Ry
     estimated scf accuracy    <       0.00002546 Ry

     iteration # 15     ecut=    36.75 Ry     beta=0.30
     Davidson diagonalization with overlap
     ethr =  1.57E-08,  avg # of iterations =  4.8

     negative rho (up, down):  4.391E-03 0.000E+00
 
     Adding external electric field

     Computed dipole along edir(3) : 
        Dipole               -0.2748 Ry au,         -0.6984 Debye
        Dipole field         -0.0007 Ry au
 
        Potential amp.        0.0611 Ry
        Total length         45.8317 bohr
 

     total cpu time spent up to now is      350.1 secs

     total energy              =   -1446.63929148 Ry
     Harris-Foulkes estimate   =   -1446.63929240 Ry
     estimated scf accuracy    <       0.00004535 Ry

     iteration # 16     ecut=    36.75 Ry     beta=0.30
     Davidson diagonalization with overlap
     ethr =  1.57E-08,  avg # of iterations =  1.0

     negative rho (up, down):  4.447E-03 0.000E+00
 
     Adding external electric field

     Computed dipole along edir(3) : 
        Dipole               -0.2752 Ry au,         -0.6995 Debye
        Dipole field         -0.0007 Ry au
 
        Potential amp.        0.0612 Ry
        Total length         45.8317 bohr
 

     total cpu time spent up to now is      368.5 secs

     total energy              =   -1446.63929072 Ry
     Harris-Foulkes estimate   =   -1446.63929169 Ry
     estimated scf accuracy    <       0.00001718 Ry

     iteration # 17     ecut=    36.75 Ry     beta=0.30
     Davidson diagonalization with overlap
     ethr =  1.06E-08,  avg # of iterations =  3.9

     negative rho (up, down):  4.534E-03 0.000E+00

     negative rho (up, down):  4.534E-03 0.000E+00

     negative rho (up, down):  4.534E-03 0.000E+00

     negative rho (up, down):  4.534E-03 0.000E+00

     negative rho (up, down):  4.534E-03 0.000E+00

     negative rho (up, down):  4.534E-03 0.000E+00

     negative rho (up, down):  4.534E-03 0.000E+00

     negative rho (up, down):  4.534E-03 0.000E+00

     negative rho (up, down):  4.534E-03 0.000E+00

     negative rho (up, down):  4.534E-03 0.000E+00

     negative rho (up, down):  4.534E-03 0.000E+00

     negative rho (up, down):  4.534E-03 0.000E+00

     negative rho (up, down):  4.534E-03 0.000E+00

     negative rho (up, down):  4.534E-03 0.000E+00

     negative rho (up, down):  4.534E-03 0.000E+00

     negative rho (up, down):  4.534E-03 0.000E+00

     negative rho (up, down):  4.534E-03 0.000E+00

     negative rho (up, down):  4.534E-03 0.000E+00

     negative rho (up, down):  4.534E-03 0.000E+00

     negative rho (up, down):  4.534E-03 0.000E+00

     negative rho (up, down):  4.534E-03 0.000E+00

     negative rho (up, down):  4.534E-03 0.000E+00

     negative rho (up, down):  4.534E-03 0.000E+00

     negative rho (up, down):  4.534E-03 0.000E+00

     negative rho (up, down):  4.534E-03 0.000E+00

     negative rho (up, down):  4.534E-03 0.000E+00

     negative rho (up, down):  4.534E-03 0.000E+00

     negative rho (up, down):  4.534E-03 0.000E+00

     negative rho (up, down):  4.534E-03 0.000E+00

     negative rho (up, down):  4.534E-03 0.000E+00

     negative rho (up, down):  4.534E-03 0.000E+00

     negative rho (up, down):  4.534E-03 0.000E+00

     negative rho (up, down):  4.534E-03 0.000E+00

     negative rho (up, down):  4.534E-03 0.000E+00

     negative rho (up, down):  4.534E-03 0.000E+00
 
     Adding external electric field

     Computed dipole along edir(3) : 
        Dipole               -0.2990 Ry au,         -0.7600 Debye
        Dipole field         -0.0007 Ry au
 
        Potential amp.        0.0665 Ry
        Total length         45.8317 bohr
 

     total cpu time spent up to now is      438.6 secs

     End of self-consistent calculation

          k = 0.0000 0.0000 0.0000 ( 19435 PWs)   bands (ev):

   -53.3509 -53.2440 -53.2355 -53.2353 -53.1346 -53.1233 -53.1062 -53.1061
   -53.1032 -53.0368 -52.9997 -52.9996 -29.7539 -29.7539 -29.7351 -29.6904
   -29.6644 -29.6643 -29.6473 -29.6102 -29.6087 -29.6087 -29.3741 -29.2809
   -29.2807 -29.2487 -29.1432 -29.1431 -29.1427 -29.1070 -29.0313 -29.0312
   -28.9591 -28.9516 -28.9516 -28.9377 -28.9007 -28.9006 -28.8501 -28.8274
   -28.8274 -28.8242 -28.8242 -28.8140 -28.7414 -28.7414 -28.6495 -28.6495
   -10.0259  -3.6176  -2.3628  -1.8669  -1.7532  -1.7532  -1.6626  -1.5316
    -1.4064  -1.4064  -1.1043  -1.1043  -1.1018  -0.9331  -0.9331  -0.9250
    -0.5902  -0.5902  -0.5334   0.1901   0.6735   0.6736   1.2394   1.3329
     1.4719   1.4719   1.6365   1.9682   1.9682   2.0169   2.1979   2.1979
     2.2382   2.2383   2.3058   2.3238   2.3238   2.3378   2.3378   2.6424
     3.0635   3.3018   3.3945

          k = 0.0000 0.0322 0.0000 ( 19477 PWs)   bands (ev):

   -53.3429 -53.2415 -53.2356 -53.2352 -53.1356 -53.1218 -53.1126 -53.1063
   -53.1033 -53.0380 -53.0037 -52.9996 -29.7221 -29.7155 -29.6924 -29.6710
   -29.6375 -29.6304 -29.6132 -29.5801 -29.5790 -29.5578 -29.3706 -29.3024
   -29.2897 -29.2656 -29.1427 -29.1403 -29.1311 -29.1245 -29.0596 -29.0285
   -29.0041 -28.9997 -28.9413 -28.9229 -28.9073 -28.8882 -28.8815 -28.8583
   -28.8508 -28.8481 -28.8408 -28.8091 -28.7792 -28.7565 -28.7056 -28.6605
   -10.0237  -3.4028  -2.1536  -1.6633  -1.6358  -1.6003  -1.5081  -1.4592
    -1.3095  -1.2424  -1.0345  -0.9710  -0.9698  -0.8335  -0.7360  -0.7069
    -0.5285  -0.5145  -0.4669   0.2433   0.6308   0.6739   1.1803   1.3378
     1.4965   1.5171   1.5739   1.6925   1.8344   1.8767   2.0291   2.1159
     2.1587   2.2305   2.2653   2.3315   2.3504   2.3866   2.4553   2.5334
     2.7789   2.9859   3.0742

          k = 0.0000 0.0645 0.0000 ( 19509 PWs)   bands (ev):

   -53.3216 -53.2591 -53.2356 -53.2111 -53.1441 -53.1372 -53.1096 -53.1063
   -53.0987 -53.0427 -53.0119 -52.9995 -29.6424 -29.6407 -29.6240 -29.5754
   -29.5690 -29.5611 -29.5255 -29.5083 -29.5068 -29.4192 -29.3674 -29.3279
   -29.3199 -29.3044 -29.1987 -29.1337 -29.1279 -29.1181 -29.1065 -29.0771
   -29.0728 -29.0613 -28.9960 -28.9864 -28.9443 -28.9315 -28.9046 -28.8951
   -28.8875 -28.8603 -28.8595 -28.8515 -28.8116 -28.7984 -28.7775 -28.6905
   -10.0194  -2.8232  -1.6685  -1.5921  -1.3333  -1.2597  -1.1563  -1.0924
    -1.0224  -0.8587  -0.8319  -0.6637  -0.6462  -0.5535  -0.4022  -0.3226
    -0.2650  -0.0715  -0.0439   0.3433   0.6142   0.6219   0.7797   1.0699
     1.2384   1.3089   1.3593   1.4674   1.6485   1.6556   1.7867   1.8263
     1.8688   1.9305   1.9996   2.1237   2.2621   2.4124   2.4648   2.5458
     2.5568   2.6423   2.7120

          k = 0.0000-0.0967 0.0000 ( 19524 PWs)   bands (ev):

   -53.3019 -53.2772 -53.2356 -53.1799 -53.1750 -53.1397 -53.1080 -53.1064
   -53.0917 -53.0478 -53.0157 -52.9995 -29.5915 -29.5830 -29.5719 -29.5556
   -29.5417 -29.5198 -29.4575 -29.4541 -29.4023 -29.3979 -29.3551 -29.3441
   -29.2978 -29.2396 -29.2392 -29.1913 -29.1890 -29.1559 -29.1546 -29.1446
   -29.0710 -29.0573 -29.0417 -29.0060 -28.9944 -28.9922 -28.9492 -28.9297
   -28.8916 -28.8615 -28.8542 -28.8473 -28.8401 -28.8291 -28.7453 -28.7232
   -10.0172  -2.1221  -2.0741  -1.3005  -1.2534  -1.0531  -0.9794  -0.8060
    -0.7109  -0.6683  -0.6295  -0.5462  -0.4283  -0.3702   0.0522   0.0774
     0.1139   0.1859   0.1927   0.2199   0.6733   0.7116   0.7703   0.7955
     0.8918   0.9399   1.2280   1.3083   1.3742   1.4816   1.5035   1.5878
     1.6405   1.6729   1.7522   1.8185   1.9508   2.0642   2.0697   2.2688
     2.2945   2.6894   2.7384

          k = 0.0279-0.0161 0.0000 ( 19477 PWs)   bands (ev):

   -53.3429 -53.2416 -53.2354 -53.2352 -53.1356 -53.1218 -53.1126 -53.1061
   -53.1034 -53.0380 -53.0036 -52.9996 -29.7222 -29.7154 -29.6925 -29.6710
   -29.6375 -29.6304 -29.6132 -29.5801 -29.5791 -29.5578 -29.3706 -29.3025
   -29.2896 -29.2657 -29.1426 -29.1403 -29.1312 -29.1245 -29.0597 -29.0285
   -29.0042 -28.9997 -28.9413 -28.9229 -28.9073 -28.8882 -28.8814 -28.8582
   -28.8508 -28.8481 -28.8408 -28.8091 -28.7792 -28.7565 -28.7056 -28.6605
   -10.0237  -3.4028  -2.1536  -1.6633  -1.6358  -1.6003  -1.5081  -1.4592
    -1.3095  -1.2424  -1.0345  -0.9710  -0.9698  -0.8335  -0.7360  -0.7068
    -0.5285  -0.5145  -0.4669   0.2433   0.6309   0.6739   1.1803   1.3378
     1.4965   1.5171   1.5739   1.6925   1.8343   1.8767   2.0291   2.1159
     2.1587   2.2305   2.2652   2.3315   2.3504   2.3866   2.4553   2.5334
     2.7789   2.9859   3.0743

          k = 0.0279 0.0161 0.0000 ( 19477 PWs)   bands (ev):

   -53.3429 -53.2416 -53.2354 -53.2352 -53.1356 -53.1218 -53.1127 -53.1061
   -53.1034 -53.0381 -53.0036 -52.9997 -29.7222 -29.7154 -29.6924 -29.6710
   -29.6375 -29.6304 -29.6132 -29.5801 -29.5791 -29.5578 -29.3706 -29.3025
   -29.2896 -29.2656 -29.1426 -29.1403 -29.1312 -29.1245 -29.0597 -29.0285
   -29.0042 -28.9997 -28.9413 -28.9229 -28.9073 -28.8882 -28.8814 -28.8582
   -28.8508 -28.8481 -28.8408 -28.8091 -28.7792 -28.7565 -28.7056 -28.6605
   -10.0237  -3.4028  -2.1536  -1.6633  -1.6358  -1.6003  -1.5081  -1.4592
    -1.3095  -1.2424  -1.0345  -0.9710  -0.9698  -0.8335  -0.7360  -0.7068
    -0.5285  -0.5145  -0.4669   0.2433   0.6309   0.6739   1.1803   1.3378
     1.4965   1.5171   1.5739   1.6925   1.8343   1.8767   2.0291   2.1159
     2.1587   2.2305   2.2652   2.3315   2.3504   2.3866   2.4553   2.5334
     2.7789   2.9859   3.0743

          k = 0.0279 0.0483 0.0000 ( 19485 PWs)   bands (ev):

   -53.3282 -53.2521 -53.2371 -53.2188 -53.1382 -53.1272 -53.1228 -53.1057
   -53.0967 -53.0404 -53.0115 -52.9985 -29.6770 -29.6422 -29.6327 -29.6130
   -29.5948 -29.5693 -29.5583 -29.5406 -29.4898 -29.4867 -29.3670 -29.3268
   -29.3176 -29.2884 -29.2018 -29.1293 -29.1252 -29.1135 -29.1107 -29.0654
   -29.0310 -29.0113 -28.9717 -28.9657 -28.9433 -28.9370 -28.9036 -28.8858
   -28.8698 -28.8626 -28.8306 -28.8260 -28.8166 -28.8035 -28.7671 -28.6880
   -10.0204  -3.0021  -1.7876  -1.4440  -1.4268  -1.3532  -1.2623  -1.2286
    -1.1753  -0.9909  -0.8756  -0.7748  -0.7009  -0.5910  -0.5341  -0.4032
    -0.3514  -0.3097  -0.1674   0.3219   0.5708   0.6566   0.9438   1.2394
     1.3130   1.3451   1.4274   1.5139   1.5531   1.7470   1.8517   1.9471
     1.9780   2.0559   2.1549   2.1936   2.2375   2.4130   2.5533   2.5798
     2.6144   2.6850   2.7554

          k = 0.0279-0.1128 0.0000 ( 19505 PWs)   bands (ev):

   -53.3047 -53.2708 -53.2396 -53.1900 -53.1559 -53.1395 -53.1289 -53.0955
   -53.0910 -53.0438 -53.0214 -52.9970 -29.5960 -29.5848 -29.5585 -29.5410
   -29.5327 -29.5006 -29.4645 -29.4551 -29.4212 -29.3783 -29.3618 -29.3522
   -29.3369 -29.2875 -29.2824 -29.2178 -29.1857 -29.1185 -29.1076 -29.1012
   -29.0810 -29.0773 -29.0275 -28.9941 -28.9878 -28.9742 -28.9238 -28.9134
   -28.9057 -28.8928 -28.8532 -28.8390 -28.8333 -28.8162 -28.7842 -28.7325
   -10.0172  -2.3236  -1.6641  -1.3109  -1.1955  -1.0988  -1.0223  -0.8765
    -0.7788  -0.6817  -0.6153  -0.5328  -0.3321  -0.2938  -0.1264  -0.0143
     0.0438   0.1066   0.2188   0.4752   0.5390   0.6024   0.6880   0.8022
     0.9440   1.0028   1.1065   1.2071   1.3452   1.4494   1.4923   1.5188
     1.5505   1.6664   1.7377   1.8735   1.9945   2.0810   2.2643   2.3211
     2.4266   2.5477   2.7345

          k = 0.0279-0.0806 0.0000 ( 19505 PWs)   bands (ev):

   -53.3047 -53.2709 -53.2396 -53.1900 -53.1559 -53.1395 -53.1289 -53.0955
   -53.0910 -53.0437 -53.0214 -52.9970 -29.5960 -29.5848 -29.5585 -29.5410
   -29.5327 -29.5006 -29.4645 -29.4551 -29.4212 -29.3783 -29.3618 -29.3522
   -29.3369 -29.2875 -29.2824 -29.2178 -29.1857 -29.1185 -29.1076 -29.1012
   -29.0809 -29.0773 -29.0274 -28.9941 -28.9878 -28.9743 -28.9238 -28.9134
   -28.9057 -28.8928 -28.8532 -28.8390 -28.8333 -28.8162 -28.7842 -28.7325
   -10.0172  -2.3236  -1.6641  -1.3109  -1.1954  -1.0988  -1.0223  -0.8765
    -0.7788  -0.6817  -0.6153  -0.5328  -0.3321  -0.2938  -0.1264  -0.0143
     0.0438   0.1066   0.2188   0.4752   0.5390   0.6024   0.6881   0.8022
     0.9440   1.0028   1.1065   1.2071   1.3452   1.4494   1.4923   1.5188
     1.5505   1.6664   1.7377   1.8735   1.9945   2.0810   2.2643   2.3211
     2.4266   2.5477   2.7345

          k = 0.0279-0.0483 0.0000 ( 19485 PWs)   bands (ev):

   -53.3282 -53.2521 -53.2371 -53.2188 -53.1382 -53.1272 -53.1228 -53.1057
   -53.0967 -53.0404 -53.0116 -52.9985 -29.6770 -29.6423 -29.6327 -29.6130
   -29.5948 -29.5693 -29.5583 -29.5406 -29.4898 -29.4867 -29.3670 -29.3268
   -29.3175 -29.2884 -29.2018 -29.1293 -29.1252 -29.1135 -29.1107 -29.0654
   -29.0310 -29.0113 -28.9717 -28.9657 -28.9432 -28.9370 -28.9036 -28.8858
   -28.8698 -28.8626 -28.8307 -28.8260 -28.8166 -28.8035 -28.7671 -28.6880
   -10.0204  -3.0021  -1.7876  -1.4440  -1.4268  -1.3532  -1.2623  -1.2286
    -1.1753  -0.9909  -0.8756  -0.7748  -0.7009  -0.5910  -0.5341  -0.4032
    -0.3514  -0.3097  -0.1674   0.3219   0.5708   0.6566   0.9438   1.2394
     1.3130   1.3451   1.4274   1.5139   1.5531   1.7470   1.8517   1.9471
     1.9780   2.0559   2.1549   2.1936   2.2375   2.4130   2.5532   2.5798
     2.6144   2.6850   2.7554

          k = 0.0558-0.0322 0.0000 ( 19509 PWs)   bands (ev):

   -53.3216 -53.2593 -53.2354 -53.2111 -53.1441 -53.1372 -53.1097 -53.1062
   -53.0988 -53.0428 -53.0118 -52.9996 -29.6425 -29.6406 -29.6239 -29.5754
   -29.5690 -29.5612 -29.5255 -29.5082 -29.5069 -29.4192 -29.3674 -29.3280
   -29.3198 -29.3044 -29.1986 -29.1338 -29.1278 -29.1183 -29.1065 -29.0771
   -29.0728 -29.0613 -28.9960 -28.9864 -28.9442 -28.9315 -28.9046 -28.8952
   -28.8876 -28.8603 -28.8595 -28.8515 -28.8116 -28.7985 -28.7774 -28.6905
   -10.0194  -2.8232  -1.6685  -1.5921  -1.3333  -1.2597  -1.1564  -1.0924
    -1.0224  -0.8587  -0.8319  -0.6637  -0.6462  -0.5535  -0.4022  -0.3226
    -0.2650  -0.0715  -0.0440   0.3434   0.6142   0.6219   0.7796   1.0699
     1.2384   1.3089   1.3593   1.4674   1.6485   1.6556   1.7867   1.8263
     1.8688   1.9305   1.9996   2.1237   2.2621   2.4124   2.4647   2.5458
     2.5568   2.6423   2.7120

          k = 0.0558 0.0000 0.0000 ( 19485 PWs)   bands (ev):

   -53.3282 -53.2522 -53.2369 -53.2188 -53.1383 -53.1273 -53.1228 -53.1056
   -53.0967 -53.0404 -53.0115 -52.9986 -29.6771 -29.6423 -29.6327 -29.6130
   -29.5947 -29.5693 -29.5583 -29.5406 -29.4898 -29.4867 -29.3670 -29.3269
   -29.3174 -29.2884 -29.2018 -29.1293 -29.1252 -29.1136 -29.1107 -29.0655
   -29.0310 -29.0113 -28.9717 -28.9657 -28.9433 -28.9370 -28.9036 -28.8858
   -28.8698 -28.8626 -28.8306 -28.8260 -28.8167 -28.8035 -28.7671 -28.6880
   -10.0204  -3.0021  -1.7876  -1.4440  -1.4268  -1.3532  -1.2623  -1.2286
    -1.1753  -0.9909  -0.8756  -0.7748  -0.7009  -0.5910  -0.5341  -0.4032
    -0.3514  -0.3097  -0.1674   0.3219   0.5709   0.6566   0.9437   1.2394
     1.3130   1.3451   1.4274   1.5139   1.5531   1.7470   1.8517   1.9471
     1.9780   2.0559   2.1549   2.1936   2.2375   2.4130   2.5532   2.5798
     2.6144   2.6850   2.7554

          k = 0.0558 0.0322 0.0000 ( 19509 PWs)   bands (ev):

   -53.3216 -53.2593 -53.2354 -53.2111 -53.1441 -53.1372 -53.1097 -53.1062
   -53.0987 -53.0428 -53.0117 -52.9997 -29.6425 -29.6406 -29.6239 -29.5754
   -29.5691 -29.5612 -29.5255 -29.5082 -29.5069 -29.4192 -29.3674 -29.3280
   -29.3198 -29.3044 -29.1986 -29.1338 -29.1278 -29.1183 -29.1065 -29.0771
   -29.0728 -29.0613 -28.9960 -28.9864 -28.9442 -28.9315 -28.9046 -28.8952
   -28.8876 -28.8603 -28.8594 -28.8514 -28.8116 -28.7984 -28.7774 -28.6905
   -10.0194  -2.8232  -1.6685  -1.5921  -1.3333  -1.2597  -1.1564  -1.0924
    -1.0224  -0.8587  -0.8319  -0.6637  -0.6462  -0.5535  -0.4022  -0.3226
    -0.2650  -0.0715  -0.0440   0.3434   0.6142   0.6219   0.7796   1.0699
     1.2384   1.3089   1.3593   1.4674   1.6485   1.6556   1.7867   1.8263
     1.8688   1.9305   1.9996   2.1237   2.2621   2.4124   2.4647   2.5458
     2.5568   2.6423   2.7120

          k = 0.0558-0.1289 0.0000 ( 19505 PWs)   bands (ev):

   -53.3047 -53.2710 -53.2395 -53.1900 -53.1559 -53.1395 -53.1289 -53.0955
   -53.0910 -53.0438 -53.0213 -52.9971 -29.5960 -29.5848 -29.5585 -29.5411
   -29.5326 -29.5006 -29.4645 -29.4551 -29.4212 -29.3783 -29.3618 -29.3522
   -29.3368 -29.2875 -29.2824 -29.2178 -29.1857 -29.1185 -29.1076 -29.1012
   -29.0809 -29.0773 -29.0274 -28.9941 -28.9878 -28.9743 -28.9238 -28.9134
   -28.9057 -28.8928 -28.8531 -28.8390 -28.8333 -28.8162 -28.7842 -28.7326
   -10.0172  -2.3236  -1.6641  -1.3109  -1.1954  -1.0988  -1.0224  -0.8765
    -0.7788  -0.6817  -0.6153  -0.5328  -0.3321  -0.2938  -0.1264  -0.0143
     0.0438   0.1066   0.2188   0.4752   0.5390   0.6024   0.6880   0.8022
     0.9440   1.0028   1.1065   1.2071   1.3452   1.4494   1.4923   1.5188
     1.5505   1.6665   1.7377   1.8735   1.9945   2.0810   2.2643   2.3211
     2.4266   2.5477   2.7345

          k = 0.0558-0.0967 0.0000 ( 19521 PWs)   bands (ev):

   -53.2858 -53.2847 -53.2444 -53.1645 -53.1601 -53.1565 -53.1385 -53.0896
   -53.0878 -53.0371 -53.0342 -52.9952 -29.5524 -29.5336 -29.5322 -29.5087
   -29.4906 -29.4796 -29.4206 -29.4184 -29.4161 -29.3665 -29.3649 -29.3481
   -29.3205 -29.3074 -29.2994 -29.2469 -29.2457 -29.2443 -29.1143 -29.0842
   -29.0711 -29.0710 -29.0461 -28.9995 -28.9985 -28.9902 -28.9116 -28.9045
   -28.9033 -28.9007 -28.8641 -28.8482 -28.8476 -28.7998 -28.7980 -28.7902
   -10.0162  -1.7309  -1.6005  -1.5965  -1.0696  -1.0545  -1.0199  -0.6524
    -0.6436  -0.5371  -0.2867  -0.2851  -0.1471  -0.0046   0.0030   0.0053
     0.2585   0.2604   0.3325   0.5194   0.5227   0.5473   0.5571   0.5622
     0.8031   0.8572   0.8581   1.0348   1.0554   1.0649   1.2351   1.2584
     1.3303   1.3848   1.6405   1.6445   1.8622   2.0227   2.3554   2.3976
     2.5071   2.6114   2.6605

          k = 0.0558-0.0645 0.0000 ( 19505 PWs)   bands (ev):

   -53.3047 -53.2710 -53.2395 -53.1900 -53.1559 -53.1395 -53.1289 -53.0955
   -53.0910 -53.0438 -53.0214 -52.9971 -29.5960 -29.5848 -29.5585 -29.5411
   -29.5327 -29.5006 -29.4645 -29.4551 -29.4212 -29.3783 -29.3618 -29.3522
   -29.3369 -29.2875 -29.2824 -29.2178 -29.1857 -29.1185 -29.1076 -29.1012
   -29.0809 -29.0773 -29.0274 -28.9941 -28.9878 -28.9743 -28.9238 -28.9134
   -28.9057 -28.8928 -28.8531 -28.8390 -28.8333 -28.8162 -28.7842 -28.7325
   -10.0172  -2.3236  -1.6641  -1.3109  -1.1954  -1.0988  -1.0223  -0.8765
    -0.7788  -0.6817  -0.6153  -0.5328  -0.3321  -0.2938  -0.1264  -0.0143
     0.0438   0.1066   0.2188   0.4752   0.5390   0.6024   0.6880   0.8022
     0.9440   1.0028   1.1064   1.2071   1.3452   1.4494   1.4923   1.5188
     1.5505   1.6664   1.7377   1.8735   1.9945   2.0810   2.2643   2.3211
     2.4266   2.5477   2.7345

          k =-0.0837 0.0483 0.0000 ( 19524 PWs)   bands (ev):

   -53.3017 -53.2776 -53.2355 -53.1798 -53.1751 -53.1397 -53.1080 -53.1063
   -53.0917 -53.0478 -53.0155 -52.9996 -29.5914 -29.5831 -29.5718 -29.5557
   -29.5416 -29.5199 -29.4574 -29.4543 -29.4024 -29.3979 -29.3550 -29.3441
   -29.2976 -29.2398 -29.2390 -29.1914 -29.1890 -29.1559 -29.1545 -29.1447
   -29.0709 -29.0574 -29.0417 -29.0060 -28.9943 -28.9923 -28.9490 -28.9298
   -28.8916 -28.8614 -28.8541 -28.8474 -28.8400 -28.8292 -28.7452 -28.7233
   -10.0172  -2.1221  -2.0741  -1.3005  -1.2534  -1.0531  -0.9795  -0.8060
    -0.7108  -0.6683  -0.6295  -0.5462  -0.4283  -0.3702   0.0522   0.0773
     0.1139   0.1859   0.1926   0.2199   0.6733   0.7116   0.7702   0.7956
     0.8918   0.9400   1.2280   1.3083   1.3741   1.4816   1.5035   1.5878
     1.6405   1.6729   1.7522   1.8185   1.9508   2.0642   2.0697   2.2687
     2.2945   2.6894   2.7384

          k =-0.0837 0.0806 0.0000 ( 19505 PWs)   bands (ev):

   -53.3046 -53.2711 -53.2394 -53.1900 -53.1559 -53.1395 -53.1289 -53.0955
   -53.0911 -53.0438 -53.0213 -52.9971 -29.5960 -29.5848 -29.5585 -29.5411
   -29.5326 -29.5006 -29.4645 -29.4551 -29.4212 -29.3784 -29.3617 -29.3521
   -29.3369 -29.2874 -29.2824 -29.2178 -29.1857 -29.1185 -29.1076 -29.1012
   -29.0810 -29.0774 -29.0275 -28.9941 -28.9878 -28.9742 -28.9238 -28.9134
   -28.9057 -28.8928 -28.8531 -28.8390 -28.8333 -28.8162 -28.7842 -28.7325
   -10.0172  -2.3236  -1.6641  -1.3109  -1.1954  -1.0988  -1.0224  -0.8765
    -0.7788  -0.6817  -0.6153  -0.5328  -0.3321  -0.2938  -0.1264  -0.0143
     0.0438   0.1066   0.2188   0.4752   0.5391   0.6024   0.6880   0.8022
     0.9440   1.0028   1.1065   1.2071   1.3452   1.4494   1.4923   1.5188
     1.5505   1.6665   1.7377   1.8735   1.9944   2.0810   2.2643   2.3211
     2.4266   2.5477   2.7345

          k =-0.0837 0.1128 0.0000 ( 19505 PWs)   bands (ev):

   -53.3047 -53.2711 -53.2394 -53.1900 -53.1559 -53.1395 -53.1289 -53.0955
   -53.0911 -53.0439 -53.0213 -52.9971 -29.5960 -29.5848 -29.5585 -29.5411
   -29.5326 -29.5006 -29.4645 -29.4551 -29.4212 -29.3784 -29.3617 -29.3521
   -29.3369 -29.2875 -29.2824 -29.2178 -29.1857 -29.1185 -29.1076 -29.1012
   -29.0810 -29.0774 -29.0275 -28.9941 -28.9878 -28.9742 -28.9238 -28.9134
   -28.9057 -28.8928 -28.8531 -28.8390 -28.8333 -28.8162 -28.7842 -28.7326
   -10.0172  -2.3236  -1.6641  -1.3109  -1.1954  -1.0988  -1.0224  -0.8765
    -0.7788  -0.6817  -0.6153  -0.5328  -0.3321  -0.2938  -0.1264  -0.0143
     0.0438   0.1066   0.2188   0.4752   0.5391   0.6024   0.6880   0.8022
     0.9440   1.0028   1.1065   1.2071   1.3452   1.4494   1.4923   1.5188
     1.5504   1.6665   1.7377   1.8735   1.9945   2.0810   2.2643   2.3211
     2.4266   2.5477   2.7345

          k =-0.0837-0.0483 0.0000 ( 19524 PWs)   bands (ev):

   -53.3017 -53.2775 -53.2355 -53.1798 -53.1751 -53.1397 -53.1080 -53.1063
   -53.0917 -53.0479 -53.0155 -52.9996 -29.5914 -29.5831 -29.5718 -29.5557
   -29.5416 -29.5199 -29.4574 -29.4543 -29.4024 -29.3979 -29.3550 -29.3441
   -29.2976 -29.2398 -29.2390 -29.1914 -29.1890 -29.1559 -29.1545 -29.1447
   -29.0709 -29.0574 -29.0417 -29.0061 -28.9942 -28.9924 -28.9490 -28.9298
   -28.8916 -28.8615 -28.8541 -28.8475 -28.8400 -28.8292 -28.7452 -28.7233
   -10.0172  -2.1221  -2.0741  -1.3005  -1.2534  -1.0531  -0.9795  -0.8060
    -0.7108  -0.6684  -0.6295  -0.5462  -0.4283  -0.3702   0.0523   0.0773
     0.1139   0.1859   0.1926   0.2199   0.6733   0.7116   0.7702   0.7956
     0.8918   0.9400   1.2280   1.3083   1.3742   1.4816   1.5035   1.5878
     1.6405   1.6729   1.7523   1.8185   1.9508   2.0642   2.0697   2.2687
     2.2945   2.6895   2.7385

     the Fermi energy is     1.8727 ev

!    total energy              =   -1446.63928718 Ry
     Harris-Foulkes estimate   =   -1446.63925928 Ry
     estimated scf accuracy    <       0.00000567 Ry

     The total energy is the sum of the following terms:

     one-electron contribution =  -11613.85133283 Ry
     hartree contribution      =    5800.99123918 Ry
     xc contribution           =    -236.94871861 Ry
     ewald contribution        =    4603.28671741 Ry
     electric field correction =       0.00021677 Ry
     smearing contrib. (-TS)   =      -0.11740910 Ry

     convergence has been achieved in  17 iterations
 
 BEEF-vdW xc energy contributions
           1 :   -203.065319363791     
           2 :    184.356104809306     
           3 :   -152.532985784323     
           4 :    116.169528257238     
           5 :   -83.4309014540535     
           6 :    59.4018974234787     
           7 :   -45.0572367062378     
           8 :    37.9453650288009     
           9 :   -34.0252279359347     
          10 :    29.6805908651862     
          11 :   -23.0811695480118     
          12 :    14.4623210270375     
          13 :   -5.44548090982795     
          14 :   -2.11671521184783     
          15 :    7.14791009307237     
          16 :   -9.77328437215027     
          17 :    11.0481449720259     
          18 :   -12.2422936897563     
          19 :    14.1113396721273     
          20 :   -16.5502226410196     
          21 :    18.7614623604964     
          22 :   -19.7865555006758     
          23 :    19.0681004783389     
          24 :   -16.7446730242947     
          25 :    13.5522591824546     
          26 :   -10.4329008829479     
          27 :    8.08333342261881     
          28 :   -6.68400422480701     
          29 :    5.92191158103321     
          30 :   -5.26129659574514     
          31 :   -23.4716161339404     
          32 :   -17.6662456664077     

     Forces acting on atoms (Ry/au):


     negative rho (up, down):  4.534E-03 0.000E+00
     atom    1 type  1   force =    -0.00009000   -0.00005284   -0.00678127
     atom    2 type  1   force =     0.00009187   -0.00005153   -0.00678212
     atom    3 type  1   force =     0.00000202    0.00010343   -0.00678306
     atom    4 type  1   force =     0.00000113    0.00000320   -0.00450851
     atom    5 type  1   force =     0.00000037    0.00746689   -0.00756349
     atom    6 type  1   force =    -0.00000059   -0.00000374    0.01103259
     atom    7 type  1   force =    -0.00647460   -0.00373421   -0.00756771
     atom    8 type  1   force =     0.00647207   -0.00373527   -0.00756814
     atom    9 type  1   force =     0.00000059    0.00000224    0.06826169
     atom   10 type  1   force =    -0.00000158    0.00294627    0.00066687
     atom   11 type  1   force =     0.00254252   -0.00147240    0.00069084
     atom   12 type  1   force =    -0.00254363   -0.00147140    0.00068805
     atom   13 type  2   force =    -0.00000016   -0.00000065   -0.03378573

     Total force =     0.076344     Total SCF correction =     0.009638
     SCF correction compared to forces is large: reduce conv_thr to get better values


     entering subroutine stress ...


     negative rho (up, down):  4.534E-03 0.000E+00
          total   stress  (Ry/bohr**3)                   (kbar)     P=  -21.14
  -0.00022544  -0.00000000  -0.00000000        -33.16     -0.00     -0.00
  -0.00000000  -0.00022544  -0.00000000         -0.00    -33.16     -0.00
  -0.00000000  -0.00000000   0.00001986         -0.00     -0.00      2.92


     BFGS Geometry Optimization

     number of scf cycles    =   1
     number of bfgs steps    =   0

     energy   new            =   -1446.6392871836 Ry

     new trust radius        =       0.0682616922 bohr
     new conv_thr            =       0.0000099958 Ry


ATOMIC_POSITIONS (crystal)
Nb1      0.166666667   0.166666667   0.402010442    0   0   0
Nb1      0.666666667   0.166666667   0.402010442    0   0   0
Nb1      0.166666667   0.666666667   0.402010442    0   0   0
Nb1      0.666666667   0.666666667   0.402010442    0   0   0
Nb1      0.833333333   0.333333333   0.500000000    0   0   0
Nb1      0.333333333   0.333333333   0.500000000    0   0   0
Nb1      0.833333333   0.833333333   0.500000000    0   0   0
Nb1      0.333333333   0.833333333   0.500000000    0   0   0
Nb1     -0.000000063   0.000000229   0.599441722
Nb1      0.499849097   0.000301526   0.598003745
Nb1      0.000300689   0.499849312   0.598004255
Nb1      0.499849849   0.499849415   0.598004195
S1       0.000000019  -0.000000066   0.689190506



     Writing output data file calc.save
     Check: negative starting charge=   -0.004859
     NEW-OLD atomic charge density approx. for the potential
     Check: negative starting charge=   -0.004856

     negative rho (up, down):  4.539E-03 0.000E+00
 
     Adding external electric field

     Computed dipole along edir(3) : 
        Dipole               -0.2988 Ry au,         -0.7595 Debye
        Dipole field         -0.0007 Ry au
 
        Potential amp.        0.0664 Ry
        Total length         45.8317 bohr
 

     total cpu time spent up to now is      508.8 secs

     per-process dynamical memory:    85.0 Mb

     Self-consistent Calculation

     iteration #  1     ecut=    36.75 Ry     beta=0.30
     Davidson diagonalization with overlap
     ethr =  1.00E-06,  avg # of iterations = 11.2

     negative rho (up, down):  4.540E-03 0.000E+00
 
     Adding external electric field

     Computed dipole along edir(3) : 
        Dipole                0.2739 Ry au,          0.6963 Debye
        Dipole field          0.0007 Ry au
 
        Potential amp.       -0.0609 Ry
        Total length         45.8317 bohr
 

     total cpu time spent up to now is      541.3 secs

     total energy              =   -1446.62743704 Ry
     Harris-Foulkes estimate   =   -1446.64337090 Ry
     estimated scf accuracy    <       0.03179192 Ry

     iteration #  2     ecut=    36.75 Ry     beta=0.30
     Davidson diagonalization with overlap
     ethr =  1.96E-05,  avg # of iterations =  7.3

     negative rho (up, down):  4.615E-03 0.000E+00
 
     Adding external electric field

     Computed dipole along edir(3) : 
        Dipole               -0.2510 Ry au,         -0.6379 Debye
        Dipole field         -0.0006 Ry au
 
        Potential amp.        0.0558 Ry
        Total length         45.8317 bohr
 

     total cpu time spent up to now is      568.2 secs

     total energy              =   -1446.37347068 Ry
     Harris-Foulkes estimate   =   -1446.91468872 Ry
     estimated scf accuracy    <      29.58127467 Ry

     iteration #  3     ecut=    36.75 Ry     beta=0.30
     Davidson diagonalization with overlap
     ethr =  1.96E-05,  avg # of iterations =  7.8

     negative rho (up, down):  4.579E-03 0.000E+00
 
     Adding external electric field

     Computed dipole along edir(3) : 
        Dipole               -0.2543 Ry au,         -0.6463 Debye
        Dipole field         -0.0006 Ry au
 
        Potential amp.        0.0565 Ry
        Total length         45.8317 bohr
 

     total cpu time spent up to now is      596.1 secs

     total energy              =   -1446.64262995 Ry
     Harris-Foulkes estimate   =   -1446.64401880 Ry
     estimated scf accuracy    <       0.01096410 Ry

     iteration #  4     ecut=    36.75 Ry     beta=0.30
     Davidson diagonalization with overlap
     ethr =  6.77E-06,  avg # of iterations =  3.1

     negative rho (up, down):  4.561E-03 0.000E+00
 
     Adding external electric field

     Computed dipole along edir(3) : 
        Dipole               -0.2590 Ry au,         -0.6582 Debye
        Dipole field         -0.0006 Ry au
 
        Potential amp.        0.0576 Ry
        Total length         45.8317 bohr
 

     total cpu time spent up to now is      616.1 secs

     total energy              =   -1446.64319682 Ry
     Harris-Foulkes estimate   =   -1446.64348030 Ry
     estimated scf accuracy    <       0.00222280 Ry

     iteration #  5     ecut=    36.75 Ry     beta=0.30
     Davidson diagonalization with overlap
     ethr =  1.37E-06,  avg # of iterations =  3.6

     negative rho (up, down):  4.552E-03 0.000E+00
 
     Adding external electric field

     Computed dipole along edir(3) : 
        Dipole               -0.2571 Ry au,         -0.6536 Debye
        Dipole field         -0.0006 Ry au
 
        Potential amp.        0.0572 Ry
        Total length         45.8317 bohr
 

     total cpu time spent up to now is      637.9 secs

     total energy              =   -1446.64343043 Ry
     Harris-Foulkes estimate   =   -1446.64345959 Ry
     estimated scf accuracy    <       0.00019422 Ry

     iteration #  6     ecut=    36.75 Ry     beta=0.30
     Davidson diagonalization with overlap
     ethr =  1.20E-07,  avg # of iterations =  5.0

     negative rho (up, down):  4.547E-03 0.000E+00
 
     Adding external electric field

     Computed dipole along edir(3) : 
        Dipole               -0.2542 Ry au,         -0.6461 Debye
        Dipole field         -0.0006 Ry au
 
        Potential amp.        0.0565 Ry
        Total length         45.8317 bohr
 

     total cpu time spent up to now is      661.2 secs

     total energy              =   -1446.64345003 Ry
     Harris-Foulkes estimate   =   -1446.64347439 Ry
     estimated scf accuracy    <       0.00016236 Ry

     iteration #  7     ecut=    36.75 Ry     beta=0.30
     Davidson diagonalization with overlap
     ethr =  1.00E-07,  avg # of iterations =  3.0

     negative rho (up, down):  4.545E-03 0.000E+00
 
     Adding external electric field

     Computed dipole along edir(3) : 
        Dipole               -0.2533 Ry au,         -0.6438 Debye
        Dipole field         -0.0006 Ry au
 
        Potential amp.        0.0563 Ry
        Total length         45.8317 bohr
 

     total cpu time spent up to now is      681.6 secs

     total energy              =   -1446.64283699 Ry
     Harris-Foulkes estimate   =   -1446.64346571 Ry
     estimated scf accuracy    <       0.00002804 Ry

     iteration #  8     ecut=    36.75 Ry     beta=0.30
     Davidson diagonalization with overlap
     ethr =  1.73E-08,  avg # of iterations =  4.6

     negative rho (up, down):  4.544E-03 0.000E+00
 
     Adding external electric field

     Computed dipole along edir(3) : 
        Dipole               -0.2539 Ry au,         -0.6454 Debye
        Dipole field         -0.0006 Ry au
 
        Potential amp.        0.0564 Ry
        Total length         45.8317 bohr
 

     total cpu time spent up to now is      705.0 secs

     total energy              =   -1446.64283977 Ry
     Harris-Foulkes estimate   =   -1446.64284240 Ry
     estimated scf accuracy    <       0.00002850 Ry

     iteration #  9     ecut=    36.75 Ry     beta=0.30
     Davidson diagonalization with overlap
     ethr =  1.73E-08,  avg # of iterations =  3.0

     negative rho (up, down):  4.542E-03 0.000E+00

     negative rho (up, down):  4.542E-03 0.000E+00

     negative rho (up, down):  4.542E-03 0.000E+00

     negative rho (up, down):  4.542E-03 0.000E+00

     negative rho (up, down):  4.542E-03 0.000E+00

     negative rho (up, down):  4.542E-03 0.000E+00

     negative rho (up, down):  4.542E-03 0.000E+00

     negative rho (up, down):  4.542E-03 0.000E+00

     negative rho (up, down):  4.542E-03 0.000E+00

     negative rho (up, down):  4.542E-03 0.000E+00

     negative rho (up, down):  4.542E-03 0.000E+00

     negative rho (up, down):  4.542E-03 0.000E+00

     negative rho (up, down):  4.542E-03 0.000E+00

     negative rho (up, down):  4.542E-03 0.000E+00

     negative rho (up, down):  4.542E-03 0.000E+00

     negative rho (up, down):  4.542E-03 0.000E+00

     negative rho (up, down):  4.542E-03 0.000E+00

     negative rho (up, down):  4.542E-03 0.000E+00

     negative rho (up, down):  4.542E-03 0.000E+00

     negative rho (up, down):  4.542E-03 0.000E+00

     negative rho (up, down):  4.542E-03 0.000E+00

     negative rho (up, down):  4.542E-03 0.000E+00

     negative rho (up, down):  4.542E-03 0.000E+00

     negative rho (up, down):  4.542E-03 0.000E+00

     negative rho (up, down):  4.542E-03 0.000E+00

     negative rho (up, down):  4.542E-03 0.000E+00

     negative rho (up, down):  4.542E-03 0.000E+00

     negative rho (up, down):  4.542E-03 0.000E+00

     negative rho (up, down):  4.542E-03 0.000E+00

     negative rho (up, down):  4.542E-03 0.000E+00

     negative rho (up, down):  4.542E-03 0.000E+00

     negative rho (up, down):  4.542E-03 0.000E+00

     negative rho (up, down):  4.542E-03 0.000E+00

     negative rho (up, down):  4.542E-03 0.000E+00

     negative rho (up, down):  4.542E-03 0.000E+00
 
     Adding external electric field

     Computed dipole along edir(3) : 
        Dipole               -0.2582 Ry au,         -0.6563 Debye
        Dipole field         -0.0006 Ry au
 
        Potential amp.        0.0574 Ry
        Total length         45.8317 bohr
 

     total cpu time spent up to now is      774.3 secs

     End of self-consistent calculation

          k = 0.0000 0.0000 0.0000 ( 19435 PWs)   bands (ev):

   -53.3205 -53.2185 -53.2070 -53.2067 -53.1023 -53.0809 -53.0807 -53.0805
   -53.0707 -53.0134 -52.9792 -52.9791 -29.7164 -29.7162 -29.7073 -29.6626
   -29.6374 -29.6374 -29.6162 -29.5834 -29.5817 -29.5816 -29.3487 -29.2540
   -29.2537 -29.2294 -29.1188 -29.1187 -29.1180 -29.0772 -28.9950 -28.9949
   -28.9340 -28.9226 -28.9225 -28.9143 -28.8780 -28.8779 -28.8309 -28.7999
   -28.7999 -28.7917 -28.7877 -28.7877 -28.7155 -28.7155 -28.6265 -28.6265
   -10.0833  -3.5874  -2.3322  -1.8376  -1.7330  -1.7330  -1.6325  -1.5184
    -1.3782  -1.3782  -1.1062  -1.1062  -1.0873  -0.9024  -0.9023  -0.8937
    -0.6193  -0.6193  -0.5557   0.2173   0.6965   0.6966   1.2636   1.3600
     1.4965   1.4966   1.6588   2.0027   2.0027   2.0252   2.2316   2.2316
     2.2657   2.2659   2.3353   2.3661   2.3661   2.3699   2.3699   2.6680
     3.0784   3.3269   3.4206

          k = 0.0000 0.0322 0.0000 ( 19477 PWs)   bands (ev):

   -53.3127 -53.2128 -53.2096 -53.2070 -53.0980 -53.0896 -53.0810 -53.0805
   -53.0722 -53.0147 -52.9831 -52.9790 -29.6845 -29.6818 -29.6612 -29.6430
   -29.6104 -29.6033 -29.5824 -29.5534 -29.5517 -29.5307 -29.3451 -29.2760
   -29.2630 -29.2438 -29.1168 -29.1149 -29.1093 -29.0956 -29.0227 -28.9937
   -28.9774 -28.9728 -28.9140 -28.8954 -28.8762 -28.8647 -28.8600 -28.8323
   -28.8245 -28.8241 -28.8024 -28.7855 -28.7538 -28.7305 -28.6828 -28.6375
   -10.0812  -3.3728  -2.1235  -1.6384  -1.6152  -1.5876  -1.4810  -1.4435
    -1.2848  -1.2159  -1.0385  -0.9763  -0.9641  -0.8052  -0.7114  -0.6771
    -0.5455  -0.5259  -0.4803   0.2705   0.6550   0.6995   1.2078   1.3602
     1.5166   1.5413   1.6031   1.7249   1.8582   1.9053   2.0553   2.1514
     2.1933   2.2579   2.2965   2.3604   2.3830   2.4297   2.4831   2.5637
     2.7995   3.0094   3.1032

          k = 0.0000 0.0645 0.0000 ( 19509 PWs)   bands (ev):

   -53.2921 -53.2300 -53.2071 -53.1855 -53.1171 -53.0855 -53.0817 -53.0810
   -53.0718 -53.0201 -52.9908 -52.9790 -29.6109 -29.6041 -29.5954 -29.5477
   -29.5376 -29.5330 -29.4957 -29.4813 -29.4792 -29.3914 -29.3417 -29.3016
   -29.2935 -29.2785 -29.1682 -29.1057 -29.1026 -29.0889 -29.0847 -29.0512
   -29.0482 -29.0177 -28.9609 -28.9594 -28.9197 -28.9094 -28.8785 -28.8712
   -28.8504 -28.8381 -28.8332 -28.8297 -28.7895 -28.7722 -28.7538 -28.6674
   -10.0769  -2.7943  -1.6473  -1.5682  -1.3289  -1.2793  -1.1414  -1.0727
    -1.0078  -0.8444  -0.8409  -0.6548  -0.6533  -0.5309  -0.3735  -0.3059
    -0.2471  -0.0511  -0.0161   0.3694   0.6449   0.6457   0.8092   1.0980
     1.2653   1.3365   1.3782   1.5008   1.6734   1.6771   1.8142   1.8440
     1.8962   1.9613   2.0270   2.1502   2.2801   2.4479   2.4911   2.5583
     2.5881   2.6789   2.7385

          k = 0.0000-0.0967 0.0000 ( 19524 PWs)   bands (ev):

   -53.2735 -53.2470 -53.2071 -53.1546 -53.1486 -53.0838 -53.0811 -53.0808
   -53.0668 -53.0258 -52.9943 -52.9790 -29.5639 -29.5438 -29.5419 -29.5261
   -29.5156 -29.4910 -29.4293 -29.4258 -29.3763 -29.3708 -29.3287 -29.3155
   -29.2686 -29.2101 -29.2074 -29.1656 -29.1631 -29.1290 -29.1281 -29.0987
   -29.0455 -29.0320 -29.0172 -28.9848 -28.9727 -28.9704 -28.9211 -28.8844
   -28.8674 -28.8378 -28.8288 -28.8193 -28.8189 -28.8080 -28.7214 -28.7004
   -10.0748  -2.0974  -2.0460  -1.3087  -1.2495  -1.1135  -0.9687  -0.8307
    -0.6782  -0.6433  -0.5956  -0.5194  -0.4157  -0.3613   0.0770   0.1050
     0.1370   0.2104   0.2399   0.2477   0.7003   0.7353   0.7997   0.8210
     0.9161   0.9813   1.2340   1.3310   1.3992   1.5044   1.5274   1.6057
     1.6727   1.6981   1.7688   1.8279   1.9878   2.0859   2.0963   2.2850
     2.3382   2.7697   2.7806

          k = 0.0279-0.0161 0.0000 ( 19477 PWs)   bands (ev):

   -53.3127 -53.2131 -53.2096 -53.2068 -53.0980 -53.0896 -53.0808 -53.0806
   -53.0722 -53.0147 -52.9830 -52.9792 -29.6846 -29.6817 -29.6612 -29.6430
   -29.6103 -29.6034 -29.5824 -29.5533 -29.5518 -29.5307 -29.3451 -29.2761
   -29.2628 -29.2438 -29.1167 -29.1150 -29.1093 -29.0956 -29.0228 -28.9936
   -28.9775 -28.9728 -28.9140 -28.8954 -28.8762 -28.8648 -28.8600 -28.8323
   -28.8245 -28.8241 -28.8025 -28.7855 -28.7538 -28.7305 -28.6828 -28.6375
   -10.0812  -3.3728  -2.1235  -1.6384  -1.6152  -1.5876  -1.4810  -1.4435
    -1.2848  -1.2159  -1.0385  -0.9763  -0.9641  -0.8052  -0.7115  -0.6771
    -0.5455  -0.5260  -0.4803   0.2705   0.6550   0.6994   1.2078   1.3602
     1.5166   1.5413   1.6031   1.7249   1.8581   1.9054   2.0552   2.1514
     2.1933   2.2579   2.2964   2.3604   2.3831   2.4297   2.4831   2.5637
     2.7995   3.0094   3.1032

          k = 0.0279 0.0161 0.0000 ( 19477 PWs)   bands (ev):

   -53.3127 -53.2131 -53.2096 -53.2068 -53.0980 -53.0896 -53.0808 -53.0806
   -53.0722 -53.0147 -52.9830 -52.9792 -29.6846 -29.6817 -29.6612 -29.6430
   -29.6103 -29.6034 -29.5824 -29.5533 -29.5518 -29.5307 -29.3451 -29.2761
   -29.2628 -29.2438 -29.1167 -29.1149 -29.1093 -29.0956 -29.0228 -28.9936
   -28.9775 -28.9728 -28.9140 -28.8954 -28.8762 -28.8648 -28.8600 -28.8323
   -28.8245 -28.8241 -28.8025 -28.7855 -28.7538 -28.7305 -28.6828 -28.6375
   -10.0812  -3.3728  -2.1235  -1.6384  -1.6152  -1.5876  -1.4810  -1.4435
    -1.2848  -1.2159  -1.0385  -0.9763  -0.9641  -0.8052  -0.7115  -0.6771
    -0.5455  -0.5260  -0.4803   0.2705   0.6550   0.6994   1.2078   1.3602
     1.5166   1.5413   1.6031   1.7250   1.8581   1.9054   2.0552   2.1514
     2.1933   2.2579   2.2964   2.3604   2.3831   2.4297   2.4831   2.5637
     2.7995   3.0094   3.1032

          k = 0.0279 0.0483 0.0000 ( 19485 PWs)   bands (ev):

   -53.2983 -53.2235 -53.2082 -53.1931 -53.1020 -53.0970 -53.0866 -53.0762
   -53.0701 -53.0175 -52.9907 -52.9779 -29.6425 -29.6138 -29.5970 -29.5825
   -29.5665 -29.5436 -29.5270 -29.5135 -29.4624 -29.4594 -29.3414 -29.3005
   -29.2917 -29.2629 -29.1697 -29.1039 -29.1003 -29.0944 -29.0853 -29.0325
   -28.9943 -28.9706 -28.9447 -28.9393 -28.9191 -28.9112 -28.8788 -28.8591
   -28.8430 -28.8327 -28.8063 -28.8021 -28.7948 -28.7793 -28.7421 -28.6651
   -10.0780  -2.9728  -1.7615  -1.4338  -1.4157  -1.3566  -1.2443  -1.1975
    -1.1428  -0.9815  -0.8987  -0.7970  -0.6835  -0.5656  -0.5095  -0.3866
    -0.3403  -0.2998  -0.1440   0.3491   0.5956   0.6860   0.9719   1.2752
     1.3261   1.3688   1.4563   1.5450   1.5778   1.7742   1.8772   1.9743
     2.0049   2.0827   2.1799   2.2201   2.2706   2.4455   2.5829   2.6096
     2.6425   2.7259   2.7709

          k = 0.0279-0.1128 0.0000 ( 19505 PWs)   bands (ev):

   -53.2758 -53.2418 -53.2102 -53.1643 -53.1297 -53.1037 -53.0829 -53.0702
   -53.0653 -53.0217 -53.0002 -52.9764 -29.5647 -29.5548 -29.5260 -29.5110
   -29.5041 -29.4715 -29.4377 -29.4253 -29.3928 -29.3522 -29.3325 -29.3228
   -29.3099 -29.2616 -29.2525 -29.1922 -29.1512 -29.0933 -29.0818 -29.0777
   -29.0595 -29.0363 -29.0028 -28.9679 -28.9559 -28.9470 -28.8921 -28.8861
   -28.8804 -28.8676 -28.8291 -28.8164 -28.8090 -28.7933 -28.7609 -28.7096
   -10.0748  -2.2964  -1.6427  -1.3095  -1.2123  -1.1321  -1.0089  -0.8683
    -0.7798  -0.6673  -0.6020  -0.5187  -0.3021  -0.2679  -0.0949   0.0096
     0.0735   0.1331   0.2488   0.5007   0.5653   0.6344   0.7138   0.8340
     0.9705   1.0265   1.1231   1.2380   1.3656   1.4720   1.5156   1.5318
     1.5709   1.6911   1.7638   1.9038   2.0238   2.1061   2.3050   2.3405
     2.4579   2.6048   2.7720

          k = 0.0279-0.0806 0.0000 ( 19505 PWs)   bands (ev):

   -53.2758 -53.2418 -53.2102 -53.1643 -53.1297 -53.1037 -53.0829 -53.0702
   -53.0653 -53.0217 -53.0002 -52.9764 -29.5647 -29.5548 -29.5260 -29.5110
   -29.5040 -29.4715 -29.4377 -29.4253 -29.3928 -29.3522 -29.3324 -29.3228
   -29.3100 -29.2616 -29.2525 -29.1922 -29.1512 -29.0933 -29.0818 -29.0777
   -29.0595 -29.0363 -29.0028 -28.9679 -28.9559 -28.9470 -28.8921 -28.8861
   -28.8804 -28.8676 -28.8291 -28.8164 -28.8090 -28.7933 -28.7609 -28.7096
   -10.0748  -2.2964  -1.6427  -1.3095  -1.2123  -1.1321  -1.0089  -0.8683
    -0.7798  -0.6673  -0.6020  -0.5187  -0.3021  -0.2679  -0.0949   0.0096
     0.0735   0.1331   0.2487   0.5007   0.5653   0.6344   0.7138   0.8340
     0.9705   1.0265   1.1231   1.2380   1.3656   1.4720   1.5156   1.5318
     1.5709   1.6911   1.7638   1.9038   2.0237   2.1061   2.3050   2.3405
     2.4579   2.6048   2.7720

          k = 0.0279-0.0483 0.0000 ( 19485 PWs)   bands (ev):

   -53.2983 -53.2235 -53.2082 -53.1931 -53.1020 -53.0970 -53.0866 -53.0762
   -53.0701 -53.0175 -52.9907 -52.9779 -29.6425 -29.6138 -29.5970 -29.5825
   -29.5665 -29.5436 -29.5270 -29.5135 -29.4624 -29.4594 -29.3414 -29.3005
   -29.2917 -29.2629 -29.1697 -29.1039 -29.1002 -29.0944 -29.0853 -29.0325
   -28.9943 -28.9706 -28.9447 -28.9393 -28.9191 -28.9112 -28.8788 -28.8591
   -28.8430 -28.8327 -28.8063 -28.8021 -28.7948 -28.7793 -28.7421 -28.6651
   -10.0780  -2.9728  -1.7615  -1.4338  -1.4157  -1.3566  -1.2443  -1.1975
    -1.1428  -0.9815  -0.8987  -0.7970  -0.6835  -0.5656  -0.5095  -0.3866
    -0.3403  -0.2998  -0.1440   0.3491   0.5956   0.6860   0.9719   1.2752
     1.3261   1.3688   1.4563   1.5450   1.5778   1.7742   1.8772   1.9743
     2.0049   2.0827   2.1799   2.2201   2.2706   2.4455   2.5828   2.6096
     2.6426   2.7259   2.7709

          k = 0.0558-0.0322 0.0000 ( 19509 PWs)   bands (ev):

   -53.2920 -53.2303 -53.2068 -53.1855 -53.1171 -53.0855 -53.0817 -53.0809
   -53.0719 -53.0202 -52.9906 -52.9791 -29.6108 -29.6043 -29.5954 -29.5477
   -29.5376 -29.5331 -29.4957 -29.4812 -29.4793 -29.3914 -29.3417 -29.3017
   -29.2933 -29.2785 -29.1680 -29.1059 -29.1025 -29.0890 -29.0848 -29.0512
   -29.0481 -29.0176 -28.9608 -28.9594 -28.9197 -28.9094 -28.8785 -28.8712
   -28.8504 -28.8380 -28.8333 -28.8296 -28.7895 -28.7722 -28.7538 -28.6675
   -10.0769  -2.7943  -1.6473  -1.5682  -1.3289  -1.2793  -1.1415  -1.0727
    -1.0078  -0.8444  -0.8409  -0.6548  -0.6533  -0.5309  -0.3735  -0.3059
    -0.2471  -0.0511  -0.0162   0.3695   0.6449   0.6457   0.8092   1.0979
     1.2653   1.3366   1.3782   1.5008   1.6734   1.6771   1.8142   1.8440
     1.8962   1.9613   2.0270   2.1501   2.2801   2.4479   2.4910   2.5583
     2.5881   2.6789   2.7385

          k = 0.0558 0.0000 0.0000 ( 19485 PWs)   bands (ev):

   -53.2983 -53.2237 -53.2080 -53.1932 -53.1021 -53.0970 -53.0865 -53.0762
   -53.0702 -53.0175 -52.9906 -52.9780 -29.6425 -29.6138 -29.5969 -29.5825
   -29.5665 -29.5437 -29.5270 -29.5135 -29.4623 -29.4595 -29.3414 -29.3007
   -29.2915 -29.2629 -29.1697 -29.1040 -29.1001 -29.0944 -29.0854 -29.0325
   -28.9942 -28.9706 -28.9447 -28.9392 -28.9192 -28.9112 -28.8788 -28.8592
   -28.8430 -28.8327 -28.8063 -28.8021 -28.7949 -28.7793 -28.7421 -28.6651
   -10.0780  -2.9728  -1.7615  -1.4338  -1.4157  -1.3566  -1.2443  -1.1976
    -1.1428  -0.9815  -0.8987  -0.7970  -0.6835  -0.5656  -0.5095  -0.3866
    -0.3403  -0.2998  -0.1440   0.3491   0.5956   0.6860   0.9719   1.2752
     1.3261   1.3688   1.4563   1.5450   1.5779   1.7742   1.8772   1.9743
     2.0049   2.0827   2.1798   2.2201   2.2706   2.4455   2.5828   2.6096
     2.6426   2.7259   2.7710

          k = 0.0558 0.0322 0.0000 ( 19509 PWs)   bands (ev):

   -53.2920 -53.2303 -53.2068 -53.1855 -53.1171 -53.0855 -53.0817 -53.0809
   -53.0718 -53.0202 -52.9906 -52.9791 -29.6108 -29.6042 -29.5954 -29.5477
   -29.5376 -29.5331 -29.4957 -29.4812 -29.4793 -29.3914 -29.3417 -29.3017
   -29.2933 -29.2785 -29.1680 -29.1058 -29.1025 -29.0890 -29.0848 -29.0512
   -29.0481 -29.0176 -28.9608 -28.9594 -28.9197 -28.9094 -28.8785 -28.8712
   -28.8504 -28.8380 -28.8333 -28.8296 -28.7895 -28.7722 -28.7538 -28.6675
   -10.0769  -2.7943  -1.6473  -1.5682  -1.3289  -1.2793  -1.1415  -1.0727
    -1.0078  -0.8444  -0.8409  -0.6548  -0.6533  -0.5309  -0.3735  -0.3059
    -0.2471  -0.0511  -0.0162   0.3695   0.6449   0.6457   0.8092   1.0979
     1.2653   1.3366   1.3782   1.5008   1.6734   1.6771   1.8142   1.8440
     1.8962   1.9613   2.0270   2.1501   2.2801   2.4479   2.4910   2.5583
     2.5881   2.6789   2.7385

          k = 0.0558-0.1289 0.0000 ( 19505 PWs)   bands (ev):

   -53.2757 -53.2420 -53.2100 -53.1643 -53.1297 -53.1037 -53.0829 -53.0702
   -53.0653 -53.0218 -53.0001 -52.9765 -29.5647 -29.5548 -29.5260 -29.5110
   -29.5041 -29.4716 -29.4377 -29.4253 -29.3929 -29.3522 -29.3324 -29.3228
   -29.3099 -29.2616 -29.2524 -29.1922 -29.1514 -29.0933 -29.0819 -29.0777
   -29.0594 -29.0363 -29.0028 -28.9679 -28.9558 -28.9471 -28.8921 -28.8861
   -28.8804 -28.8676 -28.8290 -28.8164 -28.8090 -28.7933 -28.7609 -28.7096
   -10.0748  -2.2964  -1.6427  -1.3095  -1.2123  -1.1321  -1.0089  -0.8683
    -0.7798  -0.6673  -0.6020  -0.5187  -0.3021  -0.2679  -0.0949   0.0096
     0.0735   0.1331   0.2487   0.5007   0.5653   0.6343   0.7138   0.8341
     0.9705   1.0265   1.1231   1.2380   1.3656   1.4720   1.5156   1.5318
     1.5709   1.6911   1.7638   1.9038   2.0238   2.1061   2.3050   2.3405
     2.4579   2.6048   2.7720

          k = 0.0558-0.0967 0.0000 ( 19521 PWs)   bands (ev):

   -53.2579 -53.2557 -53.2138 -53.1393 -53.1341 -53.1296 -53.0829 -53.0649
   -53.0617 -53.0160 -53.0123 -52.9746 -29.5259 -29.5033 -29.5030 -29.4727
   -29.4598 -29.4525 -29.3919 -29.3912 -29.3856 -29.3393 -29.3362 -29.3215
   -29.2936 -29.2725 -29.2648 -29.2216 -29.2194 -29.2174 -29.0906 -29.0571
   -29.0558 -29.0460 -29.0200 -28.9649 -28.9568 -28.9558 -28.8863 -28.8781
   -28.8770 -28.8743 -28.8417 -28.8270 -28.8246 -28.7771 -28.7760 -28.7672
   -10.0737  -1.7205  -1.5724  -1.5657  -1.1121  -1.0806  -1.0702  -0.6418
    -0.6317  -0.5090  -0.2587  -0.2523  -0.1101   0.0312   0.0314   0.0353
     0.2855   0.2874   0.3625   0.5373   0.5493   0.5822   0.5888   0.5901
     0.8103   0.8762   0.8801   1.0570   1.0877   1.0901   1.2601   1.2701
     1.3465   1.4151   1.6671   1.6715   1.8783   2.0932   2.3812   2.4141
     2.5349   2.6630   2.6804

          k = 0.0558-0.0645 0.0000 ( 19505 PWs)   bands (ev):

   -53.2757 -53.2421 -53.2100 -53.1643 -53.1297 -53.1037 -53.0829 -53.0702
   -53.0654 -53.0218 -53.0001 -52.9765 -29.5647 -29.5548 -29.5260 -29.5110
   -29.5041 -29.4716 -29.4377 -29.4253 -29.3929 -29.3522 -29.3324 -29.3228
   -29.3099 -29.2616 -29.2524 -29.1922 -29.1514 -29.0933 -29.0819 -29.0777
   -29.0594 -29.0363 -29.0028 -28.9679 -28.9558 -28.9471 -28.8921 -28.8861
   -28.8804 -28.8676 -28.8290 -28.8164 -28.8090 -28.7933 -28.7609 -28.7096
   -10.0748  -2.2964  -1.6427  -1.3095  -1.2123  -1.1321  -1.0089  -0.8683
    -0.7798  -0.6673  -0.6020  -0.5187  -0.3021  -0.2679  -0.0949   0.0096
     0.0735   0.1331   0.2487   0.5007   0.5653   0.6343   0.7138   0.8341
     0.9705   1.0265   1.1231   1.2380   1.3656   1.4720   1.5156   1.5318
     1.5709   1.6911   1.7638   1.9038   2.0238   2.1061   2.3050   2.3405
     2.4579   2.6048   2.7720

          k =-0.0837 0.0483 0.0000 ( 19524 PWs)   bands (ev):

   -53.2732 -53.2475 -53.2069 -53.1545 -53.1488 -53.0838 -53.0809 -53.0809
   -53.0668 -53.0259 -52.9941 -52.9791 -29.5638 -29.5436 -29.5421 -29.5263
   -29.5155 -29.4911 -29.4292 -29.4260 -29.3763 -29.3708 -29.3285 -29.3155
   -29.2684 -29.2098 -29.2077 -29.1657 -29.1631 -29.1289 -29.1282 -29.0987
   -29.0454 -29.0322 -29.0173 -28.9849 -28.9725 -28.9705 -28.9209 -28.8846
   -28.8674 -28.8378 -28.8287 -28.8195 -28.8188 -28.8081 -28.7213 -28.7006
   -10.0748  -2.0974  -2.0459  -1.3086  -1.2495  -1.1136  -0.9687  -0.8307
    -0.6782  -0.6433  -0.5955  -0.5194  -0.4157  -0.3613   0.0771   0.1050
     0.1369   0.2105   0.2399   0.2477   0.7003   0.7353   0.7997   0.8211
     0.9161   0.9814   1.2340   1.3310   1.3992   1.5044   1.5275   1.6057
     1.6726   1.6981   1.7689   1.8279   1.9878   2.0860   2.0963   2.2849
     2.3381   2.7698   2.7806

          k =-0.0837 0.0806 0.0000 ( 19505 PWs)   bands (ev):

   -53.2757 -53.2422 -53.2100 -53.1643 -53.1298 -53.1037 -53.0829 -53.0702
   -53.0654 -53.0218 -53.0000 -52.9765 -29.5646 -29.5548 -29.5260 -29.5110
   -29.5041 -29.4716 -29.4377 -29.4253 -29.3928 -29.3523 -29.3324 -29.3228
   -29.3100 -29.2616 -29.2524 -29.1922 -29.1513 -29.0933 -29.0818 -29.0777
   -29.0595 -29.0363 -29.0029 -28.9679 -28.9558 -28.9471 -28.8921 -28.8861
   -28.8804 -28.8676 -28.8291 -28.8163 -28.8090 -28.7933 -28.7609 -28.7097
   -10.0748  -2.2964  -1.6427  -1.3095  -1.2123  -1.1321  -1.0089  -0.8683
    -0.7798  -0.6673  -0.6020  -0.5187  -0.3021  -0.2679  -0.0949   0.0096
     0.0735   0.1331   0.2487   0.5007   0.5653   0.6343   0.7137   0.8341
     0.9705   1.0265   1.1231   1.2380   1.3656   1.4720   1.5156   1.5318
     1.5709   1.6911   1.7638   1.9038   2.0237   2.1061   2.3050   2.3405
     2.4579   2.6048   2.7721

          k =-0.0837 0.1128 0.0000 ( 19505 PWs)   bands (ev):

   -53.2757 -53.2422 -53.2100 -53.1643 -53.1297 -53.1037 -53.0829 -53.0702
   -53.0654 -53.0218 -53.0000 -52.9765 -29.5646 -29.5548 -29.5260 -29.5110
   -29.5041 -29.4716 -29.4377 -29.4253 -29.3928 -29.3523 -29.3324 -29.3228
   -29.3100 -29.2616 -29.2525 -29.1922 -29.1513 -29.0933 -29.0818 -29.0777
   -29.0595 -29.0363 -29.0029 -28.9679 -28.9558 -28.9471 -28.8921 -28.8861
   -28.8805 -28.8676 -28.8291 -28.8163 -28.8090 -28.7933 -28.7609 -28.7097
   -10.0748  -2.2964  -1.6427  -1.3095  -1.2123  -1.1321  -1.0089  -0.8683
    -0.7798  -0.6673  -0.6020  -0.5187  -0.3021  -0.2679  -0.0949   0.0096
     0.0735   0.1331   0.2487   0.5007   0.5653   0.6343   0.7137   0.8341
     0.9705   1.0265   1.1231   1.2380   1.3656   1.4720   1.5156   1.5318
     1.5709   1.6911   1.7638   1.9038   2.0237   2.1061   2.3050   2.3405
     2.4579   2.6048   2.7721

          k =-0.0837-0.0483 0.0000 ( 19524 PWs)   bands (ev):

   -53.2733 -53.2474 -53.2069 -53.1545 -53.1488 -53.0838 -53.0810 -53.0809
   -53.0668 -53.0259 -52.9941 -52.9791 -29.5638 -29.5436 -29.5421 -29.5263
   -29.5155 -29.4911 -29.4292 -29.4260 -29.3763 -29.3708 -29.3285 -29.3155
   -29.2684 -29.2098 -29.2077 -29.1657 -29.1631 -29.1289 -29.1282 -29.0987
   -29.0454 -29.0321 -29.0173 -28.9849 -28.9725 -28.9705 -28.9209 -28.8846
   -28.8674 -28.8378 -28.8287 -28.8195 -28.8188 -28.8081 -28.7213 -28.7005
   -10.0748  -2.0974  -2.0459  -1.3086  -1.2495  -1.1136  -0.9687  -0.8307
    -0.6782  -0.6433  -0.5955  -0.5194  -0.4157  -0.3613   0.0771   0.1050
     0.1370   0.2105   0.2399   0.2477   0.7003   0.7353   0.7997   0.8211
     0.9161   0.9814   1.2340   1.3310   1.3992   1.5044   1.5275   1.6057
     1.6726   1.6981   1.7689   1.8279   1.9878   2.0859   2.0963   2.2849
     2.3381   2.7698   2.7806

     the Fermi energy is     1.8994 ev

!    total energy              =   -1446.64346611 Ry
     Harris-Foulkes estimate   =   -1446.64283640 Ry
     estimated scf accuracy    <       0.00000446 Ry

     The total energy is the sum of the following terms:

     one-electron contribution =  -11604.98442259 Ry
     hartree contribution      =    5796.69787995 Ry
     xc contribution           =    -236.96567358 Ry
     ewald contribution        =    4598.72502059 Ry
     electric field correction =       0.00016169 Ry
     smearing contrib. (-TS)   =      -0.11643216 Ry

     convergence has been achieved in   9 iterations
 
 BEEF-vdW xc energy contributions
           1 :   -203.082086969045     
           2 :    184.376192435344     
           3 :   -152.557233530274     
           4 :    116.195918342208     
           5 :   -83.4564112295600     
           6 :    59.4242837187976     
           7 :   -45.0749762769177     
           8 :    37.9567260799399     
           9 :   -34.0281227983369     
          10 :    29.6741836462357     
          11 :   -23.0678233018185     
          12 :    14.4478026838223     
          13 :   -5.43626342689026     
          14 :   -2.11767573418223     
          15 :    7.14411894290407     
          16 :   -9.77383436017442     
          17 :    11.0631057651763     
          18 :   -12.2773405768916     
          19 :    14.1638673899744     
          20 :   -16.6093783657857     
          21 :    18.8131205781329     
          22 :   -19.8201362195279     
          23 :    19.0813868215876     
          24 :   -16.7444601434282     
          25 :    13.5501335825880     
          26 :   -10.4383463597536     
          27 :    8.09803069659876     
          28 :   -6.70067714895990     
          29 :    5.92847279026881     
          30 :   -5.24738061446021     
          31 :   -23.4726381484453     
          32 :   -17.6681557391468     

     Forces acting on atoms (Ry/au):


     negative rho (up, down):  4.542E-03 0.000E+00
     atom    1 type  1   force =    -0.00043554   -0.00025484   -0.00682040
     atom    2 type  1   force =     0.00043604   -0.00025401   -0.00682124
     atom    3 type  1   force =     0.00000082    0.00049797   -0.00682044
     atom    4 type  1   force =    -0.00000032    0.00000176   -0.00452821
     atom    5 type  1   force =     0.00000038    0.00609798   -0.00469122
     atom    6 type  1   force =    -0.00000129    0.00000690    0.01135427
     atom    7 type  1   force =    -0.00528150   -0.00304875   -0.00468550
     atom    8 type  1   force =     0.00528119   -0.00305028   -0.00468642
     atom    9 type  1   force =     0.00000029    0.00000202    0.03355577
     atom   10 type  1   force =     0.00000066    0.00201351   -0.00129706
     atom   11 type  1   force =     0.00174474   -0.00100667   -0.00131386
     atom   12 type  1   force =    -0.00174530   -0.00100616   -0.00131467
     atom   13 type  2   force =    -0.00000017    0.00000056   -0.00193104

     Total force =     0.033868     Total SCF correction =     0.002795


     entering subroutine stress ...


     negative rho (up, down):  4.542E-03 0.000E+00
          total   stress  (Ry/bohr**3)                   (kbar)     P=  -19.68
  -0.00022216  -0.00000000  -0.00000000        -32.68     -0.00     -0.00
  -0.00000000  -0.00022217   0.00000000         -0.00    -32.68      0.00
  -0.00000000   0.00000000   0.00004308         -0.00      0.00      6.34


     number of scf cycles    =   2
     number of bfgs steps    =   1

     energy   old            =   -1446.6392871836 Ry
     energy   new            =   -1446.6434661060 Ry

     CASE: energy  _new < energy  _old

     new trust radius        =       0.0626420908 bohr
     new conv_thr            =       0.0000001000 Ry


ATOMIC_POSITIONS (crystal)
Nb1      0.166666667   0.166666667   0.402010442    0   0   0
Nb1      0.666666667   0.166666667   0.402010442    0   0   0
Nb1      0.166666667   0.666666667   0.402010442    0   0   0
Nb1      0.666666667   0.666666667   0.402010442    0   0   0
Nb1      0.833333333   0.333333333   0.500000000    0   0   0
Nb1      0.333333333   0.333333333   0.500000000    0   0   0
Nb1      0.833333333   0.833333333   0.500000000    0   0   0
Nb1      0.333333333   0.833333333   0.500000000    0   0   0
Nb1     -0.000000199   0.000000598   0.600774337
Nb1      0.499662078   0.000675736   0.597958494
Nb1      0.000674964   0.499662229   0.597958447
Nb1      0.499662515   0.499662428   0.597958353
S1      -0.000000053   0.000000024   0.689057275



     Writing output data file calc.save
     Check: negative starting charge=   -0.004856
     NEW-OLD atomic charge density approx. for the potential
     Check: negative starting charge=   -0.004858

     negative rho (up, down):  4.548E-03 0.000E+00
 
     Adding external electric field

     Computed dipole along edir(3) : 
        Dipole               -0.2581 Ry au,         -0.6559 Debye
        Dipole field         -0.0006 Ry au
 
        Potential amp.        0.0574 Ry
        Total length         45.8317 bohr
 

     total cpu time spent up to now is      848.1 secs

     per-process dynamical memory:    85.0 Mb

     Self-consistent Calculation

     iteration #  1     ecut=    36.75 Ry     beta=0.30
     Davidson diagonalization with overlap
     ethr =  1.00E-06,  avg # of iterations =  7.8

     negative rho (up, down):  4.550E-03 0.000E+00
 
     Adding external electric field

     Computed dipole along edir(3) : 
[...]

   -53.3751 -53.2999 -53.2852 -53.2834 -53.1926 -53.1882 -53.1728 -53.1630
   -53.1283 -53.1101 -53.0976 -53.0848 -29.7224 -29.7050 -29.6760 -29.6636
   -29.6414 -29.6352 -29.6054 -29.5855 -29.5463 -29.5448 -29.4248 -29.3867
   -29.3711 -29.3212 -29.2392 -29.2001 -29.1873 -29.1857 -29.1773 -29.1097
   -29.0717 -29.0435 -29.0332 -29.0271 -29.0167 -28.9925 -28.9684 -28.9550
   -28.9397 -28.9079 -28.8996 -28.8944 -28.8932 -28.8715 -28.8348 -28.7626
    -9.9477  -3.0473  -1.8088  -1.4812  -1.4402  -1.3353  -1.2749  -1.2632
    -1.1971  -0.9726  -0.8679  -0.7860  -0.7575  -0.6192  -0.5827  -0.4352
    -0.3976  -0.3726  -0.2166   0.2637   0.5157   0.6340   0.8984   1.1886
     1.2088   1.2774   1.3732   1.4668   1.4787   1.6925   1.7872   1.8876
     1.8942   2.0041   2.0805   2.1313   2.1744   2.3705   2.4637   2.5273
     2.5531   2.6288   2.6999

          k = 0.0558-0.0322 0.0000 ( 19509 PWs)   bands (ev):

   -53.3690 -53.3062 -53.2830 -53.2770 -53.2084 -53.1738 -53.1704 -53.1671
   -53.1300 -53.1152 -53.0946 -53.0868 -29.7002 -29.6853 -29.6754 -29.6266
   -29.6257 -29.6105 -29.5769 -29.5644 -29.5554 -29.4745 -29.4254 -29.3874
   -29.3806 -29.3302 -29.2367 -29.2020 -29.1879 -29.1777 -29.1677 -29.1436
   -29.1412 -29.0801 -29.0411 -29.0370 -29.0133 -29.0088 -28.9694 -28.9598
   -28.9421 -28.9376 -28.9252 -28.9088 -28.8851 -28.8611 -28.8494 -28.7648
    -9.9467  -2.8676  -1.6790  -1.6395  -1.3311  -1.2284  -1.1648  -1.1219
    -1.0240  -0.8758  -0.8433  -0.7155  -0.6537  -0.6023  -0.4256  -0.3602
    -0.3265  -0.1519  -0.0767   0.2796   0.5499   0.6001   0.7383   0.9980
     1.1759   1.2368   1.2727   1.4321   1.5489   1.5935   1.6890   1.7388
     1.8336   1.8997   1.9185   2.0736   2.1768   2.3523   2.3822   2.4160
     2.4682   2.5630   2.6629

          k = 0.0558 0.0000 0.0000 ( 19485 PWs)   bands (ev):

   -53.3751 -53.2999 -53.2852 -53.2834 -53.1926 -53.1882 -53.1728 -53.1630
   -53.1283 -53.1101 -53.0976 -53.0848 -29.7224 -29.7050 -29.6760 -29.6636
   -29.6414 -29.6352 -29.6054 -29.5855 -29.5463 -29.5448 -29.4248 -29.3867
   -29.3711 -29.3212 -29.2392 -29.2001 -29.1873 -29.1857 -29.1773 -29.1097
   -29.0717 -29.0435 -29.0332 -29.0271 -29.0167 -28.9925 -28.9684 -28.9550
   -28.9397 -28.9079 -28.8996 -28.8944 -28.8932 -28.8715 -28.8348 -28.7626
    -9.9477  -3.0473  -1.8088  -1.4812  -1.4402  -1.3353  -1.2749  -1.2632
    -1.1971  -0.9726  -0.8679  -0.7860  -0.7575  -0.6192  -0.5827  -0.4352
    -0.3975  -0.3726  -0.2166   0.2637   0.5157   0.6340   0.8984   1.1885
     1.2088   1.2774   1.3732   1.4668   1.4787   1.6925   1.7872   1.8876
     1.8942   2.0041   2.0805   2.1313   2.1743   2.3704   2.4636   2.5273
     2.5531   2.6288   2.6999

          k = 0.0558 0.0322 0.0000 ( 19509 PWs)   bands (ev):

   -53.3690 -53.3062 -53.2830 -53.2770 -53.2084 -53.1738 -53.1704 -53.1671
   -53.1300 -53.1152 -53.0946 -53.0868 -29.7002 -29.6853 -29.6754 -29.6266
   -29.6257 -29.6105 -29.5769 -29.5644 -29.5554 -29.4745 -29.4254 -29.3874
   -29.3806 -29.3302 -29.2367 -29.2020 -29.1879 -29.1777 -29.1677 -29.1436
   -29.1412 -29.0801 -29.0411 -29.0370 -29.0133 -29.0088 -28.9694 -28.9598
   -28.9421 -28.9376 -28.9252 -28.9088 -28.8851 -28.8611 -28.8494 -28.7648
    -9.9467  -2.8676  -1.6790  -1.6395  -1.3311  -1.2284  -1.1648  -1.1219
    -1.0240  -0.8758  -0.8433  -0.7155  -0.6537  -0.6023  -0.4256  -0.3602
    -0.3265  -0.1519  -0.0767   0.2796   0.5499   0.6001   0.7383   0.9980
     1.1758   1.2368   1.2727   1.4321   1.5489   1.5935   1.6890   1.7388
     1.8336   1.8997   1.9185   2.0736   2.1768   2.3523   2.3822   2.4160
     2.4682   2.5630   2.6629

          k = 0.0558-0.1289 0.0000 ( 19505 PWs)   bands (ev):

   -53.3534 -53.3180 -53.2855 -53.2558 -53.2212 -53.1950 -53.1583 -53.1537
   -53.1337 -53.1204 -53.1045 -53.0826 -29.6575 -29.6402 -29.6089 -29.5957
   -29.5771 -29.5507 -29.5271 -29.5015 -29.4720 -29.4396 -29.4144 -29.3990
   -29.3735 -29.3452 -29.3222 -29.2782 -29.2238 -29.1896 -29.1730 -29.1659
   -29.1501 -29.0991 -29.0927 -29.0582 -29.0484 -29.0272 -28.9823 -28.9771
   -28.9711 -28.9464 -28.9191 -28.9137 -28.9045 -28.8874 -28.8558 -28.8075
    -9.9447  -2.3657  -1.7043  -1.3047  -1.1824  -1.0936  -0.9541  -0.9061
    -0.7935  -0.7017  -0.6411  -0.5771  -0.3738  -0.3420  -0.1683  -0.0752
    -0.0226   0.0470   0.1901   0.3947   0.4780   0.5718   0.6098   0.7612
     0.8647   0.9176   1.0156   1.1396   1.2551   1.3473   1.3932   1.4443
     1.4944   1.6012   1.6778   1.7996   1.9497   2.0205   2.1705   2.2610
     2.3332   2.6049   2.7333

          k = 0.0558-0.0967 0.0000 ( 19521 PWs)   bands (ev):

   -53.3385 -53.3295 -53.2883 -53.2292 -53.2273 -53.2210 -53.1532 -53.1426
   -53.1358 -53.1216 -53.1152 -53.0802 -29.6278 -29.5919 -29.5835 -29.5422
   -29.5404 -29.5383 -29.4885 -29.4785 -29.4438 -29.4263 -29.4034 -29.3992
   -29.3547 -29.3422 -29.3405 -29.3102 -29.3100 -29.3014 -29.1860 -29.1566
   -29.1398 -29.1353 -29.1123 -29.0584 -29.0193 -29.0080 -28.9852 -28.9680
   -28.9661 -28.9604 -28.9355 -28.9283 -28.9212 -28.8755 -28.8708 -28.8646
    -9.9437  -1.7589  -1.6551  -1.6385  -1.0561  -0.9456  -0.9072  -0.7265
    -0.7160  -0.5000  -0.3352  -0.3232  -0.1821  -0.0820  -0.0389  -0.0365
     0.1942   0.1973   0.2715   0.3735   0.4446   0.4928   0.5080   0.5440
     0.6834   0.7553   0.7925   0.9403   0.9855   1.0600   1.1344   1.1881
     1.2652   1.3533   1.5758   1.5813   1.6714   2.1300   2.2652   2.3127
     2.4362   2.5849   2.6703

          k = 0.0558-0.0645 0.0000 ( 19505 PWs)   bands (ev):

   -53.3534 -53.3180 -53.2855 -53.2558 -53.2212 -53.1950 -53.1583 -53.1537
   -53.1337 -53.1204 -53.1045 -53.0826 -29.6576 -29.6402 -29.6089 -29.5957
   -29.5771 -29.5507 -29.5271 -29.5015 -29.4720 -29.4396 -29.4144 -29.3990
   -29.3735 -29.3452 -29.3222 -29.2782 -29.2238 -29.1896 -29.1730 -29.1659
   -29.1501 -29.0991 -29.0927 -29.0582 -29.0484 -29.0272 -28.9823 -28.9771
   -28.9711 -28.9464 -28.9191 -28.9137 -28.9044 -28.8874 -28.8558 -28.8075
    -9.9447  -2.3657  -1.7043  -1.3047  -1.1824  -1.0936  -0.9541  -0.9061
    -0.7935  -0.7017  -0.6411  -0.5771  -0.3738  -0.3420  -0.1683  -0.0752
    -0.0226   0.0470   0.1901   0.3947   0.4780   0.5718   0.6098   0.7612
     0.8647   0.9176   1.0156   1.1396   1.2551   1.3473   1.3932   1.4443
     1.4944   1.6012   1.6778   1.7996   1.9497   2.0205   2.1705   2.2610
     2.3332   2.6049   2.7333

          k =-0.0837 0.0483 0.0000 ( 19524 PWs)   bands (ev):

   -53.3515 -53.3222 -53.2830 -53.2456 -53.2408 -53.1738 -53.1702 -53.1497
   -53.1395 -53.1233 -53.0957 -53.0868 -29.6593 -29.6313 -29.6179 -29.6153
   -29.5869 -29.5658 -29.5096 -29.5095 -29.4686 -29.4528 -29.4187 -29.3729
   -29.3332 -29.2867 -29.2807 -29.2586 -29.2499 -29.2218 -29.2145 -29.1487
   -29.1328 -29.1232 -29.0987 -29.0824 -29.0767 -29.0711 -29.0066 -28.9555
   -28.9473 -28.9378 -28.9198 -28.9179 -28.9060 -28.9032 -28.8118 -28.8022
    -9.9447  -2.1559  -2.1246  -1.2878  -1.2439  -0.9991  -0.9300  -0.8230
    -0.7472  -0.7341  -0.6694  -0.5681  -0.4427  -0.4161  -0.0106   0.0056
     0.0324   0.1015   0.1701   0.2337   0.5950   0.6268   0.7223   0.7289
     0.8070   0.9270   1.0611   1.2332   1.3135   1.3872   1.4341   1.4993
     1.5959   1.6096   1.6405   1.6850   1.9288   1.9593   2.0566   2.1965
     2.1969   2.6632   2.8873

          k =-0.0837 0.0806 0.0000 ( 19505 PWs)   bands (ev):

   -53.3534 -53.3180 -53.2855 -53.2558 -53.2212 -53.1950 -53.1583 -53.1537
   -53.1337 -53.1204 -53.1045 -53.0826 -29.6576 -29.6402 -29.6089 -29.5957
   -29.5771 -29.5507 -29.5271 -29.5015 -29.4720 -29.4396 -29.4144 -29.3990
   -29.3735 -29.3452 -29.3222 -29.2782 -29.2238 -29.1896 -29.1730 -29.1659
   -29.1501 -29.0991 -29.0927 -29.0582 -29.0484 -29.0272 -28.9823 -28.9771
   -28.9711 -28.9464 -28.9191 -28.9137 -28.9045 -28.8874 -28.8558 -28.8075
    -9.9447  -2.3657  -1.7043  -1.3047  -1.1824  -1.0936  -0.9541  -0.9061
    -0.7935  -0.7017  -0.6411  -0.5771  -0.3738  -0.3420  -0.1683  -0.0752
    -0.0226   0.0470   0.1901   0.3947   0.4780   0.5718   0.6098   0.7612
     0.8647   0.9176   1.0156   1.1396   1.2551   1.3473   1.3932   1.4443
     1.4944   1.6012   1.6778   1.7996   1.9497   2.0205   2.1705   2.2610
     2.3332   2.6049   2.7333

          k =-0.0837 0.1128 0.0000 ( 19505 PWs)   bands (ev):

   -53.3534 -53.3180 -53.2855 -53.2558 -53.2212 -53.1950 -53.1583 -53.1537
   -53.1337 -53.1204 -53.1045 -53.0826 -29.6575 -29.6402 -29.6089 -29.5957
   -29.5771 -29.5507 -29.5271 -29.5015 -29.4720 -29.4396 -29.4144 -29.3990
   -29.3735 -29.3452 -29.3222 -29.2782 -29.2238 -29.1896 -29.1730 -29.1659
   -29.1501 -29.0991 -29.0927 -29.0582 -29.0484 -29.0272 -28.9823 -28.9771
   -28.9711 -28.9464 -28.9191 -28.9137 -28.9045 -28.8874 -28.8558 -28.8075
    -9.9447  -2.3657  -1.7043  -1.3047  -1.1824  -1.0936  -0.9541  -0.9061
    -0.7935  -0.7017  -0.6411  -0.5771  -0.3738  -0.3420  -0.1683  -0.0752
    -0.0226   0.0470   0.1901   0.3947   0.4780   0.5718   0.6098   0.7612
     0.8647   0.9176   1.0156   1.1396   1.2551   1.3473   1.3932   1.4443
     1.4944   1.6012   1.6778   1.7996   1.9497   2.0205   2.1705   2.2610
     2.3332   2.6049   2.7333

          k =-0.0837-0.0483 0.0000 ( 19524 PWs)   bands (ev):

   -53.3515 -53.3222 -53.2830 -53.2456 -53.2408 -53.1738 -53.1702 -53.1497
   -53.1395 -53.1233 -53.0957 -53.0868 -29.6593 -29.6313 -29.6178 -29.6153
   -29.5869 -29.5658 -29.5096 -29.5095 -29.4686 -29.4528 -29.4187 -29.3729
   -29.3332 -29.2867 -29.2807 -29.2586 -29.2499 -29.2218 -29.2145 -29.1487
   -29.1328 -29.1232 -29.0987 -29.0824 -29.0767 -29.0711 -29.0066 -28.9555
   -28.9473 -28.9378 -28.9198 -28.9179 -28.9060 -28.9032 -28.8118 -28.8022
    -9.9447  -2.1559  -2.1246  -1.2878  -1.2439  -0.9991  -0.9300  -0.8230
    -0.7472  -0.7341  -0.6694  -0.5681  -0.4427  -0.4161  -0.0106   0.0056
     0.0324   0.1015   0.1701   0.2337   0.5950   0.6268   0.7223   0.7289
     0.8070   0.9270   1.0611   1.2332   1.3135   1.3872   1.4341   1.4993
     1.5959   1.6096   1.6405   1.6850   1.9288   1.9593   2.0566   2.1965
     2.1969   2.6632   2.8885

     the Fermi energy is     1.8076 ev

!    total energy              =   -1446.64871897 Ry
     Harris-Foulkes estimate   =   -1446.64871763 Ry
     estimated scf accuracy    <       0.00000002 Ry

     The total energy is the sum of the following terms:

     one-electron contribution =  -11527.71298868 Ry
     hartree contribution      =    5757.66876971 Ry
     xc contribution           =    -236.91898478 Ry
     ewald contribution        =    4560.42946336 Ry
     electric field correction =       0.00026402 Ry
     smearing contrib. (-TS)   =      -0.11524260 Ry

     convergence has been achieved in  16 iterations
 
 BEEF-vdW xc energy contributions
           1 :   -203.035451480922     
           2 :    184.306041084605     
           3 :   -152.461458168358     
           4 :    116.090710246947     
           5 :   -83.3629404834087     
           6 :    59.3581003562362     
           7 :   -45.0389585482154     
           8 :    37.9387661935740     
           9 :   -34.0063935099663     
          10 :    29.6289394447666     
          11 :   -22.9940734042767     
          12 :    14.3595034442159     
          13 :   -5.35731352517791     
          14 :   -2.17098534001516     
          15 :    7.17602596567076     
          16 :   -9.80779420923943     
          17 :    11.1268068716312     
          18 :   -12.3834353921547     
          19 :    14.3006400676616     
          20 :   -16.7477781824269     
          21 :    18.9243148965569     
          22 :   -19.8928000952168     
          23 :    19.1277834244866     
          24 :   -16.7915308002729     
          25 :    13.6223984639823     
          26 :   -10.5431797780205     
          27 :    8.22249906154588     
          28 :   -6.82211700835143     
          29 :    6.03091995601392     
          30 :   -5.33261628717813     
          31 :   -23.4687396929027     
          32 :   -17.6581814524090     

     Forces acting on atoms (Ry/au):


     negative rho (up, down):  4.635E-03 0.000E+00
     atom    1 type  1   force =    -0.00163158   -0.00094271   -0.00643933
     atom    2 type  1   force =     0.00163151   -0.00094229   -0.00644019
     atom    3 type  1   force =     0.00000006    0.00188412   -0.00644042
     atom    4 type  1   force =    -0.00000045    0.00000002   -0.00416712
     atom    5 type  1   force =    -0.00000010   -0.00170749    0.00608280
     atom    6 type  1   force =     0.00000020   -0.00000204    0.00586048
     atom    7 type  1   force =     0.00147746    0.00085484    0.00608336
     atom    8 type  1   force =    -0.00147695    0.00085420    0.00608322
     atom    9 type  1   force =     0.00000035    0.00000110    0.00028992
     atom   10 type  1   force =     0.00000015   -0.00167429   -0.00009013
     atom   11 type  1   force =    -0.00144992    0.00083776   -0.00008929
     atom   12 type  1   force =     0.00144967    0.00083726   -0.00008941
     atom   13 type  2   force =    -0.00000040   -0.00000047   -0.00064389

     Total force =     0.002989     Total SCF correction =     0.000317
     SCF correction compared to forces is large: reduce conv_thr to get better values


     entering subroutine stress ...


     negative rho (up, down):  4.635E-03 0.000E+00
          total   stress  (Ry/bohr**3)                   (kbar)     P=  -20.73
  -0.00022096  -0.00000000  -0.00000000        -32.50     -0.00     -0.00
  -0.00000000  -0.00022095   0.00000000         -0.00    -32.50      0.00
  -0.00000000   0.00000000   0.00001907         -0.00      0.00      2.80


     bfgs converged in   9 scf cycles and   8 bfgs steps
     (criteria: energy <  1.0E+00, force <  1.9E-03)

     End of BFGS Geometry Optimization

     Final energy   =   -1446.6487189724 Ry
Begin final coordinates

ATOMIC_POSITIONS (crystal)
Nb1      0.166666667   0.166666667   0.402010442    0   0   0
Nb1      0.666666667   0.166666667   0.402010442    0   0   0
Nb1      0.166666667   0.666666667   0.402010442    0   0   0
Nb1      0.666666667   0.666666667   0.402010442    0   0   0
Nb1      0.833333333   0.333333333   0.500000000    0   0   0
Nb1      0.333333333   0.333333333   0.500000000    0   0   0
Nb1      0.833333333   0.833333333   0.500000000    0   0   0
Nb1      0.333333333   0.833333333   0.500000000    0   0   0
Nb1     -0.000000370   0.000001126   0.606317938
Nb1      0.498755853   0.002488138   0.597071852
Nb1      0.002486439   0.498757606   0.597070700
Nb1      0.498755151   0.498758336   0.597070237
S1      -0.000000054  -0.000000358   0.695384631
End final coordinates



     Writing output data file calc.save
 
     init_run     :     13.05s CPU     13.47s WALL (       1 calls)
     electrons    :   3194.59s CPU   3437.88s WALL (       9 calls)
     update_pot   :     24.55s CPU     25.44s WALL (       8 calls)
     forces       :    152.46s CPU    162.32s WALL (       9 calls)
     stress       :    486.45s CPU    516.45s WALL (       9 calls)

     Called by init_run:
     wfcinit      :      5.35s CPU      5.45s WALL (       1 calls)
     potinit      :      1.89s CPU      2.01s WALL (       1 calls)

     Called by electrons:
     c_bands      :   1260.64s CPU   1337.21s WALL (     117 calls)
     sum_band     :    654.62s CPU    700.26s WALL (     117 calls)
     v_of_rho     :    201.06s CPU    218.29s WALL (     126 calls)
     newd         :    576.95s CPU    585.84s WALL (     126 calls)
     mix_rho      :      7.27s CPU      7.46s WALL (     117 calls)
     vdW_energy   :     99.31s CPU    109.98s WALL (     450 calls)
     vdW_ffts     :    252.17s CPU    264.44s WALL (     918 calls)
     vdW_v        :     92.19s CPU     96.05s WALL (     450 calls)

     Called by c_bands:
     init_us_2    :      7.52s CPU      7.54s WALL (    1265 calls)
     cegterg      :   1151.77s CPU   1184.01s WALL (     585 calls)

     Called by *egterg:
     h_psi        :    749.72s CPU    767.40s WALL (    3113 calls)
     s_psi        :     70.72s CPU     70.93s WALL (    3113 calls)
     g_psi        :      4.40s CPU      4.48s WALL (    2523 calls)
     cdiaghg      :    112.27s CPU    113.21s WALL (    3068 calls)

     Called by h_psi:
     add_vuspsi   :     72.68s CPU     72.95s WALL (    3113 calls)

     General routines
     calbec       :    110.58s CPU    113.04s WALL (    3788 calls)
     fft          :    380.33s CPU    405.16s WALL (   27251 calls)
     ffts         :      0.49s CPU      0.52s WALL (     243 calls)
     fftw         :    463.76s CPU    482.17s WALL (  333843 calls)
     interpolate  :      4.42s CPU      4.54s WALL (     243 calls)
     davcio       :      0.00s CPU      0.02s WALL (       5 calls)
 
     Parallel routines
     fft_scatter  :    486.91s CPU    526.68s WALL (  361337 calls)
 
     PWSCF        :     1h 5m CPU        1h10m WALL

 
   This run was terminated on:  10:48:24   3May2018            

=------------------------------------------------------------------------------=
   JOB DONE.
=------------------------------------------------------------------------------=
Job  /afs/slac/g/suncat/bin/suncat-tsmpirun -x LD_LIBRARY_PATH -wdir /scratch/qe710496_xcE6X pw.x -npool 4 -in pw.inp

TID   HOST_NAME   COMMAND_LINE            STATUS            TERMINATION_TIME
===== ========== ================  =======================  ===================
00000 suncat0182 pw.x -npool 4 -i  Done                     05/03/2018 10:48:24
00001 suncat0182 pw.x -npool 4 -i  Done                     05/03/2018 10:48:24
00002 suncat0182 pw.x -npool 4 -i  Done                     05/03/2018 10:48:24
00003 suncat0182 pw.x -npool 4 -i  Done                     05/03/2018 10:48:24
00004 suncat0182 pw.x -npool 4 -i  Done                     05/03/2018 10:48:24
00005 suncat0182 pw.x -npool 4 -i  Done                     05/03/2018 10:48:24
00006 suncat0182 pw.x -npool 4 -i  Done                     05/03/2018 10:48:24
00007 suncat0182 pw.x -npool 4 -i  Done                     05/03/2018 10:48:24
00008 suncat0173 pw.x -npool 4 -i  Done                     05/03/2018 10:48:24
00009 suncat0173 pw.x -npool 4 -i  Done                     05/03/2018 10:48:24
00010 suncat0173 pw.x -npool 4 -i  Done                     05/03/2018 10:48:24
00011 suncat0173 pw.x -npool 4 -i  Done                     05/03/2018 10:48:24
00012 suncat0173 pw.x -npool 4 -i  Done                     05/03/2018 10:48:24
00013 suncat0173 pw.x -npool 4 -i  Done                     05/03/2018 10:48:24
00014 suncat0173 pw.x -npool 4 -i  Done                     05/03/2018 10:48:24
00015 suncat0173 pw.x -npool 4 -i  Done                     05/03/2018 10:48:24
00016 suncat0244 pw.x -npool 4 -i  Done                     05/03/2018 10:48:24
00017 suncat0244 pw.x -npool 4 -i  Done                     05/03/2018 10:48:24
00018 suncat0244 pw.x -npool 4 -i  Done                     05/03/2018 10:48:24
00019 suncat0244 pw.x -npool 4 -i  Done                     05/03/2018 10:48:24
00020 suncat0244 pw.x -npool 4 -i  Done                     05/03/2018 10:48:24
00021 suncat0244 pw.x -npool 4 -i  Done                     05/03/2018 10:48:24
00022 suncat0244 pw.x -npool 4 -i  Done                     05/03/2018 10:48:24
00023 suncat0244 pw.x -npool 4 -i  Done                     05/03/2018 10:48:24
00024 suncat0243 pw.x -npool 4 -i  Done                     05/03/2018 10:48:24
00025 suncat0243 pw.x -npool 4 -i  Done                     05/03/2018 10:48:24
00026 suncat0243 pw.x -npool 4 -i  Done                     05/03/2018 10:48:24
00027 suncat0243 pw.x -npool 4 -i  Done                     05/03/2018 10:48:24
00028 suncat0243 pw.x -npool 4 -i  Done                     05/03/2018 10:48:24
00029 suncat0243 pw.x -npool 4 -i  Done                     05/03/2018 10:48:24
00030 suncat0243 pw.x -npool 4 -i  Done                     05/03/2018 10:48:24
00031 suncat0243 pw.x -npool 4 -i  Done                     05/03/2018 10:48:24
