  python dir          : /nfs/slac/g/suncatfs/sw/espv20/lib/python2.7/site-packages/espresso
  espresso dir        : /nfs/slac/g/suncatfs/sw/espv18/espresso-dynpy-beef/bin
  pseudo dir          : /afs/slac.stanford.edu/u/if/mamunm/psp/gbrv1.5pbe
  ase-espresso py git : ffa2778-git



     Program PWSCF v.5.1rc2 (svn rev. 11289) starts on 17Jan2018 at 18: 3:29 

     This program is part of the open-source Quantum ESPRESSO suite
     for quantum simulation of materials; please cite
         "P. Giannozzi et al., J. Phys.:Condens. Matter 21 395502 (2009);
          URL http://www.quantum-espresso.org", 
     in publications or presentations arising from this work. More details at
     http://www.quantum-espresso.org/quote

     Parallel version (MPI), running on    32 processors
     R & G space division:  proc/nbgrp/npool/nimage =      32
     Reading input from pw.inp
     Message from routine read_cards :
     DEPRECATED: no units specified in CELL_PARAMETERS card

     Current dimensions of program PWSCF are:
     Max number of different atomic species (ntypx) = 10
     Max number of k-points (npk) =  40000
     Max angular momentum in pseudopotentials (lmaxx) =  3
     Presently stress not available with electric field


     **************************************************************************
     Initializing libbeef V0.1.1 with the BEEF-vdW functional.
     Citation: Wellendorff et al., PRB 85, 235149 (2012).
     **************************************************************************


     IMPORTANT: XC functional enforced from input :
     Exchange-correlation      = BEEF-VDW ( 1  4 27 13 2)
     Any further DFT definition will be discarded
     Please, verify this is what you really want


     Subspace diagonalization in iterative solution of the eigenvalue problem:
     a serial algorithm will be used

 
     Parallelization info
     --------------------
     sticks:   dense  smooth     PW     G-vecs:    dense   smooth      PW
     Min          83      33      9                15713     3963     619
     Max          84      34     10                15736     4002     646
     Sum        2677    1069    313               503261   127391   20329
 


     bravais-lattice index     =            0
     lattice parameter (alat)  =       1.8897  a.u.
     unit-cell volume          =    4228.3700 (a.u.)^3
     number of atoms/cell      =           13
     number of atomic types    =            2
     number of electrons       =       198.00
     number of Kohn-Sham states=          109
     kinetic-energy cutoff     =      36.7493  Ry
     charge density cutoff     =     367.4932  Ry
     convergence threshold     =      1.0E-05
     mixing beta               =       0.3000
     number of iterations used =           10  plain     mixing
     Exchange-correlation      = BEEF-VDW ( 1  4 27 13 2)
     nstep                     =           50


     celldm(1)=   1.889726  celldm(2)=   0.000000  celldm(3)=   0.000000
     celldm(4)=   0.000000  celldm(5)=   0.000000  celldm(6)=   0.000000

     crystal axes: (cart. coord. in units of alat)
               a(1) = (   5.440665   0.000000   0.000000 )  
               a(2) = (   2.720332   4.711754   0.000000 )  
               a(3) = (   0.000000   0.000000  24.442284 )  

     reciprocal axes: (cart. coord. in units 2 pi/alat)
               b(1) = (  0.183801 -0.106118  0.000000 )  
               b(2) = (  0.000000  0.212235  0.000000 )  
               b(3) = (  0.000000  0.000000  0.040913 )  


     PseudoPot. # 1 for Os read from file:
     /afs/slac.stanford.edu/u/if/mamunm/psp/gbrv1.5pbe/Os.UPF
     MD5 check sum: a3fb40a04f0c37c25c34bbc47164c9a8
     Pseudo is Ultrasoft + core correction, Zval = 16.0
     Generated by new atomic code, or converted to UPF format
     Using radial grid of  983 points,  8 beta functions with: 
                l(1) =   0
                l(2) =   0
                l(3) =   1
                l(4) =   1
                l(5) =   2
                l(6) =   2
                l(7) =   3
                l(8) =   3
     Q(r) pseudized with  8 coefficients,  rinner =    1.150   1.150   1.150
                                                       1.150   1.150   1.150
                                                       1.150

     PseudoPot. # 2 for O  read from file:
     /afs/slac.stanford.edu/u/if/mamunm/psp/gbrv1.5pbe/O.UPF
     MD5 check sum: 734c27235a0248c51dbae37a1fbe46ec
     Pseudo is Ultrasoft + core correction, Zval =  6.0
     Generated by new atomic code, or converted to UPF format
     Using radial grid of  737 points,  5 beta functions with: 
                l(1) =   0
                l(2) =   0
                l(3) =   1
                l(4) =   1
                l(5) =   2
     Q(r) pseudized with  8 coefficients,  rinner =    0.900   0.900   0.900
                                                       0.900   0.900

     vdW kernel table read from file vdW_kernel_table
     MD5 check sum: 095c7af220d748ca6e76c0b4c6cfb241

     atomic species   valence    mass     pseudopotential
        Os1           16.00   190.23000     Os( 1.00)
        O1             6.00    15.99900     O ( 1.00)

     No symmetry found



   Cartesian axes

     site n.     atom                  positions (alat units)
         1           Os1 tau(   1) = (   1.3601662   0.7852923  10.0000000  )
         2           Os1 tau(   2) = (   4.0804987   0.7852923  10.0000000  )
         3           Os1 tau(   3) = (   2.7203325   3.1411694  10.0000000  )
         4           Os1 tau(   4) = (   5.4406649   3.1411694  10.0000000  )
         5           Os1 tau(   5) = (   5.4406649   1.5705847  12.2211422  )
         6           Os1 tau(   6) = (   2.7203325   1.5705847  12.2211422  )
         7           Os1 tau(   7) = (   6.8008312   3.9264617  12.2211422  )
         8           Os1 tau(   8) = (   4.0804987   3.9264617  12.2211422  )
         9           Os1 tau(   9) = (   0.0000000   0.0000000  14.4422843  )
        10           Os1 tau(  10) = (   2.7203325   0.0000000  14.4422843  )
        11           Os1 tau(  11) = (   1.3601662   2.3558770  14.4422843  )
        12           Os1 tau(  12) = (   4.0804987   2.3558770  14.4422843  )
        13           O1  tau(  13) = (   2.7203325   1.5705847  16.5422843  )

     number of k points=    20  Fermi-Dirac smearing, width (Ry)=  0.0110
                       cart. coord. in units 2pi/alat
        k(    1) = (   0.0000000   0.0000000   0.0000000), wk =   0.0555556
        k(    2) = (   0.0000000   0.0353725   0.0000000), wk =   0.1111111
        k(    3) = (   0.0000000   0.0707451   0.0000000), wk =   0.1111111
        k(    4) = (   0.0000000  -0.1061176   0.0000000), wk =   0.0555556
        k(    5) = (   0.0306335  -0.0176863   0.0000000), wk =   0.1111111
        k(    6) = (   0.0306335   0.0176863   0.0000000), wk =   0.1111111
        k(    7) = (   0.0306335   0.0530588   0.0000000), wk =   0.1111111
        k(    8) = (   0.0306335  -0.1238039   0.0000000), wk =   0.1111111
        k(    9) = (   0.0306335  -0.0884313   0.0000000), wk =   0.1111111
        k(   10) = (   0.0306335  -0.0530588   0.0000000), wk =   0.1111111
        k(   11) = (   0.0612670  -0.0353725   0.0000000), wk =   0.1111111
        k(   12) = (   0.0612670   0.0000000   0.0000000), wk =   0.1111111
        k(   13) = (   0.0612670   0.0353725   0.0000000), wk =   0.1111111
        k(   14) = (   0.0612670  -0.1414901   0.0000000), wk =   0.1111111
        k(   15) = (   0.0612670  -0.1061176   0.0000000), wk =   0.1111111
        k(   16) = (   0.0612670  -0.0707451   0.0000000), wk =   0.1111111
        k(   17) = (  -0.0919005   0.0530588   0.0000000), wk =   0.0555556
        k(   18) = (  -0.0919005   0.0884313   0.0000000), wk =   0.1111111
        k(   19) = (  -0.0919005   0.1238039   0.0000000), wk =   0.1111111
        k(   20) = (  -0.0919005  -0.0530588   0.0000000), wk =   0.0555556

     Dense  grid:   503261 G-vectors     FFT dimensions: (  64,  64, 288)

     Smooth grid:   127391 G-vectors     FFT dimensions: (  40,  40, 180)

     Largest allocated arrays     est. size (Mb)     dimensions
        Kohn-Sham Wavefunctions         0.88 Mb     (     531,  109)
        NL pseudopotentials             3.22 Mb     (     531,  397)
        Each V/rho on FFT grid          0.56 Mb     (   36864)
        Each G-vector array             0.12 Mb     (   15717)
        G-vector shells                 0.05 Mb     (    7001)
     Largest temporary arrays     est. size (Mb)     dimensions
        Auxiliary wavefunctions         3.53 Mb     (     531,  436)
        Each subspace H/S matrix        2.90 Mb     (     436,  436)
        Each <psi_i|beta_j> matrix      0.66 Mb     (     397,  109)
        Arrays for rho mixing           5.62 Mb     (   36864,   10)

     Initial potential from superposition of free atoms
     Check: negative starting charge=   -1.495933

     starting charge  191.99956, renormalised to  198.00000

     negative rho (up, down):  1.543E+00 0.000E+00


     ************************************************************************
     *
     * You are using vdW-DF for exchange-correlation in this calculation.
     * Please cite the following three references that made this development
     * possible:
     *
     *   M. Dion, H. Rydberg, E. Schroder, D. C. Langreth, and
     *   B. I. Lundqvist, Phys. Rev. Lett. 92, 246401 (2004).
     *
     *   T. Thonhauser, V. R. Cooper, S. Li, A. Puzder, P. Hyldgaard, and
     *   D. C. Langreth, Phys. Rev. B 76, 125112 (2007).
     *
     *   G. Roman-Perez and J. M. Soler, Phys. Rev. Lett. 103, 096102 (2009).
     *
     *
     * If you are using vdW-DF2, please also cite:
     *
     *   K. Lee, E. D. Murray, L. Kong, B. I. Lundqvist, and
     *   D. C. Langreth, Phys. Rev. B 82, 081101(R) (2010).
     *
     *
     * If you are calculating the stress with vdW-DF, please also cite:
     *
     *   R. Sabatini, E. Kucukbenli, B. Kolb, T. Thonhauser, and
     *   S. de Gironcoli, J. Phys.: Condens. Matter 24, 424209 (2012).
     *
     ************************************************************************

     Carrying out vdW-DF run using the following parameters:

     Nqs =      20    Nr_points =    1024   r_max =   100.000
     q_mesh =
               0.00001000     0.04494208     0.09755937     0.15916263
               0.23128650     0.31572767     0.41458969     0.53033537
               0.66584808     0.82450364     1.01025438     1.22772762
               1.48234092     1.78043706     2.12944203     2.53805004
               3.01644009     3.57652955     4.23227104     5.00000000

     Gradients computed in reciprocal space

     ************************************************************************


 
     Adding external electric field

     Computed dipole along edir(3) : 
        Dipole               -1.5312 Ry au,         -3.8919 Debye
        Dipole field         -0.0046 Ry au
 
        Potential amp.        0.4099 Ry
        Total length         45.0345 bohr
 
     Starting wfc are  160 randomized atomic wfcs

     total cpu time spent up to now is        7.6 secs

     Self-consistent Calculation

     iteration #  1     ecut=    36.75 Ry     beta=0.30
     Davidson diagonalization with overlap
     ethr =  1.00E-02,  avg # of iterations =  2.0

     negative rho (up, down):  1.539E+00 0.000E+00
 
     Adding external electric field

     Computed dipole along edir(3) : 
        Dipole               20.6361 Ry au,         52.4518 Debye
        Dipole field          0.0613 Ry au
 
        Potential amp.       -5.5238 Ry
        Total length         45.0345 bohr
 

     total cpu time spent up to now is       22.4 secs

     total energy              =   -2396.73902607 Ry
     Harris-Foulkes estimate   =   -2430.04449645 Ry
     estimated scf accuracy    <      68.62323504 Ry

     iteration #  2     ecut=    36.75 Ry     beta=0.30
     Davidson diagonalization with overlap
     ethr =  1.00E-02,  avg # of iterations = 12.4

     negative rho (up, down):  1.535E+00 0.000E+00
 
     Adding external electric field

     Computed dipole along edir(3) : 
        Dipole               -3.7636 Ry au,         -9.5661 Debye
        Dipole field         -0.0112 Ry au
 
        Potential amp.        1.0074 Ry
        Total length         45.0345 bohr
 

     total cpu time spent up to now is       65.5 secs

     total energy              =   -2256.49910917 Ry
     Harris-Foulkes estimate   =   -2651.71028032 Ry
     estimated scf accuracy    <   11084.96244399 Ry

     iteration #  3     ecut=    36.75 Ry     beta=0.30
     Davidson diagonalization with overlap
     ethr =  1.00E-02,  avg # of iterations =  9.4

     negative rho (up, down):  1.534E+00 0.000E+00
 
     Adding external electric field

     Computed dipole along edir(3) : 
        Dipole               -2.2901 Ry au,         -5.8210 Debye
        Dipole field         -0.0068 Ry au
 
        Potential amp.        0.6130 Ry
        Total length         45.0345 bohr
 

     total cpu time spent up to now is       97.4 secs

     total energy              =   -2418.64950361 Ry
     Harris-Foulkes estimate   =   -2463.83443254 Ry
     estimated scf accuracy    <     888.93318923 Ry

     iteration #  4     ecut=    36.75 Ry     beta=0.30
     Davidson diagonalization with overlap
     ethr =  1.00E-02,  avg # of iterations =  5.7

     negative rho (up, down):  1.533E+00 0.000E+00
 
     Adding external electric field

     Computed dipole along edir(3) : 
        Dipole               -1.4751 Ry au,         -3.7494 Debye
        Dipole field         -0.0044 Ry au
 
        Potential amp.        0.3949 Ry
        Total length         45.0345 bohr
 

     total cpu time spent up to now is      121.4 secs

     total energy              =   -2429.03582549 Ry
     Harris-Foulkes estimate   =   -2431.37325766 Ry
     estimated scf accuracy    <      50.34200139 Ry

     iteration #  5     ecut=    36.75 Ry     beta=0.30
     Davidson diagonalization with overlap
     ethr =  1.00E-02,  avg # of iterations =  1.3

     negative rho (up, down):  1.531E+00 0.000E+00
 
     Adding external electric field

     Computed dipole along edir(3) : 
        Dipole               -1.5690 Ry au,         -3.9880 Debye
        Dipole field         -0.0047 Ry au
 
        Potential amp.        0.4200 Ry
        Total length         45.0345 bohr
 

     total cpu time spent up to now is      133.2 secs

     total energy              =   -2429.46231674 Ry
     Harris-Foulkes estimate   =   -2429.84084630 Ry
     estimated scf accuracy    <      11.12892401 Ry

     iteration #  6     ecut=    36.75 Ry     beta=0.30
     Davidson diagonalization with overlap
     ethr =  5.62E-03,  avg # of iterations =  1.9

     negative rho (up, down):  1.531E+00 0.000E+00
 
     Adding external electric field

     Computed dipole along edir(3) : 
        Dipole               -1.5260 Ry au,         -3.8786 Debye
        Dipole field         -0.0045 Ry au
 
        Potential amp.        0.4085 Ry
        Total length         45.0345 bohr
 

     total cpu time spent up to now is      145.6 secs

     total energy              =   -2429.41415935 Ry
     Harris-Foulkes estimate   =   -2429.70445812 Ry
     estimated scf accuracy    <       3.00482833 Ry

     iteration #  7     ecut=    36.75 Ry     beta=0.30
     Davidson diagonalization with overlap
     ethr =  1.52E-03,  avg # of iterations =  5.2

     negative rho (up, down):  1.524E+00 0.000E+00
 
     Adding external electric field

     Computed dipole along edir(3) : 
        Dipole               -1.4578 Ry au,         -3.7053 Debye
        Dipole field         -0.0043 Ry au
 
        Potential amp.        0.3902 Ry
        Total length         45.0345 bohr
 

     total cpu time spent up to now is      163.1 secs

     total energy              =   -2429.60225294 Ry
     Harris-Foulkes estimate   =   -2429.82762990 Ry
     estimated scf accuracy    <       8.47536229 Ry

     iteration #  8     ecut=    36.75 Ry     beta=0.30
     Davidson diagonalization with overlap
     ethr =  1.52E-03,  avg # of iterations =  1.4

     negative rho (up, down):  1.519E+00 0.000E+00
 
     Adding external electric field

     Computed dipole along edir(3) : 
        Dipole               -1.4392 Ry au,         -3.6581 Debye
        Dipole field         -0.0043 Ry au
 
        Potential amp.        0.3852 Ry
        Total length         45.0345 bohr
 

     total cpu time spent up to now is      174.9 secs

     total energy              =   -2429.65097497 Ry
     Harris-Foulkes estimate   =   -2429.69629539 Ry
     estimated scf accuracy    <       0.67764767 Ry

     iteration #  9     ecut=    36.75 Ry     beta=0.30
     Davidson diagonalization with overlap
     ethr =  3.42E-04,  avg # of iterations =  4.8

     negative rho (up, down):  1.518E+00 0.000E+00
 
     Adding external electric field

     Computed dipole along edir(3) : 
        Dipole               -1.3952 Ry au,         -3.5462 Debye
        Dipole field         -0.0041 Ry au
 
        Potential amp.        0.3735 Ry
        Total length         45.0345 bohr
 

     total cpu time spent up to now is      191.4 secs

     total energy              =   -2429.70857304 Ry
     Harris-Foulkes estimate   =   -2429.72242888 Ry
     estimated scf accuracy    <       0.89066970 Ry

     iteration # 10     ecut=    36.75 Ry     beta=0.30
     Davidson diagonalization with overlap
     ethr =  3.42E-04,  avg # of iterations =  1.0

     negative rho (up, down):  1.516E+00 0.000E+00
 
     Adding external electric field

     Computed dipole along edir(3) : 
        Dipole               -1.2811 Ry au,         -3.2563 Debye
        Dipole field         -0.0038 Ry au
 
        Potential amp.        0.3429 Ry
        Total length         45.0345 bohr
 

     total cpu time spent up to now is      203.0 secs

     total energy              =   -2429.68543637 Ry
     Harris-Foulkes estimate   =   -2429.71322029 Ry
     estimated scf accuracy    <       0.55051855 Ry

     iteration # 11     ecut=    36.75 Ry     beta=0.30
     Davidson diagonalization with overlap
     ethr =  2.78E-04,  avg # of iterations =  1.0

     negative rho (up, down):  1.514E+00 0.000E+00
 
     Adding external electric field

     Computed dipole along edir(3) : 
        Dipole               -1.2051 Ry au,         -3.0631 Debye
        Dipole field         -0.0036 Ry au
 
        Potential amp.        0.3226 Ry
        Total length         45.0345 bohr
 

     total cpu time spent up to now is      214.5 secs

     total energy              =   -2429.69719721 Ry
     Harris-Foulkes estimate   =   -2429.69940808 Ry
     estimated scf accuracy    <       0.02112191 Ry

     iteration # 12     ecut=    36.75 Ry     beta=0.30
     Davidson diagonalization with overlap
     ethr =  1.07E-05,  avg # of iterations =  6.5

     negative rho (up, down):  1.513E+00 0.000E+00
 
     Adding external electric field

     Computed dipole along edir(3) : 
        Dipole               -1.1597 Ry au,         -2.9476 Debye
        Dipole field         -0.0034 Ry au
 
        Potential amp.        0.3104 Ry
        Total length         45.0345 bohr
 

     total cpu time spent up to now is      234.9 secs

     total energy              =   -2429.69880618 Ry
     Harris-Foulkes estimate   =   -2429.70120053 Ry
     estimated scf accuracy    <       0.02726596 Ry

     iteration # 13     ecut=    36.75 Ry     beta=0.30
     Davidson diagonalization with overlap
     ethr =  1.07E-05,  avg # of iterations =  1.0

     negative rho (up, down):  1.508E+00 0.000E+00
 
     Adding external electric field

     Computed dipole along edir(3) : 
        Dipole               -0.8151 Ry au,         -2.0718 Debye
        Dipole field         -0.0024 Ry au
 
        Potential amp.        0.2182 Ry
        Total length         45.0345 bohr
 

     total cpu time spent up to now is      246.6 secs

     total energy              =   -2429.69583583 Ry
     Harris-Foulkes estimate   =   -2429.70150222 Ry
     estimated scf accuracy    <       0.03092870 Ry

     iteration # 14     ecut=    36.75 Ry     beta=0.30
     Davidson diagonalization with overlap
     ethr =  1.07E-05,  avg # of iterations =  4.0

     negative rho (up, down):  1.510E+00 0.000E+00
 
     Adding external electric field

     Computed dipole along edir(3) : 
        Dipole               -0.6909 Ry au,         -1.7560 Debye
        Dipole field         -0.0021 Ry au
 
        Potential amp.        0.1849 Ry
        Total length         45.0345 bohr
 

     total cpu time spent up to now is      261.7 secs

     total energy              =   -2429.69537082 Ry
     Harris-Foulkes estimate   =   -2429.69794792 Ry
     estimated scf accuracy    <       0.04011640 Ry

     iteration # 15     ecut=    36.75 Ry     beta=0.30
     Davidson diagonalization with overlap
     ethr =  1.07E-05,  avg # of iterations =  1.7

     negative rho (up, down):  1.511E+00 0.000E+00
 
     Adding external electric field

     Computed dipole along edir(3) : 
        Dipole               -0.6082 Ry au,         -1.5460 Debye
        Dipole field         -0.0018 Ry au
 
        Potential amp.        0.1628 Ry
        Total length         45.0345 bohr
 

     total cpu time spent up to now is      274.0 secs

     total energy              =   -2429.69634258 Ry
     Harris-Foulkes estimate   =   -2429.69686774 Ry
     estimated scf accuracy    <       0.00371514 Ry

     iteration # 16     ecut=    36.75 Ry     beta=0.30
     Davidson diagonalization with overlap
     ethr =  1.88E-06,  avg # of iterations =  5.8

     negative rho (up, down):  1.512E+00 0.000E+00
 
     Adding external electric field

     Computed dipole along edir(3) : 
        Dipole               -0.5622 Ry au,         -1.4290 Debye
        Dipole field         -0.0017 Ry au
 
        Potential amp.        0.1505 Ry
        Total length         45.0345 bohr
 

     total cpu time spent up to now is      291.7 secs

     total energy              =   -2429.69629739 Ry
     Harris-Foulkes estimate   =   -2429.69685221 Ry
     estimated scf accuracy    <       0.01161223 Ry

     iteration # 17     ecut=    36.75 Ry     beta=0.30
     Davidson diagonalization with overlap
     ethr =  1.88E-06,  avg # of iterations =  3.4

     negative rho (up, down):  1.512E+00 0.000E+00
 
     Adding external electric field

     Computed dipole along edir(3) : 
        Dipole               -0.5300 Ry au,         -1.3471 Debye
        Dipole field         -0.0016 Ry au
 
        Potential amp.        0.1419 Ry
        Total length         45.0345 bohr
 

     total cpu time spent up to now is      305.7 secs

     total energy              =   -2429.69655574 Ry
     Harris-Foulkes estimate   =   -2429.69676691 Ry
     estimated scf accuracy    <       0.00282230 Ry

     iteration # 18     ecut=    36.75 Ry     beta=0.30
     Davidson diagonalization with overlap
     ethr =  1.43E-06,  avg # of iterations =  1.0

     negative rho (up, down):  1.513E+00 0.000E+00
 
     Adding external electric field

     Computed dipole along edir(3) : 
        Dipole               -0.5200 Ry au,         -1.3218 Debye
        Dipole field         -0.0015 Ry au
 
        Potential amp.        0.1392 Ry
        Total length         45.0345 bohr
 

     total cpu time spent up to now is      317.3 secs

     total energy              =   -2429.69658500 Ry
     Harris-Foulkes estimate   =   -2429.69664704 Ry
     estimated scf accuracy    <       0.00096769 Ry

     iteration # 19     ecut=    36.75 Ry     beta=0.30
     Davidson diagonalization with overlap
     ethr =  4.89E-07,  avg # of iterations =  2.1

     negative rho (up, down):  1.513E+00 0.000E+00
 
     Adding external electric field

     Computed dipole along edir(3) : 
        Dipole               -0.5159 Ry au,         -1.3113 Debye
        Dipole field         -0.0015 Ry au
 
        Potential amp.        0.1381 Ry
        Total length         45.0345 bohr
 

     total cpu time spent up to now is      330.0 secs

     total energy              =   -2429.69660382 Ry
     Harris-Foulkes estimate   =   -2429.69662258 Ry
     estimated scf accuracy    <       0.00002712 Ry

     iteration # 20     ecut=    36.75 Ry     beta=0.30
     Davidson diagonalization with overlap
     ethr =  1.37E-08,  avg # of iterations =  5.2

     negative rho (up, down):  1.513E+00 0.000E+00
 
     Adding external electric field

     Computed dipole along edir(3) : 
        Dipole               -0.5124 Ry au,         -1.3024 Debye
        Dipole field         -0.0015 Ry au
 
        Potential amp.        0.1372 Ry
        Total length         45.0345 bohr
 

     total cpu time spent up to now is      349.8 secs

     total energy              =   -2429.69661276 Ry
     Harris-Foulkes estimate   =   -2429.69662599 Ry
     estimated scf accuracy    <       0.00001142 Ry

     iteration # 21     ecut=    36.75 Ry     beta=0.30
     Davidson diagonalization with overlap
     ethr =  5.77E-09,  avg # of iterations =  2.1

     negative rho (up, down):  1.514E+00 0.000E+00

     negative rho (up, down):  1.514E+00 0.000E+00

     negative rho (up, down):  1.514E+00 0.000E+00

     negative rho (up, down):  1.514E+00 0.000E+00

     negative rho (up, down):  1.514E+00 0.000E+00

     negative rho (up, down):  1.514E+00 0.000E+00

     negative rho (up, down):  1.514E+00 0.000E+00

     negative rho (up, down):  1.514E+00 0.000E+00

     negative rho (up, down):  1.514E+00 0.000E+00

     negative rho (up, down):  1.514E+00 0.000E+00

     negative rho (up, down):  1.514E+00 0.000E+00

     negative rho (up, down):  1.514E+00 0.000E+00

     negative rho (up, down):  1.514E+00 0.000E+00

     negative rho (up, down):  1.514E+00 0.000E+00

     negative rho (up, down):  1.514E+00 0.000E+00

     negative rho (up, down):  1.514E+00 0.000E+00

     negative rho (up, down):  1.514E+00 0.000E+00

     negative rho (up, down):  1.514E+00 0.000E+00

     negative rho (up, down):  1.514E+00 0.000E+00

     negative rho (up, down):  1.514E+00 0.000E+00

     negative rho (up, down):  1.514E+00 0.000E+00

     negative rho (up, down):  1.514E+00 0.000E+00

     negative rho (up, down):  1.514E+00 0.000E+00

     negative rho (up, down):  1.514E+00 0.000E+00

     negative rho (up, down):  1.514E+00 0.000E+00

     negative rho (up, down):  1.514E+00 0.000E+00

     negative rho (up, down):  1.514E+00 0.000E+00

     negative rho (up, down):  1.514E+00 0.000E+00

     negative rho (up, down):  1.514E+00 0.000E+00

     negative rho (up, down):  1.514E+00 0.000E+00

     negative rho (up, down):  1.514E+00 0.000E+00

     negative rho (up, down):  1.514E+00 0.000E+00

     negative rho (up, down):  1.514E+00 0.000E+00

     negative rho (up, down):  1.514E+00 0.000E+00

     negative rho (up, down):  1.514E+00 0.000E+00
 
     Adding external electric field

     Computed dipole along edir(3) : 
        Dipole               -0.5295 Ry au,         -1.3459 Debye
        Dipole field         -0.0016 Ry au
 
        Potential amp.        0.1417 Ry
        Total length         45.0345 bohr
 

     total cpu time spent up to now is      374.4 secs

     End of self-consistent calculation

          k = 0.0000 0.0000 0.0000 ( 15845 PWs)   bands (ev):

   -84.7591 -84.6901 -84.6569 -84.6558 -84.3554 -84.3086 -84.3074 -84.2135
   -84.1763 -84.1559 -84.1549 -84.1538 -44.4071 -44.4066 -44.3921 -44.2347
   -44.1487 -44.1030 -44.1023 -43.9214 -43.8741 -43.8736 -43.8133 -43.8129
   -43.7769 -43.7303 -43.7072 -43.7067 -43.6083 -43.6082 -43.5947 -43.5426
   -43.5415 -43.4488 -43.3786 -43.3776 -43.3764 -43.3754 -43.3559 -43.3531
   -43.3522 -43.2552 -43.2546 -43.2542 -43.1694 -43.1692 -43.0786 -43.0786
   -13.5969  -7.3110  -5.3085  -4.9027  -4.5672  -4.5671  -4.5628  -4.2416
    -4.2315  -4.2314  -3.6426  -3.6381  -3.6380  -3.3772  -3.3530  -3.3528
    -1.8578  -1.7948  -1.7945  -1.0747  -1.0097  -1.0096  -0.7532  -0.6049
    -0.5304  -0.5304  -0.0451  -0.0449  -0.0071  -0.0069   0.0222   0.1719
     0.1723   0.3255   0.3255   0.3799   0.5877   1.2158   1.2159   1.6951
     1.9732   1.9734   2.0555   2.1601   2.1603   2.3388   2.3454   2.3455
     3.0640   3.0640   3.2669   3.6578   3.8062   3.8062   3.8683   3.8686
     3.9782   4.0459   4.0461   4.2010   4.2011

          k = 0.0000 0.0354 0.0000 ( 15861 PWs)   bands (ev):

   -84.7568 -84.6896 -84.6596 -84.6558 -84.3522 -84.3100 -84.3086 -84.2096
   -84.1768 -84.1589 -84.1555 -84.1540 -44.3804 -44.3706 -44.3512 -44.2216
   -44.1349 -44.0921 -44.0887 -43.8984 -43.8561 -43.8518 -43.8303 -43.8201
   -43.7818 -43.7137 -43.6955 -43.6953 -43.6810 -43.6211 -43.5657 -43.5387
   -43.5369 -43.4430 -43.4026 -43.3918 -43.3770 -43.3728 -43.3650 -43.3591
   -43.3492 -43.2824 -43.2817 -43.2431 -43.2158 -43.1802 -43.1284 -43.0905
   -13.5955  -7.0363  -5.0301  -4.6240  -4.5323  -4.3319  -4.3299  -4.1370
    -4.0464  -4.0413  -3.5586  -3.4950  -3.4898  -3.2218  -3.0837  -3.0673
    -1.8182  -1.7765  -1.7249  -1.0191  -0.9779  -0.8950  -0.8867  -0.7635
    -0.6553  -0.4139  -0.3933  -0.3024  -0.0433   0.0039   0.0686   0.1470
     0.1916   0.2649   0.2814   0.5267   0.5541   0.9974   1.0484   1.3057
     1.6863   1.7242   1.7605   1.9687   2.0437   2.1247   2.2125   2.2259
     2.5043   2.6925   2.7782   3.0864   3.2606   3.5573   3.6041   3.6645
     3.8208   3.8502   3.8825   4.0139   4.1650

          k = 0.0000 0.0707 0.0000 ( 15905 PWs)   bands (ev):

   -84.7521 -84.6882 -84.6658 -84.6559 -84.3443 -84.3169 -84.3086 -84.1989
   -84.1779 -84.1696 -84.1556 -84.1541 -44.3157 -44.2969 -44.2209 -44.1873
   -44.1145 -44.0799 -44.0612 -43.9371 -43.9057 -43.8472 -43.8197 -43.7775
   -43.7532 -43.7305 -43.6654 -43.6636 -43.6514 -43.6202 -43.5491 -43.5354
   -43.5303 -43.4687 -43.4476 -43.4336 -43.3871 -43.3739 -43.3731 -43.3680
   -43.3470 -43.3442 -43.3263 -43.3252 -43.2583 -43.2121 -43.2068 -43.1231
   -13.5927  -6.2865  -4.6618  -4.3251  -3.9052  -3.8820  -3.7430  -3.7387
    -3.5916  -3.5909  -3.3371  -3.0570  -3.0503  -2.8255  -2.3569  -2.3287
    -1.7868  -1.7758  -1.6359  -1.5537  -1.2742  -1.1175  -1.1075  -0.8688
    -0.7948  -0.6028  -0.5012  -0.3011  -0.2290  -0.1577   0.0162   0.0734
     0.2586   0.2677   0.3129   0.4707   0.4757   0.5410   0.7075   0.9704
     0.9965   0.9970   1.1707   1.2237   1.3083   1.3126   1.6377   1.7134
     2.0158   2.0945   2.1541   2.5462   2.6225   2.6738   2.9084   3.0590
     3.1329   3.1554   3.2652   3.5482   3.5556

          k = 0.0000-0.1061 0.0000 ( 15968 PWs)   bands (ev):

   -84.7495 -84.6869 -84.6697 -84.6559 -84.3378 -84.3229 -84.3086 -84.1850
   -84.1835 -84.1784 -84.1556 -84.1541 -44.2730 -44.2452 -44.1570 -44.1239
   -44.0756 -44.0600 -44.0474 -44.0111 -43.9811 -43.9518 -43.7946 -43.7335
   -43.7190 -43.6922 -43.6335 -43.6258 -43.6186 -43.5821 -43.5388 -43.5369
   -43.5088 -43.5069 -43.4524 -43.4468 -43.4415 -43.4276 -43.3949 -43.3911
   -43.3679 -43.3673 -43.3560 -43.3504 -43.3072 -43.2276 -43.1674 -43.1671
   -13.5913  -5.3329  -5.3236  -3.7935  -3.7641  -3.3393  -3.3335  -3.3056
    -3.2947  -3.2635  -3.2454  -2.6131  -2.6012  -2.2594  -2.2365  -2.0886
    -2.0595  -1.7267  -1.7123  -1.6604  -1.6490  -1.2688  -1.2491  -0.8721
    -0.7459  -0.6439  -0.3812  -0.3350  -0.3169  -0.3143  -0.2544  -0.1977
    -0.0357   0.0609   0.1202   0.1416   0.1592   0.2082   0.2771   0.4883
     0.5148   0.8866   0.9205   1.2766   1.3143   1.3382   1.5520   1.6477
     1.8205   1.9027   1.9262   2.1781   2.2847   2.3115   2.4928   2.5078
     2.7817   2.9621   3.0111   3.0980   3.1568

          k = 0.0306-0.0177 0.0000 ( 15861 PWs)   bands (ev):

   -84.7568 -84.6897 -84.6585 -84.6568 -84.3522 -84.3109 -84.3077 -84.2096
   -84.1768 -84.1589 -84.1555 -84.1540 -44.3799 -44.3712 -44.3511 -44.2216
   -44.1349 -44.0914 -44.0893 -43.8983 -43.8564 -43.8515 -43.8300 -43.8207
   -43.7815 -43.7136 -43.6959 -43.6950 -43.6808 -43.6212 -43.5658 -43.5392
   -43.5362 -43.4430 -43.4024 -43.3922 -43.3769 -43.3728 -43.3653 -43.3592
   -43.3487 -43.2824 -43.2817 -43.2431 -43.2156 -43.1805 -43.1284 -43.0906
   -13.5955  -7.0363  -5.0301  -4.6240  -4.5323  -4.3319  -4.3299  -4.1370
    -4.0466  -4.0412  -3.5587  -3.4948  -3.4900  -3.2218  -3.0836  -3.0674
    -1.8181  -1.7767  -1.7249  -1.0191  -0.9780  -0.8949  -0.8868  -0.7635
    -0.6553  -0.4139  -0.3933  -0.3024  -0.0433   0.0039   0.0685   0.1472
     0.1916   0.2649   0.2813   0.5267   0.5541   0.9974   1.0484   1.3057
     1.6864   1.7241   1.7605   1.9687   2.0438   2.1246   2.2126   2.2258
     2.5042   2.6925   2.7783   3.0864   3.2606   3.5573   3.6041   3.6644
     3.8208   3.8502   3.8825   4.0139   4.1649

          k = 0.0306 0.0177 0.0000 ( 15861 PWs)   bands (ev):

   -84.7568 -84.6896 -84.6592 -84.6562 -84.3522 -84.3111 -84.3075 -84.2096
   -84.1768 -84.1590 -84.1549 -84.1546 -44.3801 -44.3709 -44.3512 -44.2216
   -44.1349 -44.0917 -44.0890 -43.8982 -43.8565 -43.8517 -43.8300 -43.8204
   -43.7817 -43.7136 -43.6959 -43.6950 -43.6808 -43.6212 -43.5659 -43.5394
   -43.5360 -43.4430 -43.4023 -43.3924 -43.3771 -43.3723 -43.3657 -43.3592
   -43.3485 -43.2821 -43.2820 -43.2431 -43.2156 -43.1805 -43.1284 -43.0905
   -13.5955  -7.0363  -5.0301  -4.6240  -4.5323  -4.3319  -4.3298  -4.1370
    -4.0465  -4.0412  -3.5587  -3.4948  -3.4900  -3.2218  -3.0835  -3.0675
    -1.8180  -1.7768  -1.7248  -1.0191  -0.9779  -0.8949  -0.8868  -0.7635
    -0.6553  -0.4137  -0.3935  -0.3024  -0.0434   0.0039   0.0686   0.1471
     0.1917   0.2650   0.2812   0.5267   0.5541   0.9974   1.0484   1.3056
     1.6864   1.7242   1.7605   1.9689   2.0437   2.1246   2.2125   2.2258
     2.5042   2.6925   2.7783   3.0864   3.2605   3.5573   3.6039   3.6647
     3.8210   3.8501   3.8825   4.0138   4.1650

          k = 0.0306 0.0531 0.0000 ( 15900 PWs)   bands (ev):

   -84.7533 -84.6884 -84.6646 -84.6555 -84.3465 -84.3152 -84.3083 -84.2023
   -84.1776 -84.1630 -84.1615 -84.1514 -44.3403 -44.2898 -44.2836 -44.1978
   -44.1172 -44.0814 -44.0683 -43.9430 -43.8531 -43.8212 -43.8089 -43.7899
   -43.7765 -43.7647 -43.6832 -43.6614 -43.6530 -43.6486 -43.5496 -43.5400
   -43.5307 -43.4682 -43.4365 -43.3946 -43.3811 -43.3744 -43.3692 -43.3671
   -43.3610 -43.3532 -43.2894 -43.2569 -43.2562 -43.2162 -43.2035 -43.1155
   -13.5934  -6.5195  -4.5235  -4.3293  -4.3227  -4.1114  -3.8603  -3.8494
    -3.7953  -3.6270  -3.3337  -3.3288  -3.1158  -2.8318  -2.8095  -2.4540
    -1.8436  -1.6864  -1.6638  -1.4604  -1.0610  -0.9631  -0.8982  -0.8731
    -0.8139  -0.6919  -0.4810  -0.4563  -0.1296  -0.0604   0.0214   0.1389
     0.1539   0.1762   0.3209   0.4539   0.5805   0.7119   0.9153   1.0536
     1.1773   1.1920   1.3445   1.4411   1.4715   1.6101   1.8079   1.8664
     1.9268   2.1015   2.2931   2.6884   2.7648   2.8938   3.1310   3.2594
     3.3307   3.4745   3.5816   3.7139   3.8467

          k = 0.0306-0.1238 0.0000 ( 15922 PWs)   bands (ev):

   -84.7496 -84.6856 -84.6718 -84.6550 -84.3380 -84.3223 -84.3089 -84.1896
   -84.1784 -84.1749 -84.1642 -84.1494 -44.2695 -44.2139 -44.1615 -44.1393
   -44.1106 -44.0811 -44.0514 -44.0415 -43.9495 -43.8627 -43.7868 -43.7633
   -43.7117 -43.7009 -43.6683 -43.6417 -43.6057 -43.5826 -43.5537 -43.5372
   -43.5212 -43.5094 -43.4704 -43.4611 -43.4282 -43.3993 -43.3924 -43.3718
   -43.3702 -43.3628 -43.3377 -43.3187 -43.2935 -43.2397 -43.2122 -43.1606
   -13.5913  -5.6287  -4.7318  -3.9443  -3.7937  -3.5929  -3.4054  -3.3136
    -3.2976  -3.0627  -3.0172  -2.8203  -2.5556  -2.3644  -2.2910  -2.1287
    -1.9736  -1.7415  -1.6806  -1.6503  -1.5945  -1.3766  -1.1731  -1.0461
    -0.9745  -0.7161  -0.5523  -0.4946  -0.3511  -0.3326  -0.2902  -0.2161
    -0.1758  -0.0894  -0.0059   0.1581   0.3813   0.4630   0.5238   0.6325
     0.7443   0.8005   0.9347   1.0635   1.2821   1.4982   1.5900   1.6725
     1.8300   2.0088   2.0749   2.1140   2.3087   2.4313   2.7323   2.8005
     3.0131   3.2870   3.3190   3.3680   3.5432

          k = 0.0306-0.0884 0.0000 ( 15922 PWs)   bands (ev):

   -84.7496 -84.6858 -84.6715 -84.6551 -84.3381 -84.3222 -84.3090 -84.1896
   -84.1784 -84.1749 -84.1642 -84.1494 -44.2694 -44.2139 -44.1615 -44.1393
   -44.1107 -44.0810 -44.0516 -44.0416 -43.9494 -43.8627 -43.7868 -43.7633
   -43.7117 -43.7008 -43.6684 -43.6416 -43.6057 -43.5825 -43.5538 -43.5370
   -43.5213 -43.5094 -43.4706 -43.4611 -43.4281 -43.3992 -43.3925 -43.3723
   -43.3696 -43.3628 -43.3378 -43.3187 -43.2935 -43.2396 -43.2122 -43.1606
   -13.5913  -5.6287  -4.7318  -3.9443  -3.7937  -3.5929  -3.4054  -3.3136
    -3.2976  -3.0627  -3.0172  -2.8203  -2.5556  -2.3644  -2.2910  -2.1287
    -1.9737  -1.7415  -1.6806  -1.6503  -1.5945  -1.3766  -1.1731  -1.0461
    -0.9745  -0.7161  -0.5523  -0.4946  -0.3511  -0.3326  -0.2902  -0.2161
    -0.1758  -0.0893  -0.0059   0.1581   0.3813   0.4631   0.5238   0.6324
     0.7443   0.8005   0.9347   1.0635   1.2820   1.4981   1.5900   1.6725
     1.8300   2.0088   2.0749   2.1139   2.3088   2.4313   2.7323   2.8006
     3.0131   3.2870   3.3190   3.3680   3.5432

          k = 0.0306-0.0531 0.0000 ( 15900 PWs)   bands (ev):

   -84.7533 -84.6886 -84.6641 -84.6559 -84.3466 -84.3149 -84.3086 -84.2023
   -84.1776 -84.1623 -84.1622 -84.1513 -44.3402 -44.2899 -44.2835 -44.1977
   -44.1173 -44.0811 -44.0686 -43.9430 -43.8532 -43.8213 -43.8087 -43.7897
   -43.7765 -43.7648 -43.6833 -43.6613 -43.6532 -43.6486 -43.5495 -43.5399
   -43.5310 -43.4681 -43.4365 -43.3951 -43.3808 -43.3743 -43.3690 -43.3671
   -43.3610 -43.3535 -43.2894 -43.2567 -43.2564 -43.2162 -43.2034 -43.1155
   -13.5934  -6.5195  -4.5235  -4.3293  -4.3227  -4.1114  -3.8603  -3.8494
    -3.7953  -3.6270  -3.3338  -3.3288  -3.1158  -2.8318  -2.8095  -2.4540
    -1.8436  -1.6864  -1.6639  -1.4604  -1.0610  -0.9632  -0.8983  -0.8731
    -0.8139  -0.6919  -0.4810  -0.4563  -0.1296  -0.0604   0.0215   0.1388
     0.1539   0.1762   0.3209   0.4539   0.5805   0.7119   0.9153   1.0536
     1.1772   1.1920   1.3446   1.4411   1.4714   1.6101   1.8079   1.8663
     1.9268   2.1014   2.2931   2.6885   2.7647   2.8939   3.1310   3.2594
     3.3307   3.4744   3.5816   3.7138   3.8466

          k = 0.0613-0.0354 0.0000 ( 15905 PWs)   bands (ev):

   -84.7520 -84.6887 -84.6643 -84.6569 -84.3440 -84.3180 -84.3078 -84.1989
   -84.1779 -84.1696 -84.1556 -84.1541 -44.3151 -44.2975 -44.2209 -44.1872
   -44.1148 -44.0790 -44.0619 -43.9367 -43.9064 -43.8471 -43.8193 -43.7780
   -43.7529 -43.7305 -43.6651 -43.6638 -43.6516 -43.6202 -43.5498 -43.5353
   -43.5297 -43.4683 -43.4481 -43.4337 -43.3870 -43.3739 -43.3731 -43.3681
   -43.3470 -43.3442 -43.3261 -43.3247 -43.2582 -43.2122 -43.2071 -43.1231
   -13.5927  -6.2865  -4.6618  -4.3251  -3.9051  -3.8821  -3.7430  -3.7387
    -3.5913  -3.5912  -3.3371  -3.0569  -3.0504  -2.8255  -2.3568  -2.3289
    -1.7866  -1.7761  -1.6360  -1.5537  -1.2742  -1.1175  -1.1076  -0.8686
    -0.7949  -0.6027  -0.5013  -0.3012  -0.2289  -0.1577   0.0161   0.0734
     0.2586   0.2678   0.3128   0.4708   0.4757   0.5410   0.7076   0.9704
     0.9965   0.9971   1.1706   1.2237   1.3084   1.3127   1.6378   1.7135
     2.0158   2.0945   2.1539   2.5463   2.6223   2.6738   2.9084   3.0590
     3.1330   3.1554   3.2650   3.5483   3.5556

          k = 0.0613 0.0000 0.0000 ( 15900 PWs)   bands (ev):

   -84.7533 -84.6888 -84.6637 -84.6562 -84.3464 -84.3159 -84.3077 -84.2023
   -84.1776 -84.1630 -84.1615 -84.1514 -44.3402 -44.2900 -44.2835 -44.1977
   -44.1173 -44.0807 -44.0689 -43.9431 -43.8530 -43.8213 -43.8087 -43.7898
   -43.7767 -43.7647 -43.6832 -43.6616 -43.6529 -43.6486 -43.5499 -43.5406
   -43.5299 -43.4685 -43.4365 -43.3945 -43.3809 -43.3744 -43.3693 -43.3669
   -43.3610 -43.3530 -43.2895 -43.2569 -43.2562 -43.2162 -43.2037 -43.1155
   -13.5934  -6.5195  -4.5235  -4.3294  -4.3227  -4.1113  -3.8603  -3.8494
    -3.7953  -3.6270  -3.3338  -3.3288  -3.1158  -2.8319  -2.8094  -2.4540
    -1.8436  -1.6864  -1.6638  -1.4604  -1.0610  -0.9632  -0.8982  -0.8732
    -0.8138  -0.6919  -0.4810  -0.4563  -0.1296  -0.0604   0.0215   0.1388
     0.1539   0.1762   0.3210   0.4538   0.5805   0.7119   0.9153   1.0536
     1.1774   1.1919   1.3445   1.4409   1.4717   1.6101   1.8079   1.8664
     1.9266   2.1015   2.2930   2.6885   2.7646   2.8938   3.1310   3.2594
     3.3305   3.4748   3.5817   3.7136   3.8470

          k = 0.0613 0.0354 0.0000 ( 15905 PWs)   bands (ev):

   -84.7520 -84.6884 -84.6652 -84.6562 -84.3440 -84.3183 -84.3075 -84.1989
   -84.1779 -84.1696 -84.1549 -84.1547 -44.3154 -44.2972 -44.2209 -44.1872
   -44.1147 -44.0794 -44.0616 -43.9369 -43.9060 -43.8470 -43.8193 -43.7783
   -43.7531 -43.7305 -43.6649 -43.6639 -43.6516 -43.6202 -43.5501 -43.5352
   -43.5295 -43.4681 -43.4482 -43.4339 -43.3870 -43.3740 -43.3732 -43.3679
   -43.3466 -43.3447 -43.3261 -43.3245 -43.2582 -43.2122 -43.2072 -43.1231
   -13.5927  -6.2865  -4.6618  -4.3251  -3.9051  -3.8821  -3.7429  -3.7388
    -3.5914  -3.5911  -3.3371  -3.0569  -3.0504  -2.8255  -2.3567  -2.3290
    -1.7865  -1.7762  -1.6360  -1.5537  -1.2742  -1.1174  -1.1077  -0.8687
    -0.7948  -0.6027  -0.5012  -0.3012  -0.2288  -0.1578   0.0161   0.0735
     0.2586   0.2678   0.3128   0.4709   0.4758   0.5410   0.7076   0.9703
     0.9965   0.9971   1.1706   1.2237   1.3083   1.3127   1.6376   1.7137
     2.0157   2.0946   2.1539   2.5463   2.6222   2.6740   2.9083   3.0590
     3.1329   3.1554   3.2652   3.5483   3.5556

          k = 0.0613-0.1415 0.0000 ( 15922 PWs)   bands (ev):

   -84.7496 -84.6859 -84.6714 -84.6551 -84.3376 -84.3233 -84.3084 -84.1896
   -84.1784 -84.1750 -84.1641 -84.1494 -44.2693 -44.2140 -44.1614 -44.1394
   -44.1108 -44.0808 -44.0514 -44.0415 -43.9496 -43.8627 -43.7864 -43.7631
   -43.7123 -43.7010 -43.6690 -43.6413 -43.6054 -43.5827 -43.5536 -43.5371
   -43.5213 -43.5090 -43.4709 -43.4612 -43.4282 -43.3992 -43.3925 -43.3723
   -43.3696 -43.3629 -43.3376 -43.3182 -43.2935 -43.2401 -43.2122 -43.1605
   -13.5913  -5.6287  -4.7318  -3.9443  -3.7937  -3.5929  -3.4054  -3.3136
    -3.2976  -3.0628  -3.0172  -2.8203  -2.5556  -2.3643  -2.2910  -2.1287
    -1.9737  -1.7415  -1.6806  -1.6503  -1.5945  -1.3766  -1.1731  -1.0461
    -0.9745  -0.7161  -0.5524  -0.4944  -0.3511  -0.3326  -0.2902  -0.2162
    -0.1757  -0.0894  -0.0059   0.1582   0.3812   0.4631   0.5238   0.6325
     0.7444   0.8005   0.9347   1.0636   1.2820   1.4981   1.5901   1.6726
     1.8298   2.0088   2.0749   2.1141   2.3087   2.4312   2.7322   2.8006
     3.0132   3.2870   3.3189   3.3680   3.5432

          k = 0.0613-0.1061 0.0000 ( 15972 PWs)   bands (ev):

   -84.7483 -84.6802 -84.6791 -84.6544 -84.3305 -84.3293 -84.3092 -84.1788
   -84.1779 -84.1769 -84.1758 -84.1475 -44.1796 -44.1771 -44.1443 -44.1053
   -44.1046 -44.0981 -44.0852 -44.0663 -44.0304 -43.7855 -43.7827 -43.7802
   -43.7229 -43.7017 -43.6167 -43.6073 -43.5984 -43.5901 -43.5339 -43.5317
   -43.5313 -43.5284 -43.4952 -43.4833 -43.4771 -43.4277 -43.3775 -43.3763
   -43.3729 -43.3712 -43.3513 -43.2958 -43.2902 -43.2253 -43.2248 -43.2243
   -13.5906  -4.7186  -4.7094  -4.7047  -3.3397  -3.3171  -3.3099  -2.8225
    -2.8013  -2.7451  -2.5967  -2.5606  -2.5568  -2.3644  -2.3638  -2.3503
    -1.9636  -1.9525  -1.7099  -1.6002  -1.5924  -1.3442  -1.3218  -1.2991
    -1.0868  -1.0060  -0.9971  -0.8160  -0.7818  -0.7671  -0.6172  -0.3097
    -0.2274   0.0236   0.0269   0.2703   0.3297   0.3813   0.4251   0.4572
     0.4921   0.8847   0.9046   1.0432   1.2398   1.3763   1.7490   1.7988
     1.8147   2.0844   2.1185   2.1488   2.3959   2.5625   2.7844   3.3513
     3.3914   3.4083   3.4523   3.4849   3.6217

          k = 0.0613-0.0707 0.0000 ( 15922 PWs)   bands (ev):

   -84.7495 -84.6864 -84.6705 -84.6555 -84.3378 -84.3229 -84.3086 -84.1896
   -84.1784 -84.1749 -84.1642 -84.1494 -44.2692 -44.2142 -44.1613 -44.1394
   -44.1111 -44.0804 -44.0515 -44.0418 -43.9496 -43.8627 -43.7865 -43.7630
   -43.7121 -43.7010 -43.6689 -43.6413 -43.6055 -43.5826 -43.5537 -43.5370
   -43.5214 -43.5091 -43.4710 -43.4612 -43.4281 -43.3992 -43.3925 -43.3723
   -43.3696 -43.3628 -43.3377 -43.3183 -43.2935 -43.2400 -43.2122 -43.1606
   -13.5913  -5.6287  -4.7318  -3.9443  -3.7937  -3.5929  -3.4054  -3.3136
    -3.2976  -3.0628  -3.0171  -2.8203  -2.5556  -2.3644  -2.2910  -2.1287
    -1.9737  -1.7415  -1.6806  -1.6503  -1.5945  -1.3766  -1.1731  -1.0460
    -0.9745  -0.7161  -0.5524  -0.4945  -0.3511  -0.3326  -0.2902  -0.2161
    -0.1757  -0.0893  -0.0059   0.1582   0.3813   0.4631   0.5238   0.6324
     0.7444   0.8005   0.9347   1.0636   1.2820   1.4981   1.5900   1.6725
     1.8299   2.0088   2.0749   2.1140   2.3087   2.4312   2.7323   2.8006
     3.0132   3.2869   3.3189   3.3680   3.5432

          k =-0.0919 0.0531 0.0000 ( 15968 PWs)   bands (ev):

   -84.7494 -84.6879 -84.6678 -84.6569 -84.3371 -84.3244 -84.3078 -84.1850
   -84.1835 -84.1784 -84.1556 -84.1541 -44.2722 -44.2461 -44.1567 -44.1247
   -44.0745 -44.0598 -44.0482 -44.0119 -43.9798 -43.9526 -43.7939 -43.7342
   -43.7180 -43.6931 -43.6333 -43.6261 -43.6197 -43.5816 -43.5383 -43.5364
   -43.5082 -43.5078 -43.4525 -43.4468 -43.4415 -43.4276 -43.3948 -43.3911
   -43.3680 -43.3673 -43.3557 -43.3506 -43.3064 -43.2282 -43.1674 -43.1671
   -13.5913  -5.3329  -5.3236  -3.7933  -3.7643  -3.3395  -3.3332  -3.3054
    -3.2950  -3.2632  -3.2456  -2.6128  -2.6016  -2.2594  -2.2366  -2.0884
    -2.0598  -1.7269  -1.7121  -1.6602  -1.6492  -1.2686  -1.2494  -0.8721
    -0.7460  -0.6439  -0.3812  -0.3348  -0.3167  -0.3144  -0.2545  -0.1977
    -0.0357   0.0610   0.1202   0.1416   0.1591   0.2081   0.2772   0.4888
     0.5143   0.8867   0.9206   1.2766   1.3147   1.3378   1.5519   1.6477
     1.8206   1.9028   1.9261   2.1779   2.2851   2.3112   2.4928   2.5078
     2.7819   2.9621   3.0110   3.0980   3.1567

          k =-0.0919 0.0884 0.0000 ( 15922 PWs)   bands (ev):

   -84.7495 -84.6865 -84.6704 -84.6556 -84.3375 -84.3234 -84.3083 -84.1896
   -84.1784 -84.1749 -84.1642 -84.1494 -44.2692 -44.2142 -44.1613 -44.1394
   -44.1112 -44.0802 -44.0516 -44.0419 -43.9494 -43.8628 -43.7863 -43.7630
   -43.7121 -43.7011 -43.6686 -43.6417 -43.6057 -43.5830 -43.5535 -43.5375
   -43.5205 -43.5093 -43.4706 -43.4611 -43.4282 -43.3993 -43.3923 -43.3718
   -43.3702 -43.3627 -43.3376 -43.3185 -43.2935 -43.2401 -43.2122 -43.1606
   -13.5913  -5.6287  -4.7318  -3.9443  -3.7937  -3.5929  -3.4054  -3.3136
    -3.2976  -3.0627  -3.0172  -2.8203  -2.5556  -2.3644  -2.2910  -2.1287
    -1.9737  -1.7416  -1.6806  -1.6503  -1.5945  -1.3766  -1.1731  -1.0460
    -0.9745  -0.7162  -0.5524  -0.4944  -0.3511  -0.3325  -0.2903  -0.2160
    -0.1758  -0.0894  -0.0059   0.1582   0.3813   0.4629   0.5238   0.6326
     0.7443   0.8005   0.9349   1.0635   1.2821   1.4983   1.5898   1.6725
     1.8299   2.0087   2.0749   2.1141   2.3087   2.4311   2.7323   2.8005
     3.0133   3.2869   3.3190   3.3680   3.5432

          k =-0.0919 0.1238 0.0000 ( 15922 PWs)   bands (ev):

   -84.7496 -84.6862 -84.6709 -84.6553 -84.3374 -84.3237 -84.3082 -84.1896
   -84.1785 -84.1750 -84.1641 -84.1494 -44.2693 -44.2140 -44.1614 -44.1393
   -44.1110 -44.0805 -44.0517 -44.0418 -43.9493 -43.8627 -43.7863 -43.7632
   -43.7124 -43.7010 -43.6687 -43.6416 -43.6056 -43.5830 -43.5535 -43.5375
   -43.5205 -43.5092 -43.4707 -43.4611 -43.4282 -43.3991 -43.3925 -43.3723
   -43.3695 -43.3628 -43.3376 -43.3183 -43.2935 -43.2402 -43.2122 -43.1606
   -13.5913  -5.6287  -4.7318  -3.9443  -3.7937  -3.5929  -3.4054  -3.3136
    -3.2976  -3.0627  -3.0172  -2.8203  -2.5556  -2.3644  -2.2910  -2.1287
    -1.9737  -1.7415  -1.6806  -1.6503  -1.5945  -1.3766  -1.1731  -1.0461
    -0.9745  -0.7162  -0.5524  -0.4944  -0.3511  -0.3325  -0.2902  -0.2161
    -0.1757  -0.0895  -0.0059   0.1582   0.3813   0.4630   0.5237   0.6326
     0.7443   0.8005   0.9349   1.0635   1.2820   1.4981   1.5899   1.6726
     1.8298   2.0088   2.0749   2.1140   2.3088   2.4311   2.7322   2.8005
     3.0132   3.2870   3.3191   3.3680   3.5432

          k =-0.0919-0.0531 0.0000 ( 15968 PWs)   bands (ev):

   -84.7495 -84.6873 -84.6689 -84.6563 -84.3368 -84.3249 -84.3076 -84.1843
   -84.1842 -84.1784 -84.1549 -84.1548 -44.2726 -44.2456 -44.1568 -44.1243
   -44.0750 -44.0599 -44.0478 -44.0114 -43.9805 -43.9521 -43.7937 -43.7345
   -43.7186 -43.6926 -43.6329 -43.6264 -43.6201 -43.5815 -43.5381 -43.5362
   -43.5083 -43.5078 -43.4527 -43.4465 -43.4416 -43.4278 -43.3942 -43.3918
   -43.3680 -43.3673 -43.3557 -43.3506 -43.3062 -43.2284 -43.1678 -43.1667
   -13.5913  -5.3329  -5.3236  -3.7934  -3.7643  -3.3394  -3.3333  -3.3054
    -3.2950  -3.2633  -3.2455  -2.6129  -2.6014  -2.2592  -2.2368  -2.0883
    -2.0598  -1.7267  -1.7123  -1.6603  -1.6491  -1.2684  -1.2496  -0.8721
    -0.7459  -0.6439  -0.3813  -0.3348  -0.3167  -0.3144  -0.2545  -0.1978
    -0.0356   0.0611   0.1202   0.1417   0.1589   0.2081   0.2772   0.4887
     0.5144   0.8868   0.9206   1.2765   1.3144   1.3381   1.5518   1.6477
     1.8208   1.9027   1.9264   2.1777   2.2851   2.3112   2.4927   2.5078
     2.7817   2.9621   3.0112   3.0978   3.1569

     the Fermi energy is     2.3538 ev

!    total energy              =   -2429.69660831 Ry
     Harris-Foulkes estimate   =   -2429.69656079 Ry
     estimated scf accuracy    <       0.00000549 Ry

     The total energy is the sum of the following terms:

     one-electron contribution =  -21876.84432253 Ry
     hartree contribution      =   10919.99766064 Ry
     xc contribution           =    -471.53118140 Ry
     ewald contribution        =    8998.75214221 Ry
     electric field correction =       0.00083332 Ry
     smearing contrib. (-TS)   =      -0.07174054 Ry

     convergence has been achieved in  21 iterations
 
 BEEF-vdW xc energy contributions
           1 :   -412.933181920496     
           2 :    382.284606629065     
           3 :   -328.338276765793     
           4 :    262.989253182201     
           5 :   -198.867516744194     
           6 :    145.930972638406     
           7 :   -109.315063017414     
           8 :    88.8770805142917     
           9 :   -80.3918594321004     
          10 :    77.7858514727012     
          11 :   -75.5074524526784     
          12 :    70.1875667824618     
          13 :   -61.1714895773108     
          14 :    49.9884803513247     
          15 :   -39.1688797682461     
          16 :    30.9501917260860     
          17 :   -26.3765480103171     
          18 :    25.0523218905180     
          19 :   -25.5231340561019     
          20 :    26.0212853775273     
          21 :   -25.2222310660720     
          22 :    22.7019556272519     
          23 :   -18.9519303820006     
          24 :    15.0081082392789     
          25 :   -11.9084911343955     
          26 :    10.2285913780893     
          27 :   -9.88352248818251     
          28 :    10.2482423135941     
          29 :   -10.5071470562149     
          30 :    10.0506407651380     
          31 :   -39.2414438779493     
          32 :   -29.8763367397887     

     Forces acting on atoms (Ry/au):


     negative rho (up, down):  1.514E+00 0.000E+00
     atom    1 type  1   force =     0.00369889    0.00225484    0.02987841
     atom    2 type  1   force =    -0.00370302    0.00220059    0.02987408
     atom    3 type  1   force =    -0.00005559   -0.00435686    0.02983024
     atom    4 type  1   force =     0.00004297   -0.00008038    0.02956944
     atom    5 type  1   force =     0.00005515   -0.00084315    0.01460993
     atom    6 type  1   force =    -0.00007530    0.00005859    0.00291627
     atom    7 type  1   force =     0.00075211    0.00037389    0.01470658
     atom    8 type  1   force =    -0.00077194    0.00045049    0.01474201
     atom    9 type  1   force =    -0.00003837    0.00003954   -0.05545429
     atom   10 type  1   force =     0.00008056    0.02409830    0.01630743
     atom   11 type  1   force =     0.02088006   -0.01206581    0.01598478
     atom   12 type  1   force =    -0.02084907   -0.01210562    0.01601761
     atom   13 type  2   force =    -0.00001644   -0.00002440   -0.15898248

     Total force =     0.187445     Total SCF correction =     0.018312


     entering subroutine stress ...


     negative rho (up, down):  1.514E+00 0.000E+00
          total   stress  (Ry/bohr**3)                   (kbar)     P=  -45.08
  -0.00023653  -0.00000001   0.00000003        -34.79     -0.00      0.00
  -0.00000001  -0.00023653  -0.00000002         -0.00    -34.80     -0.00
   0.00000003  -0.00000002  -0.00044624          0.00     -0.00    -65.64

 !ASE

     Writing output data file calc.save
 
     init_run     :      5.33s CPU      7.29s WALL (       1 calls)
     electrons    :    293.24s CPU    366.86s WALL (       1 calls)
     forces       :      3.62s CPU      3.89s WALL (       1 calls)
     stress       :     14.48s CPU     14.95s WALL (       1 calls)

     Called by init_run:
     wfcinit      :      3.31s CPU      4.84s WALL (       1 calls)
     potinit      :      0.40s CPU      0.56s WALL (       1 calls)

     Called by electrons:
     c_bands      :    223.81s CPU    282.03s WALL (      21 calls)
     sum_band     :     37.62s CPU     46.10s WALL (      21 calls)
     v_of_rho     :      5.57s CPU      8.22s WALL (      22 calls)
     newd         :     19.14s CPU     19.46s WALL (      22 calls)
     mix_rho      :      0.25s CPU      0.35s WALL (      21 calls)
     vdW_energy   :      2.20s CPU      2.46s WALL (      58 calls)
     vdW_ffts     :      5.85s CPU     10.17s WALL (     118 calls)
     vdW_v        :      1.57s CPU      2.24s WALL (      58 calls)

     Called by c_bands:
     init_us_2    :      1.53s CPU      1.55s WALL (     900 calls)
     cegterg      :    208.66s CPU    266.39s WALL (     420 calls)

     Called by *egterg:
     h_psi        :     88.93s CPU    132.65s WALL (    2025 calls)
     s_psi        :     14.18s CPU     14.51s WALL (    2025 calls)
     g_psi        :      0.61s CPU      0.63s WALL (    1585 calls)
     cdiaghg      :     70.57s CPU     71.47s WALL (    2005 calls)

     Called by h_psi:
     add_vuspsi   :     15.97s CPU     16.40s WALL (    2025 calls)

     General routines
     calbec       :     23.56s CPU     26.54s WALL (    2485 calls)
     fft          :      8.65s CPU     15.39s WALL (    3555 calls)
     ffts         :      0.03s CPU      0.05s WALL (      43 calls)
     fftw         :     58.19s CPU    106.70s WALL (  286868 calls)
     interpolate  :      0.13s CPU      0.21s WALL (      43 calls)
     davcio       :      0.00s CPU      0.02s WALL (      20 calls)
 
     Parallel routines
     fft_scatter  :     43.44s CPU     97.94s WALL (  290466 calls)
 
     PWSCF        :  5m17.26s CPU     6m34.01s WALL

 
   This run was terminated on:  18:10: 3  17Jan2018            

=------------------------------------------------------------------------------=
   JOB DONE.
=------------------------------------------------------------------------------=
Job  /afs/slac/g/suncat/bin/suncat-tsmpirun -x LD_LIBRARY_PATH -wdir /scratch/qe842464_xY79e pw.x -in pw.inp

TID   HOST_NAME   COMMAND_LINE            STATUS            TERMINATION_TIME
===== ========== ================  =======================  ===================
00000 suncat2041 pw.x -in pw.inp   Done                     01/17/2018 18:10:03
00001 suncat2041 pw.x -in pw.inp   Done                     01/17/2018 18:10:03
00002 suncat2041 pw.x -in pw.inp   Done                     01/17/2018 18:10:03
00003 suncat2041 pw.x -in pw.inp   Done                     01/17/2018 18:10:03
00004 suncat2041 pw.x -in pw.inp   Done                     01/17/2018 18:10:03
00005 suncat2041 pw.x -in pw.inp   Done                     01/17/2018 18:10:03
00006 suncat2041 pw.x -in pw.inp   Done                     01/17/2018 18:10:03
00007 suncat2041 pw.x -in pw.inp   Done                     01/17/2018 18:10:03
00008 suncat2041 pw.x -in pw.inp   Done                     01/17/2018 18:10:03
00009 suncat2041 pw.x -in pw.inp   Done                     01/17/2018 18:10:03
00010 suncat2041 pw.x -in pw.inp   Done                     01/17/2018 18:10:03
00011 suncat2041 pw.x -in pw.inp   Done                     01/17/2018 18:10:03
00012 suncat2041 pw.x -in pw.inp   Done                     01/17/2018 18:10:03
00013 suncat2041 pw.x -in pw.inp   Done                     01/17/2018 18:10:03
00014 suncat2041 pw.x -in pw.inp   Done                     01/17/2018 18:10:03
00015 suncat2041 pw.x -in pw.inp   Done                     01/17/2018 18:10:03
00016 suncat2040 pw.x -in pw.inp   Done                     01/17/2018 18:10:03
00017 suncat2040 pw.x -in pw.inp   Done                     01/17/2018 18:10:03
00018 suncat2040 pw.x -in pw.inp   Done                     01/17/2018 18:10:03
00019 suncat2040 pw.x -in pw.inp   Done                     01/17/2018 18:10:03
00020 suncat2040 pw.x -in pw.inp   Done                     01/17/2018 18:10:03
00021 suncat2040 pw.x -in pw.inp   Done                     01/17/2018 18:10:03
00022 suncat2040 pw.x -in pw.inp   Done                     01/17/2018 18:10:03
00023 suncat2040 pw.x -in pw.inp   Done                     01/17/2018 18:10:03
00024 suncat2040 pw.x -in pw.inp   Done                     01/17/2018 18:10:03
00025 suncat2040 pw.x -in pw.inp   Done                     01/17/2018 18:10:03
00026 suncat2040 pw.x -in pw.inp   Done                     01/17/2018 18:10:03
00027 suncat2040 pw.x -in pw.inp   Done                     01/17/2018 18:10:03
00028 suncat2040 pw.x -in pw.inp   Done                     01/17/2018 18:10:03
00029 suncat2040 pw.x -in pw.inp   Done                     01/17/2018 18:10:03
00030 suncat2040 pw.x -in pw.inp   Done                     01/17/2018 18:10:03
00031 suncat2040 pw.x -in pw.inp   Done                     01/17/2018 18:10:03

     Program PWSCF v.5.1rc2 (svn rev. 11289) starts on 17Jan2018 at 18:10: 9 

     This program is part of the open-source Quantum ESPRESSO suite
     for quantum simulation of materials; please cite
         "P. Giannozzi et al., J. Phys.:Condens. Matter 21 395502 (2009);
          URL http://www.quantum-espresso.org", 
     in publications or presentations arising from this work. More details at
     http://www.quantum-espresso.org/quote

     Parallel version (MPI), running on    32 processors
     R & G space division:  proc/nbgrp/npool/nimage =      32
     Reading input from pw.inp
     Message from routine read_cards :
     DEPRECATED: no units specified in CELL_PARAMETERS card

     Current dimensions of program PWSCF are:
     Max number of different atomic species (ntypx) = 10
     Max number of k-points (npk) =  40000
     Max angular momentum in pseudopotentials (lmaxx) =  3
     Presently stress not available with electric field


     **************************************************************************
     Initializing libbeef V0.1.1 with the BEEF-vdW functional.
     Citation: Wellendorff et al., PRB 85, 235149 (2012).
     **************************************************************************


     IMPORTANT: XC functional enforced from input :
     Exchange-correlation      = BEEF-VDW ( 1  4 27 13 2)
     Any further DFT definition will be discarded
     Please, verify this is what you really want


     Subspace diagonalization in iterative solution of the eigenvalue problem:
     a serial algorithm will be used

 
     Parallelization info
     --------------------
     sticks:   dense  smooth     PW     G-vecs:    dense   smooth      PW
     Min          83      33      9                15713     3963     619
     Max          84      34     10                15736     4002     646
     Sum        2677    1069    313               503261   127391   20329
 


     bravais-lattice index     =            0
     lattice parameter (alat)  =       1.8897  a.u.
     unit-cell volume          =    4228.3700 (a.u.)^3
     number of atoms/cell      =           13
     number of atomic types    =            2
     number of electrons       =       198.00
     number of Kohn-Sham states=          109
     kinetic-energy cutoff     =      36.7493  Ry
     charge density cutoff     =     367.4932  Ry
     convergence threshold     =      1.0E-05
     mixing beta               =       0.3000
     number of iterations used =           10  plain     mixing
     Exchange-correlation      = BEEF-VDW ( 1  4 27 13 2)
     nstep                     =           50


     celldm(1)=   1.889726  celldm(2)=   0.000000  celldm(3)=   0.000000
     celldm(4)=   0.000000  celldm(5)=   0.000000  celldm(6)=   0.000000

     crystal axes: (cart. coord. in units of alat)
               a(1) = (   5.440665   0.000000   0.000000 )  
               a(2) = (   2.720332   4.711754   0.000000 )  
               a(3) = (   0.000000   0.000000  24.442284 )  

     reciprocal axes: (cart. coord. in units 2 pi/alat)
               b(1) = (  0.183801 -0.106118  0.000000 )  
               b(2) = (  0.000000  0.212235  0.000000 )  
               b(3) = (  0.000000  0.000000  0.040913 )  


     PseudoPot. # 1 for Os read from file:
     /afs/slac.stanford.edu/u/if/mamunm/psp/gbrv1.5pbe/Os.UPF
     MD5 check sum: a3fb40a04f0c37c25c34bbc47164c9a8
     Pseudo is Ultrasoft + core correction, Zval = 16.0
     Generated by new atomic code, or converted to UPF format
     Using radial grid of  983 points,  8 beta functions with: 
                l(1) =   0
                l(2) =   0
                l(3) =   1
                l(4) =   1
                l(5) =   2
                l(6) =   2
                l(7) =   3
                l(8) =   3
     Q(r) pseudized with  8 coefficients,  rinner =    1.150   1.150   1.150
                                                       1.150   1.150   1.150
                                                       1.150

     PseudoPot. # 2 for O  read from file:
     /afs/slac.stanford.edu/u/if/mamunm/psp/gbrv1.5pbe/O.UPF
     MD5 check sum: 734c27235a0248c51dbae37a1fbe46ec
     Pseudo is Ultrasoft + core correction, Zval =  6.0
     Generated by new atomic code, or converted to UPF format
     Using radial grid of  737 points,  5 beta functions with: 
                l(1) =   0
                l(2) =   0
                l(3) =   1
                l(4) =   1
                l(5) =   2
     Q(r) pseudized with  8 coefficients,  rinner =    0.900   0.900   0.900
                                                       0.900   0.900

     vdW kernel table read from file vdW_kernel_table
     MD5 check sum: 095c7af220d748ca6e76c0b4c6cfb241

     atomic species   valence    mass     pseudopotential
        Os1           16.00   190.23000     Os( 1.00)
        O1             6.00    15.99900     O ( 1.00)

     No symmetry found



   Cartesian axes

     site n.     atom                  positions (alat units)
         1           Os1 tau(   1) = (   1.3601662   0.7852923  10.0000000  )
         2           Os1 tau(   2) = (   4.0804987   0.7852923  10.0000000  )
         3           Os1 tau(   3) = (   2.7203325   3.1411694  10.0000000  )
         4           Os1 tau(   4) = (   5.4406649   3.1411694  10.0000000  )
         5           Os1 tau(   5) = (   5.4406649   1.5705847  12.2211422  )
         6           Os1 tau(   6) = (   2.7203325   1.5705847  12.2211422  )
         7           Os1 tau(   7) = (   6.8008312   3.9264617  12.2211422  )
         8           Os1 tau(   8) = (   4.0804987   3.9264617  12.2211422  )
         9           Os1 tau(   9) = (   5.4405663   0.0001017  14.2997056  )
        10           Os1 tau(  10) = (   2.7205396   0.0619592  14.4842124  )
        11           Os1 tau(  11) = (   1.4138510   2.3248546  14.4833828  )
        12           Os1 tau(  12) = (   4.0268936   2.3247522  14.4834672  )
        13           O1  tau(  13) = (   2.7202902   1.5705219  16.1335239  )

     number of k points=    20  Fermi-Dirac smearing, width (Ry)=  0.0110
                       cart. coord. in units 2pi/alat
        k(    1) = (   0.0000000   0.0000000   0.0000000), wk =   0.0555556
        k(    2) = (   0.0000000   0.0353725   0.0000000), wk =   0.1111111
        k(    3) = (   0.0000000   0.0707451   0.0000000), wk =   0.1111111
        k(    4) = (   0.0000000  -0.1061176   0.0000000), wk =   0.0555556
        k(    5) = (   0.0306335  -0.0176863   0.0000000), wk =   0.1111111
        k(    6) = (   0.0306335   0.0176863   0.0000000), wk =   0.1111111
        k(    7) = (   0.0306335   0.0530588   0.0000000), wk =   0.1111111
        k(    8) = (   0.0306335  -0.1238039   0.0000000), wk =   0.1111111
        k(    9) = (   0.0306335  -0.0884313   0.0000000), wk =   0.1111111
        k(   10) = (   0.0306335  -0.0530588   0.0000000), wk =   0.1111111
        k(   11) = (   0.0612670  -0.0353725   0.0000000), wk =   0.1111111
        k(   12) = (   0.0612670   0.0000000   0.0000000), wk =   0.1111111
        k(   13) = (   0.0612670   0.0353725   0.0000000), wk =   0.1111111
        k(   14) = (   0.0612670  -0.1414901   0.0000000), wk =   0.1111111
        k(   15) = (   0.0612670  -0.1061176   0.0000000), wk =   0.1111111
        k(   16) = (   0.0612670  -0.0707451   0.0000000), wk =   0.1111111
        k(   17) = (  -0.0919005   0.0530588   0.0000000), wk =   0.0555556
        k(   18) = (  -0.0919005   0.0884313   0.0000000), wk =   0.1111111
        k(   19) = (  -0.0919005   0.1238039   0.0000000), wk =   0.1111111
        k(   20) = (  -0.0919005  -0.0530588   0.0000000), wk =   0.0555556

     Dense  grid:   503261 G-vectors     FFT dimensions: (  64,  64, 288)

     Smooth grid:   127391 G-vectors     FFT dimensions: (  40,  40, 180)

     Largest allocated arrays     est. size (Mb)     dimensions
        Kohn-Sham Wavefunctions         0.88 Mb     (     531,  109)
        NL pseudopotentials             3.22 Mb     (     531,  397)
        Each V/rho on FFT grid          0.56 Mb     (   36864)
        Each G-vector array             0.12 Mb     (   15717)
        G-vector shells                 0.05 Mb     (    7001)
     Largest temporary arrays     est. size (Mb)     dimensions
        Auxiliary wavefunctions         3.53 Mb     (     531,  436)
        Each subspace H/S matrix        2.90 Mb     (     436,  436)
        Each <psi_i|beta_j> matrix      0.66 Mb     (     397,  109)
        Arrays for rho mixing           5.62 Mb     (   36864,   10)

     Initial potential from superposition of free atoms
     Check: negative starting charge=   -1.488100

     starting charge  191.99956, renormalised to  198.00000

     negative rho (up, down):  1.535E+00 0.000E+00


     ************************************************************************
     *
     * You are using vdW-DF for exchange-correlation in this calculation.
     * Please cite the following three references that made this development
     * possible:
     *
     *   M. Dion, H. Rydberg, E. Schroder, D. C. Langreth, and
     *   B. I. Lundqvist, Phys. Rev. Lett. 92, 246401 (2004).
     *
     *   T. Thonhauser, V. R. Cooper, S. Li, A. Puzder, P. Hyldgaard, and
     *   D. C. Langreth, Phys. Rev. B 76, 125112 (2007).
     *
     *   G. Roman-Perez and J. M. Soler, Phys. Rev. Lett. 103, 096102 (2009).
     *
     *
     * If you are using vdW-DF2, please also cite:
     *
     *   K. Lee, E. D. Murray, L. Kong, B. I. Lundqvist, and
     *   D. C. Langreth, Phys. Rev. B 82, 081101(R) (2010).
     *
     *
     * If you are calculating the stress with vdW-DF, please also cite:
     *
     *   R. Sabatini, E. Kucukbenli, B. Kolb, T. Thonhauser, and
     *   S. de Gironcoli, J. Phys.: Condens. Matter 24, 424209 (2012).
     *
     ************************************************************************

     Carrying out vdW-DF run using the following parameters:

     Nqs =      20    Nr_points =    1024   r_max =   100.000
     q_mesh =
               0.00001000     0.04494208     0.09755937     0.15916263
               0.23128650     0.31572767     0.41458969     0.53033537
               0.66584808     0.82450364     1.01025438     1.22772762
               1.48234092     1.78043706     2.12944203     2.53805004
               3.01644009     3.57652955     4.23227104     5.00000000

     Gradients computed in reciprocal space

     ************************************************************************


 
     Adding external electric field

     Computed dipole along edir(3) : 
        Dipole               -1.3869 Ry au,         -3.5251 Debye
        Dipole field         -0.0041 Ry au
 
        Potential amp.        0.3712 Ry
        Total length         45.0345 bohr
 
     Starting wfc are  160 randomized atomic wfcs

     total cpu time spent up to now is        7.5 secs

     Self-consistent Calculation

     iteration #  1     ecut=    36.75 Ry     beta=0.30
     Davidson diagonalization with overlap
     ethr =  1.00E-02,  avg # of iterations =  2.0

     negative rho (up, down):  1.532E+00 0.000E+00
 
     Adding external electric field

     Computed dipole along edir(3) : 
        Dipole               20.3949 Ry au,         51.8387 Debye
        Dipole field          0.0606 Ry au
 
        Potential amp.       -5.4593 Ry
        Total length         45.0345 bohr
 

     total cpu time spent up to now is       22.3 secs

     total energy              =   -2397.48726135 Ry
     Harris-Foulkes estimate   =   -2430.21946127 Ry
     estimated scf accuracy    <      67.45192121 Ry

     iteration #  2     ecut=    36.75 Ry     beta=0.30
     Davidson diagonalization with overlap
     ethr =  1.00E-02,  avg # of iterations = 12.4

     negative rho (up, down):  1.529E+00 0.000E+00
 
     Adding external electric field

     Computed dipole along edir(3) : 
        Dipole               -3.5985 Ry au,         -9.1464 Debye
        Dipole field         -0.0107 Ry au
 
        Potential amp.        0.9632 Ry
        Total length         45.0345 bohr
 

     total cpu time spent up to now is       64.6 secs

     total energy              =   -2258.14884846 Ry
     Harris-Foulkes estimate   =   -2645.31332401 Ry
     estimated scf accuracy    <   10898.62890528 Ry

     iteration #  3     ecut=    36.75 Ry     beta=0.30
     Davidson diagonalization with overlap
     ethr =  1.00E-02,  avg # of iterations =  9.2

     negative rho (up, down):  1.526E+00 0.000E+00
 
     Adding external electric field

     Computed dipole along edir(3) : 
        Dipole               -2.1838 Ry au,         -5.5506 Debye
        Dipole field         -0.0065 Ry au
 
        Potential amp.        0.5845 Ry
        Total length         45.0345 bohr
 

     total cpu time spent up to now is       95.5 secs

     total energy              =   -2418.70189537 Ry
     Harris-Foulkes estimate   =   -2463.07540062 Ry
     estimated scf accuracy    <     862.26474388 Ry

     iteration #  4     ecut=    36.75 Ry     beta=0.30
     Davidson diagonalization with overlap
     ethr =  1.00E-02,  avg # of iterations =  5.8

     negative rho (up, down):  1.525E+00 0.000E+00
 
     Adding external electric field

     Computed dipole along edir(3) : 
        Dipole               -1.3510 Ry au,         -3.4338 Debye
        Dipole field         -0.0040 Ry au
 
        Potential amp.        0.3616 Ry
        Total length         45.0345 bohr
 

     total cpu time spent up to now is      119.6 secs

     total energy              =   -2429.11178259 Ry
     Harris-Foulkes estimate   =   -2431.49665910 Ry
     estimated scf accuracy    <      44.08856191 Ry

     iteration #  5     ecut=    36.75 Ry     beta=0.30
     Davidson diagonalization with overlap
     ethr =  1.00E-02,  avg # of iterations =  1.3

     negative rho (up, down):  1.523E+00 0.000E+00
 
     Adding external electric field

     Computed dipole along edir(3) : 
        Dipole               -1.4568 Ry au,         -3.7028 Debye
        Dipole field         -0.0043 Ry au
 
        Potential amp.        0.3900 Ry
        Total length         45.0345 bohr
 

     total cpu time spent up to now is      131.5 secs

     total energy              =   -2429.56835519 Ry
     Harris-Foulkes estimate   =   -2429.98704453 Ry
     estimated scf accuracy    <      10.40656321 Ry

     iteration #  6     ecut=    36.75 Ry     beta=0.30
     Davidson diagonalization with overlap
     ethr =  5.26E-03,  avg # of iterations =  1.7

     negative rho (up, down):  1.522E+00 0.000E+00
 
     Adding external electric field

     Computed dipole along edir(3) : 
        Dipole               -1.2947 Ry au,         -3.2909 Debye
        Dipole field         -0.0038 Ry au
 
        Potential amp.        0.3466 Ry
        Total length         45.0345 bohr
 

     total cpu time spent up to now is      143.4 secs

     total energy              =   -2429.59702314 Ry
     Harris-Foulkes estimate   =   -2429.79279343 Ry
     estimated scf accuracy    <       0.95063514 Ry

     iteration #  7     ecut=    36.75 Ry     beta=0.30
     Davidson diagonalization with overlap
     ethr =  4.80E-04,  avg # of iterations =  5.2

     negative rho (up, down):  1.516E+00 0.000E+00
 
     Adding external electric field

     Computed dipole along edir(3) : 
        Dipole               -1.3148 Ry au,         -3.3419 Debye
        Dipole field         -0.0039 Ry au
 
        Potential amp.        0.3519 Ry
        Total length         45.0345 bohr
 

     total cpu time spent up to now is      164.4 secs

     total energy              =   -2429.72139821 Ry
     Harris-Foulkes estimate   =   -2429.95809611 Ry
     estimated scf accuracy    <       7.33070162 Ry

     iteration #  8     ecut=    36.75 Ry     beta=0.30
     Davidson diagonalization with overlap
     ethr =  4.80E-04,  avg # of iterations =  3.5

     negative rho (up, down):  1.512E+00 0.000E+00
 
     Adding external electric field

     Computed dipole along edir(3) : 
        Dipole               -1.3037 Ry au,         -3.3136 Debye
        Dipole field         -0.0039 Ry au
 
        Potential amp.        0.3490 Ry
        Total length         45.0345 bohr
 

     total cpu time spent up to now is      178.3 secs

     total energy              =   -2429.81102058 Ry
     Harris-Foulkes estimate   =   -2429.82903880 Ry
     estimated scf accuracy    <       0.15267862 Ry

     iteration #  9     ecut=    36.75 Ry     beta=0.30
     Davidson diagonalization with overlap
     ethr =  7.71E-05,  avg # of iterations =  5.3

     negative rho (up, down):  1.509E+00 0.000E+00
 
     Adding external electric field

     Computed dipole along edir(3) : 
        Dipole               -1.2468 Ry au,         -3.1690 Debye
        Dipole field         -0.0037 Ry au
 
        Potential amp.        0.3337 Ry
        Total length         45.0345 bohr
 

     total cpu time spent up to now is      196.8 secs

     total energy              =   -2429.83240800 Ry
     Harris-Foulkes estimate   =   -2429.83713771 Ry
     estimated scf accuracy    <       0.21843890 Ry

     iteration # 10     ecut=    36.75 Ry     beta=0.30
     Davidson diagonalization with overlap
     ethr =  7.71E-05,  avg # of iterations =  1.0

     negative rho (up, down):  1.507E+00 0.000E+00
 
     Adding external electric field

     Computed dipole along edir(3) : 
        Dipole               -1.1502 Ry au,         -2.9236 Debye
        Dipole field         -0.0034 Ry au
 
        Potential amp.        0.3079 Ry
        Total length         45.0345 bohr
 

     total cpu time spent up to now is      208.3 secs

     total energy              =   -2429.82252303 Ry
     Harris-Foulkes estimate   =   -2429.83512449 Ry
     estimated scf accuracy    <       0.16473198 Ry

     iteration # 11     ecut=    36.75 Ry     beta=0.30
     Davidson diagonalization with overlap
     ethr =  7.71E-05,  avg # of iterations =  1.0

     negative rho (up, down):  1.506E+00 0.000E+00
 
     Adding external electric field

     Computed dipole along edir(3) : 
        Dipole               -1.0633 Ry au,         -2.7026 Debye
        Dipole field         -0.0032 Ry au
 
        Potential amp.        0.2846 Ry
        Total length         45.0345 bohr
 

     total cpu time spent up to now is      219.7 secs

     total energy              =   -2429.82426981 Ry
     Harris-Foulkes estimate   =   -2429.82712933 Ry
     estimated scf accuracy    <       0.02394293 Ry

     iteration # 12     ecut=    36.75 Ry     beta=0.30
     Davidson diagonalization with overlap
     ethr =  1.21E-05,  avg # of iterations =  5.3

     negative rho (up, down):  1.506E+00 0.000E+00
 
     Adding external electric field

     Computed dipole along edir(3) : 
        Dipole               -1.0270 Ry au,         -2.6103 Debye
        Dipole field         -0.0031 Ry au
 
        Potential amp.        0.2749 Ry
        Total length         45.0345 bohr
 

     total cpu time spent up to now is      235.6 secs

     total energy              =   -2429.82448922 Ry
     Harris-Foulkes estimate   =   -2429.82586726 Ry
     estimated scf accuracy    <       0.02148072 Ry

     iteration # 13     ecut=    36.75 Ry     beta=0.30
     Davidson diagonalization with overlap
     ethr =  1.08E-05,  avg # of iterations =  1.0

     negative rho (up, down):  1.501E+00 0.000E+00
 
     Adding external electric field

     Computed dipole along edir(3) : 
        Dipole               -0.5355 Ry au,         -1.3610 Debye
        Dipole field         -0.0016 Ry au
 
        Potential amp.        0.1433 Ry
        Total length         45.0345 bohr
 

     total cpu time spent up to now is      247.2 secs

     total energy              =   -2429.81838701 Ry
     Harris-Foulkes estimate   =   -2429.82699506 Ry
     estimated scf accuracy    <       0.01465813 Ry

     iteration # 14     ecut=    36.75 Ry     beta=0.30
     Davidson diagonalization with overlap
     ethr =  7.40E-06,  avg # of iterations =  4.7

     negative rho (up, down):  1.504E+00 0.000E+00
 
     Adding external electric field

     Computed dipole along edir(3) : 
        Dipole               -0.4157 Ry au,         -1.0565 Debye
        Dipole field         -0.0012 Ry au
 
        Potential amp.        0.1113 Ry
        Total length         45.0345 bohr
 

     total cpu time spent up to now is      263.6 secs

     total energy              =   -2429.81883071 Ry
     Harris-Foulkes estimate   =   -2429.82115251 Ry
     estimated scf accuracy    <       0.01846526 Ry

     iteration # 15     ecut=    36.75 Ry     beta=0.30
     Davidson diagonalization with overlap
     ethr =  7.40E-06,  avg # of iterations =  3.0

     negative rho (up, down):  1.505E+00 0.000E+00
 
     Adding external electric field

     Computed dipole along edir(3) : 
        Dipole               -0.3306 Ry au,         -0.8403 Debye
        Dipole field         -0.0010 Ry au
 
        Potential amp.        0.0885 Ry
        Total length         45.0345 bohr
 

     total cpu time spent up to now is      277.1 secs

     total energy              =   -2429.82005327 Ry
     Harris-Foulkes estimate   =   -2429.82040359 Ry
     estimated scf accuracy    <       0.00690829 Ry

     iteration # 16     ecut=    36.75 Ry     beta=0.30
     Davidson diagonalization with overlap
     ethr =  3.49E-06,  avg # of iterations =  2.2

     negative rho (up, down):  1.506E+00 0.000E+00
 
     Adding external electric field

     Computed dipole along edir(3) : 
        Dipole               -0.2803 Ry au,         -0.7123 Debye
        Dipole field         -0.0008 Ry au
 
        Potential amp.        0.0750 Ry
        Total length         45.0345 bohr
 

     total cpu time spent up to now is      289.7 secs

     total energy              =   -2429.82016278 Ry
     Harris-Foulkes estimate   =   -2429.82038677 Ry
     estimated scf accuracy    <       0.00249024 Ry

     iteration # 17     ecut=    36.75 Ry     beta=0.30
     Davidson diagonalization with overlap
     ethr =  1.26E-06,  avg # of iterations =  2.6

[...]
     0.6805   0.7793   0.7933   0.8639   0.9904   1.0924   1.5172   1.6225
     1.7748   1.8833   1.9796   2.0842   2.1319   2.2673   2.4685   2.5320
     2.6794   3.0063   3.1507   3.3818   3.5390   3.8926   3.9553   4.0142
     4.1957   4.3281   4.4169   4.4812   4.7083

          k = 0.0613-0.0354 0.0000 ( 15905 PWs)   bands (ev):

   -84.0157 -83.9857 -83.9737 -83.9101 -83.8901 -83.8611 -83.8593 -83.4148
   -83.3862 -83.3746 -83.3575 -83.3561 -43.8026 -43.6143 -43.5919 -43.5526
   -43.5126 -43.5033 -43.4836 -43.2864 -43.2548 -43.2485 -43.1800 -43.1783
   -43.1427 -43.1014 -43.0941 -43.0371 -42.9872 -42.9382 -42.9250 -42.9144
   -42.8851 -42.8793 -42.8186 -42.8155 -42.6570 -42.6151 -42.6079 -42.5975
   -42.5871 -42.5634 -42.5569 -42.5455 -42.4893 -42.4721 -42.4240 -42.3357
   -16.6496  -5.6909  -4.4147  -3.9221  -3.6007  -3.5802  -3.4153  -3.2779
    -3.0755  -3.0596  -2.8810  -2.7077  -2.6952  -2.4186  -2.4173  -2.1129
    -1.8739  -1.6184  -1.2102  -1.0437  -0.9578  -0.9122  -0.8065  -0.4656
    -0.4297  -0.4167  -0.1606  -0.0164   0.1640   0.1782   0.4712   0.5861
     0.6123   0.7934   0.8044   0.9431   0.9548   1.0976   1.3493   1.4921
     1.6278   1.6878   1.7863   1.8249   1.9542   2.0406   2.3398   2.3433
     2.6405   2.9493   3.1236   3.2584   3.3625   3.4882   3.7213   3.7622
     3.9209   4.1104   4.2129   4.3689   4.4559

          k = 0.0613 0.0000 0.0000 ( 15900 PWs)   bands (ev):

   -84.0187 -83.9822 -83.9745 -83.9114 -83.8893 -83.8617 -83.8579 -83.4180
   -83.3819 -83.3763 -83.3568 -83.3560 -43.8201 -43.6329 -43.5907 -43.5852
   -43.5346 -43.5211 -43.4988 -43.2776 -43.2519 -43.2366 -43.1877 -43.1348
   -43.1245 -43.0981 -43.0909 -43.0615 -42.9747 -42.9353 -42.9232 -42.9210
   -42.8859 -42.8640 -42.8519 -42.8326 -42.6589 -42.6123 -42.6071 -42.5967
   -42.5818 -42.5730 -42.5332 -42.4914 -42.4714 -42.4676 -42.4292 -42.3282
   -16.6562  -5.9025  -4.3448  -3.9787  -3.8361  -3.5782  -3.5359  -3.4604
    -3.3486  -3.1851  -2.9754  -2.8510  -2.7833  -2.5360  -2.4189  -2.2029
    -2.0005  -1.7984  -1.1835  -1.0169  -0.9314  -0.8728  -0.7196  -0.3301
    -0.2934  -0.1779  -0.1182  -0.0810   0.0811   0.2660   0.4067   0.6213
     0.6805   0.7792   0.7931   0.8638   0.9905   1.0925   1.5171   1.6228
     1.7748   1.8833   1.9796   2.0841   2.1318   2.2677   2.4687   2.5321
     2.6792   3.0061   3.1508   3.3818   3.5391   3.8925   3.9555   4.0142
     4.1955   4.3280   4.4169   4.4813   4.7083

          k = 0.0613 0.0354 0.0000 ( 15905 PWs)   bands (ev):

   -84.0158 -83.9849 -83.9743 -83.9098 -83.8904 -83.8634 -83.8570 -83.4148
   -83.3860 -83.3748 -83.3574 -83.3561 -43.8022 -43.6146 -43.5913 -43.5532
   -43.5123 -43.5037 -43.4833 -43.2873 -43.2546 -43.2489 -43.1795 -43.1786
   -43.1426 -43.1013 -43.0945 -43.0373 -42.9869 -42.9376 -42.9247 -42.9151
   -42.8854 -42.8798 -42.8169 -42.8156 -42.6570 -42.6151 -42.6079 -42.5974
   -42.5870 -42.5636 -42.5567 -42.5453 -42.4900 -42.4721 -42.4240 -42.3358
   -16.6496  -5.6909  -4.4147  -3.9219  -3.6006  -3.5801  -3.4154  -3.2780
    -3.0755  -3.0597  -2.8809  -2.7079  -2.6952  -2.4185  -2.4172  -2.1131
    -1.8738  -1.6184  -1.2102  -1.0438  -0.9579  -0.9122  -0.8066  -0.4656
    -0.4297  -0.4169  -0.1605  -0.0167   0.1641   0.1781   0.4714   0.5859
     0.6124   0.7932   0.8044   0.9431   0.9549   1.0978   1.3493   1.4922
     1.6277   1.6877   1.7863   1.8249   1.9544   2.0406   2.3396   2.3436
     2.6404   2.9496   3.1235   3.2583   3.3628   3.4882   3.7212   3.7622
     3.9212   4.1098   4.2130   4.3693   4.4560

          k = 0.0613-0.1415 0.0000 ( 15922 PWs)   bands (ev):

   -84.0083 -83.9907 -83.9754 -83.9063 -83.8927 -83.8648 -83.8572 -83.4064
   -83.3912 -83.3786 -83.3569 -83.3563 -43.7611 -43.5719 -43.5446 -43.5207
   -43.4826 -43.4497 -43.4304 -43.3519 -43.3118 -43.2681 -43.2248 -43.1814
   -43.1427 -43.0954 -43.0768 -43.0387 -43.0058 -42.9674 -42.9405 -42.8959
   -42.8646 -42.8484 -42.8141 -42.7490 -42.6818 -42.6458 -42.6198 -42.6107
   -42.6028 -42.5942 -42.5693 -42.5463 -42.5109 -42.5058 -42.4252 -42.3732
   -16.6365  -5.1226  -4.3738  -3.8112  -3.5009  -3.2927  -3.0754  -2.9495
    -2.8033  -2.6854  -2.5666  -2.4700  -2.3107  -2.1689  -2.0241  -1.9210
    -1.6564  -1.5942  -1.3705  -1.2053  -1.0670  -1.0585  -0.9012  -0.7979
    -0.6300  -0.5869  -0.3191  -0.1851  -0.0373   0.1368   0.2487   0.3365
     0.4401   0.5075   0.5648   0.6685   0.7938   0.9525   1.1750   1.2503
     1.2751   1.3618   1.5480   1.6841   1.9581   2.1353   2.2721   2.3640
     2.5515   2.6088   2.7920   2.8846   3.1550   3.3533   3.4830   3.8319
     3.8957   4.0559   4.0971   4.3145   4.3411

          k = 0.0613-0.1061 0.0000 ( 15972 PWs)   bands (ev):

   -84.0003 -83.9974 -83.9765 -83.9045 -83.8938 -83.8649 -83.8581 -83.3969
   -83.3966 -83.3835 -83.3564 -83.3562 -43.7363 -43.5349 -43.5244 -43.4833
   -43.4646 -43.4128 -43.4019 -43.3729 -43.3627 -43.3480 -43.2279 -43.1823
   -43.1284 -43.0768 -43.0695 -43.0454 -43.0114 -42.9913 -42.9385 -42.8992
   -42.8831 -42.8066 -42.7700 -42.7165 -42.7138 -42.7025 -42.6407 -42.6182
   -42.6049 -42.5913 -42.5715 -42.5561 -42.5358 -42.4397 -42.4372 -42.4361
   -16.6300  -4.6549  -4.1386  -4.0506  -3.4719  -3.2608  -3.0050  -2.5744
    -2.5643  -2.3829  -2.2519  -2.1575  -2.0933  -1.9929  -1.8796  -1.7268
    -1.7226  -1.7045  -1.4692  -1.3331  -1.2761  -1.1052  -1.0852  -0.9937
    -0.4862  -0.4831  -0.4793  -0.4518  -0.4019  -0.2354  -0.1481  -0.0134
     0.0774   0.2496   0.6781   0.8097   0.8114   0.9238   0.9675   1.0687
     1.2516   1.3246   1.5029   1.8345   1.9166   1.9181   2.3737   2.5518
     2.6124   2.7344   2.7547   2.9913   3.1041   3.4502   3.7440   3.9472
     4.1771   4.2362   4.2619   4.2754   4.3133

          k = 0.0613-0.0707 0.0000 ( 15922 PWs)   bands (ev):

   -84.0079 -83.9916 -83.9749 -83.9068 -83.8923 -83.8631 -83.8589 -83.4063
   -83.3914 -83.3784 -83.3570 -83.3563 -43.7616 -43.5716 -43.5444 -43.5206
   -43.4825 -43.4501 -43.4305 -43.3519 -43.3108 -43.2679 -43.2243 -43.1821
   -43.1422 -43.0955 -43.0765 -43.0386 -43.0061 -42.9673 -42.9406 -42.8956
   -42.8648 -42.8497 -42.8142 -42.7490 -42.6818 -42.6457 -42.6199 -42.6108
   -42.6028 -42.5942 -42.5694 -42.5463 -42.5104 -42.5057 -42.4251 -42.3732
   -16.6365  -5.1225  -4.3739  -3.8113  -3.5012  -3.2928  -3.0753  -2.9494
    -2.8034  -2.6854  -2.5666  -2.4698  -2.3107  -2.1690  -2.0241  -1.9209
    -1.6564  -1.5942  -1.3705  -1.2053  -1.0668  -1.0585  -0.9012  -0.7977
    -0.6298  -0.5870  -0.3194  -0.1848  -0.0376   0.1369   0.2486   0.3369
     0.4400   0.5073   0.5646   0.6685   0.7938   0.9525   1.1749   1.2505
     1.2751   1.3616   1.5481   1.6842   1.9583   2.1351   2.2720   2.3637
     2.5510   2.6089   2.7921   2.8845   3.1550   3.3531   3.4833   3.8322
     3.8956   4.0559   4.0973   4.3144   4.3408

          k =-0.0919 0.0531 0.0000 ( 15968 PWs)   bands (ev):

   -84.0069 -83.9937 -83.9737 -83.9068 -83.8924 -83.8627 -83.8593 -83.4040
   -83.3964 -83.3746 -83.3581 -83.3563 -43.7629 -43.5857 -43.5445 -43.5370
   -43.4782 -43.4465 -43.3570 -43.3396 -43.3079 -43.3061 -43.2392 -43.1956
   -43.1647 -43.0960 -43.0774 -43.0096 -43.0075 -42.9671 -42.9548 -42.9045
   -42.8563 -42.8531 -42.8140 -42.6694 -42.6638 -42.6537 -42.6351 -42.6210
   -42.6033 -42.6003 -42.5949 -42.5666 -42.5547 -42.4959 -42.3828 -42.3774
   -16.6365  -5.0145  -4.6610  -3.8825  -3.3426  -3.2521  -3.1108  -2.8080
    -2.7790  -2.6658  -2.6479  -2.6053  -2.1540  -2.1301  -2.0088  -1.9256
    -1.6832  -1.5321  -1.5112  -1.2199  -1.0435  -0.9717  -0.9595  -0.8306
    -0.6734  -0.5709  -0.1245   0.0139   0.1277   0.1995   0.2782   0.3896
     0.5979   0.6731   0.7320   0.8020   0.8074   0.8790   0.9016   0.9856
     1.0324   1.3357   1.3446   1.8988   1.9244   2.0327   2.2401   2.4116
     2.4492   2.5568   2.5995   2.8003   3.0973   3.2068   3.3281   3.5218
     3.5296   3.7045   3.8586   4.0212   4.3480

          k =-0.0919 0.0884 0.0000 ( 15922 PWs)   bands (ev):

   -84.0080 -83.9914 -83.9750 -83.9068 -83.8923 -83.8633 -83.8587 -83.4063
   -83.3913 -83.3784 -83.3570 -83.3563 -43.7616 -43.5716 -43.5444 -43.5208
   -43.4826 -43.4500 -43.4306 -43.3516 -43.3108 -43.2681 -43.2244 -43.1821
   -43.1421 -43.0956 -43.0766 -43.0386 -43.0061 -42.9673 -42.9406 -42.8954
   -42.8648 -42.8496 -42.8142 -42.7490 -42.6818 -42.6458 -42.6199 -42.6108
   -42.6029 -42.5941 -42.5694 -42.5463 -42.5104 -42.5057 -42.4251 -42.3732
   -16.6365  -5.1225  -4.3738  -3.8114  -3.5012  -3.2927  -3.0753  -2.9494
    -2.8034  -2.6853  -2.5667  -2.4700  -2.3106  -2.1690  -2.0240  -1.9211
    -1.6563  -1.5942  -1.3705  -1.2052  -1.0668  -1.0585  -0.9013  -0.7976
    -0.6299  -0.5870  -0.3194  -0.1849  -0.0378   0.1369   0.2487   0.3369
     0.4401   0.5073   0.5645   0.6685   0.7939   0.9527   1.1750   1.2504
     1.2752   1.3617   1.5481   1.6844   1.9582   2.1350   2.2720   2.3639
     2.5512   2.6087   2.7920   2.8846   3.1551   3.3531   3.4833   3.8323
     3.8956   4.0560   4.0972   4.3143   4.3408

          k =-0.0919 0.1238 0.0000 ( 15922 PWs)   bands (ev):

   -84.0083 -83.9908 -83.9754 -83.9065 -83.8926 -83.8645 -83.8576 -83.4064
   -83.3912 -83.3786 -83.3569 -83.3563 -43.7613 -43.5719 -43.5444 -43.5207
   -43.4827 -43.4497 -43.4303 -43.3519 -43.3117 -43.2679 -43.2247 -43.1816
   -43.1426 -43.0953 -43.0766 -43.0389 -43.0060 -42.9673 -42.9400 -42.8967
   -42.8646 -42.8484 -42.8141 -42.7490 -42.6818 -42.6457 -42.6198 -42.6108
   -42.6028 -42.5941 -42.5693 -42.5462 -42.5109 -42.5058 -42.4252 -42.3732
   -16.6365  -5.1225  -4.3739  -3.8112  -3.5010  -3.2927  -3.0755  -2.9495
    -2.8034  -2.6853  -2.5667  -2.4700  -2.3107  -2.1688  -2.0240  -1.9212
    -1.6563  -1.5942  -1.3706  -1.2052  -1.0669  -1.0585  -0.9013  -0.7977
    -0.6301  -0.5869  -0.3192  -0.1851  -0.0375   0.1370   0.2487   0.3367
     0.4400   0.5074   0.5647   0.6686   0.7937   0.9528   1.1749   1.2501
     1.2751   1.3619   1.5482   1.6843   1.9581   2.1349   2.2721   2.3640
     2.5515   2.6088   2.7918   2.8847   3.1551   3.3529   3.4833   3.8325
     3.8956   4.0560   4.0967   4.3144   4.3411

          k =-0.0919-0.0531 0.0000 ( 15968 PWs)   bands (ev):

   -84.0075 -83.9925 -83.9743 -83.9062 -83.8929 -83.8651 -83.8570 -83.4042
   -83.3960 -83.3748 -83.3580 -83.3563 -43.7622 -43.5863 -43.5438 -43.5375
   -43.4784 -43.4458 -43.3572 -43.3399 -43.3087 -43.3063 -43.2400 -43.1953
   -43.1642 -43.0969 -43.0766 -43.0096 -43.0079 -42.9667 -42.9538 -42.9055
   -42.8562 -42.8534 -42.8123 -42.6694 -42.6638 -42.6537 -42.6350 -42.6211
   -42.6031 -42.6003 -42.5950 -42.5664 -42.5548 -42.4967 -42.3830 -42.3772
   -16.6365  -5.0145  -4.6610  -3.8823  -3.3424  -3.2519  -3.1109  -2.8080
    -2.7793  -2.6657  -2.6480  -2.6051  -2.1542  -2.1300  -2.0088  -1.9256
    -1.6833  -1.5320  -1.5114  -1.2198  -1.0436  -0.9718  -0.9596  -0.8309
    -0.6735  -0.5710  -0.1239   0.0134   0.1282   0.1998   0.2777   0.3900
     0.5977   0.6734   0.7320   0.8020   0.8073   0.8785   0.9017   0.9858
     1.0325   1.3356   1.3447   1.8989   1.9237   2.0329   2.2403   2.4123
     2.4491   2.5572   2.6000   2.8001   3.0974   3.2067   3.3281   3.5215
     3.5291   3.7046   3.8581   4.0217   4.3485

     the Fermi energy is     3.1542 ev

!    total energy              =   -2429.90763604 Ry
     Harris-Foulkes estimate   =   -2429.90763909 Ry
     estimated scf accuracy    <       0.00000351 Ry

     The total energy is the sum of the following terms:

     one-electron contribution =  -22418.18518601 Ry
     hartree contribution      =   11194.17798681 Ry
     xc contribution           =    -472.19882342 Ry
     ewald contribution        =    9266.36238776 Ry
     electric field correction =       0.00000003 Ry
     smearing contrib. (-TS)   =      -0.06400122 Ry

     convergence has been achieved in  21 iterations
 
 BEEF-vdW xc energy contributions
           1 :   -413.624758858996     
           2 :    383.223936664683     
           3 :   -329.552831161652     
           4 :    264.270303738744     
           5 :   -199.906100536867     
           6 :    146.476887576309     
           7 :   -109.288200467156     
           8 :    88.3964607998119     
           9 :   -79.7194058808977     
          10 :    77.2151995459523     
          11 :   -75.2492685673058     
          12 :    70.3027432299477     
          13 :   -61.5731113935020     
          14 :    50.4958142035861     
          15 :   -39.5849874683215     
          16 :    31.1351648221419     
          17 :   -26.2898873497194     
          18 :    24.7544573162804     
          19 :   -25.1441274290756     
          20 :    25.7119313363702     
          21 :   -25.1025075694478     
          22 :    22.8208792281390     
          23 :   -19.2722062851141     
          24 :    15.4212103895852     
          25 :   -12.2756370252619     
          26 :    10.4350738016278     
          27 :   -9.88576052120311     
          28 :    10.0931484415815     
          29 :   -10.3135469391378     
          30 :    9.95677332536093     
          31 :   -39.2851255360213     
          32 :   -29.9722858748610     

     Forces acting on atoms (Ry/au):


     negative rho (up, down):  1.509E+00 0.000E+00
     atom    1 type  1   force =     0.00547771    0.00313373    0.03072344
     atom    2 type  1   force =    -0.00547796    0.00318892    0.03067362
     atom    3 type  1   force =     0.00009168   -0.00632237    0.03068680
     atom    4 type  1   force =    -0.00009538    0.00002398    0.01356962
     atom    5 type  1   force =    -0.00012208   -0.00976542   -0.01395035
     atom    6 type  1   force =     0.00005545   -0.00000807   -0.06013071
     atom    7 type  1   force =     0.00839957    0.00491505   -0.01404360
     atom    8 type  1   force =    -0.00838894    0.00479225   -0.01391764
     atom    9 type  1   force =     0.00005519   -0.00016572   -0.00123556
     atom   10 type  1   force =    -0.00006542   -0.00018022   -0.00081730
     atom   11 type  1   force =     0.00000593    0.00011074   -0.00069768
     atom   12 type  1   force =     0.00014051    0.00026333   -0.00068154
     atom   13 type  2   force =    -0.00007626    0.00001379   -0.00017910

     Total force =     0.087285     Total SCF correction =     0.011538
     SCF correction compared to forces is large: reduce conv_thr to get better values


     entering subroutine stress ...


     negative rho (up, down):  1.509E+00 0.000E+00
          total   stress  (Ry/bohr**3)                   (kbar)     P=  -17.29
  -0.00011068  -0.00000006   0.00000002        -16.28     -0.01      0.00
  -0.00000006  -0.00011071  -0.00000002         -0.01    -16.29     -0.00
   0.00000002  -0.00000002  -0.00013125          0.00     -0.00    -19.31

 !ASE

     Writing output data file calc.save
 
     init_run     :      5.32s CPU      7.24s WALL (       1 calls)
     electrons    :    291.03s CPU    364.21s WALL (       1 calls)
     forces       :      3.55s CPU      3.82s WALL (       1 calls)
     stress       :     14.21s CPU     14.61s WALL (       1 calls)

     Called by init_run:
     wfcinit      :      3.31s CPU      4.81s WALL (       1 calls)
     potinit      :      0.39s CPU      0.52s WALL (       1 calls)

     Called by electrons:
     c_bands      :    222.13s CPU    279.55s WALL (      21 calls)
     sum_band     :     37.25s CPU     45.72s WALL (      21 calls)
     v_of_rho     :      5.50s CPU      8.20s WALL (      22 calls)
     newd         :     19.17s CPU     19.52s WALL (      22 calls)
     mix_rho      :      0.26s CPU      0.40s WALL (      21 calls)
     vdW_energy   :      2.19s CPU      2.46s WALL (      58 calls)
     vdW_ffts     :      5.68s CPU     10.32s WALL (     118 calls)
     vdW_v        :      1.58s CPU      2.25s WALL (      58 calls)

     Called by c_bands:
     init_us_2    :      1.54s CPU      1.55s WALL (     900 calls)
     cegterg      :    207.18s CPU    264.24s WALL (     420 calls)

     Called by *egterg:
     h_psi        :     86.78s CPU    129.34s WALL (    2146 calls)
     s_psi        :     14.32s CPU     14.67s WALL (    2146 calls)
     g_psi        :      0.62s CPU      0.62s WALL (    1706 calls)
     cdiaghg      :     72.77s CPU     73.90s WALL (    2126 calls)

     Called by h_psi:
     add_vuspsi   :     15.96s CPU     16.30s WALL (    2146 calls)

     General routines
     calbec       :     22.66s CPU     25.46s WALL (    2606 calls)
     fft          :      8.47s CPU     15.41s WALL (    3555 calls)
     ffts         :      0.03s CPU      0.05s WALL (      43 calls)
     fftw         :     56.95s CPU    104.23s WALL (  284022 calls)
     interpolate  :      0.12s CPU      0.21s WALL (      43 calls)
     davcio       :      0.00s CPU      0.06s WALL (      20 calls)
 
     Parallel routines
     fft_scatter  :     42.17s CPU     95.51s WALL (  287620 calls)
 
     PWSCF        :  5m14.66s CPU     6m30.80s WALL

 
   This run was terminated on:  19:15:57  17Jan2018            

=------------------------------------------------------------------------------=
   JOB DONE.
=------------------------------------------------------------------------------=
Job  /afs/slac/g/suncat/bin/suncat-tsmpirun -x LD_LIBRARY_PATH -wdir /scratch/qe842464_xY79e pw.x -in pw.inp

TID   HOST_NAME   COMMAND_LINE            STATUS            TERMINATION_TIME
===== ========== ================  =======================  ===================
00000 suncat2041 pw.x -in pw.inp   Done                     01/17/2018 19:15:57
00001 suncat2041 pw.x -in pw.inp   Done                     01/17/2018 19:15:57
00002 suncat2041 pw.x -in pw.inp   Done                     01/17/2018 19:15:57
00003 suncat2041 pw.x -in pw.inp   Done                     01/17/2018 19:15:57
00004 suncat2041 pw.x -in pw.inp   Done                     01/17/2018 19:15:57
00005 suncat2041 pw.x -in pw.inp   Done                     01/17/2018 19:15:57
00006 suncat2041 pw.x -in pw.inp   Done                     01/17/2018 19:15:57
00007 suncat2041 pw.x -in pw.inp   Done                     01/17/2018 19:15:57
00008 suncat2041 pw.x -in pw.inp   Done                     01/17/2018 19:15:57
00009 suncat2041 pw.x -in pw.inp   Done                     01/17/2018 19:15:57
00010 suncat2041 pw.x -in pw.inp   Done                     01/17/2018 19:15:57
00011 suncat2041 pw.x -in pw.inp   Done                     01/17/2018 19:15:57
00012 suncat2041 pw.x -in pw.inp   Done                     01/17/2018 19:15:57
00013 suncat2041 pw.x -in pw.inp   Done                     01/17/2018 19:15:57
00014 suncat2041 pw.x -in pw.inp   Done                     01/17/2018 19:15:57
00015 suncat2041 pw.x -in pw.inp   Done                     01/17/2018 19:15:57
00016 suncat2040 pw.x -in pw.inp   Done                     01/17/2018 19:15:57
00017 suncat2040 pw.x -in pw.inp   Done                     01/17/2018 19:15:57
00018 suncat2040 pw.x -in pw.inp   Done                     01/17/2018 19:15:57
00019 suncat2040 pw.x -in pw.inp   Done                     01/17/2018 19:15:57
00020 suncat2040 pw.x -in pw.inp   Done                     01/17/2018 19:15:57
00021 suncat2040 pw.x -in pw.inp   Done                     01/17/2018 19:15:57
00022 suncat2040 pw.x -in pw.inp   Done                     01/17/2018 19:15:57
00023 suncat2040 pw.x -in pw.inp   Done                     01/17/2018 19:15:57
00024 suncat2040 pw.x -in pw.inp   Done                     01/17/2018 19:15:57
00025 suncat2040 pw.x -in pw.inp   Done                     01/17/2018 19:15:57
00026 suncat2040 pw.x -in pw.inp   Done                     01/17/2018 19:15:57
00027 suncat2040 pw.x -in pw.inp   Done                     01/17/2018 19:15:57
00028 suncat2040 pw.x -in pw.inp   Done                     01/17/2018 19:15:57
00029 suncat2040 pw.x -in pw.inp   Done                     01/17/2018 19:15:57
00030 suncat2040 pw.x -in pw.inp   Done                     01/17/2018 19:15:57
00031 suncat2040 pw.x -in pw.inp   Done                     01/17/2018 19:15:57
