  python dir    : /nfs/slac/g/suncatfs/mamunm/src/decaf-espresso/decaf
espresso dir  : /nfs/slac/g/suncatfs/sw/espv18/espresso-dynpy-beef/bin/pw.x
executable    : pam -g /afs/slac/g/suncat/bin/suncat-tsmpirun -x LD_LIBRARY_PATH -wdir /tmp/qe_7699309kq2jg5w_scratch pw.x -npool 3 -in pw.pwi

     Program PWSCF v.5.1rc2 (svn rev. 11289) starts on 12Jan2019 at  1:58:39 

     This program is part of the open-source Quantum ESPRESSO suite
     for quantum simulation of materials; please cite
         "P. Giannozzi et al., J. Phys.:Condens. Matter 21 395502 (2009);
          URL http://www.quantum-espresso.org", 
     in publications or presentations arising from this work. More details at
     http://www.quantum-espresso.org/quote

     Parallel version (MPI), running on    36 processors
     K-points division:     npool     =       3
     R & G space division:  proc/nbgrp/npool/nimage =      12
     Reading input from pw.pwi
Warning: card &CELL ignored
Warning: card / ignored

     Current dimensions of program PWSCF are:
     Max number of different atomic species (ntypx) = 10
     Max number of k-points (npk) =  40000
     Max angular momentum in pseudopotentials (lmaxx) =  3

     **************************************************************************
     Initializing libbeef V0.1.1 with the BEEF-vdW functional.
     Citation: Wellendorff et al., PRB 85, 235149 (2012).
     **************************************************************************


     IMPORTANT: XC functional enforced from input :
     Exchange-correlation      = BEEF-VDW ( 1  4 27 13 2)
     Any further DFT definition will be discarded
     Please, verify this is what you really want


     Subspace diagonalization in iterative solution of the eigenvalue problem:
     a serial algorithm will be used

 
     Parallelization info
     --------------------
     sticks:   dense  smooth     PW     G-vecs:    dense   smooth      PW
     Min         336     135     38                65970    16675    2539
     Max         337     136     40                65993    16704    2546
     Sum        4033    1627    463               791681   200291   30513
 


     bravais-lattice index     =            0
     lattice parameter (alat)  =      12.6383  a.u.
     unit-cell volume          =    6655.4372 (a.u.)^3
     number of atoms/cell      =           13
     number of atomic types    =            2
     number of electrons       =       162.00
     number of Kohn-Sham states=           91
     kinetic-energy cutoff     =      36.7493  Ry
     charge density cutoff     =     367.4933  Ry
     convergence threshold     =      1.0E-04
     mixing beta               =       0.2000
     number of iterations used =            8  plain     mixing
     Exchange-correlation      = BEEF-VDW ( 1  4 27 13 2)
     nstep                     =           50


     celldm(1)=  12.638304  celldm(2)=   0.000000  celldm(3)=   0.000000
     celldm(4)=   0.000000  celldm(5)=   0.000000  celldm(6)=   0.000000

     crystal axes: (cart. coord. in units of alat)
               a(1) = (   1.000000   0.000000   0.000000 )  
               a(2) = (   0.500000   0.866025   0.000000 )  
               a(3) = (   0.000000   0.000000   3.806971 )  

     reciprocal axes: (cart. coord. in units 2 pi/alat)
               b(1) = (  1.000000 -0.577350  0.000000 )  
               b(2) = (  0.000000  1.154701  0.000000 )  
               b(3) = (  0.000000  0.000000  0.262676 )  


     PseudoPot. # 1 for Tl read from file:
     /u/if/jboes/code/decaf-espresso/gbrv15pbe/Tl.UPF
     MD5 check sum: b76cf1f7e72655a2b2c53cf6385d7059
     Pseudo is Ultrasoft + core correction, Zval = 13.0
     Generated by new atomic code, or converted to UPF format
     Using radial grid of  899 points,  6 beta functions with: 
                l(1) =   0
                l(2) =   0
                l(3) =   1
                l(4) =   1
                l(5) =   2
                l(6) =   2
     Q(r) pseudized with  6 coefficients,  rinner =    1.100   1.100   1.100
                                                       1.100   1.100

     PseudoPot. # 2 for S  read from file:
     /u/if/jboes/code/decaf-espresso/gbrv15pbe/S.UPF
     MD5 check sum: 88d86576ff6df21479756cfb9bdac1df
     Pseudo is Ultrasoft + core correction, Zval =  6.0
     Generated by new atomic code, or converted to UPF format
     Using radial grid of  907 points,  6 beta functions with: 
                l(1) =   0
                l(2) =   0
                l(3) =   1
                l(4) =   1
                l(5) =   2
                l(6) =   2
     Q(r) pseudized with  8 coefficients,  rinner =    1.300   1.300   1.300
                                                       1.300   1.300

     vdW kernel table read from file vdW_kernel_table
     MD5 check sum: 095c7af220d748ca6e76c0b4c6cfb241

     atomic species   valence    mass     pseudopotential
        Tl            13.00   204.38000     Tl( 1.00)
        S              6.00    32.06000     S ( 1.00)

     No symmetry found



   Cartesian axes

     site n.     atom                  positions (alat units)
         1           Tl  tau(   1) = (   0.2500000   0.1443376   1.4952371  )
         2           Tl  tau(   2) = (   0.7500000   0.1443376   1.4952371  )
         3           Tl  tau(   3) = (   0.5000000   0.5773503   1.4952371  )
         4           Tl  tau(   4) = (   1.0000000   0.5773503   1.4952371  )
         5           Tl  tau(   5) = (   1.0000000   0.2886751   1.9034854  )
         6           Tl  tau(   6) = (   0.5000000   0.2886751   1.9034854  )
         7           Tl  tau(   7) = (   1.2500000   0.7216878   1.9034854  )
         8           Tl  tau(   8) = (   0.7500000   0.7216878   1.9034854  )
         9           Tl  tau(   9) = (   0.0000008   0.0000005   2.4083485  )
        10           Tl  tau(  10) = (   0.4999984  -0.0053770   2.3844082  )
        11           Tl  tau(  11) = (   0.2453516   0.4357005   2.3844025  )
        12           Tl  tau(  12) = (   0.7546511   0.4356961   2.3844138  )
        13           S   tau(  13) = (   0.4999981   0.2886735   2.6736577  )

     number of k points=    20  Fermi-Dirac smearing, width (Ry)=  0.0110
                       cart. coord. in units 2pi/alat
        k(    1) = (   0.0000000   0.0000000   0.0000000), wk =   0.0555556
        k(    2) = (   0.0000000   0.1924501   0.0000000), wk =   0.1111111
        k(    3) = (   0.0000000   0.3849002   0.0000000), wk =   0.1111111
        k(    4) = (   0.0000000  -0.5773503   0.0000000), wk =   0.0555556
        k(    5) = (   0.1666667  -0.0962250   0.0000000), wk =   0.1111111
        k(    6) = (   0.1666667   0.0962250   0.0000000), wk =   0.1111111
        k(    7) = (   0.1666667   0.2886751   0.0000000), wk =   0.1111111
        k(    8) = (   0.1666667  -0.6735753   0.0000000), wk =   0.1111111
        k(    9) = (   0.1666667  -0.4811252   0.0000000), wk =   0.1111111
        k(   10) = (   0.1666667  -0.2886751   0.0000000), wk =   0.1111111
        k(   11) = (   0.3333333  -0.1924501   0.0000000), wk =   0.1111111
        k(   12) = (   0.3333333  -0.0000000   0.0000000), wk =   0.1111111
        k(   13) = (   0.3333333   0.1924501   0.0000000), wk =   0.1111111
        k(   14) = (   0.3333333  -0.7698004   0.0000000), wk =   0.1111111
        k(   15) = (   0.3333333  -0.5773503   0.0000000), wk =   0.1111111
        k(   16) = (   0.3333333  -0.3849002   0.0000000), wk =   0.1111111
        k(   17) = (  -0.5000000   0.2886751   0.0000000), wk =   0.0555556
        k(   18) = (  -0.5000000   0.4811252   0.0000000), wk =   0.1111111
        k(   19) = (  -0.5000000   0.6735753   0.0000000), wk =   0.1111111
        k(   20) = (  -0.5000000  -0.2886751   0.0000000), wk =   0.0555556

     Dense  grid:   791681 G-vectors     FFT dimensions: (  80,  80, 300)

     Smooth grid:   200291 G-vectors     FFT dimensions: (  50,  50, 192)

     Largest allocated arrays     est. size (Mb)     dimensions
        Kohn-Sham Wavefunctions         2.96 Mb     (    2132,   91)
        NL pseudopotentials             7.61 Mb     (    2132,  234)
        Each V/rho on FFT grid          2.44 Mb     (  160000)
        Each G-vector array             0.50 Mb     (   65972)
        G-vector shells                 0.17 Mb     (   22904)
     Largest temporary arrays     est. size (Mb)     dimensions
        Auxiliary wavefunctions        11.84 Mb     (    2132,  364)
        Each subspace H/S matrix        2.02 Mb     (     364,  364)
        Each <psi_i|beta_j> matrix      0.32 Mb     (     234,   91)
        Arrays for rho mixing          19.53 Mb     (  160000,    8)

     Check: negative/imaginary core charge=   -0.000001    0.000000

     Initial potential from superposition of free atoms
     Check: negative starting charge=   -0.600304

     starting charge  161.94157, renormalised to  162.00000

     negative rho (up, down):  6.005E-01 0.000E+00


     ************************************************************************
     *
     * You are using vdW-DF for exchange-correlation in this calculation.
     * Please cite the following three references that made this development
     * possible:
     *
     *   M. Dion, H. Rydberg, E. Schroder, D. C. Langreth, and
     *   B. I. Lundqvist, Phys. Rev. Lett. 92, 246401 (2004).
     *
     *   T. Thonhauser, V. R. Cooper, S. Li, A. Puzder, P. Hyldgaard, and
     *   D. C. Langreth, Phys. Rev. B 76, 125112 (2007).
     *
     *   G. Roman-Perez and J. M. Soler, Phys. Rev. Lett. 103, 096102 (2009).
     *
     *
     * If you are using vdW-DF2, please also cite:
     *
     *   K. Lee, E. D. Murray, L. Kong, B. I. Lundqvist, and
     *   D. C. Langreth, Phys. Rev. B 82, 081101(R) (2010).
     *
     *
     * If you are calculating the stress with vdW-DF, please also cite:
     *
     *   R. Sabatini, E. Kucukbenli, B. Kolb, T. Thonhauser, and
     *   S. de Gironcoli, J. Phys.: Condens. Matter 24, 424209 (2012).
     *
     ************************************************************************

     Carrying out vdW-DF run using the following parameters:

     Nqs =      20    Nr_points =    1024   r_max =   100.000
     q_mesh =
               0.00001000     0.04494208     0.09755937     0.15916263
               0.23128650     0.31572767     0.41458969     0.53033537
               0.66584808     0.82450364     1.01025438     1.22772762
               1.48234092     1.78043706     2.12944203     2.53805004
               3.01644009     3.57652955     4.23227104     5.00000000

     Gradients computed in reciprocal space

     ************************************************************************


 
     Adding external electric field

     Computed dipole along edir(3) : 
        Dipole               -0.0200 Ry au,         -0.0509 Debye
        Dipole field         -0.0000 Ry au
 
        Potential amp.        0.0033 Ry
        Total length         43.3023 bohr
 
     Starting wfc are  112 randomized atomic wfcs

     total cpu time spent up to now is       15.6 secs

     per-process dynamical memory:    86.0 Mb

     Self-consistent Calculation

     iteration #  1     ecut=    36.75 Ry     beta=0.20
     Davidson diagonalization with overlap
     ethr =  1.00E-02,  avg # of iterations =  2.0

     Threshold (ethr) on eigenvalues was too large:
     Diagonalizing with lowered threshold

     Davidson diagonalization with overlap
     ethr =  3.97E-04,  avg # of iterations =  3.6

     negative rho (up, down):  6.049E-01 0.000E+00
 
     Adding external electric field

     Computed dipole along edir(3) : 
        Dipole               -1.4971 Ry au,         -3.8052 Debye
        Dipole field         -0.0028 Ry au
 
        Potential amp.        0.2448 Ry
        Total length         43.3023 bohr
 

     total cpu time spent up to now is       60.9 secs

     total energy              =   -1785.87409571 Ry
     Harris-Foulkes estimate   =   -1786.06596041 Ry
     estimated scf accuracy    <       0.61182878 Ry

     iteration #  2     ecut=    36.75 Ry     beta=0.20
     Davidson diagonalization with overlap
     ethr =  3.78E-04,  avg # of iterations =  5.8

     negative rho (up, down):  6.049E-01 0.000E+00
 
     Adding external electric field

     Computed dipole along edir(3) : 
        Dipole               -0.1885 Ry au,         -0.4792 Debye
        Dipole field         -0.0004 Ry au
 
        Potential amp.        0.0308 Ry
        Total length         43.3023 bohr
 

     total cpu time spent up to now is       90.3 secs

     total energy              =   -1785.66079177 Ry
     Harris-Foulkes estimate   =   -1786.17303832 Ry
     estimated scf accuracy    <       6.99752862 Ry

     iteration #  3     ecut=    36.75 Ry     beta=0.20
     Davidson diagonalization with overlap
     ethr =  3.78E-04,  avg # of iterations =  5.4

     negative rho (up, down):  6.090E-01 0.000E+00
 
     Adding external electric field

     Computed dipole along edir(3) : 
        Dipole               -0.5026 Ry au,         -1.2775 Debye
        Dipole field         -0.0009 Ry au
 
        Potential amp.        0.0822 Ry
        Total length         43.3023 bohr
 

     total cpu time spent up to now is      119.1 secs

     total energy              =   -1785.96646021 Ry
     Harris-Foulkes estimate   =   -1786.01024076 Ry
     estimated scf accuracy    <       0.67017231 Ry

     iteration #  4     ecut=    36.75 Ry     beta=0.20
     Davidson diagonalization with overlap
     ethr =  3.78E-04,  avg # of iterations =  1.1

     negative rho (up, down):  6.138E-01 0.000E+00
 
     Adding external electric field

     Computed dipole along edir(3) : 
        Dipole               -0.5898 Ry au,         -1.4992 Debye
        Dipole field         -0.0011 Ry au
 
        Potential amp.        0.0965 Ry
        Total length         43.3023 bohr
 

     total cpu time spent up to now is      143.3 secs

     total energy              =   -1785.97555494 Ry
     Harris-Foulkes estimate   =   -1785.98472515 Ry
     estimated scf accuracy    <       0.04339282 Ry

     iteration #  5     ecut=    36.75 Ry     beta=0.20
     Davidson diagonalization with overlap
     ethr =  2.68E-05,  avg # of iterations =  5.8

     negative rho (up, down):  6.190E-01 0.000E+00
 
     Adding external electric field

     Computed dipole along edir(3) : 
        Dipole               -0.5763 Ry au,         -1.4649 Debye
        Dipole field         -0.0011 Ry au
 
        Potential amp.        0.0942 Ry
        Total length         43.3023 bohr
 

     total cpu time spent up to now is      173.0 secs

     total energy              =   -1785.98033086 Ry
     Harris-Foulkes estimate   =   -1785.98134490 Ry
     estimated scf accuracy    <       0.00988056 Ry

     iteration #  6     ecut=    36.75 Ry     beta=0.20
     Davidson diagonalization with overlap
     ethr =  6.10E-06,  avg # of iterations =  2.0

     negative rho (up, down):  6.247E-01 0.000E+00
 
     Adding external electric field

     Computed dipole along edir(3) : 
        Dipole               -0.6419 Ry au,         -1.6315 Debye
        Dipole field         -0.0012 Ry au
 
        Potential amp.        0.1050 Ry
        Total length         43.3023 bohr
 

     total cpu time spent up to now is      198.0 secs

     total energy              =   -1785.98093049 Ry
     Harris-Foulkes estimate   =   -1785.98086360 Ry
     estimated scf accuracy    <       0.00250386 Ry

     iteration #  7     ecut=    36.75 Ry     beta=0.20
     Davidson diagonalization with overlap
     ethr =  1.55E-06,  avg # of iterations =  6.5

     negative rho (up, down):  6.243E-01 0.000E+00
 
     Adding external electric field

     Computed dipole along edir(3) : 
        Dipole               -0.6072 Ry au,         -1.5432 Debye
        Dipole field         -0.0011 Ry au
 
        Potential amp.        0.0993 Ry
        Total length         43.3023 bohr
 

     total cpu time spent up to now is      230.4 secs

     total energy              =   -1785.98096188 Ry
     Harris-Foulkes estimate   =   -1785.98172356 Ry
     estimated scf accuracy    <       0.00400609 Ry

     iteration #  8     ecut=    36.75 Ry     beta=0.20
     Davidson diagonalization with overlap
     ethr =  1.55E-06,  avg # of iterations =  4.0

     negative rho (up, down):  6.264E-01 0.000E+00
 
     Adding external electric field

     Computed dipole along edir(3) : 
        Dipole               -0.6397 Ry au,         -1.6260 Debye
        Dipole field         -0.0012 Ry au
 
        Potential amp.        0.1046 Ry
        Total length         43.3023 bohr
 

     total cpu time spent up to now is      257.7 secs

     total energy              =   -1785.98122335 Ry
     Harris-Foulkes estimate   =   -1785.98134460 Ry
     estimated scf accuracy    <       0.00111482 Ry

     iteration #  9     ecut=    36.75 Ry     beta=0.20
     Davidson diagonalization with overlap
     ethr =  6.88E-07,  avg # of iterations =  3.5

     negative rho (up, down):  6.261E-01 0.000E+00
 
     Adding external electric field

     Computed dipole along edir(3) : 
        Dipole               -0.6241 Ry au,         -1.5864 Debye
        Dipole field         -0.0012 Ry au
 
        Potential amp.        0.1021 Ry
        Total length         43.3023 bohr
 

     total cpu time spent up to now is      284.0 secs

     total energy              =   -1785.98136783 Ry
     Harris-Foulkes estimate   =   -1785.98150795 Ry
     estimated scf accuracy    <       0.00082499 Ry

     iteration # 10     ecut=    36.75 Ry     beta=0.20
     Davidson diagonalization with overlap
     ethr =  5.09E-07,  avg # of iterations =  2.1

     negative rho (up, down):  6.262E-01 0.000E+00
 
     Adding external electric field

     Computed dipole along edir(3) : 
        Dipole               -0.6012 Ry au,         -1.5282 Debye
        Dipole field         -0.0011 Ry au
 
        Potential amp.        0.0983 Ry
        Total length         43.3023 bohr
 

     total cpu time spent up to now is      309.1 secs

     End of self-consistent calculation

          k = 0.0000 0.0000 0.0000 ( 24957 PWs)   bands (ev):

   -11.7599 -11.5422 -11.5422 -11.5401 -11.4250 -11.4227 -11.4227 -11.3995
   -11.3964 -11.3964 -11.3874 -11.3874 -11.3863 -11.3473 -11.2825 -11.2252
   -11.2201 -11.2201 -11.1954 -11.1954 -11.1948 -11.1948 -11.1868 -11.1616
   -11.1616 -11.0912 -11.0912 -11.0855 -11.0723 -11.0723 -10.9191 -10.9191
   -10.8636 -10.8580 -10.8580 -10.8228 -10.8018 -10.8018 -10.7917 -10.7669
   -10.7669 -10.7506 -10.7506 -10.7230 -10.7230 -10.7007 -10.7002 -10.6620
   -10.6620 -10.6346 -10.6346 -10.6254 -10.6240 -10.6240 -10.5875 -10.5875
   -10.5862 -10.5205 -10.5204 -10.4473 -10.1835  -8.9804  -7.3626  -6.0889
    -4.3695  -4.3685  -4.3685  -3.9957  -3.9957  -3.8515  -3.4064  -3.4063
    -3.3463  -1.8485  -1.4395  -1.4395  -1.2573  -1.0002  -1.0001  -0.9403
    -0.3286  -0.3150  -0.3150   0.4524   0.4524   0.9755   2.1071   3.4283
     3.4976   3.4976   3.6372

          k = 0.0000 0.1925 0.0000 ( 25013 PWs)   bands (ev):

   -11.7404 -11.5241 -11.4990 -11.4976 -11.4039 -11.3977 -11.3848 -11.3834
   -11.3753 -11.3741 -11.3529 -11.3506 -11.3485 -11.3201 -11.2665 -11.2171
   -11.2130 -11.2092 -11.2011 -11.1892 -11.1825 -11.1694 -11.1623 -11.1583
   -11.1318 -11.1019 -11.0972 -11.0817 -11.0784 -11.0394 -10.9416 -10.9250
   -10.8761 -10.8705 -10.8596 -10.8391 -10.8195 -10.8167 -10.7972 -10.7837
   -10.7801 -10.7711 -10.7509 -10.7433 -10.7422 -10.7235 -10.7092 -10.6911
   -10.6752 -10.6671 -10.6667 -10.6589 -10.6474 -10.6444 -10.6240 -10.6190
   -10.6171 -10.5707 -10.5398 -10.4835 -10.1464  -8.8392  -7.2642  -5.9953
    -5.4168  -4.6922  -4.6826  -4.4773  -4.0459  -3.9141  -3.4662  -3.2958
    -3.2691  -1.6099  -1.1378  -1.0984  -0.9272  -0.8853  -0.7690  -0.6262
     0.0693   0.1845   0.4679   0.6632   0.8916   1.2136   2.3500   2.7490
     3.3386   3.4305   3.5973

          k = 0.0000 0.3849 0.0000 ( 25069 PWs)   bands (ev):

   -11.6990 -11.4767 -11.3932 -11.3916 -11.3721 -11.3665 -11.3431 -11.3305
   -11.3261 -11.2841 -11.2705 -11.2648 -11.2621 -11.2468 -11.2374 -11.2229
   -11.1929 -11.1890 -11.1802 -11.1667 -11.1548 -11.1370 -11.1327 -11.1120
   -11.1092 -11.0801 -11.0633 -11.0572 -11.0522 -10.9975 -10.9513 -10.9248
   -10.9170 -10.9141 -10.9084 -10.8939 -10.8690 -10.8450 -10.8433 -10.8292
   -10.8239 -10.8035 -10.7993 -10.7860 -10.7848 -10.7618 -10.7618 -10.7577
   -10.7472 -10.7456 -10.7364 -10.7225 -10.7117 -10.6963 -10.6828 -10.6612
   -10.6462 -10.6400 -10.6158 -10.5282 -10.0809  -8.4121  -6.9685  -6.6671
    -5.7346  -5.4383  -5.0503  -5.0333  -4.3070  -4.2642  -4.0863  -3.2546
    -3.2232  -1.2914  -0.5749  -0.5734  -0.4254  -0.2613  -0.0629   0.7061
     0.8565   1.0701   1.2588   1.3314   1.4945   2.0304   2.5266   2.9129
     3.0822   3.3980   3.6216

          k = 0.0000-0.5774 0.0000 ( 25090 PWs)   bands (ev):

   -11.6766 -11.4183 -11.4106 -11.3474 -11.3180 -11.3103 -11.3025 -11.3024
   -11.2921 -11.2844 -11.2458 -11.2425 -11.2149 -11.1947 -11.1911 -11.1751
   -11.1692 -11.1669 -11.1573 -11.1488 -11.1307 -11.1168 -11.1156 -11.0912
   -11.0902 -11.0506 -11.0418 -11.0255 -10.9968 -10.9919 -10.9864 -10.9835
   -10.9342 -10.9255 -10.9098 -10.8978 -10.8948 -10.8782 -10.8748 -10.8667
   -10.8588 -10.8571 -10.8482 -10.8463 -10.8311 -10.8064 -10.8032 -10.7959
   -10.7891 -10.7823 -10.7581 -10.7553 -10.7504 -10.7215 -10.7085 -10.7034
   -10.6625 -10.6455 -10.6428 -10.5358 -10.0504  -7.7056  -7.6751  -6.5735
    -6.1699  -5.1813  -5.1778  -5.1688  -5.0243  -4.3631  -4.1694  -3.2822
    -3.2453  -1.1558  -0.5074  -0.4237   0.3344   0.4447   0.6585   0.7153
     0.9789   1.2131   1.5736   1.8342   2.1952   2.4367   2.4561   2.9610
     3.3943   3.4609   3.5997

          k = 0.1667-0.0962 0.0000 ( 25013 PWs)   bands (ev):

   -11.7404 -11.5241 -11.4990 -11.4976 -11.4039 -11.3977 -11.3848 -11.3834
   -11.3753 -11.3741 -11.3529 -11.3506 -11.3485 -11.3201 -11.2665 -11.2171
   -11.2130 -11.2092 -11.2011 -11.1892 -11.1825 -11.1694 -11.1623 -11.1583
   -11.1318 -11.1019 -11.0972 -11.0817 -11.0784 -11.0394 -10.9416 -10.9250
   -10.8761 -10.8705 -10.8595 -10.8391 -10.8195 -10.8167 -10.7972 -10.7837
   -10.7801 -10.7711 -10.7509 -10.7433 -10.7422 -10.7235 -10.7092 -10.6911
   -10.6752 -10.6671 -10.6667 -10.6589 -10.6474 -10.6443 -10.6240 -10.6190
   -10.6171 -10.5707 -10.5398 -10.4835 -10.1464  -8.8392  -7.2642  -5.9953
    -5.4168  -4.6922  -4.6826  -4.4773  -4.0459  -3.9141  -3.4662  -3.2958
    -3.2691  -1.6099  -1.1378  -1.0984  -0.9272  -0.8853  -0.7690  -0.6262
     0.0693   0.1846   0.4679   0.6632   0.8916   1.2136   2.3500   2.7490
     3.3386   3.4305   3.5973

          k = 0.1667 0.0962 0.0000 ( 25013 PWs)   bands (ev):

   -11.7404 -11.5241 -11.4990 -11.4976 -11.4039 -11.3977 -11.3848 -11.3834
   -11.3753 -11.3741 -11.3529 -11.3506 -11.3485 -11.3201 -11.2665 -11.2171
   -11.2130 -11.2092 -11.2011 -11.1892 -11.1825 -11.1694 -11.1623 -11.1583
   -11.1318 -11.1019 -11.0972 -11.0817 -11.0784 -11.0394 -10.9416 -10.9250
   -10.8761 -10.8705 -10.8595 -10.8391 -10.8195 -10.8167 -10.7972 -10.7837
   -10.7801 -10.7711 -10.7509 -10.7433 -10.7422 -10.7235 -10.7092 -10.6911
   -10.6752 -10.6671 -10.6667 -10.6589 -10.6474 -10.6443 -10.6240 -10.6190
   -10.6171 -10.5707 -10.5398 -10.4835 -10.1464  -8.8392  -7.2642  -5.9953
    -5.4168  -4.6922  -4.6826  -4.4773  -4.0458  -3.9141  -3.4662  -3.2958
    -3.2691  -1.6099  -1.1378  -1.0984  -0.9272  -0.8853  -0.7690  -0.6262
     0.0693   0.1846   0.4679   0.6632   0.8916   1.2136   2.3500   2.7490
     3.3386   3.4305   3.5973

          k = 0.1667 0.2887 0.0000 ( 25022 PWs)   bands (ev):

   -11.7095 -11.4667 -11.4660 -11.4054 -11.3601 -11.3576 -11.3549 -11.3460
   -11.3422 -11.3273 -11.2970 -11.2933 -11.2721 -11.2625 -11.2549 -11.2050
   -11.1988 -11.1974 -11.1897 -11.1802 -11.1790 -11.1589 -11.1282 -11.1170
   -11.0979 -11.0894 -11.0819 -11.0804 -11.0732 -10.9818 -10.9708 -10.9457
   -10.9050 -10.8969 -10.8864 -10.8658 -10.8640 -10.8310 -10.8209 -10.8151
   -10.8081 -10.7983 -10.7817 -10.7762 -10.7737 -10.7570 -10.7412 -10.7333
   -10.7211 -10.7187 -10.7054 -10.6958 -10.6841 -10.6771 -10.6683 -10.6647
   -10.6589 -10.6490 -10.5626 -10.5401 -10.0963  -8.5548  -7.0636  -5.9760
    -5.9631  -5.7906  -4.9921  -4.8148  -4.0759  -3.7956  -3.7697  -3.6954
    -3.2055  -1.4272  -0.8702  -0.6816  -0.5499  -0.3140   0.1161   0.1544
     0.3110   0.7375   1.1277   1.2722   1.6637   1.7740   2.5074   2.7247
     2.8366   3.2123   3.7268

          k = 0.1667-0.6736 0.0000 ( 25036 PWs)   bands (ev):

   -11.6761 -11.4118 -11.3595 -11.3555 -11.3308 -11.3209 -11.2949 -11.2896
   -11.2843 -11.2588 -11.2519 -11.2417 -11.2347 -11.2106 -11.2072 -11.1976
   -11.1796 -11.1712 -11.1534 -11.1461 -11.1365 -11.1189 -11.1155 -11.0817
   -11.0780 -11.0589 -11.0522 -11.0407 -11.0264 -11.0101 -10.9915 -10.9708
   -10.9485 -10.9354 -10.9249 -10.9139 -10.9001 -10.8854 -10.8773 -10.8545
   -10.8420 -10.8380 -10.8299 -10.8219 -10.8123 -10.7978 -10.7928 -10.7872
   -10.7717 -10.7639 -10.7546 -10.7501 -10.7362 -10.7285 -10.7138 -10.6831
   -10.6769 -10.6676 -10.6413 -10.5644 -10.0498  -7.9790  -7.1111  -6.6502
    -6.2503  -5.8737  -5.3682  -5.0880  -4.6229  -4.0463  -3.9749  -3.5277
    -3.0142  -1.1883  -0.5541  -0.4996  -0.1358   0.2459   0.6895   0.9203
     1.1946   1.3633   1.5705   1.8823   2.0803   2.1970   2.6052   2.8521
     2.9454   3.2168   3.5412

          k = 0.1667-0.4811 0.0000 ( 25036 PWs)   bands (ev):

   -11.6761 -11.4118 -11.3595 -11.3555 -11.3308 -11.3209 -11.2949 -11.2896
   -11.2843 -11.2588 -11.2519 -11.2417 -11.2347 -11.2106 -11.2072 -11.1976
   -11.1795 -11.1712 -11.1534 -11.1461 -11.1365 -11.1189 -11.1156 -11.0817
   -11.0780 -11.0589 -11.0522 -11.0407 -11.0264 -11.0101 -10.9915 -10.9708
   -10.9485 -10.9354 -10.9249 -10.9139 -10.9001 -10.8854 -10.8773 -10.8545
   -10.8420 -10.8380 -10.8299 -10.8219 -10.8123 -10.7978 -10.7928 -10.7872
   -10.7717 -10.7639 -10.7546 -10.7501 -10.7362 -10.7285 -10.7138 -10.6831
   -10.6769 -10.6676 -10.6413 -10.5644 -10.0498  -7.9790  -7.1111  -6.6502
    -6.2503  -5.8737  -5.3682  -5.0880  -4.6229  -4.0463  -3.9749  -3.5277
    -3.0142  -1.1883  -0.5541  -0.4996  -0.1358   0.2459   0.6896   0.9203
     1.1946   1.3633   1.5705   1.8823   2.0803   2.1970   2.6052   2.8521
     2.9454   3.2168   3.5412

          k = 0.1667-0.2887 0.0000 ( 25022 PWs)   bands (ev):

   -11.7095 -11.4666 -11.4660 -11.4054 -11.3601 -11.3576 -11.3549 -11.3460
   -11.3422 -11.3273 -11.2970 -11.2933 -11.2721 -11.2625 -11.2549 -11.2050
   -11.1988 -11.1974 -11.1897 -11.1802 -11.1790 -11.1588 -11.1282 -11.1170
   -11.0979 -11.0894 -11.0819 -11.0804 -11.0733 -10.9818 -10.9708 -10.9457
   -10.9050 -10.8969 -10.8864 -10.8658 -10.8640 -10.8310 -10.8209 -10.8151
   -10.8081 -10.7983 -10.7817 -10.7762 -10.7737 -10.7570 -10.7412 -10.7333
   -10.7211 -10.7187 -10.7054 -10.6958 -10.6841 -10.6771 -10.6683 -10.6647
   -10.6589 -10.6490 -10.5626 -10.5401 -10.0963  -8.5548  -7.0636  -5.9761
    -5.9631  -5.7906  -4.9921  -4.8148  -4.0759  -3.7956  -3.7697  -3.6954
    -3.2055  -1.4272  -0.8702  -0.6817  -0.5499  -0.3140   0.1161   0.1544
     0.3110   0.7375   1.1277   1.2722   1.6637   1.7740   2.5074   2.7247
     2.8366   3.2123   3.7268

          k = 0.3333-0.1925 0.0000 ( 25069 PWs)   bands (ev):

   -11.6990 -11.4767 -11.3932 -11.3916 -11.3720 -11.3665 -11.3431 -11.3305
   -11.3261 -11.2841 -11.2705 -11.2648 -11.2621 -11.2468 -11.2374 -11.2229
   -11.1929 -11.1890 -11.1802 -11.1667 -11.1548 -11.1370 -11.1327 -11.1120
   -11.1092 -11.0801 -11.0633 -11.0572 -11.0522 -10.9975 -10.9513 -10.9248
   -10.9170 -10.9141 -10.9084 -10.8939 -10.8690 -10.8450 -10.8434 -10.8292
   -10.8239 -10.8035 -10.7993 -10.7860 -10.7848 -10.7618 -10.7618 -10.7577
   -10.7473 -10.7456 -10.7364 -10.7225 -10.7117 -10.6963 -10.6828 -10.6612
   -10.6461 -10.6400 -10.6158 -10.5282 -10.0809  -8.4121  -6.9685  -6.6671
    -5.7346  -5.4383  -5.0503  -5.0333  -4.3070  -4.2642  -4.0863  -3.2546
    -3.2232  -1.2914  -0.5750  -0.5734  -0.4254  -0.2613  -0.0629   0.7061
     0.8566   1.0701   1.2588   1.3314   1.4945   2.0304   2.5266   2.9129
     3.0822   3.3980   3.6216

          k = 0.3333-0.0000 0.0000 ( 25022 PWs)   bands (ev):

   -11.7095 -11.4666 -11.4660 -11.4054 -11.3601 -11.3576 -11.3549 -11.3460
   -11.3422 -11.3273 -11.2970 -11.2933 -11.2721 -11.2625 -11.2549 -11.2050
   -11.1988 -11.1974 -11.1897 -11.1802 -11.1790 -11.1589 -11.1282 -11.1170
   -11.0979 -11.0894 -11.0819 -11.0804 -11.0733 -10.9818 -10.9708 -10.9457
   -10.9050 -10.8969 -10.8864 -10.8658 -10.8640 -10.8309 -10.8209 -10.8151
   -10.8081 -10.7983 -10.7817 -10.7762 -10.7737 -10.7570 -10.7412 -10.7333
   -10.7211 -10.7187 -10.7054 -10.6958 -10.6841 -10.6771 -10.6683 -10.6647
   -10.6589 -10.6490 -10.5626 -10.5401 -10.0963  -8.5548  -7.0636  -5.9761
    -5.9631  -5.7906  -4.9921  -4.8148  -4.0759  -3.7956  -3.7696  -3.6954
    -3.2055  -1.4272  -0.8702  -0.6816  -0.5499  -0.3140   0.1161   0.1544
     0.3110   0.7376   1.1277   1.2722   1.6637   1.7740   2.5074   2.7248
     2.8366   3.2123   3.7268

          k = 0.3333 0.1925 0.0000 ( 25069 PWs)   bands (ev):

   -11.6990 -11.4767 -11.3932 -11.3916 -11.3720 -11.3665 -11.3431 -11.3305
   -11.3261 -11.2841 -11.2705 -11.2648 -11.2621 -11.2468 -11.2374 -11.2229
   -11.1929 -11.1890 -11.1802 -11.1667 -11.1548 -11.1370 -11.1327 -11.1120
   -11.1092 -11.0801 -11.0633 -11.0572 -11.0522 -10.9975 -10.9513 -10.9248
   -10.9170 -10.9141 -10.9084 -10.8939 -10.8690 -10.8450 -10.8434 -10.8292
   -10.8239 -10.8035 -10.7993 -10.7860 -10.7848 -10.7618 -10.7618 -10.7577
   -10.7473 -10.7456 -10.7364 -10.7225 -10.7117 -10.6963 -10.6828 -10.6612
   -10.6461 -10.6400 -10.6158 -10.5282 -10.0809  -8.4121  -6.9685  -6.6671
    -5.7346  -5.4383  -5.0503  -5.0333  -4.3070  -4.2642  -4.0863  -3.2546
    -3.2232  -1.2914  -0.5749  -0.5734  -0.4254  -0.2613  -0.0630   0.7061
     0.8565   1.0701   1.2588   1.3314   1.4945   2.0303   2.5266   2.9129
     3.0822   3.3980   3.6216

          k = 0.3333-0.7698 0.0000 ( 25036 PWs)   bands (ev):

   -11.6761 -11.4118 -11.3595 -11.3555 -11.3308 -11.3209 -11.2949 -11.2896
   -11.2843 -11.2588 -11.2519 -11.2417 -11.2347 -11.2106 -11.2072 -11.1976
   -11.1796 -11.1712 -11.1534 -11.1461 -11.1365 -11.1189 -11.1155 -11.0817
   -11.0780 -11.0589 -11.0522 -11.0407 -11.0264 -11.0101 -10.9915 -10.9708
   -10.9485 -10.9354 -10.9249 -10.9139 -10.9001 -10.8854 -10.8773 -10.8545
   -10.8420 -10.8380 -10.8300 -10.8219 -10.8123 -10.7978 -10.7928 -10.7872
   -10.7717 -10.7639 -10.7546 -10.7501 -10.7362 -10.7285 -10.7138 -10.6831
   -10.6769 -10.6676 -10.6413 -10.5644 -10.0498  -7.9790  -7.1111  -6.6502
    -6.2503  -5.8738  -5.3682  -5.0880  -4.6229  -4.0463  -3.9749  -3.5277
    -3.0142  -1.1883  -0.5541  -0.4996  -0.1358   0.2459   0.6895   0.9203
     1.1946   1.3633   1.5705   1.8823   2.0803   2.1970   2.6052   2.8521
     2.9454   3.2168   3.5412

          k = 0.3333-0.5774 0.0000 ( 25044 PWs)   bands (ev):

   -11.6639 -11.3315 -11.3297 -11.3261 -11.3107 -11.2784 -11.2782 -11.2762
   -11.2639 -11.2610 -11.2453 -11.2378 -11.2219 -11.2085 -11.2061 -11.2018
   -11.1568 -11.1552 -11.1333 -11.1252 -11.1239 -11.0949 -11.0780 -11.0770
   -11.0722 -11.0572 -11.0504 -11.0423 -11.0169 -11.0138 -10.9935 -10.9852
   -10.9824 -10.9781 -10.9724 -10.9542 -10.9522 -10.9010 -10.8961 -10.8784
   -10.8625 -10.8464 -10.8363 -10.8212 -10.8173 -10.7888 -10.7860 -10.7796
   -10.7780 -10.7679 -10.7547 -10.7505 -10.7493 -10.7421 -10.7325 -10.7249
   -10.6893 -10.6681 -10.6508 -10.6221 -10.0341  -7.2753  -7.2507  -7.2316
    -6.1780  -6.1623  -5.6844  -4.8137  -4.8051  -4.6175  -3.2887  -3.2856
    -3.2547  -1.0999  -0.5701  -0.5506   0.2878   0.6458   0.6538   0.8412
     1.0214   1.1000   1.9630   2.0312   2.1815   2.6115   2.7403   3.0570
     3.4972   3.4973   3.8203

          k = 0.3333-0.3849 0.0000 ( 25036 PWs)   bands (ev):

   -11.6761 -11.4118 -11.3595 -11.3555 -11.3308 -11.3209 -11.2949 -11.2896
   -11.2843 -11.2588 -11.2519 -11.2417 -11.2347 -11.2106 -11.2072 -11.1976
   -11.1795 -11.1712 -11.1534 -11.1461 -11.1365 -11.1189 -11.1156 -11.0817
   -11.0780 -11.0589 -11.0522 -11.0407 -11.0264 -11.0101 -10.9915 -10.9708
   -10.9485 -10.9354 -10.9249 -10.9139 -10.9001 -10.8854 -10.8773 -10.8545
   -10.8420 -10.8380 -10.8299 -10.8219 -10.8123 -10.7978 -10.7928 -10.7872
   -10.7717 -10.7639 -10.7546 -10.7501 -10.7362 -10.7285 -10.7138 -10.6831
   -10.6769 -10.6676 -10.6413 -10.5644 -10.0498  -7.9790  -7.1111  -6.6502
    -6.2503  -5.8737  -5.3682  -5.0880  -4.6229  -4.0463  -3.9749  -3.5277
    -3.0142  -1.1883  -0.5541  -0.4996  -0.1357   0.2459   0.6896   0.9203
     1.1946   1.3633   1.5705   1.8823   2.0803   2.1970   2.6052   2.8521
     2.9454   3.2168   3.5412

          k =-0.5000 0.2887 0.0000 ( 25090 PWs)   bands (ev):

   -11.6766 -11.4183 -11.4106 -11.3474 -11.3180 -11.3103 -11.3025 -11.3024
   -11.2921 -11.2844 -11.2458 -11.2425 -11.2149 -11.1947 -11.1911 -11.1751
   -11.1692 -11.1669 -11.1573 -11.1488 -11.1307 -11.1168 -11.1156 -11.0912
   -11.0902 -11.0506 -11.0419 -11.0255 -10.9968 -10.9919 -10.9864 -10.9835
   -10.9342 -10.9255 -10.9097 -10.8978 -10.8948 -10.8782 -10.8748 -10.8667
   -10.8588 -10.8571 -10.8482 -10.8463 -10.8311 -10.8064 -10.8032 -10.7959
   -10.7891 -10.7823 -10.7581 -10.7553 -10.7504 -10.7215 -10.7085 -10.7034
   -10.6625 -10.6454 -10.6428 -10.5358 -10.0504  -7.7056  -7.6751  -6.5734
    -6.1699  -5.1813  -5.1778  -5.1688  -5.0243  -4.3631  -4.1694  -3.2822
    -3.2453  -1.1557  -0.5075  -0.4237   0.3344   0.4447   0.6585   0.7153
     0.9790   1.2131   1.5736   1.8342   2.1952   2.4367   2.4561   2.9610
     3.3943   3.4609   3.5997

          k =-0.5000 0.4811 0.0000 ( 25036 PWs)   bands (ev):

   -11.6761 -11.4118 -11.3595 -11.3555 -11.3308 -11.3209 -11.2949 -11.2896
   -11.2843 -11.2588 -11.2519 -11.2417 -11.2347 -11.2106 -11.2072 -11.1976
   -11.1796 -11.1712 -11.1534 -11.1461 -11.1365 -11.1189 -11.1156 -11.0817
   -11.0780 -11.0589 -11.0522 -11.0407 -11.0264 -11.0102 -10.9915 -10.9708
   -10.9485 -10.9354 -10.9249 -10.9139 -10.9001 -10.8854 -10.8773 -10.8544
   -10.8420 -10.8380 -10.8300 -10.8219 -10.8123 -10.7978 -10.7928 -10.7872
   -10.7717 -10.7639 -10.7546 -10.7501 -10.7362 -10.7285 -10.7138 -10.6831
   -10.6769 -10.6676 -10.6413 -10.5644 -10.0498  -7.9790  -7.1111  -6.6502
    -6.2503  -5.8738  -5.3682  -5.0880  -4.6229  -4.0463  -3.9749  -3.5277
    -3.0142  -1.1883  -0.5541  -0.4996  -0.1357   0.2459   0.6896   0.9203
     1.1946   1.3633   1.5705   1.8823   2.0803   2.1970   2.6052   2.8521
     2.9454   3.2168   3.5412

          k =-0.5000 0.6736 0.0000 ( 25036 PWs)   bands (ev):

   -11.6761 -11.4118 -11.3595 -11.3555 -11.3308 -11.3209 -11.2949 -11.2896
   -11.2843 -11.2588 -11.2519 -11.2417 -11.2347 -11.2106 -11.2072 -11.1976
   -11.1796 -11.1712 -11.1534 -11.1461 -11.1366 -11.1189 -11.1156 -11.0817
   -11.0780 -11.0589 -11.0522 -11.0407 -11.0264 -11.0101 -10.9915 -10.9708
   -10.9485 -10.9354 -10.9249 -10.9139 -10.9001 -10.8854 -10.8773 -10.8545
   -10.8420 -10.8380 -10.8300 -10.8219 -10.8123 -10.7978 -10.7928 -10.7872
   -10.7717 -10.7639 -10.7546 -10.7501 -10.7362 -10.7285 -10.7138 -10.6831
   -10.6769 -10.6676 -10.6413 -10.5644 -10.0498  -7.9790  -7.1111  -6.6502
    -6.2503  -5.8738  -5.3682  -5.0880  -4.6229  -4.0463  -3.9749  -3.5277
    -3.0142  -1.1883  -0.5541  -0.4996  -0.1358   0.2459   0.6896   0.9203
     1.1946   1.3633   1.5705   1.8823   2.0803   2.1970   2.6052   2.8521
     2.9454   3.2168   3.5412

          k =-0.5000-0.2887 0.0000 ( 25090 PWs)   bands (ev):

   -11.6766 -11.4183 -11.4106 -11.3474 -11.3180 -11.3103 -11.3025 -11.3024
   -11.2921 -11.2844 -11.2458 -11.2425 -11.2149 -11.1947 -11.1911 -11.1751
   -11.1692 -11.1669 -11.1573 -11.1488 -11.1307 -11.1168 -11.1156 -11.0912
   -11.0902 -11.0506 -11.0419 -11.0255 -10.9968 -10.9919 -10.9864 -10.9835
   -10.9342 -10.9255 -10.9098 -10.8978 -10.8948 -10.8782 -10.8748 -10.8667
   -10.8588 -10.8571 -10.8482 -10.8463 -10.8311 -10.8064 -10.8032 -10.7959
   -10.7891 -10.7823 -10.7581 -10.7553 -10.7504 -10.7215 -10.7085 -10.7034
   -10.6625 -10.6454 -10.6428 -10.5358 -10.0504  -7.7056  -7.6751  -6.5734
    -6.1699  -5.1813  -5.1778  -5.1688  -5.0243  -4.3631  -4.1694  -3.2822
    -3.2453  -1.1558  -0.5075  -0.4237   0.3344   0.4447   0.6585   0.7153
     0.9790   1.2131   1.5736   1.8342   2.1953   2.4367   2.4561   2.9609
     3.3943   3.4609   3.5997

     the Fermi energy is     0.8662 ev

!    total energy              =   -1785.98141218 Ry
     Harris-Foulkes estimate   =   -1785.98147381 Ry
     estimated scf accuracy    <       0.00002120 Ry

     The total energy is the sum of the following terms:

     one-electron contribution =   -8203.95114189 Ry
     hartree contribution      =    4185.71674540 Ry
     xc contribution           =    -777.07477839 Ry
     ewald contribution        =    3009.37008231 Ry
     electric field correction =       0.00068251 Ry
     smearing contrib. (-TS)   =      -0.04300214 Ry

     convergence has been achieved in  10 iterations

     Forces acting on atoms (Ry/au):


     negative rho (up, down):  6.262E-01 0.000E+00
     atom    1 type  1   force =     0.00098128    0.00053397   -0.02068385
     atom    2 type  1   force =    -0.00096741    0.00055098   -0.02067940
     atom    3 type  1   force =     0.00000729   -0.00110963   -0.02066878
     atom    4 type  1   force =     0.00001528   -0.00001575   -0.01998910
     atom    5 type  1   force =    -0.00002288   -0.00403852    0.02287853
     atom    6 type  1   force =    -0.00000485    0.00000475    0.02661614
     atom    7 type  1   force =     0.00350523    0.00202478    0.02288060
     atom    8 type  1   force =    -0.00349563    0.00201803    0.02288397
     atom    9 type  1   force =     0.00000033    0.00000824   -0.00363411
     atom   10 type  1   force =    -0.00000724   -0.00109360   -0.00308358
     atom   11 type  1   force =    -0.00099912    0.00056564   -0.00312545
     atom   12 type  1   force =     0.00099819    0.00055138   -0.00309437
     atom   13 type  2   force =    -0.00001048   -0.00000028   -0.00030060

     Total force =     0.006780     Total SCF correction =     0.009242
     SCF correction compared to forces is large: reduce conv_thr to get better values

     BFGS Geometry Optimization

     number of scf cycles    =   1
     number of bfgs steps    =   0

     energy   new            =   -1785.9814121805 Ry

     new trust radius        =       0.0036341149 bohr
     new conv_thr            =       0.0001000000 Ry


ATOMIC_POSITIONS (angstrom)
Tl       1.671975640   0.965315586  10.000000000    0   0   0
Tl       5.015926920   0.965315586  10.000000000    0   0   0
Tl       3.343951280   3.861262344  10.000000000    0   0   0
Tl       6.687902560   3.861262344  10.000000000    0   0   0
Tl       6.687902560   1.930631172  12.730324787    0   0   0
Tl       3.343951280   1.930631172  12.730324787    0   0   0
Tl       8.359878201   4.826577929  12.730324787    0   0   0
Tl       5.015926920   4.826577929  12.730324787    0   0   0
Tl       0.000005436   0.000007860  16.104877329
Tl       3.343937022  -0.036539242  15.945057959
Tl       1.640358992   2.914222117  15.944997889
Tl       5.047561153   2.914184873  15.945089882
S        3.343933209   1.930619976  17.881002795



     Writing output data file calc.save
     Check: negative starting charge=   -0.600304
     NEW-OLD atomic charge density approx. for the potential

     Check: negative/imaginary core charge=   -0.000001    0.000000
     Check: negative starting charge=   -0.600338

     negative rho (up, down):  6.262E-01 0.000E+00
 
     Adding external electric field

     Computed dipole along edir(3) : 
        Dipole               -0.6013 Ry au,         -1.5283 Debye
        Dipole field         -0.0011 Ry au
 
        Potential amp.        0.0983 Ry
        Total length         43.3023 bohr
 

     total cpu time spent up to now is      338.7 secs

     per-process dynamical memory:    84.6 Mb

     Self-consistent Calculation

     iteration #  1     ecut=    36.75 Ry     beta=0.20
     Davidson diagonalization with overlap
     ethr =  1.00E-06,  avg # of iterations =  3.3

     negative rho (up, down):  6.262E-01 0.000E+00
 
     Adding external electric field

     Computed dipole along edir(3) : 
        Dipole               -0.7103 Ry au,         -1.8054 Debye
        Dipole field         -0.0013 Ry au
 
        Potential amp.        0.1162 Ry
        Total length         43.3023 bohr
 

     total cpu time spent up to now is      369.4 secs

     total energy              =   -1785.98084422 Ry
     Harris-Foulkes estimate   =   -1785.98125422 Ry
     estimated scf accuracy    <       0.00191681 Ry

     iteration #  2     ecut=    36.75 Ry     beta=0.20
     Davidson diagonalization with overlap
     ethr =  1.18E-06,  avg # of iterations =  6.0

     negative rho (up, down):  6.262E-01 0.000E+00
 
     Adding external electric field

     Computed dipole along edir(3) : 
        Dipole               -0.6182 Ry au,         -1.5713 Debye
        Dipole field         -0.0012 Ry au
 
        Potential amp.        0.1011 Ry
        Total length         43.3023 bohr
 

     total cpu time spent up to now is      399.3 secs

     total energy              =   -1785.97983738 Ry
     Harris-Foulkes estimate   =   -1785.98320015 Ry
     estimated scf accuracy    <       0.05271158 Ry

     iteration #  3     ecut=    36.75 Ry     beta=0.20
     Davidson diagonalization with overlap
     ethr =  1.18E-06,  avg # of iterations =  5.7

     negative rho (up, down):  6.262E-01 0.000E+00
 
     Adding external electric field

     Computed dipole along edir(3) : 
        Dipole               -0.6217 Ry au,         -1.5803 Debye
        Dipole field         -0.0012 Ry au
 
        Potential amp.        0.1017 Ry
        Total length         43.3023 bohr
 

     total cpu time spent up to now is      428.4 secs

     total energy              =   -1785.98141964 Ry
     Harris-Foulkes estimate   =   -1785.98144070 Ry
     estimated scf accuracy    <       0.00020056 Ry

     iteration #  4     ecut=    36.75 Ry     beta=0.20
     Davidson diagonalization with overlap
     ethr =  1.24E-07,  avg # of iterations =  3.3

     negative rho (up, down):  6.263E-01 0.000E+00
 
     Adding external electric field

     Computed dipole along edir(3) : 
        Dipole               -0.6273 Ry au,         -1.5944 Debye
        Dipole field         -0.0012 Ry au
 
        Potential amp.        0.1026 Ry
        Total length         43.3023 bohr
 

     total cpu time spent up to now is      455.1 secs

     End of self-consistent calculation

          k = 0.0000 0.0000 0.0000 ( 24957 PWs)   bands (ev):

   -11.7641 -11.5496 -11.5496 -11.5473 -11.4312 -11.4293 -11.4293 -11.4071
   -11.4050 -11.4050 -11.3945 -11.3945 -11.3935 -11.3529 -11.2906 -11.2324
   -11.2277 -11.2277 -11.2008 -11.2008 -11.2000 -11.2000 -11.1933 -11.1722
   -11.1722 -11.0981 -11.0981 -11.0922 -11.0791 -11.0791 -10.9260 -10.9260
   -10.8693 -10.8647 -10.8647 -10.8292 -10.8081 -10.8081 -10.7988 -10.7742
   -10.7741 -10.7585 -10.7585 -10.7308 -10.7308 -10.7085 -10.7074 -10.6686
   -10.6685 -10.6401 -10.6401 -10.6309 -10.6308 -10.6308 -10.5986 -10.5986
   -10.5967 -10.5274 -10.5274 -10.4544 -10.1906  -8.9884  -7.3710  -6.0952
    -4.3774  -4.3764  -4.3764  -4.0020  -4.0020  -3.8579  -3.4123  -3.4123
    -3.3529  -1.8550  -1.4472  -1.4472  -1.2633  -1.0076  -1.0076  -0.9467
    -0.3366  -0.3216  -0.3216   0.4454   0.4454   0.9731   2.1023   3.4388
     3.4926   3.4926   3.6338

          k = 0.0000 0.1925 0.0000 ( 25013 PWs)   bands (ev):

   -11.7445 -11.5314 -11.5064 -11.5048 -11.4107 -11.4040 -11.3926 -11.3901
   -11.3824 -11.3811 -11.3602 -11.3591 -11.3564 -11.3259 -11.2745 -11.2243
   -11.2206 -11.2168 -11.2071 -11.1944 -11.1880 -11.1784 -11.1676 -11.1656
   -11.1424 -11.1088 -11.1041 -11.0886 -11.0852 -11.0461 -10.9485 -10.9321
   -10.8821 -10.8770 -10.8663 -10.8456 -10.8258 -10.8232 -10.8041 -10.7914
   -10.7877 -10.7784 -10.7587 -10.7511 -10.7498 -10.7315 -10.7159 -10.6977
   -10.6813 -10.6730 -10.6729 -10.6650 -10.6544 -10.6518 -10.6347 -10.6295
   -10.6269 -10.5776 -10.5468 -10.4906 -10.1535  -8.8473  -7.2724  -6.0016
    -5.4250  -4.7002  -4.6907  -4.4831  -4.0513  -3.9196  -3.4729  -3.3024
    -3.2761  -1.6156  -1.1456  -1.1050  -0.9341  -0.8926  -0.7768  -0.6331
     0.0626   0.1771   0.4612   0.6563   0.8850   1.2111   2.3449   2.7440
     3.3335   3.4294   3.6047

          k = 0.0000 0.3849 0.0000 ( 25069 PWs)   bands (ev):

   -11.7028 -11.4840 -11.4004 -11.3987 -11.3788 -11.3729 -11.3510 -11.3377
   -11.3331 -11.2905 -11.2776 -11.2729 -11.2694 -11.2534 -11.2441 -11.2305
   -11.1998 -11.1965 -11.1876 -11.1730 -11.1607 -11.1445 -11.1396 -11.1189
   -11.1162 -11.0862 -11.0701 -11.0638 -11.0612 -11.0047 -10.9583 -10.9326
   -10.9239 -10.9211 -10.9150 -10.9006 -10.8756 -10.8520 -10.8513 -10.8367
   -10.8309 -10.8106 -10.8070 -10.7933 -10.7929 -10.7688 -10.7684 -10.7643
   -10.7547 -10.7530 -10.7444 -10.7312 -10.7194 -10.7030 -10.6895 -10.6681
   -10.6541 -10.6489 -10.6230 -10.5352 -10.0881  -8.4202  -6.9763  -6.6753
    -5.7409  -5.4450  -5.0584  -5.0414  -4.3136  -4.2695  -4.0916  -3.2612
    -3.2301  -1.2967  -0.5811  -0.5804  -0.4326  -0.2693  -0.0693   0.6993
     0.8490   1.0624   1.2527   1.3247   1.4912   2.0261   2.5215   2.9066
     3.0765   3.3933   3.6170

          k = 0.0000-0.5774 0.0000 ( 25090 PWs)   bands (ev):

   -11.6802 -11.4254 -11.4178 -11.3534 -11.3243 -11.3177 -11.3104 -11.3088
   -11.3006 -11.2925 -11.2537 -11.2499 -11.2211 -11.2017 -11.1981 -11.1805
   -11.1752 -11.1740 -11.1638 -11.1547 -11.1366 -11.1223 -11.1211 -11.1002
   -11.1001 -11.0575 -11.0488 -11.0321 -11.0040 -10.9992 -10.9942 -10.9913
   -10.9408 -10.9322 -10.9175 -10.9057 -10.9025 -10.8858 -10.8817 -10.8744
   -10.8681 -10.8654 -10.8554 -10.8548 -10.8383 -10.8137 -10.8094 -10.8024
   -10.7958 -10.7897 -10.7654 -10.7625 -10.7582 -10.7287 -10.7155 -10.7095
   -10.6694 -10.6533 -10.6516 -10.5429 -10.0576  -7.7140  -7.6832  -6.5805
    -6.1773  -5.1894  -5.1852  -5.1761  -5.0306  -4.3684  -4.1749  -3.2888
    -3.2521  -1.1609  -0.5141  -0.4305   0.3289   0.4385   0.6505   0.7089
     0.9708   1.2055   1.5680   1.8303   2.1893   2.4297   2.4544   2.9546
     3.3890   3.4544   3.5940

          k = 0.1667-0.0962 0.0000 ( 25013 PWs)   bands (ev):

   -11.7445 -11.5314 -11.5064 -11.5048 -11.4107 -11.4040 -11.3926 -11.3901
   -11.3824 -11.3811 -11.3602 -11.3591 -11.3564 -11.3259 -11.2745 -11.2243
   -11.2206 -11.2168 -11.2071 -11.1944 -11.1880 -11.1784 -11.1676 -11.1656
   -11.1424 -11.1088 -11.1041 -11.0886 -11.0852 -11.0461 -10.9485 -10.9321
   -10.8821 -10.8770 -10.8663 -10.8456 -10.8258 -10.8232 -10.8041 -10.7914
   -10.7877 -10.7784 -10.7587 -10.7511 -10.7498 -10.7315 -10.7159 -10.6977
   -10.6813 -10.6730 -10.6729 -10.6650 -10.6544 -10.6518 -10.6347 -10.6295
   -10.6268 -10.5776 -10.5468 -10.4906 -10.1535  -8.8473  -7.2724  -6.0016
    -5.4250  -4.7002  -4.6907  -4.4831  -4.0513  -3.9196  -3.4729  -3.3024
    -3.2761  -1.6156  -1.1456  -1.1050  -0.9341  -0.8926  -0.7768  -0.6331
     0.0626   0.1771   0.4612   0.6563   0.8850   1.2111   2.3449   2.7440
     3.3335   3.4294   3.6047

          k = 0.1667 0.0962 0.0000 ( 25013 PWs)   bands (ev):

   -11.7445 -11.5314 -11.5064 -11.5048 -11.4107 -11.4040 -11.3926 -11.3901
   -11.3824 -11.3811 -11.3602 -11.3591 -11.3564 -11.3259 -11.2745 -11.2243
   -11.2206 -11.2168 -11.2071 -11.1944 -11.1880 -11.1784 -11.1676 -11.1656
   -11.1424 -11.1088 -11.1041 -11.0886 -11.0852 -11.0461 -10.9485 -10.9321
   -10.8822 -10.8770 -10.8663 -10.8456 -10.8257 -10.8232 -10.8041 -10.7914
   -10.7877 -10.7784 -10.7587 -10.7511 -10.7498 -10.7315 -10.7159 -10.6976
   -10.6813 -10.6730 -10.6729 -10.6650 -10.6544 -10.6518 -10.6347 -10.6295
   -10.6269 -10.5776 -10.5468 -10.4906 -10.1535  -8.8473  -7.2724  -6.0016
    -5.4250  -4.7002  -4.6907  -4.4831  -4.0513  -3.9196  -3.4729  -3.3024
    -3.2761  -1.6156  -1.1456  -1.1050  -0.9340  -0.8926  -0.7768  -0.6331
     0.0626   0.1771   0.4612   0.6563   0.8850   1.2111   2.3449   2.7441
     3.3335   3.4294   3.6047

          k = 0.1667 0.2887 0.0000 ( 25022 PWs)   bands (ev):

   -11.7134 -11.4740 -11.4733 -11.4126 -11.3667 -11.3642 -11.3620 -11.3531
   -11.3496 -11.3338 -11.3047 -11.3010 -11.2790 -11.2693 -11.2618 -11.2124
   -11.2063 -11.2046 -11.1974 -11.1894 -11.1847 -11.1641 -11.1353 -11.1237
   -11.1036 -11.0960 -11.0889 -11.0873 -11.0828 -10.9885 -10.9775 -10.9536
   -10.9119 -10.9035 -10.8930 -10.8725 -10.8708 -10.8377 -10.8288 -10.8221
   -10.8156 -10.8055 -10.7898 -10.7839 -10.7806 -10.7643 -10.7482 -10.7392
   -10.7274 -10.7257 -10.7125 -10.7029 -10.6932 -10.6841 -10.6770 -10.6721
   -10.6682 -10.6567 -10.5696 -10.5472 -10.1035  -8.5629  -7.0716  -5.9844
    -5.9711  -5.7969  -4.9988  -4.8203  -4.0838  -3.8021  -3.7762  -3.7013
    -3.2119  -1.4328  -0.8767  -0.6891  -0.5561  -0.3206   0.1082   0.1466
     0.3035   0.7315   1.1205   1.2668   1.6604   1.7688   2.5015   2.7191
     2.8309   3.2059   3.7329

          k = 0.1667-0.6736 0.0000 ( 25036 PWs)   bands (ev):

   -11.6797 -11.4190 -11.3666 -11.3625 -11.3377 -11.3272 -11.3028 -11.2969
   -11.2915 -11.2657 -11.2593 -11.2481 -11.2420 -11.2180 -11.2143 -11.2038
   -11.1861 -11.1776 -11.1601 -11.1534 -11.1429 -11.1247 -11.1221 -11.0888
   -11.0872 -11.0658 -11.0595 -11.0479 -11.0333 -11.0177 -10.9992 -10.9774
   -10.9554 -10.9424 -10.9336 -10.9217 -10.9079 -10.8927 -10.8844 -10.8615
   -10.8500 -10.8455 -10.8373 -10.8294 -10.8189 -10.8047 -10.7999 -10.7939
   -10.7796 -10.7712 -10.7614 -10.7579 -10.7441 -10.7353 -10.7208 -10.6908
   -10.6846 -10.6757 -10.6484 -10.5714 -10.0570  -7.9872  -7.1194  -6.6576
    -6.2585  -5.8806  -5.3747  -5.0941  -4.6292  -4.0542  -3.9814  -3.5328
    -3.0213  -1.1936  -0.5606  -0.5064  -0.1430   0.2401   0.6821   0.9142
     1.1878   1.3566   1.5646   1.8750   2.0746   2.1931   2.5996   2.8463
     2.9401   3.2117   3.5361

          k = 0.1667-0.4811 0.0000 ( 25036 PWs)   bands (ev):

   -11.6797 -11.4190 -11.3666 -11.3625 -11.3377 -11.3272 -11.3028 -11.2969
   -11.2915 -11.2657 -11.2593 -11.2481 -11.2420 -11.2180 -11.2143 -11.2038
   -11.1861 -11.1776 -11.1601 -11.1534 -11.1429 -11.1247 -11.1221 -11.0888
   -11.0872 -11.0658 -11.0595 -11.0479 -11.0333 -11.0177 -10.9992 -10.9774
   -10.9554 -10.9424 -10.9336 -10.9217 -10.9079 -10.8927 -10.8844 -10.8615
   -10.8500 -10.8455 -10.8373 -10.8294 -10.8189 -10.8048 -10.7999 -10.7939
   -10.7796 -10.7712 -10.7614 -10.7579 -10.7441 -10.7353 -10.7208 -10.6908
   -10.6846 -10.6757 -10.6484 -10.5714 -10.0570  -7.9872  -7.1194  -6.6576
    -6.2585  -5.8807  -5.3747  -5.0941  -4.6292  -4.0542  -3.9814  -3.5328
    -3.0213  -1.1936  -0.5606  -0.5064  -0.1430   0.2401   0.6821   0.9141
     1.1878   1.3566   1.5647   1.8750   2.0747   2.1931   2.5996   2.8463
     2.9401   3.2116   3.5361

          k = 0.1667-0.2887 0.0000 ( 25022 PWs)   bands (ev):

   -11.7134 -11.4740 -11.4733 -11.4126 -11.3667 -11.3642 -11.3620 -11.3531
   -11.3496 -11.3338 -11.3047 -11.3010 -11.2790 -11.2693 -11.2618 -11.2124
   -11.2062 -11.2046 -11.1974 -11.1894 -11.1848 -11.1641 -11.1353 -11.1237
   -11.1036 -11.0960 -11.0889 -11.0873 -11.0828 -10.9885 -10.9775 -10.9536
   -10.9119 -10.9035 -10.8930 -10.8725 -10.8708 -10.8377 -10.8288 -10.8221
   -10.8156 -10.8055 -10.7898 -10.7839 -10.7806 -10.7643 -10.7482 -10.7392
   -10.7274 -10.7257 -10.7125 -10.7029 -10.6932 -10.6841 -10.6770 -10.6721
   -10.6682 -10.6567 -10.5696 -10.5472 -10.1035  -8.5629  -7.0716  -5.9844
    -5.9711  -5.7969  -4.9988  -4.8203  -4.0838  -3.8022  -3.7762  -3.7013
    -3.2119  -1.4328  -0.8768  -0.6891  -0.5560  -0.3206   0.1082   0.1466
     0.3035   0.7315   1.1205   1.2668   1.6605   1.7688   2.5015   2.7191
     2.8309   3.2059   3.7330

          k = 0.3333-0.1925 0.0000 ( 25069 PWs)   bands (ev):

   -11.7028 -11.4840 -11.4004 -11.3987 -11.3788 -11.3729 -11.3510 -11.3377
   -11.3331 -11.2905 -11.2776 -11.2729 -11.2694 -11.2534 -11.2441 -11.2305
   -11.1998 -11.1965 -11.1876 -11.1730 -11.1607 -11.1445 -11.1396 -11.1189
   -11.1162 -11.0862 -11.0701 -11.0638 -11.0612 -11.0047 -10.9583 -10.9326
   -10.9239 -10.9211 -10.9150 -10.9006 -10.8756 -10.8520 -10.8513 -10.8367
   -10.8309 -10.8106 -10.8070 -10.7933 -10.7929 -10.7688 -10.7684 -10.7643
   -10.7547 -10.7530 -10.7444 -10.7312 -10.7194 -10.7030 -10.6895 -10.6681
   -10.6541 -10.6489 -10.6230 -10.5352 -10.0881  -8.4202  -6.9763  -6.6753
    -5.7409  -5.4450  -5.0584  -5.0414  -4.3136  -4.2695  -4.0917  -3.2612
    -3.2301  -1.2967  -0.5811  -0.5804  -0.4326  -0.2693  -0.0693   0.6993
     0.8490   1.0624   1.2527   1.3247   1.4912   2.0261   2.5215   2.9066
     3.0765   3.3933   3.6170

          k = 0.3333-0.0000 0.0000 ( 25022 PWs)   bands (ev):

   -11.7134 -11.4740 -11.4733 -11.4126 -11.3667 -11.3642 -11.3620 -11.3531
   -11.3496 -11.3338 -11.3047 -11.3010 -11.2790 -11.2693 -11.2618 -11.2124
   -11.2063 -11.2046 -11.1974 -11.1894 -11.1847 -11.1641 -11.1353 -11.1237
   -11.1036 -11.0960 -11.0889 -11.0873 -11.0828 -10.9885 -10.9775 -10.9536
   -10.9119 -10.9035 -10.8930 -10.8725 -10.8708 -10.8377 -10.8288 -10.8221
   -10.8156 -10.8055 -10.7898 -10.7839 -10.7806 -10.7643 -10.7482 -10.7392
   -10.7274 -10.7257 -10.7125 -10.7029 -10.6932 -10.6841 -10.6770 -10.6721
   -10.6682 -10.6567 -10.5696 -10.5472 -10.1035  -8.5629  -7.0716  -5.9844
    -5.9711  -5.7969  -4.9988  -4.8203  -4.0838  -3.8021  -3.7762  -3.7013
    -3.2119  -1.4328  -0.8768  -0.6891  -0.5561  -0.3206   0.1082   0.1466
     0.3035   0.7315   1.1205   1.2668   1.6605   1.7688   2.5015   2.7191
     2.8309   3.2059   3.7330

          k = 0.3333 0.1925 0.0000 ( 25069 PWs)   bands (ev):

   -11.7028 -11.4840 -11.4004 -11.3987 -11.3788 -11.3729 -11.3510 -11.3377
   -11.3331 -11.2905 -11.2776 -11.2729 -11.2694 -11.2534 -11.2441 -11.2305
   -11.1998 -11.1965 -11.1876 -11.1730 -11.1607 -11.1445 -11.1396 -11.1189
   -11.1162 -11.0862 -11.0701 -11.0638 -11.0612 -11.0047 -10.9583 -10.9326
   -10.9239 -10.9211 -10.9150 -10.9006 -10.8756 -10.8521 -10.8513 -10.8367
   -10.8309 -10.8106 -10.8070 -10.7933 -10.7929 -10.7688 -10.7684 -10.7643
   -10.7547 -10.7530 -10.7444 -10.7312 -10.7194 -10.7030 -10.6895 -10.6681
   -10.6541 -10.6489 -10.6230 -10.5352 -10.0881  -8.4202  -6.9763  -6.6753
    -5.7409  -5.4450  -5.0584  -5.0414  -4.3136  -4.2695  -4.0916  -3.2612
    -3.2301  -1.2967  -0.5811  -0.5804  -0.4326  -0.2693  -0.0694   0.6993
     0.8490   1.0624   1.2527   1.3247   1.4912   2.0261   2.5215   2.9066
     3.0765   3.3933   3.6170

          k = 0.3333-0.7698 0.0000 ( 25036 PWs)   bands (ev):

   -11.6797 -11.4190 -11.3666 -11.3625 -11.3377 -11.3272 -11.3028 -11.2969
   -11.2915 -11.2657 -11.2593 -11.2481 -11.2420 -11.2180 -11.2143 -11.2038
   -11.1861 -11.1776 -11.1601 -11.1534 -11.1429 -11.1247 -11.1222 -11.0888
   -11.0872 -11.0658 -11.0595 -11.0479 -11.0333 -11.0177 -10.9992 -10.9774
   -10.9554 -10.9424 -10.9336 -10.9217 -10.9079 -10.8927 -10.8844 -10.8615
   -10.8500 -10.8455 -10.8373 -10.8294 -10.8189 -10.8048 -10.7999 -10.7939
   -10.7796 -10.7712 -10.7614 -10.7579 -10.7441 -10.7353 -10.7208 -10.6908
   -10.6846 -10.6757 -10.6484 -10.5714 -10.0570  -7.9872  -7.1194  -6.6576
    -6.2585  -5.8807  -5.3747  -5.0941  -4.6292  -4.0542  -3.9814  -3.5327
    -3.0213  -1.1936  -0.5606  -0.5064  -0.1430   0.2401   0.6821   0.9142
     1.1878   1.3566   1.5647   1.8750   2.0746   2.1931   2.5996   2.8463
     2.9401   3.2117   3.5361

          k = 0.3333-0.5774 0.0000 ( 25044 PWs)   bands (ev):

   -11.6674 -11.3386 -11.3367 -11.3332 -11.3178 -11.2858 -11.2857 -11.2839
   -11.2707 -11.2668 -11.2535 -11.2439 -11.2280 -11.2148 -11.2126 -11.2068
   -11.1631 -11.1614 -11.1415 -11.1326 -11.1313 -11.1022 -11.0851 -11.0838
   -11.0787 -11.0652 -11.0585 -11.0505 -11.0242 -11.0186 -11.0036 -10.9933
   -10.9901 -10.9857 -10.9800 -10.9625 -10.9590 -10.9072 -10.9025 -10.8864
   -10.8704 -10.8539 -10.8429 -10.8275 -10.8232 -10.7961 -10.7934 -10.7864
   -10.7858 -10.7745 -10.7641 -10.7592 -10.7571 -10.7492 -10.7391 -10.7326
   -10.6965 -10.6757 -10.6577 -10.6289 -10.0414  -7.2839  -7.2588  -7.2397
    -6.1866  -6.1675  -5.6912  -4.8201  -4.8119  -4.6235  -3.2988  -3.2905
    -3.2594  -1.1053  -0.5764  -0.5574   0.2806   0.6398   0.6466   0.8359
     1.0137   1.0942   1.9582   2.0261   2.1747   2.6079   2.7348   3.0514
     3.4923   3.4924   3.8128

          k = 0.3333-0.3849 0.0000 ( 25036 PWs)   bands (ev):

   -11.6797 -11.4190 -11.3666 -11.3625 -11.3377 -11.3272 -11.3028 -11.2969
   -11.2915 -11.2657 -11.2593 -11.2481 -11.2420 -11.2180 -11.2143 -11.2038
   -11.1861 -11.1776 -11.1601 -11.1534 -11.1429 -11.1247 -11.1221 -11.0888
   -11.0872 -11.0658 -11.0595 -11.0479 -11.0333 -11.0177 -10.9992 -10.9774
   -10.9554 -10.9424 -10.9336 -10.9217 -10.9079 -10.8927 -10.8844 -10.8615
   -10.8500 -10.8455 -10.8373 -10.8294 -10.8189 -10.8048 -10.7999 -10.7939
   -10.7796 -10.7712 -10.7614 -10.7579 -10.7441 -10.7353 -10.7208 -10.6908
   -10.6846 -10.6757 -10.6484 -10.5714 -10.0570  -7.9872  -7.1194  -6.6576
    -6.2585  -5.8806  -5.3747  -5.0941  -4.6292  -4.0542  -3.9814  -3.5328
    -3.0213  -1.1936  -0.5607  -0.5064  -0.1430   0.2401   0.6821   0.9142
     1.1878   1.3566   1.5647   1.8750   2.0747   2.1931   2.5997   2.8463
     2.9401   3.2117   3.5361

          k =-0.5000 0.2887 0.0000 ( 25090 PWs)   bands (ev):

   -11.6802 -11.4254 -11.4178 -11.3534 -11.3243 -11.3177 -11.3104 -11.3088
   -11.3006 -11.2925 -11.2537 -11.2499 -11.2211 -11.2017 -11.1981 -11.1805
   -11.1752 -11.1740 -11.1638 -11.1547 -11.1366 -11.1223 -11.1211 -11.1002
   -11.1001 -11.0575 -11.0488 -11.0321 -11.0040 -10.9992 -10.9942 -10.9913
   -10.9408 -10.9322 -10.9175 -10.9057 -10.9025 -10.8858 -10.8817 -10.8744
   -10.8681 -10.8654 -10.8554 -10.8548 -10.8383 -10.8137 -10.8094 -10.8024
   -10.7959 -10.7897 -10.7654 -10.7625 -10.7582 -10.7287 -10.7155 -10.7095
   -10.6694 -10.6533 -10.6516 -10.5429 -10.0576  -7.7140  -7.6832  -6.5805
    -6.1773  -5.1894  -5.1852  -5.1761  -5.0306  -4.3684  -4.1749  -3.2888
    -3.2521  -1.1609  -0.5141  -0.4305   0.3289   0.4385   0.6505   0.7089
     0.9708   1.2055   1.5680   1.8303   2.1893   2.4297   2.4544   2.9546
     3.3890   3.4544   3.5939

          k =-0.5000 0.4811 0.0000 ( 25036 PWs)   bands (ev):

   -11.6797 -11.4190 -11.3666 -11.3625 -11.3377 -11.3272 -11.3028 -11.2969
   -11.2915 -11.2657 -11.2593 -11.2481 -11.2420 -11.2180 -11.2143 -11.2038
   -11.1861 -11.1776 -11.1601 -11.1534 -11.1429 -11.1247 -11.1221 -11.0888
   -11.0872 -11.0658 -11.0595 -11.0479 -11.0333 -11.0177 -10.9992 -10.9774
   -10.9554 -10.9424 -10.9336 -10.9217 -10.9079 -10.8927 -10.8844 -10.8615
   -10.8500 -10.8455 -10.8373 -10.8294 -10.8189 -10.8047 -10.7999 -10.7939
   -10.7796 -10.7712 -10.7614 -10.7579 -10.7441 -10.7353 -10.7208 -10.6908
   -10.6846 -10.6757 -10.6484 -10.5714 -10.0570  -7.9872  -7.1194  -6.6576
    -6.2585  -5.8806  -5.3747  -5.0941  -4.6292  -4.0542  -3.9814  -3.5328
    -3.0213  -1.1936  -0.5607  -0.5064  -0.1430   0.2401   0.6821   0.9142
     1.1878   1.3566   1.5647   1.8750   2.0746   2.1931   2.5996   2.8463
     2.9401   3.2117   3.5361

          k =-0.5000 0.6736 0.0000 ( 25036 PWs)   bands (ev):

   -11.6797 -11.4190 -11.3666 -11.3625 -11.3377 -11.3272 -11.3028 -11.2969
   -11.2915 -11.2657 -11.2593 -11.2481 -11.2420 -11.2180 -11.2143 -11.2038
   -11.1861 -11.1776 -11.1601 -11.1534 -11.1429 -11.1247 -11.1222 -11.0888
   -11.0872 -11.0658 -11.0595 -11.0479 -11.0333 -11.0177 -10.9992 -10.9774
   -10.9554 -10.9424 -10.9336 -10.9217 -10.9079 -10.8927 -10.8844 -10.8615
   -10.8500 -10.8455 -10.8373 -10.8294 -10.8189 -10.8047 -10.7999 -10.7938
   -10.7796 -10.7712 -10.7614 -10.7579 -10.7441 -10.7353 -10.7208 -10.6908
   -10.6846 -10.6757 -10.6484 -10.5714 -10.0570  -7.9872  -7.1194  -6.6576
    -6.2585  -5.8807  -5.3747  -5.0941  -4.6292  -4.0542  -3.9814  -3.5328
    -3.0213  -1.1936  -0.5606  -0.5064  -0.1430   0.2401   0.6821   0.9141
     1.1878   1.3566   1.5647   1.8750   2.0746   2.1931   2.5996   2.8463
     2.9401   3.2116   3.5361

          k =-0.5000-0.2887 0.0000 ( 25090 PWs)   bands (ev):

   -11.6802 -11.4253 -11.4178 -11.3534 -11.3243 -11.3178 -11.3104 -11.3088
   -11.3006 -11.2925 -11.2537 -11.2499 -11.2211 -11.2017 -11.1982 -11.1805
   -11.1752 -11.1740 -11.1638 -11.1547 -11.1366 -11.1223 -11.1211 -11.1002
   -11.1001 -11.0575 -11.0488 -11.0321 -11.0040 -10.9992 -10.9942 -10.9913
   -10.9408 -10.9322 -10.9175 -10.9057 -10.9025 -10.8858 -10.8817 -10.8744
   -10.8680 -10.8654 -10.8554 -10.8548 -10.8383 -10.8137 -10.8094 -10.8024
   -10.7958 -10.7897 -10.7654 -10.7625 -10.7582 -10.7287 -10.7155 -10.7095
   -10.6694 -10.6533 -10.6516 -10.5429 -10.0576  -7.7140  -7.6832  -6.5805
    -6.1773  -5.1894  -5.1852  -5.1761  -5.0306  -4.3684  -4.1749  -3.2888
    -3.2522  -1.1609  -0.5140  -0.4305   0.3289   0.4385   0.6505   0.7089
     0.9708   1.2055   1.5680   1.8303   2.1893   2.4297   2.4544   2.9546
     3.3890   3.4544   3.5939

     the Fermi energy is     0.8596 ev

!    total energy              =   -1785.98143524 Ry
     Harris-Foulkes estimate   =   -1785.98142357 Ry
     estimated scf accuracy    <       0.00000144 Ry

     The total energy is the sum of the following terms:

     one-electron contribution =   -8206.01460734 Ry
     hartree contribution      =    4186.83212967 Ry
     xc contribution           =    -777.07586844 Ry
     ewald contribution        =    3010.31913199 Ry
     electric field correction =       0.00074298 Ry
     smearing contrib. (-TS)   =      -0.04296409 Ry

     convergence has been achieved in   4 iterations

     Forces acting on atoms (Ry/au):


     negative rho (up, down):  6.263E-01 0.000E+00
     atom    1 type  1   force =     0.00085826    0.00050767   -0.02244280
     atom    2 type  1   force =    -0.00085327    0.00050549   -0.02245186
     atom    3 type  1   force =    -0.00000325   -0.00098866   -0.02244989
     atom    4 type  1   force =     0.00000774   -0.00000083   -0.02222497
     atom    5 type  1   force =     0.00000224   -0.00278706    0.02194345
     atom    6 type  1   force =     0.00000427   -0.00000390    0.02379509
     atom    7 type  1   force =     0.00240484    0.00138806    0.02193301
     atom    8 type  1   force =    -0.00241876    0.00138937    0.02194312
     atom    9 type  1   force =     0.00000437   -0.00001571   -0.00116183
     atom   10 type  1   force =     0.00001054    0.00149462    0.00063670
     atom   11 type  1   force =     0.00129723   -0.00075765    0.00064314
     atom   12 type  1   force =    -0.00131630   -0.00073056    0.00063218
     atom   13 type  2   force =     0.00000209   -0.00000084   -0.00079533

     Total force =     0.003156     Total SCF correction =     0.001877
     SCF correction compared to forces is large: reduce conv_thr to get better values

     bfgs converged in   2 scf cycles and   1 bfgs steps
     (criteria: energy <  1.0E+12, force <  1.9E-03)

     End of BFGS Geometry Optimization

     Final energy   =   -1785.9814352375 Ry
Begin final coordinates

ATOMIC_POSITIONS (angstrom)
Tl       1.671975640   0.965315586  10.000000000    0   0   0
Tl       5.015926920   0.965315586  10.000000000    0   0   0
Tl       3.343951280   3.861262344  10.000000000    0   0   0
Tl       6.687902560   3.861262344  10.000000000    0   0   0
Tl       6.687902560   1.930631172  12.730324787    0   0   0
Tl       3.343951280   1.930631172  12.730324787    0   0   0
Tl       8.359878201   4.826577930  12.730324787    0   0   0
Tl       5.015926920   4.826577930  12.730324787    0   0   0
Tl       0.000005436   0.000007860  16.104877329
Tl       3.343937022  -0.036539242  15.945057959
Tl       1.640358992   2.914222117  15.944997889
Tl       5.047561153   2.914184873  15.945089882
S        3.343933209   1.930619976  17.881002795
End final coordinates



     Writing output data file calc.save
 
     init_run     :     14.49s CPU     15.00s WALL (       1 calls)
     electrons    :    384.90s CPU    410.83s WALL (       2 calls)
     update_pot   :      3.70s CPU      3.86s WALL (       1 calls)
     forces       :     37.35s CPU     38.67s WALL (       2 calls)

     Called by init_run:
     wfcinit      :      5.22s CPU      5.37s WALL (       1 calls)
     potinit      :      2.11s CPU      2.23s WALL (       1 calls)

     Called by electrons:
     c_bands      :    193.14s CPU    206.02s WALL (      15 calls)
     sum_band     :     91.97s CPU     97.06s WALL (      15 calls)
     v_of_rho     :     25.54s CPU     27.82s WALL (      16 calls)
     newd         :     82.47s CPU     83.26s WALL (      16 calls)
     mix_rho      :      0.84s CPU      0.87s WALL (      15 calls)
     vdW_energy   :      4.17s CPU      4.63s WALL (      18 calls)
     vdW_ffts     :     10.93s CPU     11.78s WALL (      36 calls)
     vdW_v        :      3.83s CPU      4.01s WALL (      18 calls)

     Called by c_bands:
     init_us_2    :      1.56s CPU      1.58s WALL (     231 calls)
     cegterg      :    181.03s CPU    187.90s WALL (     105 calls)

     Called by *egterg:
     h_psi        :    124.32s CPU    128.77s WALL (     526 calls)
     s_psi        :     11.18s CPU     11.18s WALL (     526 calls)
     g_psi        :      0.62s CPU      0.62s WALL (     414 calls)
     cdiaghg      :     17.24s CPU     17.41s WALL (     505 calls)

     Called by h_psi:
     add_vuspsi   :     11.90s CPU     11.92s WALL (     526 calls)

     General routines
     calbec       :     18.22s CPU     18.94s WALL (     645 calls)
     fft          :     17.71s CPU     19.69s WALL (    1175 calls)
     ffts         :      0.06s CPU      0.07s WALL (      31 calls)
     fftw         :     73.15s CPU     78.01s WALL (   55971 calls)
     interpolate  :      0.62s CPU      0.65s WALL (      31 calls)
     davcio       :      0.00s CPU      0.06s WALL (       7 calls)
 
     Parallel routines
     fft_scatter  :     50.26s CPU     56.86s WALL (   57177 calls)
 
     PWSCF        :  7m26.83s CPU     7m55.77s WALL

 
   This run was terminated on:   2: 6:34  12Jan2019            

=------------------------------------------------------------------------------=
   JOB DONE.
=------------------------------------------------------------------------------=
Job  /afs/slac/g/suncat/bin/suncat-tsmpirun -x LD_LIBRARY_PATH -wdir /tmp/qe_7699309kq2jg5w_scratch pw.x -npool 3 -in pw.pwi

TID   HOST_NAME   COMMAND_LINE            STATUS            TERMINATION_TIME
===== ========== ================  =======================  ===================
00000 suncat1046 pw.x -npool 3 -i  Done                     01/12/2019 02:06:34
00001 suncat1046 pw.x -npool 3 -i  Done                     01/12/2019 02:06:34
00002 suncat1046 pw.x -npool 3 -i  Done                     01/12/2019 02:06:34
00003 suncat1046 pw.x -npool 3 -i  Done                     01/12/2019 02:06:34
00004 suncat1046 pw.x -npool 3 -i  Done                     01/12/2019 02:06:34
00005 suncat1046 pw.x -npool 3 -i  Done                     01/12/2019 02:06:34
00006 suncat1046 pw.x -npool 3 -i  Done                     01/12/2019 02:06:34
00007 suncat1046 pw.x -npool 3 -i  Done                     01/12/2019 02:06:34
00008 suncat1046 pw.x -npool 3 -i  Done                     01/12/2019 02:06:34
00009 suncat1046 pw.x -npool 3 -i  Done                     01/12/2019 02:06:34
00010 suncat1046 pw.x -npool 3 -i  Done                     01/12/2019 02:06:34
00011 suncat1046 pw.x -npool 3 -i  Done                     01/12/2019 02:06:34
00012 suncat1045 pw.x -npool 3 -i  Done                     01/12/2019 02:06:34
00013 suncat1045 pw.x -npool 3 -i  Done                     01/12/2019 02:06:34
00014 suncat1045 pw.x -npool 3 -i  Done                     01/12/2019 02:06:34
00015 suncat1045 pw.x -npool 3 -i  Done                     01/12/2019 02:06:34
00016 suncat1045 pw.x -npool 3 -i  Done                     01/12/2019 02:06:34
00017 suncat1045 pw.x -npool 3 -i  Done                     01/12/2019 02:06:34
00018 suncat1045 pw.x -npool 3 -i  Done                     01/12/2019 02:06:34
00019 suncat1045 pw.x -npool 3 -i  Done                     01/12/2019 02:06:34
00020 suncat1045 pw.x -npool 3 -i  Done                     01/12/2019 02:06:34
00021 suncat1045 pw.x -npool 3 -i  Done                     01/12/2019 02:06:34
00022 suncat1045 pw.x -npool 3 -i  Done                     01/12/2019 02:06:34
00023 suncat1045 pw.x -npool 3 -i  Done                     01/12/2019 02:06:34
00024 suncat1036 pw.x -npool 3 -i  Done                     01/12/2019 02:06:34
00025 suncat1036 pw.x -npool 3 -i  Done                     01/12/2019 02:06:34
00026 suncat1036 pw.x -npool 3 -i  Done                     01/12/2019 02:06:34
00027 suncat1036 pw.x -npool 3 -i  Done                     01/12/2019 02:06:34
00028 suncat1036 pw.x -npool 3 -i  Done                     01/12/2019 02:06:34
00029 suncat1036 pw.x -npool 3 -i  Done                     01/12/2019 02:06:34
00030 suncat1036 pw.x -npool 3 -i  Done                     01/12/2019 02:06:34
00031 suncat1036 pw.x -npool 3 -i  Done                     01/12/2019 02:06:34
00032 suncat1036 pw.x -npool 3 -i  Done                     01/12/2019 02:06:34
00033 suncat1036 pw.x -npool 3 -i  Done                     01/12/2019 02:06:34
00034 suncat1036 pw.x -npool 3 -i  Done                     01/12/2019 02:06:34
00035 suncat1036 pw.x -npool 3 -i  Done                     01/12/2019 02:06:34
