  python dir          : /home/mamunm/src/espresso
  espresso dir        : /home/vossj/suncat/esdld/espresso-dynpy-beef/bin
  pseudo dir          : /home/mamunm/src/pseudo/gbrv1.5pbe
  ase-espresso py git : GITVERSION



     Program PWSCF v.5.1rc2 (svn rev. ) starts on  4Feb2018 at 11:48:42 

     This program is part of the open-source Quantum ESPRESSO suite
     for quantum simulation of materials; please cite
         "P. Giannozzi et al., J. Phys.:Condens. Matter 21 395502 (2009);
          URL http://www.quantum-espresso.org", 
     in publications or presentations arising from this work. More details at
     http://www.quantum-espresso.org/quote

     Parallel version (MPI), running on    16 processors
     R & G space division:  proc/nbgrp/npool/nimage =      16
     Reading input from pw.inp
     Message from routine read_cards :
     DEPRECATED: no units specified in CELL_PARAMETERS card

     Current dimensions of program PWSCF are:
     Max number of different atomic species (ntypx) = 10
     Max number of k-points (npk) =  40000
     Max angular momentum in pseudopotentials (lmaxx) =  3
     Presently stress not available with electric field


     **************************************************************************
     Initializing libbeef V0.1.1 with the BEEF-vdW functional.
     Citation: Wellendorff et al., PRB 85, 235149 (2012).
     **************************************************************************


     IMPORTANT: XC functional enforced from input :
     Exchange-correlation      = BEEF-VDW ( 1  4 27 13 2)
     Any further DFT definition will be discarded
     Please, verify this is what you really want


     Subspace diagonalization in iterative solution of the eigenvalue problem:
     a serial algorithm will be used

 
     Parallelization info
     --------------------
     sticks:   dense  smooth     PW     G-vecs:    dense   smooth      PW
     Min         315     126     35                63229    15971    2391
     Max         316     127     37                63240    16003    2398
     Sum        5041    2029    571              1011733   255863   38327
 


     bravais-lattice index     =            0
     lattice parameter (alat)  =       1.8897  a.u.
     unit-cell volume          =    8507.0471 (a.u.)^3
     number of atoms/cell      =           13
     number of atomic types    =            2
     number of electrons       =       138.00
     number of Kohn-Sham states=           79
     kinetic-energy cutoff     =      36.7493  Ry
     charge density cutoff     =     367.4932  Ry
     convergence threshold     =      1.0E-05
     mixing beta               =       0.3000
     number of iterations used =           10  plain     mixing
     Exchange-correlation      = BEEF-VDW ( 1  4 27 13 2)
     nstep                     =           50


     celldm(1)=   1.889726  celldm(2)=   0.000000  celldm(3)=   0.000000
     celldm(4)=   0.000000  celldm(5)=   0.000000  celldm(6)=   0.000000

     crystal axes: (cart. coord. in units of alat)
               a(1) = (   7.468327   0.000000   0.000000 )  
               a(2) = (   3.734164   6.467761   0.000000 )  
               a(3) = (   0.000000   0.000000  26.097863 )  

     reciprocal axes: (cart. coord. in units 2 pi/alat)
               b(1) = (  0.133899 -0.077307  0.000000 )  
               b(2) = (  0.000000  0.154613  0.000000 )  
               b(3) = (  0.000000  0.000000  0.038317 )  


     PseudoPot. # 1 for La read from file:
     /home/mamunm/src/pseudo/gbrv1.5pbe/La.UPF
     MD5 check sum: 5937b0c7494ba0601a847275249473aa
     Pseudo is Ultrasoft + core correction, Zval = 11.0
     Generated by new atomic code, or converted to UPF format
     Using radial grid of  995 points,  8 beta functions with: 
                l(1) =   0
                l(2) =   0
                l(3) =   1
                l(4) =   1
                l(5) =   2
                l(6) =   2
                l(7) =   3
                l(8) =   3
     Q(r) pseudized with  8 coefficients,  rinner =    1.700   1.700   1.700
                                                       1.700   1.700   1.700
                                                       1.700

     PseudoPot. # 2 for O  read from file:
     /home/mamunm/src/pseudo/gbrv1.5pbe/O.UPF
     MD5 check sum: 734c27235a0248c51dbae37a1fbe46ec
     Pseudo is Ultrasoft + core correction, Zval =  6.0
     Generated by new atomic code, or converted to UPF format
     Using radial grid of  737 points,  5 beta functions with: 
                l(1) =   0
                l(2) =   0
                l(3) =   1
                l(4) =   1
                l(5) =   2
     Q(r) pseudized with  8 coefficients,  rinner =    0.900   0.900   0.900
                                                       0.900   0.900

     vdW kernel table read from file vdW_kernel_table
     MD5 check sum: 095c7af220d748ca6e76c0b4c6cfb241

     atomic species   valence    mass     pseudopotential
        La1           11.00   138.90547     La( 1.00)
        O1             6.00    15.99900     O ( 1.00)

     No symmetry found



   Cartesian axes

     site n.     atom                  positions (alat units)
         1           La1 tau(   1) = (   1.8670818   1.0779602  10.0000000  )
         2           La1 tau(   2) = (   5.6012453   1.0779602  10.0000000  )
         3           La1 tau(   3) = (   3.7341635   4.3118406  10.0000000  )
         4           La1 tau(   4) = (   7.4683270   4.3118406  10.0000000  )
         5           La1 tau(   5) = (   7.4683270   2.1559203  13.0489317  )
         6           La1 tau(   6) = (   3.7341635   2.1559203  13.0489317  )
         7           La1 tau(   7) = (   9.3354088   5.3898008  13.0489317  )
         8           La1 tau(   8) = (   5.6012453   5.3898008  13.0489317  )
         9           La1 tau(   9) = (   0.0000000   0.0000000  16.0978635  )
        10           La1 tau(  10) = (   3.7341635   0.0000000  16.0978635  )
        11           La1 tau(  11) = (   1.8670818   3.2338805  16.0978635  )
        12           La1 tau(  12) = (   5.6012453   3.2338805  16.0978635  )
        13           O1  tau(  13) = (   0.0000000   0.0000000  18.4183635  )

     number of k points=    20  Fermi-Dirac smearing, width (Ry)=  0.0110
                       cart. coord. in units 2pi/alat
        k(    1) = (   0.0000000   0.0000000   0.0000000), wk =   0.0555556
        k(    2) = (   0.0000000   0.0257688   0.0000000), wk =   0.1111111
        k(    3) = (   0.0000000   0.0515377   0.0000000), wk =   0.1111111
        k(    4) = (   0.0000000  -0.0773065   0.0000000), wk =   0.0555556
        k(    5) = (   0.0223165  -0.0128844   0.0000000), wk =   0.1111111
        k(    6) = (   0.0223165   0.0128844   0.0000000), wk =   0.1111111
        k(    7) = (   0.0223165   0.0386533   0.0000000), wk =   0.1111111
        k(    8) = (   0.0223165  -0.0901909   0.0000000), wk =   0.1111111
        k(    9) = (   0.0223165  -0.0644221   0.0000000), wk =   0.1111111
        k(   10) = (   0.0223165  -0.0386533   0.0000000), wk =   0.1111111
        k(   11) = (   0.0446329  -0.0257688   0.0000000), wk =   0.1111111
        k(   12) = (   0.0446329   0.0000000   0.0000000), wk =   0.1111111
        k(   13) = (   0.0446329   0.0257688   0.0000000), wk =   0.1111111
        k(   14) = (   0.0446329  -0.1030753   0.0000000), wk =   0.1111111
        k(   15) = (   0.0446329  -0.0773065   0.0000000), wk =   0.1111111
        k(   16) = (   0.0446329  -0.0515377   0.0000000), wk =   0.1111111
        k(   17) = (  -0.0669494   0.0386533   0.0000000), wk =   0.0555556
        k(   18) = (  -0.0669494   0.0644221   0.0000000), wk =   0.1111111
        k(   19) = (  -0.0669494   0.0901909   0.0000000), wk =   0.1111111
        k(   20) = (  -0.0669494  -0.0386533   0.0000000), wk =   0.0555556

     Dense  grid:  1011733 G-vectors     FFT dimensions: (  90,  90, 320)

     Smooth grid:   255863 G-vectors     FFT dimensions: (  60,  60, 192)

     Largest allocated arrays     est. size (Mb)     dimensions
        Kohn-Sham Wavefunctions         2.49 Mb     (    2068,   79)
        NL pseudopotentials            12.53 Mb     (    2068,  397)
        Each V/rho on FFT grid          2.47 Mb     (  162000)
        Each G-vector array             0.48 Mb     (   63235)
        G-vector shells                 0.18 Mb     (   23142)
     Largest temporary arrays     est. size (Mb)     dimensions
        Auxiliary wavefunctions         9.97 Mb     (    2068,  316)
        Each subspace H/S matrix        1.52 Mb     (     316,  316)
        Each <psi_i|beta_j> matrix      0.48 Mb     (     397,   79)
        Arrays for rho mixing          24.72 Mb     (  162000,   10)

     Initial potential from superposition of free atoms
     Check: negative starting charge=   -0.831266

     starting charge  137.61518, renormalised to  138.00000

     negative rho (up, down):  8.336E-01 0.000E+00


     ************************************************************************
     *
     * You are using vdW-DF for exchange-correlation in this calculation.
     * Please cite the following three references that made this development
     * possible:
     *
     *   M. Dion, H. Rydberg, E. Schroder, D. C. Langreth, and
     *   B. I. Lundqvist, Phys. Rev. Lett. 92, 246401 (2004).
     *
     *   T. Thonhauser, V. R. Cooper, S. Li, A. Puzder, P. Hyldgaard, and
     *   D. C. Langreth, Phys. Rev. B 76, 125112 (2007).
     *
     *   G. Roman-Perez and J. M. Soler, Phys. Rev. Lett. 103, 096102 (2009).
     *
     *
     * If you are using vdW-DF2, please also cite:
     *
     *   K. Lee, E. D. Murray, L. Kong, B. I. Lundqvist, and
     *   D. C. Langreth, Phys. Rev. B 82, 081101(R) (2010).
     *
     *
     * If you are calculating the stress with vdW-DF, please also cite:
     *
     *   R. Sabatini, E. Kucukbenli, B. Kolb, T. Thonhauser, and
     *   S. de Gironcoli, J. Phys.: Condens. Matter 24, 424209 (2012).
     *
     ************************************************************************

     Carrying out vdW-DF run using the following parameters:

     Nqs =      20    Nr_points =    1024   r_max =   100.000
     q_mesh =
               0.00001000     0.04494208     0.09755937     0.15916263
               0.23128650     0.31572767     0.41458969     0.53033537
               0.66584808     0.82450364     1.01025438     1.22772762
               1.48234092     1.78043706     2.12944203     2.53805004
               3.01644009     3.57652955     4.23227104     5.00000000

     Gradients computed in reciprocal space

     ************************************************************************


 
     Adding external electric field

     Computed dipole along edir(3) : 
        Dipole               -0.1702 Ry au,         -0.4327 Debye
        Dipole field         -0.0003 Ry au
 
        Potential amp.        0.0242 Ry
        Total length         48.0849 bohr
 
     Starting wfc are  244 randomized atomic wfcs

     total cpu time spent up to now is       32.3 secs

     Self-consistent Calculation

     iteration #  1     ecut=    36.75 Ry     beta=0.30
     Davidson diagonalization with overlap
     ethr =  1.00E-02,  avg # of iterations =  2.0

     negative rho (up, down):  7.207E-01 0.000E+00
 
     Adding external electric field

     Computed dipole along edir(3) : 
        Dipole               -3.8435 Ry au,         -9.7692 Debye
        Dipole field         -0.0057 Ry au
 
        Potential amp.        0.5460 Ry
        Total length         48.0849 bohr
 

     total cpu time spent up to now is       65.7 secs

     total energy              =   -1278.14507481 Ry
     Harris-Foulkes estimate   =   -1281.61137062 Ry
     estimated scf accuracy    <       7.34976504 Ry

     iteration #  2     ecut=    36.75 Ry     beta=0.30
     Davidson diagonalization with overlap
     ethr =  5.33E-03,  avg # of iterations = 10.2

     negative rho (up, down):  6.644E-01 0.000E+00
 
     Adding external electric field

     Computed dipole along edir(3) : 
        Dipole                2.2484 Ry au,          5.7150 Debye
        Dipole field          0.0033 Ry au
 
        Potential amp.       -0.3194 Ry
        Total length         48.0849 bohr
 

     total cpu time spent up to now is      125.7 secs

     total energy              =   -1269.89032483 Ry
     Harris-Foulkes estimate   =   -1288.64881086 Ry
     estimated scf accuracy    <     487.96609435 Ry

     iteration #  3     ecut=    36.75 Ry     beta=0.30
     Davidson diagonalization with overlap
     ethr =  5.33E-03,  avg # of iterations = 12.7

     negative rho (up, down):  5.170E-01 0.000E+00
 
     Adding external electric field

     Computed dipole along edir(3) : 
        Dipole               -0.1132 Ry au,         -0.2877 Debye
        Dipole field         -0.0002 Ry au
 
        Potential amp.        0.0161 Ry
        Total length         48.0849 bohr
 

     total cpu time spent up to now is      190.5 secs

     total energy              =   -1276.22207287 Ry
     Harris-Foulkes estimate   =   -1289.31692164 Ry
     estimated scf accuracy    <     348.06497117 Ry

     iteration #  4     ecut=    36.75 Ry     beta=0.30
     Davidson diagonalization with overlap
     ethr =  5.33E-03,  avg # of iterations =  9.8

     negative rho (up, down):  5.178E-01 0.000E+00
 
     Adding external electric field

     Computed dipole along edir(3) : 
        Dipole               -0.5487 Ry au,         -1.3946 Debye
        Dipole field         -0.0008 Ry au
 
        Potential amp.        0.0779 Ry
        Total length         48.0849 bohr
 

     total cpu time spent up to now is      245.3 secs

     total energy              =   -1280.00947265 Ry
     Harris-Foulkes estimate   =   -1281.07679532 Ry
     estimated scf accuracy    <      27.61252028 Ry

     iteration #  5     ecut=    36.75 Ry     beta=0.30
     Davidson diagonalization with overlap
     ethr =  5.33E-03,  avg # of iterations =  6.6

     negative rho (up, down):  5.356E-01 0.000E+00
 
     Adding external electric field

     Computed dipole along edir(3) : 
        Dipole               -0.8340 Ry au,         -2.1199 Debye
        Dipole field         -0.0012 Ry au
 
        Potential amp.        0.1185 Ry
        Total length         48.0849 bohr
 

     total cpu time spent up to now is      285.7 secs

     total energy              =   -1280.66343868 Ry
     Harris-Foulkes estimate   =   -1280.78483553 Ry
     estimated scf accuracy    <       1.77431245 Ry

     iteration #  6     ecut=    36.75 Ry     beta=0.30
     Davidson diagonalization with overlap
     ethr =  1.29E-03,  avg # of iterations =  7.5

     negative rho (up, down):  5.222E-01 0.000E+00
 
     Adding external electric field

     Computed dipole along edir(3) : 
        Dipole               -0.7678 Ry au,         -1.9515 Debye
        Dipole field         -0.0011 Ry au
 
        Potential amp.        0.1091 Ry
        Total length         48.0849 bohr
 

     total cpu time spent up to now is      327.6 secs

     total energy              =   -1280.74600317 Ry
     Harris-Foulkes estimate   =   -1280.79671083 Ry
     estimated scf accuracy    <       0.34904639 Ry

     iteration #  7     ecut=    36.75 Ry     beta=0.30
     Davidson diagonalization with overlap
     ethr =  2.53E-04,  avg # of iterations =  8.2

     negative rho (up, down):  5.215E-01 0.000E+00
 
     Adding external electric field

     Computed dipole along edir(3) : 
        Dipole               -0.7398 Ry au,         -1.8804 Debye
        Dipole field         -0.0011 Ry au
 
        Potential amp.        0.1051 Ry
        Total length         48.0849 bohr
 

     total cpu time spent up to now is      372.0 secs

     total energy              =   -1280.75461665 Ry
     Harris-Foulkes estimate   =   -1280.78920482 Ry
     estimated scf accuracy    <       0.20007038 Ry

     iteration #  8     ecut=    36.75 Ry     beta=0.30
     Davidson diagonalization with overlap
     ethr =  1.45E-04,  avg # of iterations =  4.2

     negative rho (up, down):  5.275E-01 0.000E+00
 
     Adding external electric field

     Computed dipole along edir(3) : 
        Dipole               -0.7499 Ry au,         -1.9059 Debye
        Dipole field         -0.0011 Ry au
 
        Potential amp.        0.1065 Ry
        Total length         48.0849 bohr
 

     total cpu time spent up to now is      407.8 secs

     total energy              =   -1280.74939884 Ry
     Harris-Foulkes estimate   =   -1280.77198460 Ry
     estimated scf accuracy    <       0.69042773 Ry

     iteration #  9     ecut=    36.75 Ry     beta=0.30
     Davidson diagonalization with overlap
     ethr =  1.45E-04,  avg # of iterations =  3.9

     negative rho (up, down):  5.505E-01 0.000E+00
 
     Adding external electric field

     Computed dipole along edir(3) : 
        Dipole               -0.8242 Ry au,         -2.0948 Debye
        Dipole field         -0.0012 Ry au
 
        Potential amp.        0.1171 Ry
        Total length         48.0849 bohr
 

     total cpu time spent up to now is      442.6 secs

     total energy              =   -1280.74415771 Ry
     Harris-Foulkes estimate   =   -1280.75716175 Ry
     estimated scf accuracy    <       0.34051804 Ry

     iteration # 10     ecut=    36.75 Ry     beta=0.30
     Davidson diagonalization with overlap
     ethr =  1.45E-04,  avg # of iterations =  5.2

     negative rho (up, down):  5.661E-01 0.000E+00
 
     Adding external electric field

     Computed dipole along edir(3) : 
        Dipole               -0.8852 Ry au,         -2.2500 Debye
        Dipole field         -0.0013 Ry au
 
        Potential amp.        0.1258 Ry
        Total length         48.0849 bohr
 

     total cpu time spent up to now is      479.1 secs

     total energy              =   -1280.74335447 Ry
     Harris-Foulkes estimate   =   -1280.74956984 Ry
     estimated scf accuracy    <       0.20804392 Ry

     iteration # 11     ecut=    36.75 Ry     beta=0.30
     Davidson diagonalization with overlap
     ethr =  1.45E-04,  avg # of iterations =  4.2

     negative rho (up, down):  5.731E-01 0.000E+00
 
     Adding external electric field

     Computed dipole along edir(3) : 
        Dipole               -0.8830 Ry au,         -2.2443 Debye
        Dipole field         -0.0013 Ry au
 
        Potential amp.        0.1254 Ry
        Total length         48.0849 bohr
 

     total cpu time spent up to now is      513.7 secs

     total energy              =   -1280.74430814 Ry
     Harris-Foulkes estimate   =   -1280.74676384 Ry
     estimated scf accuracy    <       0.08246322 Ry

     iteration # 12     ecut=    36.75 Ry     beta=0.30
     Davidson diagonalization with overlap
     c_bands:  1 eigenvalues not converged
     ethr =  5.98E-05,  avg # of iterations =  6.7

     negative rho (up, down):  5.782E-01 0.000E+00
 
     Adding external electric field

     Computed dipole along edir(3) : 
        Dipole               -0.9076 Ry au,         -2.3070 Debye
        Dipole field         -0.0013 Ry au
 
        Potential amp.        0.1289 Ry
        Total length         48.0849 bohr
 

     total cpu time spent up to now is      551.9 secs

     total energy              =   -1280.74407599 Ry
     Harris-Foulkes estimate   =   -1280.74653178 Ry
     estimated scf accuracy    <       0.04998410 Ry

     iteration # 13     ecut=    36.75 Ry     beta=0.30
     Davidson diagonalization with overlap
     ethr =  3.62E-05,  avg # of iterations =  7.9

     negative rho (up, down):  5.795E-01 0.000E+00
 
     Adding external electric field

     Computed dipole along edir(3) : 
        Dipole               -0.9188 Ry au,         -2.3355 Debye
        Dipole field         -0.0014 Ry au
 
        Potential amp.        0.1305 Ry
        Total length         48.0849 bohr
 

     total cpu time spent up to now is      591.7 secs

     total energy              =   -1280.74372452 Ry
     Harris-Foulkes estimate   =   -1280.74583368 Ry
     estimated scf accuracy    <       0.01964015 Ry

     iteration # 14     ecut=    36.75 Ry     beta=0.30
     Davidson diagonalization with overlap
     c_bands:  2 eigenvalues not converged
     ethr =  1.42E-05,  avg # of iterations = 11.5

     negative rho (up, down):  5.808E-01 0.000E+00
 
     Adding external electric field

     Computed dipole along edir(3) : 
        Dipole               -0.9303 Ry au,         -2.3647 Debye
        Dipole field         -0.0014 Ry au
 
        Potential amp.        0.1322 Ry
        Total length         48.0849 bohr
 

     total cpu time spent up to now is      640.7 secs

     total energy              =   -1280.74599599 Ry
     Harris-Foulkes estimate   =   -1280.74609862 Ry
     estimated scf accuracy    <       0.00149950 Ry

     iteration # 15     ecut=    36.75 Ry     beta=0.30
     Davidson diagonalization with overlap
     c_bands:  1 eigenvalues not converged
     c_bands:  1 eigenvalues not converged
     c_bands:  1 eigenvalues not converged
     ethr =  1.09E-06,  avg # of iterations = 14.9

     negative rho (up, down):  5.812E-01 0.000E+00
 
     Adding external electric field

     Computed dipole along edir(3) : 
        Dipole               -0.9227 Ry au,         -2.3453 Debye
        Dipole field         -0.0014 Ry au
 
        Potential amp.        0.1311 Ry
        Total length         48.0849 bohr
 

     total cpu time spent up to now is      699.4 secs

     total energy              =   -1280.74608543 Ry
     Harris-Foulkes estimate   =   -1280.74639248 Ry
     estimated scf accuracy    <       0.00431077 Ry

     iteration # 16     ecut=    36.75 Ry     beta=0.30
     Davidson diagonalization with overlap
     ethr =  1.09E-06,  avg # of iterations =  7.0

     negative rho (up, down):  5.800E-01 0.000E+00
 
     Adding external electric field

     Computed dipole along edir(3) : 
        Dipole               -0.9225 Ry au,         -2.3449 Debye
        Dipole field         -0.0014 Ry au
 
        Potential amp.        0.1311 Ry
        Total length         48.0849 bohr
 

     total cpu time spent up to now is      743.5 secs

     total energy              =   -1280.74625318 Ry
     Harris-Foulkes estimate   =   -1280.74633294 Ry
     estimated scf accuracy    <       0.00095967 Ry

     iteration # 17     ecut=    36.75 Ry     beta=0.30
     Davidson diagonalization with overlap
     ethr =  6.95E-07,  avg # of iterations =  4.9

     negative rho (up, down):  5.798E-01 0.000E+00
 
     Adding external electric field

     Computed dipole along edir(3) : 
        Dipole               -0.9265 Ry au,         -2.3550 Debye
        Dipole field         -0.0014 Ry au
 
        Potential amp.        0.1316 Ry
        Total length         48.0849 bohr
 

     total cpu time spent up to now is      780.3 secs

     total energy              =   -1280.74624403 Ry
     Harris-Foulkes estimate   =   -1280.74627729 Ry
     estimated scf accuracy    <       0.00023678 Ry

     iteration # 18     ecut=    36.75 Ry     beta=0.30
     Davidson diagonalization with overlap
     ethr =  1.72E-07,  avg # of iterations = 10.1

     negative rho (up, down):  5.804E-01 0.000E+00
 
     Adding external electric field

     Computed dipole along edir(3) : 
        Dipole               -0.9235 Ry au,         -2.3474 Debye
        Dipole field         -0.0014 Ry au
 
        Potential amp.        0.1312 Ry
        Total length         48.0849 bohr
 

     total cpu time spent up to now is      830.9 secs

     total energy              =   -1280.74627390 Ry
     Harris-Foulkes estimate   =   -1280.74630056 Ry
     estimated scf accuracy    <       0.00018723 Ry

     iteration # 19     ecut=    36.75 Ry     beta=0.30
     Davidson diagonalization with overlap
     ethr =  1.36E-07,  avg # of iterations =  4.0

     negative rho (up, down):  5.817E-01 0.000E+00
 
     Adding external electric field

     Computed dipole along edir(3) : 
        Dipole               -0.9260 Ry au,         -2.3536 Debye
        Dipole field         -0.0014 Ry au
 
        Potential amp.        0.1315 Ry
        Total length         48.0849 bohr
 

     total cpu time spent up to now is      866.9 secs

     total energy              =   -1280.74627778 Ry
     Harris-Foulkes estimate   =   -1280.74627810 Ry
     estimated scf accuracy    <       0.00007641 Ry

     iteration # 20     ecut=    36.75 Ry     beta=0.30
     Davidson diagonalization with overlap
     ethr =  5.54E-08,  avg # of iterations =  8.4

     negative rho (up, down):  5.817E-01 0.000E+00
 
     Adding external electric field

     Computed dipole along edir(3) : 
        Dipole               -0.9258 Ry au,         -2.3531 Debye
        Dipole field         -0.0014 Ry au
 
        Potential amp.        0.1315 Ry
        Total length         48.0849 bohr
 

     total cpu time spent up to now is      910.9 secs

     total energy              =   -1280.74628411 Ry
     Harris-Foulkes estimate   =   -1280.74628689 Ry
     estimated scf accuracy    <       0.00001542 Ry

     iteration # 21     ecut=    36.75 Ry     beta=0.30
     Davidson diagonalization with overlap
     c_bands:  1 eigenvalues not converged
     ethr =  1.12E-08,  avg # of iterations =  8.9

     negative rho (up, down):  5.819E-01 0.000E+00
 
     Adding external electric field

     Computed dipole along edir(3) : 
        Dipole               -0.9257 Ry au,         -2.3529 Debye
        Dipole field         -0.0014 Ry au
 
        Potential amp.        0.1315 Ry
        Total length         48.0849 bohr
 

     total cpu time spent up to now is      956.2 secs

     total energy              =   -1280.74628561 Ry
     Harris-Foulkes estimate   =   -1280.74628656 Ry
     estimated scf accuracy    <       0.00001446 Ry

     iteration # 22     ecut=    36.75 Ry     beta=0.30
     Davidson diagonalization with overlap
     ethr =  1.05E-08,  avg # of iterations =  3.8

     negative rho (up, down):  5.822E-01 0.000E+00

     negative rho (up, down):  5.822E-01 0.000E+00

     negative rho (up, down):  5.822E-01 0.000E+00

     negative rho (up, down):  5.822E-01 0.000E+00

     negative rho (up, down):  5.822E-01 0.000E+00

     negative rho (up, down):  5.822E-01 0.000E+00

     negative rho (up, down):  5.822E-01 0.000E+00

     negative rho (up, down):  5.822E-01 0.000E+00

     negative rho (up, down):  5.822E-01 0.000E+00

     negative rho (up, down):  5.822E-01 0.000E+00

     negative rho (up, down):  5.822E-01 0.000E+00

     negative rho (up, down):  5.822E-01 0.000E+00

     negative rho (up, down):  5.822E-01 0.000E+00

     negative rho (up, down):  5.822E-01 0.000E+00

     negative rho (up, down):  5.822E-01 0.000E+00

     negative rho (up, down):  5.822E-01 0.000E+00

     negative rho (up, down):  5.822E-01 0.000E+00

     negative rho (up, down):  5.822E-01 0.000E+00

     negative rho (up, down):  5.822E-01 0.000E+00

     negative rho (up, down):  5.822E-01 0.000E+00

     negative rho (up, down):  5.822E-01 0.000E+00

     negative rho (up, down):  5.822E-01 0.000E+00

     negative rho (up, down):  5.822E-01 0.000E+00

     negative rho (up, down):  5.822E-01 0.000E+00

     negative rho (up, down):  5.822E-01 0.000E+00

     negative rho (up, down):  5.822E-01 0.000E+00

     negative rho (up, down):  5.822E-01 0.000E+00

     negative rho (up, down):  5.822E-01 0.000E+00

     negative rho (up, down):  5.822E-01 0.000E+00

     negative rho (up, down):  5.822E-01 0.000E+00

     negative rho (up, down):  5.822E-01 0.000E+00

     negative rho (up, down):  5.822E-01 0.000E+00

     negative rho (up, down):  5.822E-01 0.000E+00

     negative rho (up, down):  5.822E-01 0.000E+00

     negative rho (up, down):  5.822E-01 0.000E+00
 
     Adding external electric field

     Computed dipole along edir(3) : 
        Dipole               -0.9074 Ry au,         -2.3065 Debye
        Dipole field         -0.0013 Ry au
 
        Potential amp.        0.1289 Ry
        Total length         48.0849 bohr
 

     total cpu time spent up to now is     1028.0 secs

     End of self-consistent calculation

          k = 0.0000 0.0000 0.0000 ( 31997 PWs)   bands (ev):

   -32.1836 -32.0824 -32.0823 -32.0691 -31.9402 -31.9400 -31.9301 -31.6200
   -31.5032 -31.5031 -31.4704 -31.1789 -16.2443 -16.1641 -16.1641 -16.1304
   -16.0900 -16.0900 -16.0748 -15.9611 -15.9611 -15.9219 -15.7911 -15.6558
   -15.6557 -15.6006 -15.4725 -15.4233 -15.4233 -15.4230 -15.3274 -15.3269
   -15.3269 -15.2992 -15.2991 -15.0731 -15.0731 -15.0274 -15.0274 -15.0232
   -14.9726 -14.9049 -14.9049 -14.8997 -14.7179 -14.7179 -14.6518 -14.6518
   -13.0590  -1.4961  -0.7671  -0.4457  -0.3929  -0.3929  -0.3571  -0.1477
    -0.1434  -0.1434   0.0040   0.1037   0.1037   0.1320   0.1525   0.1525
     0.3455   0.3455   0.4801   0.9797   1.2902   1.2902   1.4909   1.8487
     1.9792   1.9792   2.0743   2.1389   2.3802   2.4669   2.4670

          k = 0.0000 0.0258 0.0000 ( 32061 PWs)   bands (ev):

   -32.1773 -32.0882 -32.0824 -32.0605 -31.9474 -31.9401 -31.9319 -31.6121
   -31.5094 -31.5032 -31.4725 -31.1795 -16.2018 -16.1271 -16.1158 -16.0877
   -16.0557 -16.0528 -16.0420 -15.9375 -15.9347 -15.8911 -15.7838 -15.6741
   -15.6621 -15.6136 -15.5003 -15.4153 -15.4103 -15.4063 -15.3722 -15.3701
   -15.3568 -15.3187 -15.3009 -15.1621 -15.0906 -15.0318 -15.0244 -15.0130
   -14.9622 -14.9425 -14.9393 -14.8900 -14.7647 -14.7304 -14.7170 -14.6650
   -13.0586  -1.3151  -0.5867  -0.3049  -0.2952  -0.2735  -0.2163  -0.0961
    -0.0505  -0.0262   0.0880   0.1426   0.2021   0.2426   0.3301   0.3525
     0.4169   0.4280   0.5590   1.0286   1.3028   1.3037   1.4792   1.8345
     1.9378   1.9693   1.9791   2.0499   2.1052   2.2531   2.2810

          k = 0.0000 0.0515 0.0000 ( 32002 PWs)   bands (ev):

   -32.1613 -32.1037 -32.0825 -32.0368 -31.9709 -31.9402 -31.9329 -31.5906
   -31.5290 -31.5032 -31.4754 -31.1805 -16.1140 -16.0340 -16.0081 -16.0027
   -15.9770 -15.9559 -15.8995 -15.8855 -15.8723 -15.8255 -15.7663 -15.7107
   -15.6840 -15.6423 -15.5861 -15.5126 -15.4846 -15.4802 -15.3753 -15.3678
   -15.3633 -15.3319 -15.3163 -15.2623 -15.1379 -15.0708 -15.0571 -15.0258
   -14.9999 -14.9973 -14.9488 -14.9245 -14.8569 -14.8142 -14.7556 -14.6972
   -13.0578  -0.8435  -0.1813  -0.1600  -0.0933  -0.0603   0.0217   0.0593
     0.2091   0.2635   0.2984   0.4353   0.4682   0.5011   0.6363   0.7389
     0.8080   0.8474   0.8729   1.1132   1.2874   1.3166   1.4030   1.5429
     1.7046   1.7590   1.8445   1.8874   1.9171   2.0003   2.0414

          k = 0.0000-0.0773 0.0000 ( 31970 PWs)   bands (ev):

   -32.1482 -32.1165 -32.0825 -32.0068 -32.0011 -31.9402 -31.9331 -31.5676
   -31.5515 -31.5032 -31.4764 -31.1810 -16.0678 -15.9666 -15.9525 -15.9487
   -15.9286 -15.8872 -15.8401 -15.8169 -15.7792 -15.7600 -15.7306 -15.7249
   -15.6855 -15.6536 -15.6408 -15.6276 -15.6212 -15.5535 -15.5457 -15.3477
   -15.3244 -15.3127 -15.2024 -15.1998 -15.1826 -15.1570 -15.1186 -15.0877
   -15.0635 -15.0018 -14.9937 -14.9439 -14.8456 -14.8320 -14.7707 -14.7187
   -13.0574  -0.3427  -0.3098  -0.0382  -0.0342   0.0030   0.1630   0.1999
     0.4601   0.4752   0.5318   0.5706   0.6221   0.6914   0.9362   0.9883
     1.1102   1.1125   1.1540   1.1789   1.3964   1.4242   1.4916   1.4937
     1.5683   1.6503   1.6597   1.7067   1.7855   1.8905   1.9038

          k = 0.0223-0.0129 0.0000 ( 32061 PWs)   bands (ev):

   -32.1773 -32.0883 -32.0824 -32.0605 -31.9474 -31.9401 -31.9319 -31.6121
   -31.5094 -31.5032 -31.4725 -31.1795 -16.2018 -16.1271 -16.1158 -16.0877
   -16.0557 -16.0528 -16.0420 -15.9375 -15.9348 -15.8911 -15.7838 -15.6741
   -15.6620 -15.6136 -15.5003 -15.4153 -15.4103 -15.4063 -15.3722 -15.3701
   -15.3568 -15.3187 -15.3009 -15.1621 -15.0906 -15.0317 -15.0244 -15.0130
   -14.9623 -14.9425 -14.9393 -14.8900 -14.7647 -14.7304 -14.7170 -14.6650
   -13.0586  -1.3151  -0.5867  -0.3049  -0.2952  -0.2735  -0.2163  -0.0961
    -0.0505  -0.0262   0.0880   0.1426   0.2021   0.2426   0.3301   0.3525
     0.4169   0.4280   0.5590   1.0286   1.3028   1.3037   1.4792   1.8345
     1.9377   1.9693   1.9791   2.0499   2.1052   2.2531   2.2813

          k = 0.0223 0.0129 0.0000 ( 32061 PWs)   bands (ev):

   -32.1773 -32.0883 -32.0823 -32.0605 -31.9474 -31.9402 -31.9318 -31.6121
   -31.5094 -31.5031 -31.4725 -31.1795 -16.2018 -16.1271 -16.1158 -16.0877
   -16.0557 -16.0528 -16.0420 -15.9375 -15.9348 -15.8911 -15.7838 -15.6741
   -15.6621 -15.6136 -15.5003 -15.4152 -15.4103 -15.4063 -15.3722 -15.3701
   -15.3568 -15.3187 -15.3009 -15.1621 -15.0906 -15.0318 -15.0244 -15.0130
   -14.9622 -14.9425 -14.9393 -14.8900 -14.7647 -14.7304 -14.7170 -14.6650
   -13.0586  -1.3151  -0.5867  -0.3049  -0.2952  -0.2735  -0.2163  -0.0961
    -0.0505  -0.0262   0.0880   0.1426   0.2021   0.2426   0.3301   0.3525
     0.4169   0.4280   0.5590   1.0286   1.3028   1.3037   1.4792   1.8345
     1.9377   1.9693   1.9791   2.0499   2.1052   2.2531   2.2811

          k = 0.0223 0.0387 0.0000 ( 32007 PWs)   bands (ev):

   -32.1660 -32.0989 -32.0826 -32.0443 -31.9569 -31.9513 -31.9280 -31.5974
   -31.5195 -31.5073 -31.4738 -31.1802 -16.1329 -16.0578 -16.0388 -16.0197
   -16.0122 -15.9663 -15.9583 -15.8990 -15.8967 -15.8419 -15.7712 -15.6984
   -15.6830 -15.6324 -15.5730 -15.5080 -15.4364 -15.3932 -15.3790 -15.3744
   -15.3389 -15.3274 -15.3232 -15.3006 -15.1290 -15.0730 -15.0318 -15.0196
   -15.0033 -14.9530 -14.9155 -14.9106 -14.8628 -14.7927 -14.7484 -14.6969
   -13.0580  -0.9844  -0.2755  -0.1592  -0.1359  -0.1060  -0.0010   0.0597
     0.1187   0.1589   0.2092   0.2639   0.4455   0.4890   0.4959   0.5707
     0.6188   0.7583   0.7850   1.0961   1.3069   1.3189   1.4200   1.6616
     1.7244   1.7985   1.8489   1.9212   1.9463   2.0572   2.1814

          k = 0.0223-0.0902 0.0000 ( 31991 PWs)   bands (ev):

   -32.1486 -32.1157 -32.0829 -32.0162 -31.9830 -31.9580 -31.9240 -31.5726
   -31.5402 -31.5129 -31.4729 -31.1810 -16.0448 -15.9663 -15.9619 -15.9361
   -15.9198 -15.8717 -15.8536 -15.8327 -15.7892 -15.7739 -15.7587 -15.7317
   -15.7120 -15.6960 -15.6551 -15.6401 -15.5672 -15.5201 -15.4158 -15.3579
   -15.3465 -15.3016 -15.2923 -15.2398 -15.2010 -15.1817 -15.0780 -15.0448
   -15.0255 -14.9947 -14.9635 -14.9384 -14.8669 -14.8267 -14.7882 -14.7395
   -13.0574  -0.4571  -0.1138  -0.0377  -0.0233   0.0796   0.2270   0.2733
     0.3901   0.4358   0.4799   0.6137   0.7045   0.7445   0.8296   0.9106
     0.9762   1.0169   1.1772   1.2334   1.2727   1.3100   1.3885   1.5075
     1.5321   1.5952   1.6230   1.7035   1.7861   1.8710   1.9072

          k = 0.0223-0.0644 0.0000 ( 31991 PWs)   bands (ev):

   -32.1486 -32.1156 -32.0830 -32.0162 -31.9830 -31.9580 -31.9240 -31.5726
   -31.5402 -31.5129 -31.4729 -31.1810 -16.0448 -15.9663 -15.9619 -15.9362
   -15.9197 -15.8717 -15.8537 -15.8327 -15.7892 -15.7739 -15.7587 -15.7316
   -15.7121 -15.6960 -15.6551 -15.6401 -15.5672 -15.5201 -15.4158 -15.3580
   -15.3465 -15.3016 -15.2923 -15.2398 -15.2010 -15.1817 -15.0781 -15.0448
   -15.0255 -14.9947 -14.9635 -14.9384 -14.8669 -14.8267 -14.7882 -14.7395
   -13.0574  -0.4571  -0.1138  -0.0376  -0.0233   0.0796   0.2269   0.2733
     0.3901   0.4358   0.4799   0.6137   0.7045   0.7445   0.8296   0.9106
     0.9762   1.0169   1.1772   1.2333   1.2727   1.3100   1.3885   1.5075
     1.5322   1.5952   1.6230   1.7035   1.7861   1.8710   1.9072

          k = 0.0223-0.0387 0.0000 ( 32007 PWs)   bands (ev):

   -32.1660 -32.0989 -32.0826 -32.0443 -31.9570 -31.9512 -31.9280 -31.5974
   -31.5194 -31.5074 -31.4738 -31.1802 -16.1329 -16.0578 -16.0388 -16.0197
   -16.0122 -15.9663 -15.9583 -15.8990 -15.8967 -15.8419 -15.7712 -15.6984
   -15.6829 -15.6324 -15.5730 -15.5080 -15.4364 -15.3932 -15.3790 -15.3744
   -15.3390 -15.3274 -15.3232 -15.3006 -15.1290 -15.0730 -15.0318 -15.0196
   -15.0033 -14.9530 -14.9155 -14.9106 -14.8628 -14.7927 -14.7484 -14.6969
   -13.0580  -0.9844  -0.2755  -0.1592  -0.1359  -0.1060  -0.0010   0.0597
     0.1187   0.1589   0.2092   0.2639   0.4455   0.4890   0.4959   0.5707
     0.6188   0.7583   0.7850   1.0961   1.3068   1.3189   1.4200   1.6616
     1.7245   1.7985   1.8489   1.9212   1.9463   2.0572   2.1818

          k = 0.0446-0.0258 0.0000 ( 32002 PWs)   bands (ev):

   -32.1613 -32.1037 -32.0824 -32.0368 -31.9709 -31.9402 -31.9329 -31.5906
   -31.5289 -31.5032 -31.4754 -31.1805 -16.1139 -16.0340 -16.0081 -16.0027
   -15.9770 -15.9559 -15.8995 -15.8855 -15.8723 -15.8255 -15.7663 -15.7107
   -15.6840 -15.6423 -15.5861 -15.5126 -15.4846 -15.4802 -15.3753 -15.3678
   -15.3633 -15.3319 -15.3163 -15.2623 -15.1379 -15.0708 -15.0571 -15.0258
   -14.9999 -14.9973 -14.9488 -14.9245 -14.8569 -14.8142 -14.7556 -14.6972
   -13.0578  -0.8435  -0.1813  -0.1600  -0.0934  -0.0603   0.0217   0.0593
     0.2091   0.2635   0.2984   0.4353   0.4682   0.5012   0.6363   0.7389
     0.8080   0.8474   0.8729   1.1132   1.2874   1.3166   1.4030   1.5429
     1.7046   1.7590   1.8445   1.8874   1.9171   2.0003   2.0413

          k = 0.0446 0.0000 0.0000 ( 32007 PWs)   bands (ev):

   -32.1660 -32.0990 -32.0825 -32.0443 -31.9569 -31.9513 -31.9280 -31.5974
   -31.5195 -31.5074 -31.4738 -31.1802 -16.1329 -16.0578 -16.0388 -16.0197
   -16.0122 -15.9663 -15.9583 -15.8990 -15.8967 -15.8419 -15.7712 -15.6984
   -15.6830 -15.6324 -15.5730 -15.5080 -15.4364 -15.3932 -15.3790 -15.3744
   -15.3389 -15.3274 -15.3232 -15.3006 -15.1290 -15.0730 -15.0318 -15.0196
   -15.0033 -14.9530 -14.9154 -14.9106 -14.8628 -14.7927 -14.7484 -14.6969
   -13.0580  -0.9844  -0.2755  -0.1592  -0.1359  -0.1060  -0.0010   0.0597
     0.1187   0.1589   0.2092   0.2639   0.4455   0.4890   0.4959   0.5707
     0.6188   0.7583   0.7850   1.0961   1.3069   1.3189   1.4200   1.6616
     1.7244   1.7985   1.8489   1.9212   1.9463   2.0572   2.1815

          k = 0.0446 0.0258 0.0000 ( 32002 PWs)   bands (ev):

   -32.1613 -32.1038 -32.0824 -32.0368 -31.9709 -31.9403 -31.9328 -31.5906
   -31.5290 -31.5032 -31.4754 -31.1805 -16.1139 -16.0340 -16.0081 -16.0027
   -15.9770 -15.9559 -15.8996 -15.8855 -15.8723 -15.8255 -15.7663 -15.7107
   -15.6840 -15.6423 -15.5861 -15.5127 -15.4846 -15.4802 -15.3753 -15.3678
   -15.3634 -15.3319 -15.3162 -15.2623 -15.1379 -15.0708 -15.0571 -15.0258
   -14.9999 -14.9973 -14.9488 -14.9245 -14.8569 -14.8142 -14.7556 -14.6972
   -13.0578  -0.8435  -0.1813  -0.1600  -0.0934  -0.0603   0.0217   0.0593
     0.2091   0.2635   0.2984   0.4353   0.4682   0.5012   0.6363   0.7389
     0.8080   0.8474   0.8729   1.1132   1.2874   1.3166   1.4030   1.5429
     1.7046   1.7590   1.8444   1.8874   1.9171   2.0003   2.0413

          k = 0.0446-0.1031 0.0000 ( 31991 PWs)   bands (ev):

   -32.1485 -32.1158 -32.0829 -32.0162 -31.9830 -31.9581 -31.9240 -31.5726
   -31.5402 -31.5129 -31.4729 -31.1810 -16.0448 -15.9663 -15.9618 -15.9362
   -15.9198 -15.8718 -15.8536 -15.8328 -15.7892 -15.7739 -15.7586 -15.7317
   -15.7120 -15.6961 -15.6551 -15.6401 -15.5673 -15.5201 -15.4158 -15.3579
   -15.3464 -15.3016 -15.2923 -15.2398 -15.2010 -15.1817 -15.0780 -15.0448
   -15.0255 -14.9947 -14.9635 -14.9384 -14.8669 -14.8267 -14.7882 -14.7395
   -13.0574  -0.4571  -0.1138  -0.0377  -0.0233   0.0796   0.2270   0.2733
     0.3901   0.4358   0.4799   0.6137   0.7045   0.7445   0.8296   0.9106
     0.9762   1.0168   1.1772   1.2333   1.2727   1.3100   1.3885   1.5075
     1.5321   1.5952   1.6230   1.7035   1.7861   1.8710   1.9072

          k = 0.0446-0.0773 0.0000 ( 31986 PWs)   bands (ev):

   -32.1319 -32.1318 -32.0834 -31.9904 -31.9902 -31.9812 -31.9196 -31.5538
   -31.5493 -31.5254 -31.4704 -31.1813 -15.9423 -15.9361 -15.9136 -15.9115
   -15.8883 -15.8519 -15.8355 -15.8000 -15.7829 -15.7680 -15.7598 -15.7086
   -15.6913 -15.6901 -15.6830 -15.6807 -15.6533 -15.6458 -15.3957 -15.3273
   -15.3117 -15.3101 -15.3030 -15.2697 -15.2011 -15.1946 -15.1909 -15.0454
   -15.0304 -14.9902 -14.9479 -14.8974 -14.8646 -14.8604 -14.7983 -14.7979
   -13.0572  -0.1516  -0.0082   0.0104   0.0851   0.0949   0.2083   0.5338
     0.5450   0.6003   0.6810   0.6927   0.9102   0.9849   0.9877   1.0056
     1.0320   1.0424   1.0699   1.2043   1.2314   1.2646   1.3165   1.3440
     1.4128   1.5726   1.5829   1.5871   1.6524   1.7056   1.7419

          k = 0.0446-0.0515 0.0000 ( 31991 PWs)   bands (ev):

   -32.1485 -32.1157 -32.0829 -32.0162 -31.9830 -31.9580 -31.9240 -31.5726
   -31.5402 -31.5129 -31.4729 -31.1810 -16.0448 -15.9663 -15.9618 -15.9362
   -15.9197 -15.8718 -15.8536 -15.8328 -15.7892 -15.7739 -15.7586 -15.7316
   -15.7121 -15.6960 -15.6551 -15.6401 -15.5673 -15.5201 -15.4158 -15.3579
   -15.3464 -15.3016 -15.2923 -15.2398 -15.2010 -15.1817 -15.0780 -15.0448
   -15.0255 -14.9947 -14.9635 -14.9384 -14.8669 -14.8267 -14.7882 -14.7395
   -13.0574  -0.4571  -0.1138  -0.0377  -0.0233   0.0796   0.2270   0.2733
     0.3901   0.4358   0.4799   0.6137   0.7045   0.7445   0.8296   0.9106
     0.9762   1.0168   1.1772   1.2333   1.2727   1.3100   1.3885   1.5075
     1.5322   1.5952   1.6230   1.7035   1.7861   1.8710   1.9072

          k =-0.0669 0.0387 0.0000 ( 31970 PWs)   bands (ev):

   -32.1481 -32.1166 -32.0825 -32.0068 -32.0011 -31.9402 -31.9331 -31.5676
   -31.5515 -31.5032 -31.4764 -31.1810 -16.0677 -15.9666 -15.9525 -15.9487
   -15.9286 -15.8873 -15.8401 -15.8169 -15.7792 -15.7600 -15.7306 -15.7249
   -15.6856 -15.6537 -15.6408 -15.6276 -15.6211 -15.5535 -15.5457 -15.3477
   -15.3244 -15.3127 -15.2025 -15.1998 -15.1826 -15.1570 -15.1186 -15.0877
   -15.0634 -15.0019 -14.9937 -14.9439 -14.8456 -14.8320 -14.7707 -14.7187
   -13.0574  -0.3428  -0.3098  -0.0382  -0.0342   0.0030   0.1630   0.1999
     0.4601   0.4751   0.5318   0.5706   0.6221   0.6914   0.9362   0.9883
     1.1102   1.1125   1.1540   1.1788   1.3964   1.4242   1.4916   1.4938
     1.5683   1.6503   1.6596   1.7067   1.7855   1.8905   1.9038

          k =-0.0669 0.0644 0.0000 ( 31991 PWs)   bands (ev):

   -32.1485 -32.1158 -32.0829 -32.0162 -31.9830 -31.9581 -31.9240 -31.5726
   -31.5402 -31.5129 -31.4729 -31.1810 -16.0448 -15.9663 -15.9618 -15.9362
   -15.9198 -15.8717 -15.8536 -15.8328 -15.7892 -15.7739 -15.7587 -15.7317
   -15.7120 -15.6960 -15.6551 -15.6401 -15.5672 -15.5201 -15.4158 -15.3579
   -15.3464 -15.3016 -15.2923 -15.2398 -15.2010 -15.1817 -15.0780 -15.0448
   -15.0255 -14.9947 -14.9635 -14.9384 -14.8669 -14.8267 -14.7882 -14.7395
   -13.0574  -0.4571  -0.1138  -0.0377  -0.0233   0.0796   0.2270   0.2733
     0.3901   0.4358   0.4799   0.6137   0.7045   0.7445   0.8296   0.9106
     0.9762   1.0169   1.1772   1.2334   1.2727   1.3100   1.3885   1.5075
     1.5321   1.5952   1.6230   1.7035   1.7861   1.8710   1.9072

          k =-0.0669 0.0902 0.0000 ( 31991 PWs)   bands (ev):

   -32.1485 -32.1158 -32.0829 -32.0162 -31.9830 -31.9581 -31.9240 -31.5726
   -31.5402 -31.5129 -31.4729 -31.1810 -16.0448 -15.9663 -15.9618 -15.9362
   -15.9198 -15.8718 -15.8536 -15.8328 -15.7892 -15.7739 -15.7587 -15.7317
   -15.7120 -15.6961 -15.6551 -15.6401 -15.5672 -15.5201 -15.4158 -15.3579
   -15.3464 -15.3016 -15.2923 -15.2398 -15.2010 -15.1817 -15.0780 -15.0448
   -15.0255 -14.9947 -14.9635 -14.9384 -14.8669 -14.8267 -14.7882 -14.7395
   -13.0574  -0.4571  -0.1138  -0.0377  -0.0233   0.0796   0.2270   0.2733
     0.3901   0.4358   0.4799   0.6137   0.7045   0.7445   0.8296   0.9106
     0.9762   1.0169   1.1772   1.2333   1.2727   1.3100   1.3885   1.5075
     1.5321   1.5952   1.6230   1.7035   1.7861   1.8710   1.9072

          k =-0.0669-0.0387 0.0000 ( 31970 PWs)   bands (ev):

   -32.1481 -32.1167 -32.0824 -32.0069 -32.0010 -31.9403 -31.9331 -31.5676
   -31.5515 -31.5032 -31.4764 -31.1810 -16.0677 -15.9666 -15.9525 -15.9488
   -15.9287 -15.8873 -15.8402 -15.8169 -15.7791 -15.7600 -15.7306 -15.7249
   -15.6856 -15.6536 -15.6408 -15.6276 -15.6211 -15.5535 -15.5457 -15.3476
   -15.3244 -15.3126 -15.2025 -15.1997 -15.1827 -15.1570 -15.1185 -15.0878
   -15.0635 -15.0018 -14.9937 -14.9439 -14.8456 -14.8320 -14.7707 -14.7187
   -13.0574  -0.3428  -0.3098  -0.0381  -0.0342   0.0030   0.1630   0.1999
     0.4601   0.4752   0.5318   0.5706   0.6221   0.6914   0.9362   0.9883
     1.1102   1.1125   1.1540   1.1788   1.3964   1.4241   1.4916   1.4938
     1.5683   1.6503   1.6596   1.7067   1.7855   1.8905   1.9038

     the Fermi energy is     1.2917 ev

!    total energy              =   -1280.74628470 Ry
     Harris-Foulkes estimate   =   -1280.74633595 Ry
     estimated scf accuracy    <       0.00000228 Ry

     The total energy is the sum of the following terms:

     one-electron contribution =   -4760.87427757 Ry
     hartree contribution      =    2393.02728885 Ry
     xc contribution           =    -616.02984387 Ry
     ewald contribution        =    1703.24878173 Ry
     electric field correction =       0.00121636 Ry
     smearing contrib. (-TS)   =      -0.11945021 Ry

     convergence has been achieved in  22 iterations
 
 BEEF-vdW xc energy contributions
           1 :   -545.657800261739     
           2 :    501.687131344518     
           3 :   -424.064167923238     
           4 :    329.457419430301     
           5 :   -235.415403976627     
           6 :    155.748510459105     
           7 :   -97.9995807500613     
           8 :    63.1642428121518     
           9 :   -47.1666703795995     
          10 :    43.2478376937862     
          11 :   -44.3664474008642     
          12 :    44.9170018977420     
          13 :   -41.5245371805482     
          14 :    33.0918089477228     
          15 :   -20.4400184425197     
          16 :    5.75965561849898     
          17 :    8.07313062617436     
          18 :   -18.2939287497875     
          19 :    23.0484403601565     
          20 :   -21.9850733336001     
          21 :    16.4040439452319     
          22 :   -8.83977556421746     
          23 :    2.17535066886808     
          24 :    1.38368273037577     
          25 :   -1.05841047732406     
          26 :   -2.35021605945985     
          27 :    6.95333257594359     
          28 :   -10.6663237618569     
          29 :    12.0869051297320     
          30 :   -10.9815478309220     
          31 :   -46.4720679232357     
          32 :   -33.2996762822447     

     Forces acting on atoms (Ry/au):


     negative rho (up, down):  5.822E-01 0.000E+00
     atom    1 type  1   force =    -0.00040468   -0.00023541    0.00437684
     atom    2 type  1   force =     0.00039889   -0.00023298    0.00437893
     atom    3 type  1   force =     0.00000483    0.00046818    0.00438558
     atom    4 type  1   force =    -0.00000042    0.00000548    0.00475017
     atom    5 type  1   force =     0.00000179    0.00486511   -0.00651724
     atom    6 type  1   force =    -0.00000388   -0.00000163   -0.00092836
     atom    7 type  1   force =    -0.00420924   -0.00243766   -0.00651930
     atom    8 type  1   force =     0.00421325   -0.00242508   -0.00651828
     atom    9 type  1   force =     0.00000181    0.00000241    0.13313738
     atom   10 type  1   force =     0.00000223   -0.00078186    0.00705808
     atom   11 type  1   force =    -0.00067885    0.00038857    0.00705365
     atom   12 type  1   force =     0.00067504    0.00038436    0.00705654
     atom   13 type  2   force =    -0.00000078    0.00000052   -0.15171400

     Total force =     0.202222     Total SCF correction =     0.002781


     entering subroutine stress ...


     negative rho (up, down):  5.822E-01 0.000E+00
          total   stress  (Ry/bohr**3)                   (kbar)     P=   -4.57
  -0.00000132   0.00000000   0.00000000         -0.19      0.00      0.00
   0.00000000  -0.00000132  -0.00000000          0.00     -0.19     -0.00
   0.00000000  -0.00000000  -0.00009055          0.00     -0.00    -13.32


     BFGS Geometry Optimization

     number of scf cycles    =   1
     number of bfgs steps    =   0

     energy   new            =   -1280.7462847021 Ry

     new trust radius        =       0.1517139998 bohr
     new conv_thr            =       0.0000099958 Ry


ATOMIC_POSITIONS (crystal)
La1      0.166666667   0.166666667   0.383173129    0   0   0
La1      0.666666667   0.166666667   0.383173129    0   0   0
La1      0.166666667   0.666666667   0.383173129    0   0   0
La1      0.666666667   0.666666667   0.383173129    0   0   0
La1      0.833333333   0.333333333   0.500000000    0   0   0
La1      0.333333333   0.333333333   0.500000000    0   0   0
La1      0.833333333   0.833333333   0.500000000    0   0   0
La1      0.333333333   0.833333333   0.500000000    0   0   0
La1      0.000000030   0.000000197   0.619526451
La1      0.500032143  -0.000063970   0.616969985
La1     -0.000063996   0.500031792   0.616969895
La1      0.500032107   0.500031447   0.616969954
O1      -0.000000076   0.000000043   0.702665944



     Writing output data file calc.save
     Check: negative starting charge=   -0.831266
     NEW-OLD atomic charge density approx. for the potential
     Check: negative starting charge=   -0.831760

     negative rho (up, down):  5.846E-01 0.000E+00
 
     Adding external electric field

     Computed dipole along edir(3) : 
        Dipole               -0.9025 Ry au,         -2.2939 Debye
        Dipole field         -0.0013 Ry au
 
        Potential amp.        0.1282 Ry
        Total length         48.0849 bohr
 

     total cpu time spent up to now is     1128.6 secs

     Self-consistent Calculation

     iteration #  1     ecut=    36.75 Ry     beta=0.30
     Davidson diagonalization with overlap
     c_bands:  1 eigenvalues not converged
     c_bands:  1 eigenvalues not converged
     c_bands:  1 eigenvalues not converged
     ethr =  1.00E-06,  avg # of iterations = 15.1

     negative rho (up, down):  5.822E-01 0.000E+00
 
     Adding external electric field

     Computed dipole along edir(3) : 
        Dipole               -1.3691 Ry au,         -3.4798 Debye
        Dipole field         -0.0020 Ry au
 
        Potential amp.        0.1945 Ry
        Total length         48.0849 bohr
 

     total cpu time spent up to now is     1203.1 secs

     total energy              =   -1280.77528586 Ry
     Harris-Foulkes estimate   =   -1280.78662520 Ry
     estimated scf accuracy    <       0.02727054 Ry

     iteration #  2     ecut=    36.75 Ry     beta=0.30
     Davidson diagonalization with overlap
     c_bands:  1 eigenvalues not converged
     ethr =  1.98E-05,  avg # of iterations = 15.9

     negative rho (up, down):  5.817E-01 0.000E+00
 
     Adding external electric field

     Computed dipole along edir(3) : 
        Dipole               -0.8465 Ry au,         -2.1516 Debye
        Dipole field         -0.0013 Ry au
 
        Potential amp.        0.1203 Ry
        Total length         48.0849 bohr
 

     total cpu time spent up to now is     1266.2 secs

     total energy              =   -1280.68110462 Ry
     Harris-Foulkes estimate   =   -1280.88100329 Ry
     estimated scf accuracy    <       7.99558858 Ry

     iteration #  3     ecut=    36.75 Ry     beta=0.30
     Davidson diagonalization with overlap
     ethr =  1.98E-05,  avg # of iterations = 13.4

     negative rho (up, down):  5.810E-01 0.000E+00
 
     Adding external electric field

     Computed dipole along edir(3) : 
        Dipole               -0.8476 Ry au,         -2.1543 Debye
        Dipole field         -0.0013 Ry au
 
        Potential amp.        0.1204 Ry
        Total length         48.0849 bohr
 

     total cpu time spent up to now is     1327.2 secs

     total energy              =   -1280.77900349 Ry
     Harris-Foulkes estimate   =   -1280.78940094 Ry
     estimated scf accuracy    <       0.13517370 Ry

     iteration #  4     ecut=    36.75 Ry     beta=0.30
     Davidson diagonalization with overlap
     ethr =  1.98E-05,  avg # of iterations =  6.5

     negative rho (up, down):  5.803E-01 0.000E+00
 
     Adding external electric field

     Computed dipole along edir(3) : 
        Dipole               -0.8120 Ry au,         -2.0638 Debye
        Dipole field         -0.0012 Ry au
 
        Potential amp.        0.1153 Ry
        Total length         48.0849 bohr
 

     total cpu time spent up to now is     1371.1 secs

     total energy              =   -1280.78408562 Ry
     Harris-Foulkes estimate   =   -1280.78558538 Ry
     estimated scf accuracy    <       0.01131726 Ry

     iteration #  5     ecut=    36.75 Ry     beta=0.30
     Davidson diagonalization with overlap
     ethr =  8.20E-06,  avg # of iterations =  8.0

     negative rho (up, down):  5.798E-01 0.000E+00
 
     Adding external electric field

     Computed dipole along edir(3) : 
        Dipole               -0.8099 Ry au,         -2.0587 Debye
        Dipole field         -0.0012 Ry au
 
        Potential amp.        0.1151 Ry
        Total length         48.0849 bohr
 

     total cpu time spent up to now is     1412.9 secs

     total energy              =   -1280.78473122 Ry
     Harris-Foulkes estimate   =   -1280.78509846 Ry
     estimated scf accuracy    <       0.00170781 Ry

     iteration #  6     ecut=    36.75 Ry     beta=0.30
     Davidson diagonalization with overlap
     c_bands:  1 eigenvalues not converged
     ethr =  1.24E-06,  avg # of iterations =  7.0

     negative rho (up, down):  5.796E-01 0.000E+00
 
     Adding external electric field

     Computed dipole along edir(3) : 
        Dipole               -0.8075 Ry au,         -2.0524 Debye
        Dipole field         -0.0012 Ry au
 
        Potential amp.        0.1147 Ry
        Total length         48.0849 bohr
 

     total cpu time spent up to now is     1455.6 secs

     total energy              =   -1280.78494919 Ry
     Harris-Foulkes estimate   =   -1280.78497727 Ry
     estimated scf accuracy    <       0.00013928 Ry

     iteration #  7     ecut=    36.75 Ry     beta=0.30
     Davidson diagonalization with overlap
     ethr =  1.01E-07,  avg # of iterations = 10.8

     negative rho (up, down):  5.796E-01 0.000E+00
 
     Adding external electric field

     Computed dipole along edir(3) : 
        Dipole               -0.8026 Ry au,         -2.0399 Debye
        Dipole field         -0.0012 Ry au
 
        Potential amp.        0.1140 Ry
        Total length         48.0849 bohr
 

     total cpu time spent up to now is     1508.7 secs

     total energy              =   -1280.78498559 Ry
     Harris-Foulkes estimate   =   -1280.78499530 Ry
     estimated scf accuracy    <       0.00004611 Ry

     iteration #  8     ecut=    36.75 Ry     beta=0.30
     Davidson diagonalization with overlap
     ethr =  3.34E-08,  avg # of iterations =  5.7

     negative rho (up, down):  5.795E-01 0.000E+00
 
     Adding external electric field

     Computed dipole along edir(3) : 
        Dipole               -0.8030 Ry au,         -2.0409 Debye
        Dipole field         -0.0012 Ry au
 
        Potential amp.        0.1141 Ry
        Total length         48.0849 bohr
 

     total cpu time spent up to now is     1547.8 secs

     total energy              =   -1280.78499132 Ry
     Harris-Foulkes estimate   =   -1280.78498832 Ry
     estimated scf accuracy    <       0.00001063 Ry

     iteration #  9     ecut=    36.75 Ry     beta=0.30
     Davidson diagonalization with overlap
     ethr =  7.70E-09,  avg # of iterations =  7.7

     negative rho (up, down):  5.794E-01 0.000E+00

     negative rho (up, down):  5.794E-01 0.000E+00

     negative rho (up, down):  5.794E-01 0.000E+00

     negative rho (up, down):  5.794E-01 0.000E+00

     negative rho (up, down):  5.794E-01 0.000E+00

     negative rho (up, down):  5.794E-01 0.000E+00

     negative rho (up, down):  5.794E-01 0.000E+00

     negative rho (up, down):  5.794E-01 0.000E+00

     negative rho (up, down):  5.794E-01 0.000E+00

     negative rho (up, down):  5.794E-01 0.000E+00

     negative rho (up, down):  5.794E-01 0.000E+00

     negative rho (up, down):  5.794E-01 0.000E+00

     negative rho (up, down):  5.794E-01 0.000E+00

     negative rho (up, down):  5.794E-01 0.000E+00

     negative rho (up, down):  5.794E-01 0.000E+00

     negative rho (up, down):  5.794E-01 0.000E+00

     negative rho (up, down):  5.794E-01 0.000E+00

     negative rho (up, down):  5.794E-01 0.000E+00

     negative rho (up, down):  5.794E-01 0.000E+00

     negative rho (up, down):  5.794E-01 0.000E+00

     negative rho (up, down):  5.794E-01 0.000E+00

     negative rho (up, down):  5.794E-01 0.000E+00

     negative rho (up, down):  5.794E-01 0.000E+00

     negative rho (up, down):  5.794E-01 0.000E+00

     negative rho (up, down):  5.794E-01 0.000E+00

     negative rho (up, down):  5.794E-01 0.000E+00

     negative rho (up, down):  5.794E-01 0.000E+00

     negative rho (up, down):  5.794E-01 0.000E+00

     negative rho (up, down):  5.794E-01 0.000E+00

     negative rho (up, down):  5.794E-01 0.000E+00

     negative rho (up, down):  5.794E-01 0.000E+00

     negative rho (up, down):  5.794E-01 0.000E+00

     negative rho (up, down):  5.794E-01 0.000E+00

     negative rho (up, down):  5.794E-01 0.000E+00

     negative rho (up, down):  5.794E-01 0.000E+00
 
     Adding external electric field

     Computed dipole along edir(3) : 
        Dipole               -0.8177 Ry au,         -2.0783 Debye
        Dipole field         -0.0012 Ry au
 
        Potential amp.        0.1162 Ry
        Total length         48.0849 bohr
 

     total cpu time spent up to now is     1629.4 secs

     End of self-consistent calculation

          k = 0.0000 0.0000 0.0000 ( 31997 PWs)   bands (ev):

   -32.1003 -31.9997 -31.9996 -31.9804 -31.8516 -31.8515 -31.8406 -31.5409
   -31.4268 -31.4268 -31.3818 -30.9253 -16.1837 -16.1563 -16.0722 -16.0721
   -16.0422 -15.9961 -15.9961 -15.9607 -15.8776 -15.8775 -15.7723 -15.6759
   -15.5728 -15.5728 -15.3943 -15.3564 -15.3393 -15.3393 -15.2394 -15.2373
   -15.2373 -15.2080 -15.2079 -14.9845 -14.9845 -14.9573 -14.9443 -14.9443
   -14.8841 -14.8223 -14.8183 -14.8183 -14.5894 -14.5894 -14.4927 -14.4927
   -12.5772  -1.4104  -0.6896  -0.4497  -0.4452  -0.4452  -0.2701  -0.1659
    -0.1659  -0.1550   0.0413   0.1072   0.1072   0.2239   0.2453   0.2453
     0.3969   0.3969   0.5305   1.0581   1.3687   1.3687   1.5767   1.9335
     2.0581   2.0582   2.1369   2.2189   2.4665   2.5484   2.5496

          k = 0.0000 0.0258 0.0000 ( 32061 PWs)   bands (ev):

   -32.0942 -32.0055 -31.9997 -31.9718 -31.8588 -31.8516 -31.8424 -31.5331
   -31.4329 -31.4268 -31.3840 -30.9258 -16.1784 -16.1137 -16.0354 -16.0242
   -15.9987 -15.9589 -15.9521 -15.9423 -15.8539 -15.8512 -15.7507 -15.6691
   -15.5893 -15.5788 -15.4215 -15.3552 -15.3264 -15.3233 -15.2842 -15.2810
   -15.2674 -15.2282 -15.2117 -15.0753 -15.0020 -14.9467 -14.9412 -14.9399
   -14.8738 -14.8600 -14.8578 -14.8055 -14.6599 -14.6058 -14.5347 -14.5026
   -12.5770  -1.2300  -0.5161  -0.4012  -0.3978  -0.3574  -0.1489  -0.0679
    -0.0341  -0.0228   0.1072   0.1944   0.2394   0.3246   0.4204   0.4439
     0.4812   0.4956   0.6235   1.1076   1.3841   1.3870   1.5655   1.9164
     2.0197   2.0499   2.0617   2.1377   2.1862   2.3382   2.3680

          k = 0.0000 0.0515 0.0000 ( 32002 PWs)   bands (ev):

   -32.0783 -32.0209 -31.9998 -31.9481 -31.8822 -31.8517 -31.8436 -31.5120
   -31.4514 -31.4268 -31.3874 -30.9268 -16.1677 -16.0261 -15.9429 -15.9197
   -15.9028 -15.8827 -15.8616 -15.8154 -15.8022 -15.7857 -15.7077 -15.6528
   -15.6176 -15.6000 -15.5048 -15.4267 -15.4015 -15.3969 -15.3147 -15.2802
   -15.2799 -15.2533 -15.2284 -15.1739 -15.0493 -14.9738 -14.9680 -14.9476
   -14.9257 -14.9157 -14.8605 -14.8413 -14.7679 -14.6477 -14.6165 -14.5224
   -12.5764  -0.7640  -0.3407  -0.3282  -0.2938  -0.0402   0.0741   0.0977
     0.2734   0.3246   0.3701   0.5210   0.5539   0.5805   0.7169   0.8285
     0.8962   0.9333   0.9644   1.1965   1.3746   1.4045   1.4943   1.6349
     1.7837   1.8404   1.9322   1.9721   2.0071   2.0816   2.1362

          k = 0.0000-0.0773 0.0000 ( 31970 PWs)   bands (ev):

   -32.0654 -32.0336 -31.9998 -31.9183 -31.9121 -31.8517 -31.8438 -31.4902
   -31.4723 -31.4268 -31.3887 -30.9273 -16.1623 -15.9814 -15.8761 -15.8681
   -15.8608 -15.8274 -15.7937 -15.7540 -15.7250 -15.6879 -15.6479 -15.6429
   -15.6405 -15.5746 -15.5579 -15.5410 -15.5380 -15.4708 -15.4660 -15.2869
   -15.2408 -15.2271 -15.1140 -15.1111 -15.1082 -15.0767 -15.0379 -14.9992
   -14.9501 -14.9249 -14.9171 -14.8554 -14.7314 -14.6860 -14.6557 -14.5325
   -12.5762  -0.3760  -0.3174  -0.2893  -0.2221  -0.0756   0.2212   0.2771
     0.5555   0.5575   0.6206   0.6447   0.7184   0.7689   1.0240   1.0817
     1.2003   1.2018   1.2363   1.2838   1.4875   1.5104   1.5752   1.5789
     1.6550   1.7341   1.7413   1.8022   1.8691   1.9783   1.9848

          k = 0.0223-0.0129 0.0000 ( 32061 PWs)   bands (ev):

   -32.0942 -32.0056 -31.9997 -31.9718 -31.8588 -31.8516 -31.8424 -31.5331
   -31.4328 -31.4268 -31.3840 -30.9258 -16.1784 -16.1137 -16.0354 -16.0242
   -15.9987 -15.9590 -15.9520 -15.9423 -15.8539 -15.8512 -15.7507 -15.6691
   -15.5894 -15.5788 -15.4215 -15.3552 -15.3264 -15.3233 -15.2842 -15.2810
   -15.2674 -15.2282 -15.2117 -15.0753 -15.0020 -14.9466 -14.9412 -14.9399
   -14.8738 -14.8600 -14.8578 -14.8055 -14.6599 -14.6058 -14.5347 -14.5026
   -12.5770  -1.2300  -0.5161  -0.4012  -0.3978  -0.3574  -0.1489  -0.0679
    -0.0341  -0.0228   0.1072   0.1944   0.2394   0.3246   0.4204   0.4439
     0.4812   0.4956   0.6235   1.1076   1.3841   1.3870   1.5655   1.9164
     2.0197   2.0499   2.0617   2.1377   2.1862   2.3382   2.3680

          k = 0.0223 0.0129 0.0000 ( 32061 PWs)   bands (ev):

   -32.0942 -32.0056 -31.9996 -31.9718 -31.8588 -31.8516 -31.8424 -31.5331
   -31.4328 -31.4268 -31.3840 -30.9258 -16.1784 -16.1137 -16.0353 -16.0242
   -15.9987 -15.9590 -15.9520 -15.9423 -15.8539 -15.8512 -15.7507 -15.6691
   -15.5894 -15.5788 -15.4216 -15.3552 -15.3265 -15.3233 -15.2842 -15.2810
   -15.2675 -15.2282 -15.2117 -15.0753 -15.0020 -14.9467 -14.9412 -14.9399
   -14.8738 -14.8600 -14.8578 -14.8055 -14.6599 -14.6058 -14.5347 -14.5026
   -12.5770  -1.2300  -0.5161  -0.4012  -0.3978  -0.3574  -0.1489  -0.0679
    -0.0341  -0.0228   0.1072   0.1944   0.2394   0.3246   0.4204   0.4439
     0.4812   0.4956   0.6235   1.1076   1.3841   1.3870   1.5655   1.9164
     2.0196   2.0499   2.0617   2.1377   2.1862   2.3382   2.3680

          k = 0.0223 0.0387 0.0000 ( 32007 PWs)   bands (ev):

   -32.0830 -32.0163 -31.9999 -31.9556 -31.8684 -31.8623 -31.8389 -31.5186
   -31.4428 -31.4299 -31.3861 -30.9266 -16.1704 -16.0444 -15.9686 -15.9477
   -15.9210 -15.9122 -15.8781 -15.8666 -15.8153 -15.8136 -15.7180 -15.6570
   -15.6136 -15.5904 -15.4922 -15.4219 -15.3523 -15.3383 -15.2968 -15.2911
   -15.2491 -15.2400 -15.2350 -15.2130 -15.0407 -14.9855 -14.9453 -14.9334
   -14.9300 -14.8644 -14.8338 -14.8249 -14.7788 -14.6416 -14.5858 -14.5258
   -12.5766  -0.9022  -0.3543  -0.3478  -0.3102  -0.1505   0.0741   0.1176
     0.1939   0.2307   0.2526   0.2949   0.5323   0.5792   0.5858   0.6472
     0.6971   0.8406   0.8779   1.1773   1.3955   1.4043   1.5091   1.7571
     1.8023   1.8850   1.9329   2.0053   2.0338   2.1438   2.2670

          k = 0.0223-0.0902 0.0000 ( 31991 PWs)   bands (ev):

   -32.0657 -32.0329 -32.0002 -31.9275 -31.8943 -31.8692 -31.8349 -31.4946
   -31.4625 -31.4344 -31.3866 -30.9273 -16.1624 -15.9575 -15.8782 -15.8702
   -15.8416 -15.8298 -15.7853 -15.7695 -15.7427 -15.6928 -15.6857 -15.6538
   -15.6373 -15.6246 -15.5807 -15.5670 -15.4820 -15.4336 -15.3416 -15.2855
   -15.2647 -15.2209 -15.2095 -15.1567 -15.1150 -15.0992 -14.9904 -14.9452
   -14.9352 -14.9231 -14.8803 -14.8515 -14.7743 -14.6976 -14.6332 -14.5531
   -12.5762  -0.4199  -0.3138  -0.2916  -0.2219   0.1313   0.2912   0.3561
     0.4735   0.5217   0.5572   0.6965   0.7938   0.8355   0.9169   1.0031
     1.0604   1.1097   1.2684   1.3231   1.3595   1.4041   1.4784   1.5920
     1.6134   1.6812   1.7100   1.7933   1.8708   1.9554   1.9900

          k = 0.0223-0.0644 0.0000 ( 31991 PWs)   bands (ev):

   -32.0658 -32.0329 -32.0002 -31.9275 -31.8943 -31.8692 -31.8349 -31.4946
   -31.4625 -31.4344 -31.3866 -30.9273 -16.1624 -15.9575 -15.8782 -15.8702
   -15.8416 -15.8297 -15.7853 -15.7695 -15.7427 -15.6928 -15.6857 -15.6537
   -15.6372 -15.6246 -15.5807 -15.5670 -15.4821 -15.4336 -15.3416 -15.2855
   -15.2647 -15.2209 -15.2095 -15.1567 -15.1150 -15.0992 -14.9904 -14.9452
   -14.9352 -14.9230 -14.8803 -14.8515 -14.7743 -14.6976 -14.6332 -14.5531
   -12.5762  -0.4199  -0.3138  -0.2916  -0.2219   0.1313   0.2912   0.3561
     0.4735   0.5217   0.5572   0.6965   0.7938   0.8355   0.9169   1.0031
     1.0604   1.1097   1.2684   1.3231   1.3595   1.4041   1.4784   1.5920
     1.6134   1.6812   1.7100   1.7933   1.8708   1.9554   1.9900

          k = 0.0223-0.0387 0.0000 ( 32007 PWs)   bands (ev):

   -32.0830 -32.0162 -31.9999 -31.9556 -31.8685 -31.8622 -31.8389 -31.5186
   -31.4428 -31.4299 -31.3861 -30.9266 -16.1704 -16.0444 -15.9686 -15.9477
   -15.9210 -15.9122 -15.8781 -15.8666 -15.8154 -15.8136 -15.7180 -15.6569
   -15.6136 -15.5904 -15.4922 -15.4219 -15.3523 -15.3383 -15.2968 -15.2911
   -15.2491 -15.2400 -15.2350 -15.2130 -15.0407 -14.9855 -14.9453 -14.9335
   -14.9299 -14.8644 -14.8338 -14.8249 -14.7788 -14.6416 -14.5858 -14.5258
   -12.5766  -0.9022  -0.3543  -0.3478  -0.3102  -0.1505   0.0741   0.1176
     0.1939   0.2307   0.2526   0.2949   0.5323   0.5791   0.5858   0.6472
     0.6971   0.8406   0.8779   1.1773   1.3955   1.4043   1.5091   1.7571
     1.8024   1.8850   1.9329   2.0053   2.0338   2.1438   2.2670

          k = 0.0446-0.0258 0.0000 ( 32002 PWs)   bands (ev):

   -32.0783 -32.0210 -31.9998 -31.9481 -31.8822 -31.8516 -31.8436 -31.5120
   -31.4513 -31.4268 -31.3874 -30.9268 -16.1677 -16.0260 -15.9429 -15.9197
   -15.9028 -15.8827 -15.8616 -15.8155 -15.8022 -15.7857 -15.7077 -15.6528
   -15.6176 -15.6000 -15.5048 -15.4267 -15.4015 -15.3969 -15.3147 -15.2802
   -15.2799 -15.2533 -15.2284 -15.1739 -15.0493 -14.9738 -14.9680 -14.9476
   -14.9257 -14.9157 -14.8605 -14.8413 -14.7679 -14.6477 -14.6165 -14.5224
   -12.5764  -0.7640  -0.3407  -0.3282  -0.2938  -0.0402   0.0741   0.0977
     0.2734   0.3246   0.3701   0.5210   0.5539   0.5804   0.7169   0.8285
     0.8962   0.9333   0.9644   1.1965   1.3746   1.4045   1.4943   1.6349
     1.7837   1.8404   1.9322   1.9721   2.0071   2.0816   2.1362

          k = 0.0446 0.0000 0.0000 ( 32007 PWs)   bands (ev):

   -32.0830 -32.0163 -31.9999 -31.9556 -31.8684 -31.8623 -31.8389 -31.5186
   -31.4428 -31.4299 -31.3861 -30.9266 -16.1704 -16.0444 -15.9686 -15.9477
   -15.9210 -15.9122 -15.8781 -15.8667 -15.8153 -15.8136 -15.7180 -15.6570
   -15.6136 -15.5904 -15.4922 -15.4219 -15.3523 -15.3383 -15.2968 -15.2912
   -15.2490 -15.2400 -15.2350 -15.2130 -15.0407 -14.9855 -14.9453 -14.9335
   -14.9299 -14.8644 -14.8338 -14.8249 -14.7788 -14.6416 -14.5858 -14.5259
   -12.5766  -0.9022  -0.3543  -0.3478  -0.3102  -0.1505   0.0741   0.1176
     0.1939   0.2307   0.2526   0.2949   0.5323   0.5792   0.5858   0.6471
     0.6971   0.8406   0.8779   1.1773   1.3955   1.4043   1.5090   1.7571
     1.8023   1.8850   1.9329   2.0053   2.0338   2.1438   2.2670

          k = 0.0446 0.0258 0.0000 ( 32002 PWs)   bands (ev):

   -32.0783 -32.0211 -31.9997 -31.9481 -31.8822 -31.8517 -31.8435 -31.5120
   -31.4514 -31.4268 -31.3874 -30.9268 -16.1677 -16.0260 -15.9429 -15.9198
   -15.9028 -15.8827 -15.8616 -15.8155 -15.8022 -15.7857 -15.7077 -15.6528
   -15.6176 -15.6001 -15.5048 -15.4268 -15.4014 -15.3969 -15.3147 -15.2802
   -15.2799 -15.2533 -15.2283 -15.1739 -15.0493 -14.9738 -14.9680 -14.9476
   -14.9257 -14.9157 -14.8605 -14.8413 -14.7679 -14.6477 -14.6165 -14.5225
   -12.5764  -0.7640  -0.3408  -0.3282  -0.2938  -0.0402   0.0741   0.0977
     0.2734   0.3246   0.3701   0.5210   0.5539   0.5805   0.7169   0.8285
     0.8962   0.9333   0.9644   1.1965   1.3746   1.4045   1.4943   1.6349
     1.7837   1.8404   1.9322   1.9721   2.0071   2.0816   2.1362

          k = 0.0446-0.1031 0.0000 ( 31991 PWs)   bands (ev):

   -32.0657 -32.0330 -32.0001 -31.9275 -31.8942 -31.8692 -31.8349 -31.4946
   -31.4625 -31.4344 -31.3866 -30.9273 -16.1624 -15.9575 -15.8782 -15.8702
   -15.8417 -15.8298 -15.7854 -15.7695 -15.7427 -15.6928 -15.6857 -15.6537
   -15.6373 -15.6246 -15.5807 -15.5670 -15.4821 -15.4336 -15.3416 -15.2855
   -15.2647 -15.2209 -15.2095 -15.1567 -15.1150 -15.0992 -14.9904 -14.9452
   -14.9352 -14.9231 -14.8803 -14.8515 -14.7743 -14.6976 -14.6332 -14.5531
   -12.5762  -0.4199  -0.3139  -0.2916  -0.2219   0.1313   0.2912   0.3561
     0.4735   0.5217   0.5572   0.6965   0.7938   0.8355   0.9169   1.0031
     1.0604   1.1097   1.2684   1.3231   1.3594   1.4041   1.4784   1.5920
     1.6134   1.6812   1.7100   1.7933   1.8708   1.9554   1.9900

          k = 0.0446-0.0773 0.0000 ( 31986 PWs)   bands (ev):

   -32.0493 -32.0490 -32.0006 -31.9019 -31.9017 -31.8919 -31.8306 -31.4762
   -31.4728 -31.4442 -31.3850 -30.9276 -16.1598 -15.8553 -15.8526 -15.8273
   -15.8147 -15.8015 -15.7670 -15.7478 -15.7002 -15.6973 -15.6801 -15.6737
   -15.6035 -15.6026 -15.6017 -15.5942 -15.5622 -15.5580 -15.3115 -15.2831
   -15.2256 -15.2229 -15.2186 -15.1849 -15.1180 -15.1131 -15.1075 -14.9477
   -14.9289 -14.9222 -14.8595 -14.8067 -14.7787 -14.7783 -14.6068 -14.6037
   -12.5760  -0.3106  -0.2953  -0.2853   0.1699   0.1804   0.2622   0.6176
     0.6299   0.6868   0.7588   0.7821   1.0034   1.0727   1.0753   1.0941
     1.1252   1.1357   1.1671   1.2926   1.3204   1.3580   1.3920   1.4237
     1.4935   1.6615   1.6722   1.6725   1.7406   1.7942   1.8274

          k = 0.0446-0.0515 0.0000 ( 31991 PWs)   bands (ev):

   -32.0657 -32.0329 -32.0002 -31.9275 -31.8943 -31.8692 -31.8349 -31.4946
   -31.4625 -31.4344 -31.3866 -30.9273 -16.1624 -15.9575 -15.8782 -15.8702
   -15.8416 -15.8297 -15.7854 -15.7695 -15.7427 -15.6928 -15.6857 -15.6537
   -15.6372 -15.6246 -15.5807 -15.5670 -15.4821 -15.4336 -15.3416 -15.2855
   -15.2647 -15.2209 -15.2095 -15.1567 -15.1150 -15.0992 -14.9904 -14.9452
   -14.9352 -14.9231 -14.8803 -14.8515 -14.7743 -14.6976 -14.6332 -14.5531
   -12.5762  -0.4199  -0.3138  -0.2916  -0.2219   0.1313   0.2912   0.3561
     0.4735   0.5217   0.5572   0.6965   0.7938   0.8355   0.9169   1.0031
     1.0604   1.1097   1.2684   1.3231   1.3595   1.4041   1.4784   1.5920
     1.6134   1.6812   1.7100   1.7933   1.8708   1.9554   1.9900

          k =-0.0669 0.0387 0.0000 ( 31970 PWs)   bands (ev):

   -32.0654 -32.0337 -31.9998 -31.9183 -31.9121 -31.8517 -31.8438 -31.4903
   -31.4722 -31.4268 -31.3887 -30.9273 -16.1623 -15.9814 -15.8762 -15.8681
   -15.8608 -15.8275 -15.7938 -15.7540 -15.7250 -15.6879 -15.6478 -15.6429
   -15.6405 -15.5747 -15.5579 -15.5410 -15.5380 -15.4708 -15.4660 -15.2869
   -15.2407 -15.2270 -15.1140 -15.1111 -15.1082 -15.0767 -15.0379 -14.9992
   -14.9501 -14.9249 -14.9171 -14.8554 -14.7315 -14.6860 -14.6557 -14.5325
   -12.5762  -0.3760  -0.3174  -0.2893  -0.2221  -0.0756   0.2212   0.2771
     0.5555   0.5575   0.6206   0.6447   0.7184   0.7689   1.0240   1.0817
     1.2003   1.2018   1.2363   1.2838   1.4875   1.5104   1.5752   1.5789
     1.6549   1.7341   1.7413   1.8022   1.8691   1.9783   1.9848

          k =-0.0669 0.0644 0.0000 ( 31991 PWs)   bands (ev):

   -32.0657 -32.0330 -32.0001 -31.9275 -31.8943 -31.8692 -31.8349 -31.4946
   -31.4625 -31.4344 -31.3866 -30.9273 -16.1624 -15.9575 -15.8782 -15.8702
   -15.8416 -15.8298 -15.7854 -15.7695 -15.7427 -15.6928 -15.6857 -15.6538
   -15.6373 -15.6246 -15.5807 -15.5670 -15.4820 -15.4336 -15.3416 -15.2855
   -15.2647 -15.2209 -15.2095 -15.1567 -15.1150 -15.0992 -14.9904 -14.9452
   -14.9352 -14.9231 -14.8803 -14.8515 -14.7743 -14.6976 -14.6332 -14.5531
   -12.5762  -0.4199  -0.3138  -0.2916  -0.2219   0.1313   0.2912   0.3561
     0.4735   0.5217   0.5572   0.6965   0.7938   0.8355   0.9169   1.0031
     1.0604   1.1097   1.2684   1.3231   1.3595   1.4041   1.4784   1.5920
     1.6134   1.6812   1.7100   1.7933   1.8708   1.9554   1.9900

          k =-0.0669 0.0902 0.0000 ( 31991 PWs)   bands (ev):

   -32.0657 -32.0330 -32.0001 -31.9275 -31.8942 -31.8692 -31.8349 -31.4946
   -31.4625 -31.4344 -31.3866 -30.9273 -16.1624 -15.9575 -15.8782 -15.8702
   -15.8416 -15.8298 -15.7854 -15.7695 -15.7427 -15.6928 -15.6857 -15.6538
   -15.6373 -15.6246 -15.5807 -15.5670 -15.4821 -15.4336 -15.3416 -15.2855
   -15.2647 -15.2209 -15.2095 -15.1567 -15.1150 -15.0992 -14.9904 -14.9452
   -14.9353 -14.9230 -14.8803 -14.8515 -14.7743 -14.6976 -14.6332 -14.5531
   -12.5762  -0.4199  -0.3139  -0.2916  -0.2219   0.1313   0.2912   0.3561
     0.4735   0.5217   0.5572   0.6965   0.7938   0.8355   0.9169   1.0031
     1.0604   1.1097   1.2684   1.3231   1.3595   1.4041   1.4784   1.5920
     1.6134   1.6812   1.7100   1.7933   1.8708   1.9554   1.9900

          k =-0.0669-0.0387 0.0000 ( 31970 PWs)   bands (ev):

   -32.0653 -32.0338 -31.9997 -31.9184 -31.9120 -31.8517 -31.8438 -31.4902
   -31.4722 -31.4268 -31.3887 -30.9273 -16.1623 -15.9814 -15.8761 -15.8681
   -15.8608 -15.8275 -15.7938 -15.7540 -15.7250 -15.6878 -15.6478 -15.6429
   -15.6406 -15.5747 -15.5579 -15.5411 -15.5379 -15.4708 -15.4660 -15.2869
   -15.2408 -15.2270 -15.1141 -15.1110 -15.1082 -15.0767 -15.0379 -14.9992
   -14.9501 -14.9249 -14.9171 -14.8554 -14.7314 -14.6860 -14.6557 -14.5325
   -12.5762  -0.3760  -0.3174  -0.2893  -0.2221  -0.0756   0.2212   0.2771
     0.5555   0.5575   0.6206   0.6447   0.7184   0.7689   1.0240   1.0817
     1.2003   1.2018   1.2363   1.2838   1.4875   1.5104   1.5752   1.5789
     1.6549   1.7341   1.7413   1.8022   1.8691   1.9783   1.9848

     the Fermi energy is     1.3790 ev

!    total energy              =   -1280.78499090 Ry
     Harris-Foulkes estimate   =   -1280.78495775 Ry
     estimated scf accuracy    <       0.00000401 Ry

     The total energy is the sum of the following terms:

     one-electron contribution =   -4760.65941204 Ry
     hartree contribution      =    2393.26984917 Ry
     xc contribution           =    -616.11111200 Ry
     ewald contribution        =    1702.83429074 Ry
     electric field correction =       0.00098758 Ry
     smearing contrib. (-TS)   =      -0.11959435 Ry

     convergence has been achieved in   9 iterations
 
 BEEF-vdW xc energy contributions
           1 :   -545.738182551024     
           2 :    501.778782617912     
           3 :   -424.166783540628     
           4 :    329.559998671125     
           5 :   -235.503635365042     
           6 :    155.809308736994     
           7 :   -98.0217279606707     
           8 :    63.1405200505650     
           9 :   -47.0985292252565     
          10 :    43.1487876742890     
          11 :   -44.2605835899665     
          12 :    44.8319171990006     
          13 :   -41.4806786711098     
          14 :    33.0930746373435     
          15 :   -20.4715482485465     
          16 :    5.79538753270538     
          17 :    8.05745932827278     
          18 :   -18.3097241370583     
          19 :    23.0914106471614     
          20 :   -22.0415166819473     
          21 :    16.4614865775848     
          22 :   -8.89460957867141     
          23 :    2.23233931981463     
          24 :    1.31915446767698     
          25 :  -0.988450762136608     
          26 :   -2.41434158525544     
          27 :    6.99736946562507     
          28 :   -10.6828050520853     
          29 :    12.0817275390725     
          30 :   -10.9723775245238     
          31 :   -46.4764200157489     
          32 :   -33.3061446869159     

     Forces acting on atoms (Ry/au):


     negative rho (up, down):  5.794E-01 0.000E+00
     atom    1 type  1   force =    -0.00038069   -0.00021697    0.00415065
     atom    2 type  1   force =     0.00038067   -0.00021750    0.00416672
     atom    3 type  1   force =    -0.00000202    0.00043585    0.00416639
     atom    4 type  1   force =    -0.00000062   -0.00000629    0.00479440
     atom    5 type  1   force =    -0.00002315    0.00404601   -0.00502539
     atom    6 type  1   force =     0.00003015    0.00001914   -0.00059085
     atom    7 type  1   force =    -0.00348938   -0.00201459   -0.00504175
     atom    8 type  1   force =     0.00349005   -0.00204598   -0.00502429
     atom    9 type  1   force =    -0.00000457    0.00000415    0.11497268
     atom   10 type  1   force =     0.00000374   -0.00031481    0.00498105
     atom   11 type  1   force =    -0.00027806    0.00015758    0.00498174
     atom   12 type  1   force =     0.00027269    0.00015224    0.00495128
     atom   13 type  2   force =     0.00000120    0.00000118   -0.13148263

     Total force =     0.174874     Total SCF correction =     0.003147


     entering subroutine stress ...


     negative rho (up, down):  5.794E-01 0.000E+00
          total   stress  (Ry/bohr**3)                   (kbar)     P=   -3.48
   0.00000305   0.00000000   0.00000000          0.45      0.00      0.00
   0.00000000   0.00000305   0.00000000          0.00      0.45      0.00
   0.00000000   0.00000000  -0.00007716          0.00      0.00    -11.35


     number of scf cycles    =   2
     number of bfgs steps    =   1

     energy   old            =   -1280.7462847021 Ry
     energy   new            =   -1280.7849909041 Ry

     CASE: energy  _new < energy  _old


     WARNING: bfgs curvature condition failed, Theta= 0.925
     new trust radius        =       0.2275709997 bohr
     new conv_thr            =       0.0000001000 Ry


ATOMIC_POSITIONS (crystal)
La1      0.166666667   0.166666667   0.383173129    0   0   0
La1      0.666666667   0.166666667   0.383173129    0   0   0
La1      0.166666667   0.666666667   0.383173129    0   0   0
La1      0.666666667   0.666666667   0.383173129    0   0   0
La1      0.833333333   0.333333333   0.500000000    0   0   0
La1      0.333333333   0.333333333   0.500000000    0   0   0
La1      0.833333333   0.833333333   0.500000000    0   0   0
La1      0.333333333   0.833333333   0.500000000    0   0   0
La1     -0.000000741   0.000000757   0.623562756
La1      0.500057266  -0.000113341   0.617148513
La1     -0.000113987   0.500056473   0.617148432
La1      0.500057149   0.500055394   0.617147530
O1      -0.000000029   0.000000200   0.698051567



     Writing output data file calc.save
     Check: negative starting charge=   -0.831760
     NEW-OLD atomic charge density approx. for the potential
     Check: negative starting charge=   -0.831871

     negative rho (up, down):  5.847E-01 0.000E+00
 
     Adding external electric field

     Computed dipole along edir(3) : 
        Dipole               -0.8104 Ry au,         -2.0599 Debye
        Dipole field         -0.0012 Ry au
 
        Potential amp.        0.1151 Ry
        Total length         48.0849 bohr
 

     total cpu time spent up to now is     1730.2 secs

     Self-consistent Calculation

     iteration #  1     ecut=    36.75 Ry     beta=0.30
     Davidson diagonalization with overlap
     ethr =  1.00E-06,  avg # of iterations = 14.1

     negative rho (up, down):  5.782E-01 0.000E+00
 
     Adding external electric field

     Computed dipole along edir(3) : 
        Dipole               -0.1432 Ry au,         -0.3639 Debye
        Dipole field         -0.0002 Ry au
 
        Potential amp.        0.0203 Ry
        Total length         48.0849 bohr
 

     total cpu time spent up to now is     1807.4 secs

     total energy              =   -1280.80833974 Ry
     Harris-Foulkes estimate   =   -1280.82980827 Ry
     estimated scf accuracy    <       0.04509866 Ry

     iteration #  2     ecut=    36.75 Ry     beta=0.30
     Davidson diagonalization with overlap
     c_bands:  1 eigenvalues not converged
     c_bands:  1 eigenvalues not converged
     c_bands:  1 eigenvalues not converged
     c_bands:  1 eigenvalues not converged
     c_bands:  1 eigenvalues not converged
     c_bands:  1 eigenvalues not converged
[...]

          k = 0.0223-0.0129 0.0000 ( 32061 PWs)   bands (ev):

   -31.8720 -31.7840 -31.7781 -31.7382 -31.6256 -31.6186 -31.6072 -31.3080
   -31.2089 -31.2030 -31.1510 -30.4720 -17.6104 -15.8816 -15.8001 -15.7901
   -15.7662 -15.7272 -15.7236 -15.7176 -15.6228 -15.6204 -15.5319 -15.4508
   -15.3637 -15.3535 -15.2101 -15.1287 -15.0992 -15.0960 -15.0515 -15.0473
   -15.0347 -14.9941 -14.9787 -14.8433 -14.7685 -14.7253 -14.7178 -14.7175
   -14.6410 -14.6339 -14.6286 -14.5769 -14.4293 -14.3729 -14.0466 -14.0195
   -11.5023  -1.2142  -1.2092  -1.0037  -0.8325  -0.2426   0.0762   0.1438
     0.1781   0.1895   0.3137   0.4173   0.4529   0.5657   0.6634   0.6825
     0.7055   0.7229   0.8553   1.3211   1.6132   1.6200   1.7983   2.1293
     2.2237   2.2821   2.2897   2.3691   2.4095   2.5702   2.5948

          k = 0.0223 0.0129 0.0000 ( 32061 PWs)   bands (ev):

   -31.8720 -31.7840 -31.7781 -31.7382 -31.6256 -31.6186 -31.6072 -31.3080
   -31.2089 -31.2030 -31.1510 -30.4720 -17.6104 -15.8816 -15.8001 -15.7901
   -15.7662 -15.7272 -15.7236 -15.7176 -15.6228 -15.6204 -15.5319 -15.4508
   -15.3637 -15.3535 -15.2101 -15.1287 -15.0992 -15.0960 -15.0515 -15.0473
   -15.0347 -14.9941 -14.9787 -14.8433 -14.7685 -14.7253 -14.7178 -14.7175
   -14.6410 -14.6339 -14.6286 -14.5769 -14.4293 -14.3729 -14.0466 -14.0195
   -11.5023  -1.2142  -1.2092  -1.0037  -0.8325  -0.2426   0.0762   0.1438
     0.1781   0.1895   0.3137   0.4173   0.4529   0.5657   0.6634   0.6825
     0.7055   0.7229   0.8553   1.3211   1.6132   1.6200   1.7983   2.1293
     2.2237   2.2821   2.2897   2.3691   2.4095   2.5702   2.5948

          k = 0.0223 0.0387 0.0000 ( 32007 PWs)   bands (ev):

   -31.8611 -31.7946 -31.7783 -31.7221 -31.6354 -31.6283 -31.6045 -31.2937
   -31.2189 -31.2055 -31.1533 -30.4727 -17.6101 -15.8126 -15.7350 -15.7177
   -15.6936 -15.6864 -15.6483 -15.6328 -15.5850 -15.5841 -15.4920 -15.4347
   -15.3855 -15.3645 -15.2757 -15.1894 -15.1264 -15.1150 -15.0700 -15.0643
   -15.0155 -15.0071 -15.0026 -14.9803 -14.8075 -14.7595 -14.7201 -14.7119
   -14.7038 -14.6319 -14.6064 -14.5958 -14.5494 -14.4073 -14.0951 -14.0405
   -11.5020  -1.2023  -1.1913  -0.8282  -0.6323   0.0708   0.3073   0.3402
     0.4189   0.4597   0.4855   0.5037   0.7673   0.8189   0.8318   0.8735
     0.9290   1.0722   1.1230   1.3977   1.6312   1.6355   1.7555   1.9838
     2.0152   2.1145   2.1653   2.2313   2.2593   2.3812   2.4905

          k = 0.0223-0.0902 0.0000 ( 31991 PWs)   bands (ev):

   -31.8441 -31.8111 -31.7785 -31.6941 -31.6607 -31.6354 -31.6008 -31.2701
   -31.2380 -31.2094 -31.1545 -30.4734 -17.6098 -15.7298 -15.6467 -15.6433
   -15.6164 -15.5997 -15.5581 -15.5409 -15.5108 -15.4644 -15.4535 -15.4302
   -15.4073 -15.3934 -15.3547 -15.3348 -15.2575 -15.2012 -15.1164 -15.0601
   -15.0346 -14.9938 -14.9813 -14.9266 -14.8850 -14.8703 -14.7639 -14.7176
   -14.7065 -14.6986 -14.6511 -14.6199 -14.5442 -14.4660 -14.1390 -14.0660
   -11.5016  -1.1896  -1.1744  -0.7864  -0.1020   0.3495   0.5114   0.5921
     0.7037   0.7512   0.7904   0.9279   1.0382   1.0695   1.1507   1.2423
     1.2999   1.3429   1.5044   1.5569   1.5914   1.6385   1.7299   1.8177
     1.8402   1.9114   1.9375   2.0265   2.1009   2.1820   2.2187

          k = 0.0223-0.0644 0.0000 ( 31991 PWs)   bands (ev):

   -31.8441 -31.8111 -31.7785 -31.6941 -31.6607 -31.6354 -31.6008 -31.2701
   -31.2380 -31.2094 -31.1545 -30.4734 -17.6098 -15.7298 -15.6467 -15.6433
   -15.6164 -15.5997 -15.5581 -15.5409 -15.5108 -15.4644 -15.4535 -15.4302
   -15.4073 -15.3934 -15.3547 -15.3348 -15.2575 -15.2012 -15.1164 -15.0601
   -15.0346 -14.9938 -14.9813 -14.9266 -14.8850 -14.8703 -14.7639 -14.7176
   -14.7065 -14.6986 -14.6511 -14.6199 -14.5442 -14.4660 -14.1390 -14.0660
   -11.5016  -1.1896  -1.1744  -0.7864  -0.1020   0.3495   0.5114   0.5921
     0.7037   0.7512   0.7904   0.9279   1.0382   1.0695   1.1507   1.2423
     1.2999   1.3429   1.5044   1.5569   1.5914   1.6385   1.7299   1.8177
     1.8402   1.9114   1.9375   2.0265   2.1009   2.1820   2.2187

          k = 0.0223-0.0387 0.0000 ( 32007 PWs)   bands (ev):

   -31.8611 -31.7946 -31.7783 -31.7221 -31.6354 -31.6283 -31.6045 -31.2937
   -31.2189 -31.2055 -31.1533 -30.4727 -17.6101 -15.8126 -15.7350 -15.7177
   -15.6936 -15.6864 -15.6483 -15.6328 -15.5850 -15.5841 -15.4920 -15.4347
   -15.3855 -15.3645 -15.2757 -15.1894 -15.1264 -15.1150 -15.0700 -15.0643
   -15.0155 -15.0071 -15.0026 -14.9803 -14.8075 -14.7595 -14.7201 -14.7119
   -14.7038 -14.6319 -14.6064 -14.5958 -14.5494 -14.4073 -14.0951 -14.0405
   -11.5020  -1.2023  -1.1913  -0.8282  -0.6323   0.0708   0.3073   0.3402
     0.4189   0.4597   0.4855   0.5037   0.7673   0.8189   0.8318   0.8735
     0.9290   1.0722   1.1230   1.3977   1.6312   1.6355   1.7555   1.9838
     2.0152   2.1145   2.1653   2.2313   2.2593   2.3812   2.4905

          k = 0.0446-0.0258 0.0000 ( 32002 PWs)   bands (ev):

   -31.8565 -31.7992 -31.7782 -31.7146 -31.6487 -31.6187 -31.6087 -31.2872
   -31.2269 -31.2030 -31.1545 -30.4729 -17.6100 -15.7968 -15.7079 -15.6880
   -15.6785 -15.6570 -15.6272 -15.5871 -15.5721 -15.5553 -15.4801 -15.4282
   -15.3905 -15.3729 -15.2896 -15.1972 -15.1715 -15.1648 -15.0896 -15.0529
   -15.0474 -15.0277 -14.9987 -14.9405 -14.8158 -14.7500 -14.7406 -14.7195
   -14.7005 -14.6915 -14.6285 -14.6120 -14.5383 -14.4152 -14.1211 -14.0386
   -11.5018  -1.2001  -1.1835  -0.8110  -0.4962   0.1811   0.2971   0.3255
     0.5007   0.5435   0.6038   0.7613   0.7919   0.8127   0.9473   1.0664
     1.1326   1.1724   1.2024   1.4240   1.6072   1.6337   1.7435   1.8696
     1.9900   2.0665   2.1615   2.2035   2.2355   2.3187   2.3781

          k = 0.0446 0.0000 0.0000 ( 32007 PWs)   bands (ev):

   -31.8611 -31.7946 -31.7783 -31.7221 -31.6354 -31.6283 -31.6045 -31.2937
   -31.2189 -31.2055 -31.1533 -30.4727 -17.6101 -15.8126 -15.7350 -15.7177
   -15.6936 -15.6864 -15.6483 -15.6328 -15.5850 -15.5841 -15.4920 -15.4347
   -15.3855 -15.3645 -15.2757 -15.1894 -15.1264 -15.1150 -15.0700 -15.0643
   -15.0155 -15.0071 -15.0026 -14.9803 -14.8075 -14.7595 -14.7201 -14.7119
   -14.7038 -14.6319 -14.6064 -14.5958 -14.5494 -14.4073 -14.0951 -14.0405
   -11.5020  -1.2023  -1.1913  -0.8282  -0.6323   0.0708   0.3073   0.3402
     0.4189   0.4597   0.4855   0.5037   0.7673   0.8189   0.8318   0.8735
     0.9290   1.0722   1.1230   1.3977   1.6312   1.6355   1.7555   1.9838
     2.0152   2.1145   2.1653   2.2313   2.2593   2.3812   2.4905

          k = 0.0446 0.0258 0.0000 ( 32002 PWs)   bands (ev):

   -31.8565 -31.7993 -31.7782 -31.7146 -31.6487 -31.6187 -31.6087 -31.2872
   -31.2269 -31.2030 -31.1545 -30.4729 -17.6100 -15.7968 -15.7079 -15.6880
   -15.6785 -15.6570 -15.6272 -15.5871 -15.5721 -15.5553 -15.4801 -15.4282
   -15.3905 -15.3729 -15.2896 -15.1972 -15.1715 -15.1648 -15.0896 -15.0529
   -15.0474 -15.0277 -14.9987 -14.9405 -14.8158 -14.7500 -14.7406 -14.7195
   -14.7005 -14.6915 -14.6285 -14.6120 -14.5383 -14.4152 -14.1211 -14.0386
   -11.5018  -1.2001  -1.1835  -0.8110  -0.4962   0.1811   0.2971   0.3255
     0.5007   0.5435   0.6038   0.7613   0.7919   0.8127   0.9473   1.0664
     1.1326   1.1724   1.2024   1.4240   1.6072   1.6337   1.7435   1.8696
     1.9900   2.0665   2.1615   2.2035   2.2355   2.3187   2.3781

          k = 0.0446-0.1031 0.0000 ( 31991 PWs)   bands (ev):

   -31.8441 -31.8111 -31.7785 -31.6941 -31.6607 -31.6354 -31.6008 -31.2701
   -31.2380 -31.2094 -31.1545 -30.4734 -17.6098 -15.7298 -15.6467 -15.6433
   -15.6164 -15.5997 -15.5581 -15.5409 -15.5108 -15.4644 -15.4535 -15.4302
   -15.4073 -15.3934 -15.3547 -15.3348 -15.2575 -15.2012 -15.1164 -15.0601
   -15.0346 -14.9938 -14.9812 -14.9266 -14.8850 -14.8703 -14.7639 -14.7176
   -14.7065 -14.6986 -14.6511 -14.6199 -14.5442 -14.4660 -14.1390 -14.0660
   -11.5016  -1.1896  -1.1744  -0.7864  -0.1020   0.3495   0.5114   0.5921
     0.7037   0.7512   0.7904   0.9279   1.0382   1.0695   1.1507   1.2423
     1.2999   1.3429   1.5044   1.5569   1.5914   1.6385   1.7299   1.8177
     1.8402   1.9114   1.9375   2.0265   2.1009   2.1820   2.2187

          k = 0.0446-0.0773 0.0000 ( 31986 PWs)   bands (ev):

   -31.8298 -31.8251 -31.7788 -31.6689 -31.6687 -31.6571 -31.5966 -31.2521
   -31.2490 -31.2177 -31.1535 -30.4736 -17.6097 -15.6315 -15.6185 -15.5999
   -15.5989 -15.5740 -15.5388 -15.5175 -15.4742 -15.4662 -15.4482 -15.4456
   -15.3698 -15.3696 -15.3684 -15.3598 -15.3358 -15.3284 -15.0854 -15.0650
   -14.9947 -14.9919 -14.9890 -14.9559 -14.8897 -14.8854 -14.8779 -14.7216
   -14.7013 -14.6967 -14.6274 -14.5777 -14.5494 -14.5485 -14.1143 -14.1121
   -11.5015  -1.1793  -1.1752  -0.7761   0.4023   0.4113   0.4685   0.8405
     0.8577   0.9167   0.9886   1.0227   1.2290   1.3098   1.3117   1.3271
     1.3582   1.3741   1.4124   1.5277   1.5726   1.5877   1.5960   1.6263
     1.7583   1.8979   1.9058   1.9167   1.9759   2.0271   2.0545

          k = 0.0446-0.0515 0.0000 ( 31991 PWs)   bands (ev):

   -31.8441 -31.8111 -31.7785 -31.6941 -31.6607 -31.6354 -31.6008 -31.2701
   -31.2380 -31.2094 -31.1545 -30.4734 -17.6098 -15.7298 -15.6467 -15.6433
   -15.6164 -15.5997 -15.5581 -15.5409 -15.5108 -15.4644 -15.4535 -15.4302
   -15.4073 -15.3934 -15.3547 -15.3348 -15.2575 -15.2012 -15.1164 -15.0601
   -15.0346 -14.9938 -14.9812 -14.9266 -14.8850 -14.8703 -14.7639 -14.7176
   -14.7065 -14.6986 -14.6511 -14.6199 -14.5442 -14.4660 -14.1390 -14.0660
   -11.5016  -1.1896  -1.1744  -0.7864  -0.1020   0.3495   0.5114   0.5921
     0.7037   0.7512   0.7904   0.9279   1.0382   1.0695   1.1507   1.2423
     1.2999   1.3429   1.5044   1.5569   1.5914   1.6385   1.7299   1.8177
     1.8402   1.9114   1.9375   2.0265   2.1009   2.1820   2.2187

          k =-0.0669 0.0387 0.0000 ( 31970 PWs)   bands (ev):

   -31.8438 -31.8117 -31.7782 -31.6853 -31.6780 -31.6187 -31.6090 -31.2662
   -31.2468 -31.2030 -31.1560 -30.4734 -17.6098 -15.7566 -15.6411 -15.6403
   -15.6286 -15.6033 -15.5615 -15.5212 -15.5012 -15.4577 -15.4251 -15.4186
   -15.4127 -15.3432 -15.3364 -15.3087 -15.3048 -15.2401 -15.2344 -15.0644
   -15.0135 -15.0000 -14.8854 -14.8811 -14.8770 -14.8519 -14.8145 -14.7671
   -14.7135 -14.7013 -14.6931 -14.6231 -14.4996 -14.4557 -14.1589 -14.0481
   -11.5016  -1.1932  -1.1706  -0.7875   0.0044   0.0763   0.4395   0.5150
     0.7889   0.7941   0.8474   0.8707   0.9711   1.0037   1.2546   1.3238
     1.4372   1.4385   1.4765   1.5224   1.7171   1.7482   1.8021   1.8095
     1.8885   1.9572   1.9802   2.0335   2.0933   2.2049   2.2107

          k =-0.0669 0.0644 0.0000 ( 31991 PWs)   bands (ev):

   -31.8441 -31.8111 -31.7785 -31.6941 -31.6607 -31.6354 -31.6008 -31.2701
   -31.2380 -31.2094 -31.1545 -30.4734 -17.6098 -15.7298 -15.6467 -15.6433
   -15.6164 -15.5997 -15.5581 -15.5409 -15.5108 -15.4644 -15.4535 -15.4302
   -15.4073 -15.3934 -15.3547 -15.3348 -15.2575 -15.2012 -15.1164 -15.0601
   -15.0346 -14.9938 -14.9812 -14.9266 -14.8850 -14.8703 -14.7639 -14.7176
   -14.7065 -14.6986 -14.6511 -14.6199 -14.5442 -14.4660 -14.1390 -14.0660
   -11.5016  -1.1896  -1.1744  -0.7864  -0.1020   0.3495   0.5114   0.5921
     0.7037   0.7512   0.7904   0.9279   1.0382   1.0695   1.1507   1.2423
     1.2999   1.3429   1.5044   1.5569   1.5914   1.6385   1.7299   1.8177
     1.8402   1.9114   1.9375   2.0265   2.1009   2.1820   2.2187

          k =-0.0669 0.0902 0.0000 ( 31991 PWs)   bands (ev):

   -31.8441 -31.8111 -31.7785 -31.6941 -31.6607 -31.6354 -31.6008 -31.2701
   -31.2380 -31.2094 -31.1545 -30.4734 -17.6098 -15.7298 -15.6467 -15.6433
   -15.6164 -15.5997 -15.5581 -15.5409 -15.5108 -15.4644 -15.4535 -15.4302
   -15.4073 -15.3934 -15.3547 -15.3348 -15.2575 -15.2012 -15.1164 -15.0601
   -15.0346 -14.9938 -14.9813 -14.9266 -14.8850 -14.8703 -14.7639 -14.7176
   -14.7065 -14.6986 -14.6511 -14.6199 -14.5442 -14.4660 -14.1390 -14.0660
   -11.5016  -1.1896  -1.1744  -0.7864  -0.1020   0.3495   0.5114   0.5921
     0.7037   0.7512   0.7904   0.9279   1.0382   1.0695   1.1507   1.2423
     1.2999   1.3429   1.5044   1.5569   1.5914   1.6385   1.7299   1.8177
     1.8402   1.9114   1.9375   2.0265   2.1009   2.1820   2.2187

          k =-0.0669-0.0387 0.0000 ( 31970 PWs)   bands (ev):

   -31.8438 -31.8117 -31.7782 -31.6853 -31.6780 -31.6187 -31.6090 -31.2662
   -31.2468 -31.2030 -31.1560 -30.4734 -17.6098 -15.7566 -15.6411 -15.6403
   -15.6286 -15.6033 -15.5615 -15.5212 -15.5012 -15.4577 -15.4251 -15.4186
   -15.4127 -15.3432 -15.3364 -15.3087 -15.3048 -15.2401 -15.2344 -15.0644
   -15.0135 -15.0000 -14.8854 -14.8811 -14.8770 -14.8519 -14.8145 -14.7671
   -14.7135 -14.7013 -14.6931 -14.6231 -14.4996 -14.4557 -14.1589 -14.0481
   -11.5016  -1.1932  -1.1706  -0.7875   0.0044   0.0763   0.4395   0.5150
     0.7889   0.7941   0.8474   0.8707   0.9711   1.0037   1.2546   1.3238
     1.4372   1.4385   1.4765   1.5224   1.7171   1.7482   1.8021   1.8095
     1.8885   1.9572   1.9802   2.0335   2.0933   2.2049   2.2107

     the Fermi energy is     1.6123 ev

!    total energy              =   -1280.82210237 Ry
     Harris-Foulkes estimate   =   -1280.82210243 Ry
     estimated scf accuracy    <       0.00000002 Ry

     The total energy is the sum of the following terms:

     one-electron contribution =   -4792.69739855 Ry
     hartree contribution      =    2410.23707771 Ry
     xc contribution           =    -616.33858274 Ry
     ewald contribution        =    1718.09664235 Ry
     electric field correction =       0.00032240 Ry
     smearing contrib. (-TS)   =      -0.12016355 Ry

     convergence has been achieved in  13 iterations
 
 BEEF-vdW xc energy contributions
           1 :   -545.960727434575     
           2 :    502.036554134005     
           3 :   -424.463607778606     
           4 :    329.869194168222     
           5 :   -235.786327665196     
           6 :    156.028336790534     
           7 :   -98.1495753025297     
           8 :    63.1655490587996     
           9 :   -47.0283514859698     
          10 :    43.0071291048090     
          11 :   -44.0810248982039     
          12 :    44.6530135738852     
          13 :   -41.3398487708629     
          14 :    33.0169136373656     
          15 :   -20.4676418205056     
          16 :    5.85111882373371     
          17 :    7.96854917926862     
          18 :   -18.2177495863093     
          19 :    23.0206728911082     
          20 :   -22.0057654155968     
          21 :    16.4657335527548     
          22 :   -8.94011791808794     
          23 :    2.31834902451578     
          24 :    1.19931917246879     
          25 :  -0.852351454483824     
          26 :   -2.53892537593083     
          27 :    7.08026882986678     
          28 :   -10.7034153480615     
          29 :    12.0395830174147     
          30 :   -10.8895843169353     
          31 :   -46.4882345230187     
          32 :   -33.3262040216274     

     Forces acting on atoms (Ry/au):


     negative rho (up, down):  5.700E-01 0.000E+00
     atom    1 type  1   force =    -0.00042872   -0.00024793    0.00440175
     atom    2 type  1   force =     0.00042870   -0.00024718    0.00440187
     atom    3 type  1   force =     0.00000014    0.00049529    0.00440261
     atom    4 type  1   force =    -0.00000053    0.00000017    0.00508346
     atom    5 type  1   force =    -0.00000005    0.00454248   -0.00546311
     atom    6 type  1   force =    -0.00000002    0.00000042    0.00064598
     atom    7 type  1   force =    -0.00393363   -0.00227158   -0.00546316
     atom    8 type  1   force =     0.00393351   -0.00227107   -0.00546383
     atom    9 type  1   force =    -0.00000052    0.00000085   -0.00149794
     atom   10 type  1   force =     0.00000052   -0.00041605    0.00008758
     atom   11 type  1   force =    -0.00036039    0.00020712    0.00008696
     atom   12 type  1   force =     0.00036096    0.00020734    0.00008776
     atom   13 type  2   force =     0.00000003    0.00000015   -0.00130992

     Total force =     0.002122     Total SCF correction =     0.000379
     SCF correction compared to forces is large: reduce conv_thr to get better values


     entering subroutine stress ...


     negative rho (up, down):  5.700E-01 0.000E+00
          total   stress  (Ry/bohr**3)                   (kbar)     P=   -0.24
   0.00000547   0.00000000   0.00000000          0.80      0.00      0.00
   0.00000000   0.00000547   0.00000000          0.00      0.80      0.00
   0.00000000   0.00000000  -0.00001591          0.00      0.00     -2.34


     bfgs converged in  15 scf cycles and  14 bfgs steps
     (criteria: energy <  1.0E+00, force <  1.9E-03)

     End of BFGS Geometry Optimization

     Final energy   =   -1280.8221023737 Ry
Begin final coordinates

ATOMIC_POSITIONS (crystal)
La1      0.166666667   0.166666667   0.383173129    0   0   0
La1      0.666666667   0.166666667   0.383173129    0   0   0
La1      0.166666667   0.666666667   0.383173129    0   0   0
La1      0.666666667   0.666666667   0.383173129    0   0   0
La1      0.833333333   0.333333333   0.500000000    0   0   0
La1      0.333333333   0.333333333   0.500000000    0   0   0
La1      0.833333333   0.833333333   0.500000000    0   0   0
La1      0.333333333   0.833333333   0.500000000    0   0   0
La1      0.000000675  -0.000001203   0.619180171
La1      0.499267741   0.001463189   0.617505610
La1      0.001462981   0.499268957   0.617505580
La1      0.499268290   0.499268844   0.617505500
O1      -0.000000587   0.000000731   0.692910350
End final coordinates



     Writing output data file calc.save
 
     init_run     :     26.99s CPU     31.80s WALL (       1 calls)
     electrons    :   7149.61s CPU   8302.73s WALL (      15 calls)
     update_pot   :     31.02s CPU     34.93s WALL (      14 calls)
     forces       :    336.76s CPU    354.45s WALL (      15 calls)
     stress       :    985.98s CPU   1035.37s WALL (      15 calls)

     Called by init_run:
     wfcinit      :     20.35s CPU     24.36s WALL (       1 calls)
     potinit      :      1.30s CPU      1.52s WALL (       1 calls)

     Called by electrons:
     c_bands      :   4653.62s CPU   5408.83s WALL (     170 calls)
     sum_band     :   1195.19s CPU   1361.91s WALL (     170 calls)
     v_of_rho     :    172.08s CPU    210.67s WALL (     181 calls)
     newd         :    753.42s CPU    851.47s WALL (     181 calls)
     mix_rho      :      5.35s CPU      6.72s WALL (     170 calls)
     vdW_energy   :    144.18s CPU    168.41s WALL (     721 calls)
     vdW_ffts     :    234.63s CPU    289.18s WALL (    1472 calls)
     vdW_v        :     83.79s CPU     95.10s WALL (     721 calls)

     Called by c_bands:
     init_us_2    :     44.42s CPU     50.21s WALL (    7420 calls)
     cegterg      :   4228.71s CPU   4969.53s WALL (    3400 calls)

     Called by *egterg:
     h_psi        :   2617.19s CPU   3240.27s WALL (   29064 calls)
     s_psi        :    345.75s CPU    359.10s WALL (   29064 calls)
     g_psi        :     12.35s CPU     12.93s WALL (   25644 calls)
     cdiaghg      :    617.69s CPU    633.46s WALL (   28684 calls)

     Called by h_psi:
     add_vuspsi   :    358.58s CPU    372.06s WALL (   29064 calls)

     General routines
     calbec       :    525.25s CPU    540.43s WALL (   33064 calls)
     fft          :    368.79s CPU    450.30s WALL (   43521 calls)
     ffts         :      0.40s CPU      0.57s WALL (     351 calls)
     fftw         :   1443.49s CPU   2147.28s WALL ( 1830616 calls)
     interpolate  :      3.31s CPU      4.97s WALL (     351 calls)
     davcio       :      0.00s CPU      0.11s WALL (      20 calls)
 
     Parallel routines
     fft_scatter  :   1039.61s CPU   1498.80s WALL ( 1874488 calls)
 
     PWSCF        :     2h23m CPU        2h43m WALL

 
   This run was terminated on:  14:32:38   4Feb2018            

=------------------------------------------------------------------------------=
   JOB DONE.
=------------------------------------------------------------------------------=
