  python dir          : /home/mamunm/src/espresso
  espresso dir        : /home/vossj/suncat/esdld/espresso-dynpy-beef/bin
  pseudo dir          : /home/mamunm/src/pseudo/gbrv1.5pbe
  ase-espresso py git : GITVERSION



     Program PWSCF v.5.1rc2 (svn rev. ) starts on 18Apr2018 at  9: 9: 2 

     This program is part of the open-source Quantum ESPRESSO suite
     for quantum simulation of materials; please cite
         "P. Giannozzi et al., J. Phys.:Condens. Matter 21 395502 (2009);
          URL http://www.quantum-espresso.org", 
     in publications or presentations arising from this work. More details at
     http://www.quantum-espresso.org/quote

     Parallel version (MPI), running on    16 processors
     R & G space division:  proc/nbgrp/npool/nimage =      16
     Reading input from pw.inp
     Message from routine read_cards :
     DEPRECATED: no units specified in CELL_PARAMETERS card

     Current dimensions of program PWSCF are:
     Max number of different atomic species (ntypx) = 10
     Max number of k-points (npk) =  40000
     Max angular momentum in pseudopotentials (lmaxx) =  3
     Presently stress not available with electric field


     **************************************************************************
     Initializing libbeef V0.1.1 with the BEEF-vdW functional.
     Citation: Wellendorff et al., PRB 85, 235149 (2012).
     **************************************************************************


     IMPORTANT: XC functional enforced from input :
     Exchange-correlation      = BEEF-VDW ( 1  4 27 13 2)
     Any further DFT definition will be discarded
     Please, verify this is what you really want


     Subspace diagonalization in iterative solution of the eigenvalue problem:
     a serial algorithm will be used

 
     Parallelization info
     --------------------
     sticks:   dense  smooth     PW     G-vecs:    dense   smooth      PW
     Min         246      99     28                48320    12209    1858
     Max         247     100     29                48333    12244    1874
     Sum        3949    1585    451               773273   195593   29841
 


     bravais-lattice index     =            0
     lattice parameter (alat)  =       1.8897  a.u.
     unit-cell volume          =    6501.5726 (a.u.)^3
     number of atoms/cell      =           14
     number of atomic types    =            3
     number of electrons       =       163.00
     number of Kohn-Sham states=           91
     kinetic-energy cutoff     =      36.7493  Ry
     charge density cutoff     =     367.4932  Ry
     convergence threshold     =      1.0E-05
     mixing beta               =       0.3000
     number of iterations used =           10  plain     mixing
     Exchange-correlation      = BEEF-VDW ( 1  4 27 13 2)
     nstep                     =           50


     celldm(1)=   1.889726  celldm(2)=   0.000000  celldm(3)=   0.000000
     celldm(4)=   0.000000  celldm(5)=   0.000000  celldm(6)=   0.000000

     crystal axes: (cart. coord. in units of alat)
               a(1) = (   6.617606   0.000000   0.000000 )  
               a(2) = (   3.308803   5.731015   0.000000 )  
               a(3) = (   0.000000   0.000000  25.403253 )  

     reciprocal axes: (cart. coord. in units 2 pi/alat)
               b(1) = (  0.151112 -0.087245  0.000000 )  
               b(2) = (  0.000000  0.174489  0.000000 )  
               b(3) = (  0.000000  0.000000  0.039365 )  


     PseudoPot. # 1 for In read from file:
     /home/mamunm/src/pseudo/gbrv1.5pbe/In.UPF
     MD5 check sum: 90777abd96fbb83f2e67db2a40c566b9
     Pseudo is Ultrasoft + core correction, Zval = 13.0
     Generated by new atomic code, or converted to UPF format
     Using radial grid of  889 points,  6 beta functions with: 
                l(1) =   0
                l(2) =   0
                l(3) =   1
                l(4) =   1
                l(5) =   2
                l(6) =   2
     Q(r) pseudized with  6 coefficients,  rinner =    1.400   1.400   1.400
                                                       1.400   1.400

     PseudoPot. # 2 for S  read from file:
     /home/mamunm/src/pseudo/gbrv1.5pbe/S.UPF
     MD5 check sum: 88d86576ff6df21479756cfb9bdac1df
     Pseudo is Ultrasoft + core correction, Zval =  6.0
     Generated by new atomic code, or converted to UPF format
     Using radial grid of  907 points,  6 beta functions with: 
                l(1) =   0
                l(2) =   0
                l(3) =   1
                l(4) =   1
                l(5) =   2
                l(6) =   2
     Q(r) pseudized with  8 coefficients,  rinner =    1.300   1.300   1.300
                                                       1.300   1.300

     PseudoPot. # 3 for H  read from file:
     /home/mamunm/src/pseudo/gbrv1.5pbe/H.UPF
     MD5 check sum: 761ae9a214b05c3daf00ab9f6b793d6f
     Pseudo is Ultrasoft, Zval =  1.0
     Generated by new atomic code, or converted to UPF format
     Using radial grid of  615 points,  2 beta functions with: 
                l(1) =   0
                l(2) =   0
     Q(r) pseudized with  8 coefficients,  rinner =    0.700

     vdW kernel table read from file vdW_kernel_table
     MD5 check sum: 095c7af220d748ca6e76c0b4c6cfb241

     atomic species   valence    mass     pseudopotential
        In1           13.00   114.81800     In( 1.00)
        S1             6.00    32.06000     S ( 1.00)
        H1             1.00     1.00800     H ( 1.00)

     No symmetry found



   Cartesian axes

     site n.     atom                  positions (alat units)
         1           In1 tau(   1) = (   1.6544016   0.9551692  10.0000000  )
         2           In1 tau(   2) = (   4.9632047   0.9551692  10.0000000  )
         3           In1 tau(   3) = (   3.3088031   3.8206768  10.0000000  )
         4           In1 tau(   4) = (   6.6176063   3.8206768  10.0000000  )
         5           In1 tau(   5) = (   6.6176063   1.9103384  12.7016265  )
         6           In1 tau(   6) = (   3.3088031   1.9103384  12.7016265  )
         7           In1 tau(   7) = (   8.2720078   4.7758460  12.7016265  )
         8           In1 tau(   8) = (   4.9632047   4.7758460  12.7016265  )
         9           In1 tau(   9) = (   0.0000000   0.0000000  15.4032529  )
        10           In1 tau(  10) = (   3.3088031   0.0000000  15.4032529  )
        11           In1 tau(  11) = (   1.6544016   2.8655076  15.4032529  )
        12           In1 tau(  12) = (   4.9632047   2.8655076  15.4032529  )
        13           S1  tau(  13) = (   1.6544016   0.9551692  17.0087529  )
        14           H1  tau(  14) = (   1.6544016   0.9551692  18.2587529  )

     number of k points=    20  Fermi-Dirac smearing, width (Ry)=  0.0110
                       cart. coord. in units 2pi/alat
        k(    1) = (   0.0000000   0.0000000   0.0000000), wk =   0.0555556
        k(    2) = (   0.0000000   0.0290815   0.0000000), wk =   0.1111111
        k(    3) = (   0.0000000   0.0581631   0.0000000), wk =   0.1111111
        k(    4) = (   0.0000000  -0.0872446   0.0000000), wk =   0.0555556
        k(    5) = (   0.0251853  -0.0145408   0.0000000), wk =   0.1111111
        k(    6) = (   0.0251853   0.0145408   0.0000000), wk =   0.1111111
        k(    7) = (   0.0251853   0.0436223   0.0000000), wk =   0.1111111
        k(    8) = (   0.0251853  -0.1017853   0.0000000), wk =   0.1111111
        k(    9) = (   0.0251853  -0.0727038   0.0000000), wk =   0.1111111
        k(   10) = (   0.0251853  -0.0436223   0.0000000), wk =   0.1111111
        k(   11) = (   0.0503707  -0.0290815   0.0000000), wk =   0.1111111
        k(   12) = (   0.0503707   0.0000000   0.0000000), wk =   0.1111111
        k(   13) = (   0.0503707   0.0290815   0.0000000), wk =   0.1111111
        k(   14) = (   0.0503707  -0.1163261   0.0000000), wk =   0.1111111
        k(   15) = (   0.0503707  -0.0872446   0.0000000), wk =   0.1111111
        k(   16) = (   0.0503707  -0.0581631   0.0000000), wk =   0.1111111
        k(   17) = (  -0.0755560   0.0436223   0.0000000), wk =   0.0555556
        k(   18) = (  -0.0755560   0.0727038   0.0000000), wk =   0.1111111
        k(   19) = (  -0.0755560   0.1017853   0.0000000), wk =   0.1111111
        k(   20) = (  -0.0755560  -0.0436223   0.0000000), wk =   0.0555556

     Dense  grid:   773273 G-vectors     FFT dimensions: (  80,  80, 300)

     Smooth grid:   195593 G-vectors     FFT dimensions: (  50,  50, 192)

     Largest allocated arrays     est. size (Mb)     dimensions
        Kohn-Sham Wavefunctions         2.22 Mb     (    1596,   91)
        NL pseudopotentials             5.75 Mb     (    1596,  236)
        Each V/rho on FFT grid          1.86 Mb     (  121600)
        Each G-vector array             0.37 Mb     (   48320)
        G-vector shells                 0.14 Mb     (   17801)
     Largest temporary arrays     est. size (Mb)     dimensions
        Auxiliary wavefunctions         8.86 Mb     (    1596,  364)
        Each subspace H/S matrix        2.02 Mb     (     364,  364)
        Each <psi_i|beta_j> matrix      0.33 Mb     (     236,   91)
        Arrays for rho mixing          18.55 Mb     (  121600,   10)

     Initial potential from superposition of free atoms
     Check: negative starting charge=   -0.000155

     starting charge  144.99995, renormalised to  163.00000

     negative rho (up, down):  1.739E-04 0.000E+00


     ************************************************************************
     *
     * You are using vdW-DF for exchange-correlation in this calculation.
     * Please cite the following three references that made this development
     * possible:
     *
     *   M. Dion, H. Rydberg, E. Schroder, D. C. Langreth, and
     *   B. I. Lundqvist, Phys. Rev. Lett. 92, 246401 (2004).
     *
     *   T. Thonhauser, V. R. Cooper, S. Li, A. Puzder, P. Hyldgaard, and
     *   D. C. Langreth, Phys. Rev. B 76, 125112 (2007).
     *
     *   G. Roman-Perez and J. M. Soler, Phys. Rev. Lett. 103, 096102 (2009).
     *
     *
     * If you are using vdW-DF2, please also cite:
     *
     *   K. Lee, E. D. Murray, L. Kong, B. I. Lundqvist, and
     *   D. C. Langreth, Phys. Rev. B 82, 081101(R) (2010).
     *
     *
     * If you are calculating the stress with vdW-DF, please also cite:
     *
     *   R. Sabatini, E. Kucukbenli, B. Kolb, T. Thonhauser, and
     *   S. de Gironcoli, J. Phys.: Condens. Matter 24, 424209 (2012).
     *
     ************************************************************************

     Carrying out vdW-DF run using the following parameters:

     Nqs =      20    Nr_points =    1024   r_max =   100.000
     q_mesh =
               0.00001000     0.04494208     0.09755937     0.15916263
               0.23128650     0.31572767     0.41458969     0.53033537
               0.66584808     0.82450364     1.01025438     1.22772762
               1.48234092     1.78043706     2.12944203     2.53805004
               3.01644009     3.57652955     4.23227104     5.00000000

     Gradients computed in reciprocal space

     ************************************************************************


 
     Adding external electric field

     Computed dipole along edir(3) : 
        Dipole               -7.3656 Ry au,        -18.7214 Debye
        Dipole field         -0.0142 Ry au
 
        Potential amp.        1.3327 Ry
        Total length         46.8051 bohr
 
     Starting wfc are  113 randomized atomic wfcs

     total cpu time spent up to now is       10.4 secs

     Self-consistent Calculation

     iteration #  1     ecut=    36.75 Ry     beta=0.30
     Davidson diagonalization with overlap
     ethr =  1.00E-02,  avg # of iterations =  8.5

     negative rho (up, down):  1.668E-05 0.000E+00
 
     Adding external electric field

     Computed dipole along edir(3) : 
        Dipole              169.8842 Ry au,        431.8024 Debye
        Dipole field          0.3284 Ry au
 
        Potential amp.      -30.7374 Ry
        Total length         46.8051 bohr
 

     total cpu time spent up to now is       46.0 secs

     total energy              =    -831.25311332 Ry
     Harris-Foulkes estimate   =   -1614.53260534 Ry
     estimated scf accuracy    <    1670.84046331 Ry

     iteration #  2     ecut=    36.75 Ry     beta=0.30
     Davidson diagonalization with overlap
     ethr =  1.00E-02,  avg # of iterations = 24.4
 
     Adding external electric field

     Computed dipole along edir(3) : 
        Dipole               42.1737 Ry au,        107.1950 Debye
        Dipole field          0.0815 Ry au
 
        Potential amp.       -7.6306 Ry
        Total length         46.8051 bohr
 

     total cpu time spent up to now is      164.1 secs

     total energy              =   -1417.36562508 Ry
     Harris-Foulkes estimate   =   -3275.75945929 Ry
     estimated scf accuracy    <   14517.12538480 Ry

     iteration #  3     ecut=    36.75 Ry     beta=0.30
     Davidson diagonalization with overlap
     ethr =  1.00E-02,  avg # of iterations = 15.1
 
     Adding external electric field

     Computed dipole along edir(3) : 
        Dipole               39.0340 Ry au,         99.2146 Debye
        Dipole field          0.0754 Ry au
 
        Potential amp.       -7.0625 Ry
        Total length         46.8051 bohr
 

     total cpu time spent up to now is      235.9 secs

     total energy              =   -1637.21713929 Ry
     Harris-Foulkes estimate   =   -2045.65472359 Ry
     estimated scf accuracy    <    3107.86117312 Ry

     iteration #  4     ecut=    36.75 Ry     beta=0.30
     Davidson diagonalization with overlap
     ethr =  1.00E-02,  avg # of iterations = 16.2
 
     Adding external electric field

     Computed dipole along edir(3) : 
        Dipole               28.2664 Ry au,         71.8459 Debye
        Dipole field          0.0546 Ry au
 
        Potential amp.       -5.1143 Ry
        Total length         46.8051 bohr
 

     total cpu time spent up to now is      288.4 secs

     total energy              =   -1617.40888301 Ry
     Harris-Foulkes estimate   =   -1687.53610750 Ry
     estimated scf accuracy    <     528.33726149 Ry

     iteration #  5     ecut=    36.75 Ry     beta=0.30
     Davidson diagonalization with overlap
     ethr =  1.00E-02,  avg # of iterations = 10.8
 
     Adding external electric field

     Computed dipole along edir(3) : 
        Dipole               26.4072 Ry au,         67.1203 Debye
        Dipole field          0.0510 Ry au
 
        Potential amp.       -4.7779 Ry
        Total length         46.8051 bohr
 

     total cpu time spent up to now is      327.9 secs

     total energy              =   -1652.50106337 Ry
     Harris-Foulkes estimate   =   -1665.45011389 Ry
     estimated scf accuracy    <      49.84583652 Ry

     iteration #  6     ecut=    36.75 Ry     beta=0.30
     Davidson diagonalization with overlap
     ethr =  1.00E-02,  avg # of iterations =  5.0
 
     Adding external electric field

     Computed dipole along edir(3) : 
        Dipole               21.8586 Ry au,         55.5590 Debye
        Dipole field          0.0422 Ry au
 
        Potential amp.       -3.9549 Ry
        Total length         46.8051 bohr
 

     total cpu time spent up to now is      349.8 secs

     total energy              =   -1652.82845049 Ry
     Harris-Foulkes estimate   =   -1660.66025225 Ry
     estimated scf accuracy    <      70.38867555 Ry

     iteration #  7     ecut=    36.75 Ry     beta=0.30
     Davidson diagonalization with overlap
     ethr =  1.00E-02,  avg # of iterations =  1.0
 
     Adding external electric field

     Computed dipole along edir(3) : 
        Dipole               14.6791 Ry au,         37.3105 Debye
        Dipole field          0.0284 Ry au
 
        Potential amp.       -2.6559 Ry
        Total length         46.8051 bohr
 

     total cpu time spent up to now is      366.9 secs

     total energy              =   -1646.67989855 Ry
     Harris-Foulkes estimate   =   -1653.75487474 Ry
     estimated scf accuracy    <      44.69637115 Ry

     iteration #  8     ecut=    36.75 Ry     beta=0.30
     Davidson diagonalization with overlap
     ethr =  1.00E-02,  avg # of iterations =  2.0
 
     Adding external electric field

     Computed dipole along edir(3) : 
        Dipole               12.2739 Ry au,         31.1972 Debye
        Dipole field          0.0237 Ry au
 
        Potential amp.       -2.2207 Ry
        Total length         46.8051 bohr
 

     total cpu time spent up to now is      384.7 secs

     total energy              =   -1644.86128331 Ry
     Harris-Foulkes estimate   =   -1647.41798582 Ry
     estimated scf accuracy    <      31.55045490 Ry

     iteration #  9     ecut=    36.75 Ry     beta=0.30
     Davidson diagonalization with overlap
     ethr =  1.00E-02,  avg # of iterations =  2.1
 
     Adding external electric field

     Computed dipole along edir(3) : 
        Dipole               12.8298 Ry au,         32.6101 Debye
        Dipole field          0.0248 Ry au
 
        Potential amp.       -2.3213 Ry
        Total length         46.8051 bohr
 

     total cpu time spent up to now is      402.4 secs

     total energy              =   -1645.62021798 Ry
     Harris-Foulkes estimate   =   -1645.23161495 Ry
     estimated scf accuracy    <      10.40181568 Ry

     iteration # 10     ecut=    36.75 Ry     beta=0.30
     Davidson diagonalization with overlap
     ethr =  6.38E-03,  avg # of iterations =  1.1

     negative rho (up, down):  1.439E-01 0.000E+00
 
     Adding external electric field

     Computed dipole along edir(3) : 
        Dipole                0.4767 Ry au,          1.2115 Debye
        Dipole field          0.0009 Ry au
 
        Potential amp.       -0.0862 Ry
        Total length         46.8051 bohr
 

     total cpu time spent up to now is      419.4 secs

     total energy              =   -1641.20206391 Ry
     Harris-Foulkes estimate   =   -1646.19457157 Ry
     estimated scf accuracy    <      15.15840473 Ry

     iteration # 11     ecut=    36.75 Ry     beta=0.30
     Davidson diagonalization with overlap
     ethr =  6.38E-03,  avg # of iterations =  4.2

     negative rho (up, down):  1.141E-01 0.000E+00
 
     Adding external electric field

     Computed dipole along edir(3) : 
        Dipole                1.2593 Ry au,          3.2007 Debye
        Dipole field          0.0024 Ry au
 
        Potential amp.       -0.2278 Ry
        Total length         46.8051 bohr
 

     total cpu time spent up to now is      440.9 secs

     total energy              =   -1643.14548176 Ry
     Harris-Foulkes estimate   =   -1643.83431586 Ry
     estimated scf accuracy    <      22.37520370 Ry

     iteration # 12     ecut=    36.75 Ry     beta=0.30
     Davidson diagonalization with overlap
     ethr =  6.38E-03,  avg # of iterations =  1.4

     negative rho (up, down):  1.267E-01 0.000E+00
 
     Adding external electric field

     Computed dipole along edir(3) : 
        Dipole                0.5198 Ry au,          1.3211 Debye
        Dipole field          0.0010 Ry au
 
        Potential amp.       -0.0940 Ry
        Total length         46.8051 bohr
 

     total cpu time spent up to now is      458.2 secs

     total energy              =   -1643.39310712 Ry
     Harris-Foulkes estimate   =   -1643.30656505 Ry
     estimated scf accuracy    <       8.94867768 Ry

     iteration # 13     ecut=    36.75 Ry     beta=0.30
     Davidson diagonalization with overlap
     ethr =  5.49E-03,  avg # of iterations =  1.0

     negative rho (up, down):  1.229E-08 0.000E+00
 
     Adding external electric field

     Computed dipole along edir(3) : 
        Dipole                2.8281 Ry au,          7.1882 Debye
        Dipole field          0.0055 Ry au
 
        Potential amp.       -0.5117 Ry
        Total length         46.8051 bohr
 

     total cpu time spent up to now is      475.1 secs

     total energy              =   -1641.77009720 Ry
     Harris-Foulkes estimate   =   -1643.40653103 Ry
     estimated scf accuracy    <      12.31747000 Ry

     iteration # 14     ecut=    36.75 Ry     beta=0.30
     Davidson diagonalization with overlap
     ethr =  5.49E-03,  avg # of iterations =  3.4

     negative rho (up, down):  1.870E-05 0.000E+00
 
     Adding external electric field

     Computed dipole along edir(3) : 
        Dipole                1.6209 Ry au,          4.1199 Debye
        Dipole field          0.0031 Ry au
 
        Potential amp.       -0.2933 Ry
        Total length         46.8051 bohr
 

     total cpu time spent up to now is      494.3 secs

     total energy              =   -1642.91374049 Ry
     Harris-Foulkes estimate   =   -1642.99217441 Ry
     estimated scf accuracy    <       0.66176031 Ry

     iteration # 15     ecut=    36.75 Ry     beta=0.30
     Davidson diagonalization with overlap
     ethr =  4.06E-04,  avg # of iterations =  5.6

     negative rho (up, down):  1.779E-03 0.000E+00
 
     Adding external electric field

     Computed dipole along edir(3) : 
        Dipole                0.9215 Ry au,          2.3421 Debye
        Dipole field          0.0018 Ry au
 
        Potential amp.       -0.1667 Ry
        Total length         46.8051 bohr
 

     total cpu time spent up to now is      515.0 secs

     total energy              =   -1642.84932362 Ry
     Harris-Foulkes estimate   =   -1642.92394942 Ry
     estimated scf accuracy    <       0.64330721 Ry

     iteration # 16     ecut=    36.75 Ry     beta=0.30
     Davidson diagonalization with overlap
     ethr =  3.95E-04,  avg # of iterations =  2.0

     negative rho (up, down):  1.795E-03 0.000E+00
 
     Adding external electric field

     Computed dipole along edir(3) : 
        Dipole                0.7500 Ry au,          1.9064 Debye
        Dipole field          0.0014 Ry au
 
        Potential amp.       -0.1357 Ry
        Total length         46.8051 bohr
 

     total cpu time spent up to now is      532.6 secs

     total energy              =   -1642.85564937 Ry
     Harris-Foulkes estimate   =   -1642.86569880 Ry
     estimated scf accuracy    <       0.08674187 Ry

     iteration # 17     ecut=    36.75 Ry     beta=0.30
     Davidson diagonalization with overlap
     ethr =  5.32E-05,  avg # of iterations =  3.4

     negative rho (up, down):  8.671E-04 0.000E+00
 
     Adding external electric field

     Computed dipole along edir(3) : 
        Dipole                0.6522 Ry au,          1.6578 Debye
        Dipole field          0.0013 Ry au
 
        Potential amp.       -0.1180 Ry
        Total length         46.8051 bohr
 

     total cpu time spent up to now is      551.6 secs

     total energy              =   -1642.85636567 Ry
     Harris-Foulkes estimate   =   -1642.85821229 Ry
     estimated scf accuracy    <       0.02035363 Ry

     iteration # 18     ecut=    36.75 Ry     beta=0.30
     Davidson diagonalization with overlap
     ethr =  1.25E-05,  avg # of iterations =  3.0

     negative rho (up, down):  1.635E-03 0.000E+00
 
     Adding external electric field

     Computed dipole along edir(3) : 
        Dipole                0.5833 Ry au,          1.4827 Debye
        Dipole field          0.0011 Ry au
 
        Potential amp.       -0.1055 Ry
        Total length         46.8051 bohr
 

     total cpu time spent up to now is      570.0 secs

     total energy              =   -1642.85491044 Ry
     Harris-Foulkes estimate   =   -1642.85675388 Ry
     estimated scf accuracy    <       0.02404468 Ry

     iteration # 19     ecut=    36.75 Ry     beta=0.30
     Davidson diagonalization with overlap
     ethr =  1.25E-05,  avg # of iterations =  1.3

     negative rho (up, down):  1.208E-03 0.000E+00
 
     Adding external electric field

     Computed dipole along edir(3) : 
        Dipole                0.5176 Ry au,          1.3157 Debye
        Dipole field          0.0010 Ry au
 
        Potential amp.       -0.0937 Ry
        Total length         46.8051 bohr
 

     total cpu time spent up to now is      587.0 secs

     total energy              =   -1642.85327574 Ry
     Harris-Foulkes estimate   =   -1642.85515128 Ry
     estimated scf accuracy    <       0.01634277 Ry

     iteration # 20     ecut=    36.75 Ry     beta=0.30
     Davidson diagonalization with overlap
     ethr =  1.00E-05,  avg # of iterations =  2.3

     negative rho (up, down):  1.271E-03 0.000E+00
 
     Adding external electric field

     Computed dipole along edir(3) : 
        Dipole                0.4259 Ry au,          1.0825 Debye
        Dipole field          0.0008 Ry au
 
        Potential amp.       -0.0771 Ry
        Total length         46.8051 bohr
 

     total cpu time spent up to now is      604.9 secs

     total energy              =   -1642.85093915 Ry
     Harris-Foulkes estimate   =   -1642.85352188 Ry
     estimated scf accuracy    <       0.01333921 Ry

     iteration # 21     ecut=    36.75 Ry     beta=0.30
     Davidson diagonalization with overlap
     ethr =  8.18E-06,  avg # of iterations =  3.8

     negative rho (up, down):  1.529E-03 0.000E+00
 
     Adding external electric field

     Computed dipole along edir(3) : 
        Dipole                0.3914 Ry au,          0.9949 Debye
        Dipole field          0.0008 Ry au
 
        Potential amp.       -0.0708 Ry
        Total length         46.8051 bohr
 

     total cpu time spent up to now is      624.2 secs

     total energy              =   -1642.85077347 Ry
     Harris-Foulkes estimate   =   -1642.85128559 Ry
     estimated scf accuracy    <       0.00375796 Ry

     iteration # 22     ecut=    36.75 Ry     beta=0.30
     Davidson diagonalization with overlap
     ethr =  2.31E-06,  avg # of iterations =  4.0

     negative rho (up, down):  1.400E-03 0.000E+00
 
     Adding external electric field

     Computed dipole along edir(3) : 
        Dipole                0.3287 Ry au,          0.8356 Debye
        Dipole field          0.0006 Ry au
 
        Potential amp.       -0.0595 Ry
        Total length         46.8051 bohr
 

     total cpu time spent up to now is      643.0 secs

     total energy              =   -1642.85036235 Ry
     Harris-Foulkes estimate   =   -1642.85088906 Ry
     estimated scf accuracy    <       0.00221928 Ry

     iteration # 23     ecut=    36.75 Ry     beta=0.30
     Davidson diagonalization with overlap
     ethr =  1.36E-06,  avg # of iterations =  4.2

     negative rho (up, down):  2.118E-03 0.000E+00
 
     Adding external electric field

     Computed dipole along edir(3) : 
        Dipole                0.2415 Ry au,          0.6139 Debye
        Dipole field          0.0005 Ry au
 
        Potential amp.       -0.0437 Ry
        Total length         46.8051 bohr
 

     total cpu time spent up to now is      662.7 secs

     total energy              =   -1642.85030848 Ry
     Harris-Foulkes estimate   =   -1642.85053792 Ry
     estimated scf accuracy    <       0.00042973 Ry

     iteration # 24     ecut=    36.75 Ry     beta=0.30
     Davidson diagonalization with overlap
     ethr =  2.64E-07,  avg # of iterations =  4.0

     negative rho (up, down):  1.410E-03 0.000E+00
 
     Adding external electric field

     Computed dipole along edir(3) : 
        Dipole                0.2534 Ry au,          0.6441 Debye
        Dipole field          0.0005 Ry au
 
        Potential amp.       -0.0459 Ry
        Total length         46.8051 bohr
 

     total cpu time spent up to now is      683.0 secs

     total energy              =   -1642.85038412 Ry
     Harris-Foulkes estimate   =   -1642.85037836 Ry
     estimated scf accuracy    <       0.00006431 Ry

     iteration # 25     ecut=    36.75 Ry     beta=0.30
     Davidson diagonalization with overlap
     ethr =  3.95E-08,  avg # of iterations =  3.0

     negative rho (up, down):  1.045E-03 0.000E+00

     negative rho (up, down):  1.045E-03 0.000E+00

     negative rho (up, down):  1.045E-03 0.000E+00

     negative rho (up, down):  1.045E-03 0.000E+00

     negative rho (up, down):  1.045E-03 0.000E+00

     negative rho (up, down):  1.045E-03 0.000E+00

     negative rho (up, down):  1.045E-03 0.000E+00

     negative rho (up, down):  1.045E-03 0.000E+00

     negative rho (up, down):  1.045E-03 0.000E+00

     negative rho (up, down):  1.045E-03 0.000E+00

     negative rho (up, down):  1.045E-03 0.000E+00

     negative rho (up, down):  1.045E-03 0.000E+00

     negative rho (up, down):  1.045E-03 0.000E+00

     negative rho (up, down):  1.045E-03 0.000E+00

     negative rho (up, down):  1.045E-03 0.000E+00

     negative rho (up, down):  1.045E-03 0.000E+00

     negative rho (up, down):  1.045E-03 0.000E+00

     negative rho (up, down):  1.045E-03 0.000E+00

     negative rho (up, down):  1.045E-03 0.000E+00

     negative rho (up, down):  1.045E-03 0.000E+00

     negative rho (up, down):  1.045E-03 0.000E+00

     negative rho (up, down):  1.045E-03 0.000E+00

     negative rho (up, down):  1.045E-03 0.000E+00

     negative rho (up, down):  1.045E-03 0.000E+00

     negative rho (up, down):  1.045E-03 0.000E+00

     negative rho (up, down):  1.045E-03 0.000E+00

     negative rho (up, down):  1.045E-03 0.000E+00

     negative rho (up, down):  1.045E-03 0.000E+00

     negative rho (up, down):  1.045E-03 0.000E+00

     negative rho (up, down):  1.045E-03 0.000E+00

     negative rho (up, down):  1.045E-03 0.000E+00

     negative rho (up, down):  1.045E-03 0.000E+00

     negative rho (up, down):  1.045E-03 0.000E+00

     negative rho (up, down):  1.045E-03 0.000E+00

     negative rho (up, down):  1.045E-03 0.000E+00
 
     Adding external electric field

     Computed dipole along edir(3) : 
        Dipole                0.2567 Ry au,          0.6525 Debye
        Dipole field          0.0005 Ry au
 
        Potential amp.       -0.0464 Ry
        Total length         46.8051 bohr
 

     total cpu time spent up to now is      726.7 secs

     End of self-consistent calculation

          k = 0.0000 0.0000 0.0000 ( 24345 PWs)   bands (ev):

   -15.1660 -14.1796 -14.1618 -14.1618 -14.1045 -14.1045 -14.0780 -14.0542
   -14.0480 -14.0480 -14.0106 -14.0106 -13.9870 -13.9870 -13.9812 -13.9749
   -13.9601 -13.9589 -13.9589 -13.9452 -13.9452 -13.9334 -13.9291 -13.9215
   -13.9215 -13.8960 -13.8884 -13.8884 -13.8692 -13.8692 -13.8309 -13.8309
   -13.8016 -13.8016 -13.7960 -13.7509 -13.7509 -13.7312 -13.7310 -13.7310
   -13.7304 -13.6755 -13.6614 -13.6614 -13.6485 -13.6477 -13.6477 -13.6344
   -13.6344 -13.6320 -13.6242 -13.6242 -13.6000 -13.6000 -13.5927 -13.5907
   -13.5907 -13.5626 -13.5625 -13.5503 -13.3923  -8.3657  -7.5794  -6.1033
    -4.4657  -4.4657  -4.2275  -3.2699  -3.1750  -3.1750  -2.9116  -2.6532
    -2.6532  -1.7036  -1.7036  -1.6205  -1.4483  -1.0413  -1.0413  -0.7245
     0.1290   0.1290   0.2645   0.9315   0.9868   0.9868   2.0761   3.3922
     3.6369   3.6857   3.6857

          k = 0.0000 0.0291 0.0000 ( 24403 PWs)   bands (ev):

   -15.1589 -14.1685 -14.1477 -14.1384 -14.1015 -14.0928 -14.0629 -14.0439
   -14.0379 -14.0290 -14.0121 -14.0013 -13.9832 -13.9759 -13.9725 -13.9653
   -13.9517 -13.9493 -13.9464 -13.9426 -13.9394 -13.9307 -13.9260 -13.9135
   -13.9109 -13.8939 -13.8840 -13.8765 -13.8697 -13.8528 -13.8407 -13.8296
   -13.8138 -13.8066 -13.7976 -13.7640 -13.7577 -13.7491 -13.7359 -13.7317
   -13.7303 -13.6885 -13.6681 -13.6675 -13.6614 -13.6554 -13.6550 -13.6455
   -13.6387 -13.6386 -13.6362 -13.6344 -13.6155 -13.6155 -13.6084 -13.6027
   -13.6006 -13.5801 -13.5792 -13.5669 -13.3829  -8.2684  -7.5002  -6.0694
    -4.8885  -4.5789  -4.3263  -3.8626  -3.7069  -3.5389  -2.9336  -2.3739
    -2.1650  -1.7938  -1.7306  -1.3369  -0.9210  -0.7316  -0.5090  -0.4308
    -0.0230   0.0998   0.5396   1.2882   1.4343   1.8849   2.4180   2.7579
     3.3040   3.4534   3.7212

          k = 0.0000 0.0582 0.0000 ( 24465 PWs)   bands (ev):

   -15.1444 -14.1562 -14.1062 -14.0918 -14.0808 -14.0619 -14.0432 -14.0241
   -14.0152 -14.0008 -13.9863 -13.9800 -13.9735 -13.9725 -13.9628 -13.9550
   -13.9471 -13.9425 -13.9305 -13.9181 -13.9102 -13.9048 -13.9027 -13.8984
   -13.8855 -13.8765 -13.8763 -13.8520 -13.8507 -13.8459 -13.8370 -13.8357
   -13.8194 -13.8107 -13.7990 -13.7859 -13.7799 -13.7579 -13.7574 -13.7454
   -13.7344 -13.7192 -13.7099 -13.6936 -13.6874 -13.6874 -13.6809 -13.6764
   -13.6703 -13.6681 -13.6646 -13.6578 -13.6505 -13.6469 -13.6349 -13.6245
   -13.6196 -13.6159 -13.5932 -13.5812 -13.3648  -8.0297  -7.2604  -6.1211
    -5.6396  -4.8300  -4.7744  -4.2418  -3.8462  -3.7781  -3.2772  -2.7309
    -2.2724  -1.8414  -1.0262  -0.9489  -0.4143  -0.1548  -0.0526   0.5181
     0.7874   1.0545   1.4549   1.9744   2.1820   2.2717   2.5979   2.7320
     2.8111   3.4360   3.5060

          k = 0.0000-0.0872 0.0000 ( 24448 PWs)   bands (ev):

   -15.1369 -14.1535 -14.1020 -14.0546 -14.0475 -14.0376 -14.0164 -14.0090
   -14.0039 -14.0027 -13.9962 -13.9857 -13.9850 -13.9577 -13.9478 -13.9440
   -13.9294 -13.9282 -13.9257 -13.9155 -13.9055 -13.8999 -13.8888 -13.8821
   -13.8778 -13.8689 -13.8589 -13.8457 -13.8410 -13.8321 -13.8274 -13.8194
   -13.8142 -13.8001 -13.7967 -13.7848 -13.7698 -13.7683 -13.7591 -13.7563
   -13.7468 -13.7442 -13.7301 -13.7270 -13.7103 -13.7096 -13.7077 -13.7072
   -13.7028 -13.6925 -13.6911 -13.6811 -13.6767 -13.6689 -13.6417 -13.6329
   -13.6215 -13.6188 -13.5936 -13.5826 -13.3561  -7.8787  -6.9170  -6.6042
    -5.7701  -4.9888  -4.8599  -4.2696  -4.1436  -3.9501  -3.2619  -2.4733
    -2.4057  -2.3511  -0.9886  -0.5981   0.3237   0.5392   0.6635   0.7027
     0.9457   1.2136   1.9845   2.0382   2.0908   2.1588   2.8270   3.0472
     3.1022   3.3194   3.4998

          k = 0.0252-0.0145 0.0000 ( 24403 PWs)   bands (ev):

   -15.1589 -14.1685 -14.1477 -14.1384 -14.1015 -14.0928 -14.0629 -14.0439
   -14.0379 -14.0290 -14.0121 -14.0013 -13.9832 -13.9759 -13.9725 -13.9653
   -13.9517 -13.9493 -13.9464 -13.9426 -13.9394 -13.9307 -13.9260 -13.9135
   -13.9109 -13.8939 -13.8840 -13.8765 -13.8697 -13.8528 -13.8407 -13.8296
   -13.8138 -13.8066 -13.7976 -13.7640 -13.7577 -13.7491 -13.7359 -13.7317
   -13.7303 -13.6885 -13.6681 -13.6675 -13.6614 -13.6554 -13.6550 -13.6455
   -13.6387 -13.6386 -13.6362 -13.6344 -13.6155 -13.6155 -13.6084 -13.6027
   -13.6006 -13.5801 -13.5792 -13.5669 -13.3829  -8.2684  -7.5002  -6.0694
    -4.8885  -4.5789  -4.3263  -3.8626  -3.7069  -3.5389  -2.9336  -2.3739
    -2.1650  -1.7938  -1.7306  -1.3369  -0.9210  -0.7316  -0.5090  -0.4308
    -0.0230   0.0998   0.5396   1.2882   1.4343   1.8849   2.4180   2.7579
     3.3040   3.4534   3.7212

          k = 0.0252 0.0145 0.0000 ( 24403 PWs)   bands (ev):

   -15.1589 -14.1685 -14.1477 -14.1384 -14.1015 -14.0928 -14.0629 -14.0439
   -14.0379 -14.0290 -14.0121 -14.0013 -13.9832 -13.9759 -13.9725 -13.9653
   -13.9517 -13.9493 -13.9464 -13.9426 -13.9394 -13.9307 -13.9260 -13.9135
   -13.9109 -13.8939 -13.8840 -13.8765 -13.8697 -13.8528 -13.8407 -13.8296
   -13.8138 -13.8066 -13.7976 -13.7640 -13.7577 -13.7490 -13.7359 -13.7317
   -13.7303 -13.6885 -13.6682 -13.6675 -13.6614 -13.6554 -13.6550 -13.6456
   -13.6387 -13.6386 -13.6362 -13.6344 -13.6155 -13.6155 -13.6084 -13.6027
   -13.6006 -13.5801 -13.5792 -13.5669 -13.3829  -8.2684  -7.5002  -6.0694
    -4.8885  -4.5789  -4.3263  -3.8626  -3.7069  -3.5389  -2.9336  -2.3739
    -2.1650  -1.7938  -1.7306  -1.3369  -0.9210  -0.7316  -0.5090  -0.4308
    -0.0230   0.0998   0.5396   1.2882   1.4343   1.8849   2.4180   2.7579
     3.3040   3.4534   3.7212

          k = 0.0252 0.0436 0.0000 ( 24482 PWs)   bands (ev):

   -15.1481 -14.1489 -14.1316 -14.0970 -14.0910 -14.0730 -14.0412 -14.0310
   -14.0218 -14.0080 -13.9979 -13.9782 -13.9744 -13.9686 -13.9651 -13.9585
   -13.9537 -13.9441 -13.9344 -13.9265 -13.9196 -13.9141 -13.9078 -13.8996
   -13.8890 -13.8865 -13.8769 -13.8694 -13.8553 -13.8471 -13.8370 -13.8292
   -13.8191 -13.8131 -13.8010 -13.7811 -13.7778 -13.7624 -13.7473 -13.7376
   -13.7358 -13.7168 -13.6883 -13.6861 -13.6803 -13.6761 -13.6741 -13.6670
   -13.6640 -13.6566 -13.6488 -13.6436 -13.6358 -13.6329 -13.6292 -13.6241
   -13.6156 -13.6030 -13.5958 -13.5919 -13.3693  -8.0983  -7.3403  -6.0275
    -5.2924  -5.1353  -4.5944  -4.4992  -3.5728  -3.4139  -3.0499  -2.7920
    -2.3790  -1.7382  -1.2509  -1.1025  -0.7130  -0.3842   0.0894   0.1360
     0.7304   0.9489   1.1177   1.3876   2.1162   2.3403   2.4107   2.7560
     3.0354   3.2326   3.5010

          k = 0.0252-0.1018 0.0000 ( 24479 PWs)   bands (ev):

   -15.1369 -14.1396 -14.1018 -14.0765 -14.0567 -14.0337 -14.0161 -14.0118
   -14.0011 -13.9974 -13.9900 -13.9813 -13.9718 -13.9613 -13.9517 -13.9475
   -13.9336 -13.9250 -13.9156 -13.9108 -13.9088 -13.8967 -13.8921 -13.8835
   -13.8816 -13.8688 -13.8581 -13.8538 -13.8468 -13.8399 -13.8309 -13.8188
   -13.8138 -13.8050 -13.7993 -13.7940 -13.7885 -13.7769 -13.7668 -13.7572
   -13.7430 -13.7366 -13.7277 -13.7235 -13.7158 -13.7027 -13.6964 -13.6949
   -13.6905 -13.6794 -13.6772 -13.6705 -13.6648 -13.6560 -13.6425 -13.6377
   -13.6319 -13.6238 -13.6087 -13.5987 -13.3563  -7.8923  -6.9914  -6.2929
    -5.7589  -5.4708  -4.9027  -4.5656  -3.9677  -3.4734  -3.0330  -2.7900
    -2.3230  -1.6466  -1.4189  -1.0166  -0.0500   0.1667   0.7802   0.9259
     1.1269   1.3968   1.7506   1.8982   2.1879   2.3478   2.4875   2.9308
     3.1422   3.3386   3.5553

          k = 0.0252-0.0727 0.0000 ( 24479 PWs)   bands (ev):

   -15.1369 -14.1396 -14.1018 -14.0765 -14.0567 -14.0337 -14.0161 -14.0118
   -14.0011 -13.9974 -13.9900 -13.9813 -13.9718 -13.9613 -13.9517 -13.9475
   -13.9336 -13.9250 -13.9156 -13.9108 -13.9088 -13.8967 -13.8921 -13.8835
   -13.8816 -13.8688 -13.8581 -13.8538 -13.8468 -13.8399 -13.8309 -13.8188
   -13.8138 -13.8050 -13.7993 -13.7940 -13.7885 -13.7769 -13.7668 -13.7572
   -13.7430 -13.7366 -13.7277 -13.7235 -13.7158 -13.7027 -13.6964 -13.6949
   -13.6905 -13.6794 -13.6772 -13.6705 -13.6648 -13.6561 -13.6425 -13.6376
   -13.6319 -13.6238 -13.6087 -13.5987 -13.3563  -7.8923  -6.9914  -6.2929
    -5.7589  -5.4708  -4.9027  -4.5656  -3.9677  -3.4734  -3.0330  -2.7900
    -2.3230  -1.6466  -1.4189  -1.0166  -0.0500   0.1667   0.7802   0.9259
     1.1269   1.3969   1.7506   1.8982   2.1879   2.3478   2.4875   2.9308
     3.1422   3.3386   3.5554

          k = 0.0252-0.0436 0.0000 ( 24482 PWs)   bands (ev):

   -15.1481 -14.1489 -14.1316 -14.0970 -14.0910 -14.0730 -14.0412 -14.0310
   -14.0218 -14.0080 -13.9979 -13.9782 -13.9744 -13.9686 -13.9651 -13.9585
   -13.9537 -13.9441 -13.9344 -13.9265 -13.9196 -13.9141 -13.9078 -13.8997
   -13.8890 -13.8865 -13.8769 -13.8694 -13.8553 -13.8471 -13.8370 -13.8292
   -13.8192 -13.8131 -13.8010 -13.7811 -13.7778 -13.7624 -13.7473 -13.7376
   -13.7358 -13.7168 -13.6883 -13.6861 -13.6803 -13.6761 -13.6740 -13.6670
   -13.6640 -13.6566 -13.6488 -13.6436 -13.6358 -13.6329 -13.6292 -13.6241
   -13.6156 -13.6030 -13.5958 -13.5919 -13.3693  -8.0983  -7.3403  -6.0275
    -5.2924  -5.1353  -4.5944  -4.4992  -3.5728  -3.4139  -3.0499  -2.7920
    -2.3790  -1.7382  -1.2509  -1.1025  -0.7130  -0.3842   0.0894   0.1360
     0.7304   0.9489   1.1177   1.3876   2.1162   2.3403   2.4107   2.7560
     3.0354   3.2326   3.5010

          k = 0.0504-0.0291 0.0000 ( 24465 PWs)   bands (ev):

   -15.1444 -14.1562 -14.1062 -14.0918 -14.0808 -14.0619 -14.0432 -14.0241
   -14.0152 -14.0008 -13.9863 -13.9800 -13.9735 -13.9725 -13.9628 -13.9550
   -13.9471 -13.9425 -13.9305 -13.9181 -13.9102 -13.9048 -13.9027 -13.8985
   -13.8855 -13.8765 -13.8763 -13.8520 -13.8507 -13.8459 -13.8370 -13.8357
   -13.8194 -13.8107 -13.7990 -13.7859 -13.7799 -13.7579 -13.7574 -13.7454
   -13.7344 -13.7191 -13.7099 -13.6936 -13.6874 -13.6874 -13.6809 -13.6764
   -13.6704 -13.6681 -13.6646 -13.6578 -13.6504 -13.6469 -13.6349 -13.6245
   -13.6196 -13.6160 -13.5932 -13.5812 -13.3648  -8.0297  -7.2604  -6.1211
    -5.6396  -4.8300  -4.7744  -4.2418  -3.8462  -3.7781  -3.2772  -2.7309
    -2.2724  -1.8414  -1.0262  -0.9489  -0.4143  -0.1548  -0.0526   0.5181
     0.7874   1.0545   1.4549   1.9744   2.1820   2.2717   2.5979   2.7320
     2.8111   3.4360   3.5060

          k = 0.0504 0.0000 0.0000 ( 24482 PWs)   bands (ev):

   -15.1481 -14.1489 -14.1316 -14.0970 -14.0910 -14.0730 -14.0412 -14.0310
   -14.0218 -14.0080 -13.9979 -13.9782 -13.9744 -13.9686 -13.9651 -13.9585
   -13.9537 -13.9441 -13.9344 -13.9265 -13.9196 -13.9141 -13.9078 -13.8996
   -13.8890 -13.8865 -13.8770 -13.8694 -13.8553 -13.8471 -13.8370 -13.8292
   -13.8191 -13.8131 -13.8010 -13.7811 -13.7778 -13.7624 -13.7473 -13.7376
   -13.7358 -13.7168 -13.6883 -13.6861 -13.6803 -13.6761 -13.6741 -13.6670
   -13.6640 -13.6566 -13.6488 -13.6436 -13.6358 -13.6329 -13.6292 -13.6241
   -13.6156 -13.6030 -13.5958 -13.5919 -13.3693  -8.0983  -7.3403  -6.0275
    -5.2924  -5.1353  -4.5944  -4.4992  -3.5728  -3.4139  -3.0499  -2.7920
    -2.3790  -1.7382  -1.2509  -1.1025  -0.7130  -0.3842   0.0894   0.1360
     0.7304   0.9489   1.1177   1.3876   2.1162   2.3403   2.4107   2.7560
     3.0354   3.2326   3.5010

          k = 0.0504 0.0291 0.0000 ( 24465 PWs)   bands (ev):

   -15.1444 -14.1562 -14.1062 -14.0918 -14.0808 -14.0619 -14.0432 -14.0241
   -14.0152 -14.0008 -13.9863 -13.9800 -13.9735 -13.9725 -13.9628 -13.9550
   -13.9471 -13.9425 -13.9305 -13.9181 -13.9102 -13.9048 -13.9027 -13.8985
   -13.8855 -13.8765 -13.8763 -13.8520 -13.8507 -13.8459 -13.8370 -13.8357
   -13.8194 -13.8107 -13.7990 -13.7859 -13.7799 -13.7579 -13.7574 -13.7454
   -13.7344 -13.7191 -13.7099 -13.6936 -13.6874 -13.6874 -13.6809 -13.6764
   -13.6704 -13.6682 -13.6646 -13.6578 -13.6504 -13.6469 -13.6349 -13.6245
   -13.6195 -13.6160 -13.5932 -13.5812 -13.3648  -8.0297  -7.2604  -6.1211
    -5.6397  -4.8300  -4.7744  -4.2418  -3.8462  -3.7781  -3.2772  -2.7309
    -2.2724  -1.8414  -1.0262  -0.9489  -0.4143  -0.1548  -0.0526   0.5181
     0.7874   1.0545   1.4549   1.9744   2.1820   2.2717   2.5979   2.7320
     2.8111   3.4360   3.5060

          k = 0.0504-0.1163 0.0000 ( 24479 PWs)   bands (ev):

   -15.1369 -14.1396 -14.1018 -14.0765 -14.0567 -14.0337 -14.0161 -14.0118
   -14.0011 -13.9974 -13.9900 -13.9813 -13.9718 -13.9613 -13.9516 -13.9475
   -13.9336 -13.9250 -13.9156 -13.9108 -13.9088 -13.8967 -13.8921 -13.8835
   -13.8816 -13.8688 -13.8581 -13.8538 -13.8468 -13.8399 -13.8309 -13.8188
   -13.8138 -13.8050 -13.7993 -13.7940 -13.7885 -13.7769 -13.7668 -13.7572
   -13.7430 -13.7366 -13.7277 -13.7235 -13.7158 -13.7027 -13.6964 -13.6949
   -13.6905 -13.6794 -13.6772 -13.6705 -13.6648 -13.6561 -13.6425 -13.6376
   -13.6318 -13.6238 -13.6086 -13.5987 -13.3563  -7.8923  -6.9914  -6.2929
    -5.7589  -5.4708  -4.9027  -4.5656  -3.9677  -3.4734  -3.0330  -2.7900
    -2.3230  -1.6466  -1.4189  -1.0166  -0.0500   0.1667   0.7802   0.9259
     1.1269   1.3969   1.7506   1.8982   2.1879   2.3478   2.4875   2.9308
     3.1422   3.3386   3.5553

          k = 0.0504-0.0872 0.0000 ( 24486 PWs)   bands (ev):

   -15.1331 -14.1258 -14.0802 -14.0772 -14.0509 -14.0473 -14.0108 -13.9996
   -13.9900 -13.9893 -13.9875 -13.9687 -13.9657 -13.9500 -13.9478 -13.9293
   -13.9231 -13.9216 -13.9200 -13.9088 -13.9064 -13.8850 -13.8825 -13.8818
   -13.8741 -13.8668 -13.8654 -13.8560 -13.8471 -13.8375 -13.8220 -13.8210
   -13.8106 -13.8088 -13.8088 -13.7994 -13.7877 -13.7795 -13.7786 -13.7689
   -13.7614 -13.7516 -13.7375 -13.7242 -13.7235 -13.7142 -13.6971 -13.6919
   -13.6830 -13.6786 -13.6757 -13.6734 -13.6621 -13.6596 -13.6500 -13.6443
   -13.6430 -13.6339 -13.6324 -13.6222 -13.3523  -7.8288  -6.5037  -6.5017
    -6.1824  -5.4260  -5.3721  -4.3982  -3.9277  -3.9121  -2.7016  -2.3106
    -2.1496  -1.7954  -1.5953  -1.0670   0.2490   0.2817   0.3603   0.8848
     0.9824   1.2253   2.1296   2.1781   2.2988   3.0288   3.2743   3.3247
     3.4178   3.4949   3.6060

          k = 0.0504-0.0582 0.0000 ( 24479 PWs)   bands (ev):

   -15.1369 -14.1396 -14.1018 -14.0765 -14.0567 -14.0337 -14.0161 -14.0118
   -14.0011 -13.9974 -13.9900 -13.9813 -13.9718 -13.9613 -13.9517 -13.9475
   -13.9336 -13.9250 -13.9156 -13.9108 -13.9088 -13.8967 -13.8921 -13.8835
   -13.8816 -13.8688 -13.8581 -13.8537 -13.8468 -13.8399 -13.8309 -13.8188
   -13.8138 -13.8050 -13.7993 -13.7940 -13.7885 -13.7769 -13.7668 -13.7572
   -13.7430 -13.7366 -13.7277 -13.7235 -13.7158 -13.7027 -13.6964 -13.6949
   -13.6905 -13.6794 -13.6772 -13.6705 -13.6648 -13.6561 -13.6425 -13.6376
   -13.6318 -13.6238 -13.6087 -13.5987 -13.3563  -7.8923  -6.9914  -6.2929
    -5.7589  -5.4708  -4.9027  -4.5656  -3.9677  -3.4734  -3.0330  -2.7900
    -2.3230  -1.6466  -1.4189  -1.0166  -0.0500   0.1667   0.7802   0.9259
     1.1269   1.3969   1.7506   1.8982   2.1879   2.3478   2.4875   2.9308
     3.1422   3.3386   3.5554

          k =-0.0756 0.0436 0.0000 ( 24448 PWs)   bands (ev):

   -15.1369 -14.1535 -14.1020 -14.0546 -14.0475 -14.0376 -14.0164 -14.0090
   -14.0039 -14.0027 -13.9963 -13.9857 -13.9850 -13.9577 -13.9478 -13.9440
   -13.9294 -13.9282 -13.9257 -13.9155 -13.9055 -13.8999 -13.8888 -13.8821
   -13.8778 -13.8689 -13.8589 -13.8457 -13.8410 -13.8321 -13.8273 -13.8195
   -13.8142 -13.8001 -13.7968 -13.7849 -13.7698 -13.7683 -13.7591 -13.7563
   -13.7468 -13.7442 -13.7301 -13.7270 -13.7103 -13.7096 -13.7077 -13.7072
   -13.7028 -13.6925 -13.6911 -13.6811 -13.6767 -13.6689 -13.6417 -13.6329
   -13.6214 -13.6188 -13.5936 -13.5826 -13.3561  -7.8787  -6.9170  -6.6042
    -5.7701  -4.9888  -4.8599  -4.2696  -4.1436  -3.9501  -3.2619  -2.4733
    -2.4057  -2.3511  -0.9886  -0.5981   0.3237   0.5392   0.6635   0.7027
     0.9457   1.2136   1.9845   2.0382   2.0908   2.1588   2.8270   3.0472
     3.1022   3.3194   3.4998

          k =-0.0756 0.0727 0.0000 ( 24479 PWs)   bands (ev):

   -15.1369 -14.1396 -14.1018 -14.0765 -14.0567 -14.0337 -14.0161 -14.0118
   -14.0011 -13.9974 -13.9900 -13.9813 -13.9718 -13.9613 -13.9517 -13.9475
   -13.9336 -13.9250 -13.9156 -13.9108 -13.9088 -13.8967 -13.8921 -13.8835
   -13.8816 -13.8688 -13.8581 -13.8538 -13.8468 -13.8399 -13.8309 -13.8188
   -13.8138 -13.8050 -13.7993 -13.7940 -13.7886 -13.7769 -13.7668 -13.7572
   -13.7430 -13.7366 -13.7277 -13.7235 -13.7158 -13.7027 -13.6964 -13.6949
   -13.6905 -13.6794 -13.6772 -13.6705 -13.6648 -13.6560 -13.6425 -13.6376
   -13.6318 -13.6238 -13.6087 -13.5987 -13.3563  -7.8923  -6.9914  -6.2929
    -5.7589  -5.4708  -4.9027  -4.5656  -3.9677  -3.4734  -3.0330  -2.7900
    -2.3230  -1.6466  -1.4189  -1.0166  -0.0500   0.1667   0.7802   0.9259
     1.1269   1.3968   1.7506   1.8982   2.1879   2.3478   2.4875   2.9308
     3.1422   3.3386   3.5553

          k =-0.0756 0.1018 0.0000 ( 24479 PWs)   bands (ev):

   -15.1369 -14.1396 -14.1018 -14.0765 -14.0567 -14.0337 -14.0161 -14.0118
   -14.0011 -13.9974 -13.9900 -13.9813 -13.9718 -13.9613 -13.9516 -13.9475
   -13.9336 -13.9250 -13.9156 -13.9108 -13.9088 -13.8967 -13.8921 -13.8835
   -13.8816 -13.8688 -13.8581 -13.8538 -13.8468 -13.8399 -13.8309 -13.8188
   -13.8138 -13.8050 -13.7993 -13.7940 -13.7886 -13.7769 -13.7668 -13.7572
   -13.7430 -13.7366 -13.7277 -13.7235 -13.7158 -13.7027 -13.6964 -13.6949
   -13.6905 -13.6794 -13.6772 -13.6705 -13.6648 -13.6561 -13.6425 -13.6376
   -13.6318 -13.6238 -13.6086 -13.5987 -13.3563  -7.8923  -6.9914  -6.2929
    -5.7589  -5.4708  -4.9027  -4.5656  -3.9677  -3.4734  -3.0330  -2.7900
    -2.3230  -1.6466  -1.4189  -1.0166  -0.0500   0.1667   0.7802   0.9259
     1.1269   1.3969   1.7506   1.8982   2.1879   2.3478   2.4875   2.9308
     3.1422   3.3386   3.5553

          k =-0.0756-0.0436 0.0000 ( 24448 PWs)   bands (ev):

   -15.1369 -14.1535 -14.1020 -14.0546 -14.0475 -14.0376 -14.0163 -14.0090
   -14.0039 -14.0027 -13.9963 -13.9857 -13.9850 -13.9577 -13.9478 -13.9440
   -13.9294 -13.9282 -13.9258 -13.9155 -13.9055 -13.8999 -13.8888 -13.8821
   -13.8778 -13.8689 -13.8589 -13.8457 -13.8410 -13.8321 -13.8273 -13.8195
   -13.8142 -13.8001 -13.7968 -13.7849 -13.7698 -13.7683 -13.7591 -13.7563
   -13.7468 -13.7442 -13.7301 -13.7270 -13.7103 -13.7096 -13.7077 -13.7071
   -13.7028 -13.6925 -13.6911 -13.6811 -13.6767 -13.6689 -13.6418 -13.6329
   -13.6214 -13.6188 -13.5936 -13.5827 -13.3561  -7.8787  -6.9170  -6.6042
    -5.7701  -4.9888  -4.8599  -4.2696  -4.1436  -3.9501  -3.2619  -2.4733
    -2.4057  -2.3511  -0.9886  -0.5981   0.3237   0.5392   0.6635   0.7027
     0.9457   1.2136   1.9845   2.0382   2.0908   2.1588   2.8270   3.0472
     3.1022   3.3194   3.5001

     the Fermi energy is     1.0930 ev

!    total energy              =   -1642.85039050 Ry
     Harris-Foulkes estimate   =   -1642.85038684 Ry
     estimated scf accuracy    <       0.00000254 Ry

     The total energy is the sum of the following terms:

     one-electron contribution =   -9500.01494494 Ry
     hartree contribution      =    4833.60389427 Ry
     xc contribution           =    -479.37686530 Ry
     ewald contribution        =    3502.97579520 Ry
     electric field correction =       0.00012738 Ry
     smearing contrib. (-TS)   =      -0.03839711 Ry

     convergence has been achieved in  25 iterations
 
 BEEF-vdW xc energy contributions
           1 :   -419.700380208724     
           2 :    383.404417594730     
           3 :   -322.080789424213     
           4 :    252.902577130888     
           5 :   -191.604780613993     
           6 :    146.839265869928     
           7 :   -118.513991821466     
           8 :    100.301729256283     
           9 :   -84.4850200507041     
          10 :    66.3267585878481     
          11 :   -45.8089494053162     
          12 :    26.3264777522366     
          13 :   -11.6942096559666     
          14 :    3.54008779004340     
          15 :  -0.551962961486538     
          16 :  -0.338732604213874     
          17 :    1.92662134350189     
          18 :   -5.25555349472052     
          19 :    9.48726270702571     
          20 :   -12.9320120209213     
          21 :    14.3701280855980     
          22 :   -13.7838479779556     
          23 :    12.1606491195892     
          24 :   -10.6944032769525     
          25 :    10.0322352005264     
          26 :   -10.0509421547680     
          27 :    10.1846504063408     
          28 :   -9.94792672734837     
          29 :    9.24484467329546     
          30 :   -8.30543234878257     
          31 :   -38.3411991812591     
          32 :   -27.8211548142869     

     Forces acting on atoms (Ry/au):


     negative rho (up, down):  1.045E-03 0.000E+00
     atom    1 type  1   force =    -0.00000048    0.00000830   -0.01002474
     atom    2 type  1   force =     0.00000348    0.00016400   -0.00966522
     atom    3 type  1   force =     0.00013894   -0.00008046   -0.00967244
     atom    4 type  1   force =    -0.00013738   -0.00007915   -0.00968642
     atom    5 type  1   force =    -0.00226051    0.00131045    0.00307689
     atom    6 type  1   force =     0.00225710    0.00130591    0.00307025
     atom    7 type  1   force =    -0.00000151   -0.00000509   -0.00980174
     atom    8 type  1   force =     0.00000619   -0.00261438    0.00307485
     atom    9 type  1   force =    -0.05990911   -0.03459290   -0.03565198
     atom   10 type  1   force =     0.05990663   -0.03458833   -0.03565904
     atom   11 type  1   force =    -0.00000189    0.06916790   -0.03565948
     atom   12 type  1   force =    -0.00000090    0.00000450    0.00322114
     atom   13 type  2   force =    -0.00000059   -0.00000032   -0.00231830
     atom   14 type  3   force =     0.00000004   -0.00000041    0.14569621

     Total force =     0.198526     Total SCF correction =     0.002520


     entering subroutine stress ...


     negative rho (up, down):  1.045E-03 0.000E+00
          total   stress  (Ry/bohr**3)                   (kbar)     P=   18.37
   0.00010238  -0.00000000   0.00000000         15.06     -0.00      0.00
  -0.00000000   0.00010238  -0.00000000         -0.00     15.06     -0.00
   0.00000000  -0.00000000   0.00016995          0.00     -0.00     25.00


     BFGS Geometry Optimization

     number of scf cycles    =   1
     number of bfgs steps    =   0

     energy   new            =   -1642.8503905040 Ry

     new trust radius        =       0.1456962099 bohr
     new conv_thr            =       0.0000099958 Ry


ATOMIC_POSITIONS (crystal)
In1      0.166666667   0.166666667   0.393650374    0   0   0
In1      0.666666667   0.166666667   0.393650374    0   0   0
In1      0.166666667   0.666666667   0.393650374    0   0   0
In1      0.666666667   0.666666667   0.393650374    0   0   0
In1      0.833333333   0.333333333   0.500000000    0   0   0
In1      0.333333333   0.333333333   0.500000000    0   0   0
In1      0.833333333   0.833333333   0.500000000    0   0   0
In1      0.333333333   0.833333333   0.500000000    0   0   0
In1     -0.003193556  -0.003194159   0.605606957
In1      0.506387305  -0.003193737   0.605606810
In1     -0.003193484   0.506386665   0.605606801
In1      0.499999720   0.500000415   0.606416726
S1       0.166666634   0.166666637   0.669501901
H1       0.166666689   0.166666629   0.721791500



     Writing output data file calc.save
     Check: negative starting charge=   -0.000155
     NEW-OLD atomic charge density approx. for the potential
     Check: negative starting charge=   -0.000151

     negative rho (up, down):  1.022E-03 0.000E+00
 
     Adding external electric field

     Computed dipole along edir(3) : 
        Dipole                0.1011 Ry au,          0.2569 Debye
        Dipole field          0.0002 Ry au
 
        Potential amp.       -0.0183 Ry
        Total length         46.8051 bohr
 

     total cpu time spent up to now is      758.5 secs

     Self-consistent Calculation

     iteration #  1     ecut=    36.75 Ry     beta=0.30
     Davidson diagonalization with overlap
     ethr =  1.00E-06,  avg # of iterations =  7.8

     negative rho (up, down):  1.012E-03 0.000E+00
 
     Adding external electric field

     Computed dipole along edir(3) : 
        Dipole                1.1263 Ry au,          2.8627 Debye
        Dipole field          0.0022 Ry au
 
        Potential amp.       -0.2038 Ry
        Total length         46.8051 bohr
 

     total cpu time spent up to now is      798.1 secs

     total energy              =   -1642.84055510 Ry
     Harris-Foulkes estimate   =   -1642.88273697 Ry
     estimated scf accuracy    <       0.09077332 Ry

     iteration #  2     ecut=    36.75 Ry     beta=0.30
     Davidson diagonalization with overlap
     ethr =  5.57E-05,  avg # of iterations =  6.7

     negative rho (up, down):  9.962E-04 0.000E+00
 
     Adding external electric field

     Computed dipole along edir(3) : 
        Dipole                0.1769 Ry au,          0.4496 Debye
        Dipole field          0.0003 Ry au
 
        Potential amp.       -0.0320 Ry
        Total length         46.8051 bohr
 

     total cpu time spent up to now is      821.6 secs

     total energy              =   -1642.72269213 Ry
     Harris-Foulkes estimate   =   -1643.03063890 Ry
     estimated scf accuracy    <       4.42664667 Ry

     iteration #  3     ecut=    36.75 Ry     beta=0.30
     Davidson diagonalization with overlap
     ethr =  5.57E-05,  avg # of iterations =  5.8

     negative rho (up, down):  9.973E-04 0.000E+00
 
     Adding external electric field

     Computed dipole along edir(3) : 
        Dipole                0.2094 Ry au,          0.5324 Debye
        Dipole field          0.0004 Ry au
 
        Potential amp.       -0.0379 Ry
        Total length         46.8051 bohr
 

     total cpu time spent up to now is      844.3 secs

     total energy              =   -1642.87795425 Ry
     Harris-Foulkes estimate   =   -1642.88078380 Ry
     estimated scf accuracy    <       0.01721311 Ry

     iteration #  4     ecut=    36.75 Ry     beta=0.30
     Davidson diagonalization with overlap
     ethr =  1.06E-05,  avg # of iterations =  3.0

     negative rho (up, down):  1.001E-03 0.000E+00
 
     Adding external electric field

     Computed dipole along edir(3) : 
        Dipole                0.2057 Ry au,          0.5228 Debye
        Dipole field          0.0004 Ry au
 
        Potential amp.       -0.0372 Ry
        Total length         46.8051 bohr
 

     total cpu time spent up to now is      863.4 secs

     total energy              =   -1642.87954696 Ry
     Harris-Foulkes estimate   =   -1642.87973864 Ry
     estimated scf accuracy    <       0.00119360 Ry

     iteration #  5     ecut=    36.75 Ry     beta=0.30
     Davidson diagonalization with overlap
     ethr =  7.32E-07,  avg # of iterations =  2.7

     negative rho (up, down):  1.011E-03 0.000E+00
 
     Adding external electric field

     Computed dipole along edir(3) : 
        Dipole                0.2046 Ry au,          0.5200 Debye
        Dipole field          0.0004 Ry au
 
        Potential amp.       -0.0370 Ry
        Total length         46.8051 bohr
 

     total cpu time spent up to now is      882.0 secs

     total energy              =   -1642.87965497 Ry
     Harris-Foulkes estimate   =   -1642.87964807 Ry
     estimated scf accuracy    <       0.00017985 Ry

     iteration #  6     ecut=    36.75 Ry     beta=0.30
     Davidson diagonalization with overlap
     ethr =  1.10E-07,  avg # of iterations =  2.1

     negative rho (up, down):  1.016E-03 0.000E+00
 
     Adding external electric field

     Computed dipole along edir(3) : 
        Dipole                0.2040 Ry au,          0.5186 Debye
        Dipole field          0.0004 Ry au
 
        Potential amp.       -0.0369 Ry
        Total length         46.8051 bohr
 

     total cpu time spent up to now is      900.8 secs

     total energy              =   -1642.87966745 Ry
     Harris-Foulkes estimate   =   -1642.87966758 Ry
     estimated scf accuracy    <       0.00001841 Ry

     iteration #  7     ecut=    36.75 Ry     beta=0.30
     Davidson diagonalization with overlap
     ethr =  1.13E-08,  avg # of iterations =  2.2

     negative rho (up, down):  1.025E-03 0.000E+00

     negative rho (up, down):  1.025E-03 0.000E+00

     negative rho (up, down):  1.025E-03 0.000E+00

     negative rho (up, down):  1.025E-03 0.000E+00

     negative rho (up, down):  1.025E-03 0.000E+00

     negative rho (up, down):  1.025E-03 0.000E+00

     negative rho (up, down):  1.025E-03 0.000E+00

     negative rho (up, down):  1.025E-03 0.000E+00

     negative rho (up, down):  1.025E-03 0.000E+00

     negative rho (up, down):  1.025E-03 0.000E+00

     negative rho (up, down):  1.025E-03 0.000E+00

     negative rho (up, down):  1.025E-03 0.000E+00

     negative rho (up, down):  1.025E-03 0.000E+00

     negative rho (up, down):  1.025E-03 0.000E+00

     negative rho (up, down):  1.025E-03 0.000E+00

     negative rho (up, down):  1.025E-03 0.000E+00

     negative rho (up, down):  1.025E-03 0.000E+00

     negative rho (up, down):  1.025E-03 0.000E+00

     negative rho (up, down):  1.025E-03 0.000E+00

     negative rho (up, down):  1.025E-03 0.000E+00

     negative rho (up, down):  1.025E-03 0.000E+00

     negative rho (up, down):  1.025E-03 0.000E+00

     negative rho (up, down):  1.025E-03 0.000E+00

     negative rho (up, down):  1.025E-03 0.000E+00

     negative rho (up, down):  1.025E-03 0.000E+00

     negative rho (up, down):  1.025E-03 0.000E+00

     negative rho (up, down):  1.025E-03 0.000E+00

     negative rho (up, down):  1.025E-03 0.000E+00

     negative rho (up, down):  1.025E-03 0.000E+00

     negative rho (up, down):  1.025E-03 0.000E+00

     negative rho (up, down):  1.025E-03 0.000E+00

     negative rho (up, down):  1.025E-03 0.000E+00

     negative rho (up, down):  1.025E-03 0.000E+00

     negative rho (up, down):  1.025E-03 0.000E+00

     negative rho (up, down):  1.025E-03 0.000E+00
 
     Adding external electric field

     Computed dipole along edir(3) : 
        Dipole                0.2037 Ry au,          0.5177 Debye
        Dipole field          0.0004 Ry au
 
        Potential amp.       -0.0369 Ry
        Total length         46.8051 bohr
 

     total cpu time spent up to now is      943.3 secs

     End of self-consistent calculation

          k = 0.0000 0.0000 0.0000 ( 24345 PWs)   bands (ev):

   -14.9219 -14.2076 -14.2028 -14.2028 -14.1396 -14.1396 -14.1242 -14.0946
   -14.0919 -14.0919 -14.0489 -14.0489 -14.0323 -14.0323 -14.0274 -14.0197
   -14.0057 -14.0013 -14.0013 -13.9891 -13.9891 -13.9776 -13.9714 -13.9655
   -13.9655 -13.9417 -13.9331 -13.9331 -13.9135 -13.9135 -13.8709 -13.8709
   -13.8382 -13.8382 -13.8380 -13.7967 -13.7967 -13.7749 -13.7749 -13.7669
   -13.7664 -13.7222 -13.7071 -13.7071 -13.6927 -13.6926 -13.6926 -13.6803
   -13.6803 -13.6722 -13.6695 -13.6695 -13.6472 -13.6472 -13.6394 -13.6373
   -13.6373 -13.6068 -13.6068 -13.5950 -13.2539  -8.3045  -7.4092  -6.0850
    -4.3465  -4.3465  -4.2985  -3.3596  -3.2248  -3.2248  -2.9668  -2.6862
    -2.6862  -1.7845  -1.7845  -1.6933  -1.4848  -1.0634  -1.0634  -0.7850
     0.0793   0.0793   0.1943   0.9052   0.9828   0.9828   2.0186   3.3643
     3.6026   3.6445   3.6445

          k = 0.0000 0.0291 0.0000 ( 24403 PWs)   bands (ev):

   -14.9107 -14.2002 -14.1853 -14.1796 -14.1361 -14.1273 -14.1081 -14.0853
   -14.0795 -14.0725 -14.0553 -14.0398 -14.0282 -14.0207 -14.0188 -14.0092
   -13.9971 -13.9929 -13.9890 -13.9869 -13.9822 -13.9736 -13.9695 -13.9572
   -13.9545 -13.9395 -13.9284 -13.9218 -13.9139 -13.8971 -13.8809 -13.8693
   -13.8513 -13.8453 -13.8389 -13.8093 -13.8024 -13.7866 -13.7796 -13.7739
   -13.7712 -13.7340 -13.7136 -13.7133 -13.7063 -13.7002 -13.6996 -13.6914
   -13.6843 -13.6835 -13.6800 -13.6793 -13.6626 -13.6626 -13.6548 -13.6490
   -13.6467 -13.6242 -13.6235 -13.6117 -13.2421  -8.1862  -7.3339  -6.0671
    -4.8871  -4.4879  -4.3592  -3.8615  -3.7623  -3.5555  -2.9965  -2.4124
    -2.1922  -1.8690  -1.7765  -1.3766  -0.9999  -0.7936  -0.5532  -0.4659
    -0.0527   0.0607   0.4860   1.2470   1.4163   1.8586   2.3655   2.7058
     3.2440   3.4093   3.7108

          k = 0.0000 0.0582 0.0000 ( 24465 PWs)   bands (ev):

   -14.8872 -14.1912 -14.1449 -14.1241 -14.1229 -14.0949 -14.0877 -14.0668
   -14.0580 -14.0369 -14.0304 -14.0242 -14.0181 -14.0177 -14.0088 -13.9987
   -13.9923 -13.9833 -13.9752 -13.9591 -13.9541 -13.9495 -13.9434 -13.9433
   -13.9302 -13.9211 -13.9191 -13.8956 -13.8946 -13.8867 -13.8781 -13.8781
   -13.8624 -13.8542 -13.8419 -13.8305 -13.8182 -13.8024 -13.8020 -13.7893
   -13.7780 -13.7638 -13.7552 -13.7390 -13.7338 -13.7331 -13.7260 -13.7211
   -13.7159 -13.7138 -13.7103 -13.7032 -13.6967 -13.6926 -13.6801 -13.6696
   -13.6636 -13.6618 -13.6384 -13.6262 -13.2198  -7.8561  -7.1455  -6.1804
    -5.6682  -4.8274  -4.7191  -4.3147  -3.8410  -3.8089  -3.2633  -2.7947
    -2.2914  -1.8684  -1.0592  -1.0133  -0.4738  -0.2055  -0.0806   0.4774
     0.7220   1.0014   1.4031   1.9559   2.1402   2.2117   2.5597   2.6850
     2.7446   3.3563   3.4709

          k = 0.0000-0.0872 0.0000 ( 24448 PWs)   bands (ev):

   -14.8747 -14.1908 -14.1399 -14.0926 -14.0877 -14.0740 -14.0647 -14.0496
   -14.0435 -14.0360 -14.0340 -14.0297 -14.0273 -14.0038 -13.9932 -13.9801
   -13.9759 -13.9723 -13.9719 -13.9598 -13.9527 -13.9437 -13.9284 -13.9282
   -13.9219 -13.9097 -13.9034 -13.8850 -13.8838 -13.8759 -13.8691 -13.8641
   -13.8582 -13.8446 -13.8406 -13.8244 -13.8179 -13.8126 -13.8027 -13.8023
   -13.7924 -13.7887 -13.7749 -13.7714 -13.7555 -13.7549 -13.7534 -13.7532
   -13.7485 -13.7378 -13.7377 -13.7270 -13.7215 -13.7137 -13.6872 -13.6777
   -13.6653 -13.6650 -13.6393 -13.6277 -13.2092  -7.5649  -6.9930  -6.5961
    -5.8109  -5.0440  -4.8163  -4.3169  -4.1224  -3.9396  -3.3290  -2.4698
    -2.4382  -2.3668  -1.0298  -0.6365   0.2519   0.5028   0.6198   0.6539
     0.8938   1.1526   1.9164   2.0138   2.0621   2.1011   2.7931   2.9997
     3.0647   3.2633   3.4331

          k = 0.0252-0.0145 0.0000 ( 24403 PWs)   bands (ev):

   -14.9107 -14.2002 -14.1853 -14.1796 -14.1361 -14.1273 -14.1081 -14.0853
   -14.0795 -14.0725 -14.0553 -14.0398 -14.0282 -14.0207 -14.0188 -14.0092
   -13.9971 -13.9929 -13.9890 -13.9869 -13.9822 -13.9736 -13.9695 -13.9572
   -13.9545 -13.9395 -13.9284 -13.9218 -13.9139 -13.8971 -13.8809 -13.8693
   -13.8513 -13.8453 -13.8389 -13.8093 -13.8024 -13.7866 -13.7796 -13.7739
   -13.7712 -13.7340 -13.7136 -13.7133 -13.7063 -13.7002 -13.6996 -13.6914
   -13.6843 -13.6835 -13.6800 -13.6793 -13.6626 -13.6626 -13.6548 -13.6490
   -13.6467 -13.6242 -13.6235 -13.6117 -13.2421  -8.1862  -7.3339  -6.0671
    -4.8871  -4.4879  -4.3592  -3.8615  -3.7623  -3.5555  -2.9965  -2.4124
    -2.1922  -1.8690  -1.7765  -1.3766  -0.9999  -0.7936  -0.5532  -0.4659
    -0.0527   0.0607   0.4860   1.2470   1.4163   1.8586   2.3655   2.7058
     3.2440   3.4093   3.7108

          k = 0.0252 0.0145 0.0000 ( 24403 PWs)   bands (ev):

   -14.9107 -14.2002 -14.1853 -14.1796 -14.1361 -14.1273 -14.1081 -14.0853
   -14.0795 -14.0725 -14.0553 -14.0398 -14.0282 -14.0207 -14.0188 -14.0092
   -13.9971 -13.9929 -13.9890 -13.9869 -13.9822 -13.9736 -13.9695 -13.9572
   -13.9545 -13.9395 -13.9284 -13.9218 -13.9139 -13.8971 -13.8809 -13.8693
   -13.8513 -13.8453 -13.8389 -13.8093 -13.8024 -13.7866 -13.7796 -13.7739
   -13.7712 -13.7340 -13.7136 -13.7133 -13.7063 -13.7002 -13.6996 -13.6914
   -13.6843 -13.6835 -13.6800 -13.6793 -13.6626 -13.6626 -13.6548 -13.6490
   -13.6467 -13.6242 -13.6235 -13.6117 -13.2421  -8.1862  -7.3339  -6.0671
    -4.8871  -4.4879  -4.3592  -3.8615  -3.7623  -3.5555  -2.9965  -2.4124
    -2.1922  -1.8690  -1.7765  -1.3766  -0.9999  -0.7936  -0.5532  -0.4659
    -0.0527   0.0607   0.4860   1.2470   1.4163   1.8586   2.3655   2.7058
     3.2440   3.4093   3.7108

          k = 0.0252 0.0436 0.0000 ( 24482 PWs)   bands (ev):

   -14.8932 -14.1823 -14.1701 -14.1346 -14.1282 -14.1060 -14.0857 -14.0744
   -14.0625 -14.0524 -14.0354 -14.0223 -14.0211 -14.0128 -14.0095 -14.0054
   -13.9977 -13.9872 -13.9779 -13.9699 -13.9612 -13.9559 -13.9510 -13.9428
   -13.9341 -13.9310 -13.9209 -13.9134 -13.8997 -13.8897 -13.8776 -13.8713
   -13.8601 -13.8541 -13.8431 -13.8234 -13.8199 -13.8060 -13.7909 -13.7817
   -13.7790 -13.7615 -13.7335 -13.7315 -13.7257 -13.7219 -13.7186 -13.7129
   -13.7102 -13.7020 -13.6946 -13.6881 -13.6808 -13.6794 -13.6744 -13.6696
   -13.6618 -13.6479 -13.6405 -13.6368 -13.2253  -7.9602  -7.1996  -6.0590
    -5.3438  -5.1550  -4.5800  -4.4425  -3.5854  -3.4694  -3.0502  -2.8278
    -2.4274  -1.7916  -1.3099  -1.1234  -0.7457  -0.4404   0.0376   0.0748
     0.6848   0.9046   1.0583   1.3653   2.0646   2.3086   2.3679   2.7044
     2.9879   3.1564   3.4565

          k = 0.0252-0.1018 0.0000 ( 24479 PWs)   bands (ev):

   -14.8747 -14.1788 -14.1387 -14.1100 -14.0934 -14.0753 -14.0585 -14.0521
   -14.0432 -14.0394 -14.0293 -14.0252 -14.0146 -14.0066 -13.9957 -13.9864
   -13.9792 -13.9694 -13.9606 -13.9559 -13.9524 -13.9393 -13.9329 -13.9280
   -13.9243 -13.9114 -13.9019 -13.8975 -13.8903 -13.8808 -13.8715 -13.8631
   -13.8576 -13.8504 -13.8435 -13.8365 -13.8322 -13.8222 -13.8128 -13.8009
   -13.7877 -13.7813 -13.7724 -13.7687 -13.7617 -13.7488 -13.7427 -13.7402
   -13.7360 -13.7236 -13.7221 -13.7155 -13.7109 -13.7011 -13.6878 -13.6825
   -13.6766 -13.6700 -13.6543 -13.6436 -13.2093  -7.6092  -6.9814  -6.3462
    -5.8071  -5.5053  -4.9152  -4.5314  -3.9487  -3.4850  -3.0712  -2.8099
    -2.3626  -1.6861  -1.4451  -1.0659  -0.0946   0.1185   0.7330   0.8760
     1.0735   1.3394   1.7075   1.8548   2.1432   2.3015   2.4485   2.8798
     3.0970   3.2782   3.5159

          k = 0.0252-0.0727 0.0000 ( 24479 PWs)   bands (ev):

   -14.8747 -14.1788 -14.1387 -14.1100 -14.0934 -14.0753 -14.0585 -14.0521
   -14.0432 -14.0394 -14.0293 -14.0252 -14.0146 -14.0066 -13.9957 -13.9864
   -13.9792 -13.9694 -13.9606 -13.9559 -13.9524 -13.9393 -13.9329 -13.9280
   -13.9243 -13.9114 -13.9019 -13.8975 -13.8903 -13.8808 -13.8715 -13.8631
   -13.8576 -13.8504 -13.8435 -13.8365 -13.8322 -13.8222 -13.8128 -13.8009
   -13.7877 -13.7813 -13.7724 -13.7687 -13.7617 -13.7488 -13.7427 -13.7402
   -13.7360 -13.7236 -13.7221 -13.7155 -13.7109 -13.7011 -13.6878 -13.6825
   -13.6766 -13.6700 -13.6543 -13.6436 -13.2093  -7.6092  -6.9814  -6.3462
    -5.8071  -5.5053  -4.9152  -4.5314  -3.9487  -3.4850  -3.0712  -2.8099
    -2.3626  -1.6861  -1.4451  -1.0659  -0.0946   0.1185   0.7330   0.8760
     1.0735   1.3394   1.7075   1.8548   2.1432   2.3015   2.4485   2.8798
     3.0970   3.2782   3.5159

          k = 0.0252-0.0436 0.0000 ( 24482 PWs)   bands (ev):

   -14.8932 -14.1823 -14.1701 -14.1346 -14.1282 -14.1060 -14.0857 -14.0744
   -14.0625 -14.0524 -14.0354 -14.0223 -14.0211 -14.0128 -14.0095 -14.0054
   -13.9977 -13.9872 -13.9779 -13.9699 -13.9612 -13.9559 -13.9510 -13.9428
   -13.9341 -13.9310 -13.9209 -13.9134 -13.8997 -13.8897 -13.8776 -13.8713
   -13.8601 -13.8541 -13.8431 -13.8234 -13.8199 -13.8060 -13.7909 -13.7817
   -13.7790 -13.7615 -13.7336 -13.7315 -13.7257 -13.7219 -13.7186 -13.7129
   -13.7102 -13.7020 -13.6946 -13.6881 -13.6808 -13.6794 -13.6744 -13.6696
   -13.6618 -13.6479 -13.6405 -13.6368 -13.2253  -7.9602  -7.1996  -6.0590
    -5.3438  -5.1550  -4.5800  -4.4425  -3.5854  -3.4694  -3.0502  -2.8278
    -2.4274  -1.7916  -1.3099  -1.1234  -0.7457  -0.4404   0.0376   0.0748
     0.6848   0.9046   1.0583   1.3653   2.0646   2.3086   2.3679   2.7044
     2.9879   3.1564   3.4565

          k = 0.0504-0.0291 0.0000 ( 24465 PWs)   bands (ev):

   -14.8872 -14.1912 -14.1449 -14.1241 -14.1229 -14.0949 -14.0877 -14.0668
   -14.0580 -14.0369 -14.0304 -14.0242 -14.0181 -14.0177 -14.0088 -13.9987
   -13.9923 -13.9833 -13.9752 -13.9591 -13.9541 -13.9495 -13.9434 -13.9433
   -13.9302 -13.9211 -13.9191 -13.8956 -13.8946 -13.8867 -13.8781 -13.8781
   -13.8624 -13.8542 -13.8419 -13.8305 -13.8182 -13.8024 -13.8020 -13.7893
   -13.7780 -13.7638 -13.7552 -13.7390 -13.7338 -13.7331 -13.7260 -13.7211
   -13.7159 -13.7138 -13.7103 -13.7032 -13.6967 -13.6926 -13.6801 -13.6696
   -13.6636 -13.6618 -13.6384 -13.6262 -13.2198  -7.8561  -7.1455  -6.1804
    -5.6682  -4.8274  -4.7191  -4.3147  -3.8410  -3.8089  -3.2633  -2.7947
    -2.2914  -1.8684  -1.0592  -1.0133  -0.4738  -0.2055  -0.0806   0.4774
     0.7220   1.0014   1.4031   1.9559   2.1402   2.2117   2.5597   2.6850
     2.7446   3.3563   3.4709

          k = 0.0504 0.0000 0.0000 ( 24482 PWs)   bands (ev):

   -14.8932 -14.1823 -14.1701 -14.1346 -14.1282 -14.1060 -14.0857 -14.0744
   -14.0625 -14.0524 -14.0354 -14.0223 -14.0211 -14.0128 -14.0095 -14.0054
   -13.9977 -13.9872 -13.9779 -13.9699 -13.9612 -13.9559 -13.9510 -13.9428
   -13.9341 -13.9310 -13.9209 -13.9134 -13.8997 -13.8897 -13.8776 -13.8713
   -13.8601 -13.8541 -13.8431 -13.8234 -13.8199 -13.8060 -13.7909 -13.7817
   -13.7790 -13.7615 -13.7335 -13.7315 -13.7257 -13.7219 -13.7186 -13.7129
   -13.7102 -13.7020 -13.6946 -13.6881 -13.6808 -13.6794 -13.6744 -13.6696
   -13.6618 -13.6479 -13.6405 -13.6368 -13.2253  -7.9602  -7.1996  -6.0590
    -5.3438  -5.1550  -4.5800  -4.4425  -3.5854  -3.4694  -3.0502  -2.8278
    -2.4274  -1.7916  -1.3098  -1.1234  -0.7457  -0.4404   0.0376   0.0748
     0.6848   0.9046   1.0583   1.3653   2.0646   2.3086   2.3679   2.7044
     2.9879   3.1564   3.4565

          k = 0.0504 0.0291 0.0000 ( 24465 PWs)   bands (ev):

   -14.8872 -14.1912 -14.1449 -14.1241 -14.1229 -14.0949 -14.0877 -14.0668
   -14.0580 -14.0369 -14.0304 -14.0242 -14.0181 -14.0177 -14.0088 -13.9987
   -13.9923 -13.9833 -13.9752 -13.9591 -13.9541 -13.9495 -13.9434 -13.9433
   -13.9302 -13.9211 -13.9191 -13.8956 -13.8946 -13.8867 -13.8781 -13.8781
   -13.8624 -13.8542 -13.8419 -13.8305 -13.8182 -13.8024 -13.8020 -13.7893
   -13.7780 -13.7638 -13.7552 -13.7390 -13.7338 -13.7331 -13.7260 -13.7211
   -13.7159 -13.7138 -13.7103 -13.7032 -13.6967 -13.6926 -13.6801 -13.6696
   -13.6636 -13.6618 -13.6384 -13.6262 -13.2198  -7.8561  -7.1455  -6.1804
    -5.6682  -4.8274  -4.7191  -4.3147  -3.8410  -3.8089  -3.2633  -2.7947
    -2.2914  -1.8684  -1.0592  -1.0133  -0.4738  -0.2055  -0.0806   0.4774
     0.7220   1.0014   1.4031   1.9559   2.1402   2.2117   2.5597   2.6850
     2.7446   3.3563   3.4709

          k = 0.0504-0.1163 0.0000 ( 24479 PWs)   bands (ev):

   -14.8747 -14.1788 -14.1387 -14.1100 -14.0934 -14.0753 -14.0585 -14.0521
   -14.0432 -14.0394 -14.0293 -14.0252 -14.0146 -14.0066 -13.9957 -13.9864
   -13.9792 -13.9694 -13.9606 -13.9559 -13.9524 -13.9393 -13.9329 -13.9280
   -13.9243 -13.9114 -13.9019 -13.8975 -13.8903 -13.8808 -13.8715 -13.8631
   -13.8576 -13.8504 -13.8435 -13.8365 -13.8322 -13.8222 -13.8128 -13.8009
   -13.7877 -13.7813 -13.7724 -13.7687 -13.7617 -13.7488 -13.7427 -13.7402
   -13.7360 -13.7236 -13.7221 -13.7155 -13.7109 -13.7011 -13.6878 -13.6825
   -13.6766 -13.6700 -13.6543 -13.6436 -13.2093  -7.6092  -6.9814  -6.3462
    -5.8071  -5.5053  -4.9152  -4.5314  -3.9487  -3.4850  -3.0712  -2.8099
    -2.3626  -1.6861  -1.4451  -1.0659  -0.0946   0.1185   0.7330   0.8760
     1.0735   1.3394   1.7075   1.8548   2.1432   2.3015   2.4485   2.8798
     3.0970   3.2782   3.5159

          k = 0.0504-0.0872 0.0000 ( 24486 PWs)   bands (ev):

   -14.8681 -14.1713 -14.1150 -14.1023 -14.0929 -14.0810 -14.0548 -14.0451
   -14.0412 -14.0303 -14.0278 -14.0101 -14.0092 -13.9911 -13.9887 -13.9747
   -13.9659 -13.9657 -13.9593 -13.9520 -13.9504 -13.9319 -13.9233 -13.9206
   -13.9150 -13.9097 -13.9090 -13.9006 -13.8914 -13.8817 -13.8673 -13.8655
   -13.8546 -13.8539 -13.8524 -13.8451 -13.8322 -13.8233 -13.8228 -13.8125
   -13.8095 -13.7957 -13.7826 -13.7695 -13.7666 -13.7585 -13.7446 -13.7357
   -13.7283 -13.7248 -13.7205 -13.7194 -13.7071 -13.7041 -13.6956 -13.6907
   -13.6879 -13.6786 -13.6776 -13.6683 -13.2043  -7.4792  -6.6056  -6.5459
    -6.1950  -5.4701  -5.3768  -4.4211  -3.8891  -3.8690  -2.7125  -2.3750
    -2.1921  -1.8210  -1.6398  -1.1136   0.2041   0.2378   0.3194   0.8512
     0.9078   1.1735   2.0726   2.1410   2.2881   2.9764   3.2359   3.2534
     3.4170   3.4655   3.5655

          k = 0.0504-0.0582 0.0000 ( 24479 PWs)   bands (ev):

   -14.8747 -14.1788 -14.1387 -14.1100 -14.0934 -14.0753 -14.0585 -14.0521
   -14.0432 -14.0394 -14.0293 -14.0252 -14.0146 -14.0066 -13.9957 -13.9864
   -13.9792 -13.9694 -13.9606 -13.9559 -13.9524 -13.9393 -13.9329 -13.9280
   -13.9243 -13.9114 -13.9019 -13.8975 -13.8903 -13.8808 -13.8715 -13.8631
   -13.8576 -13.8504 -13.8435 -13.8365 -13.8322 -13.8222 -13.8128 -13.8009
   -13.7877 -13.7813 -13.7724 -13.7687 -13.7617 -13.7488 -13.7427 -13.7402
   -13.7360 -13.7236 -13.7221 -13.7155 -13.7109 -13.7011 -13.6878 -13.6825
   -13.6766 -13.6700 -13.6543 -13.6436 -13.2093  -7.6092  -6.9814  -6.3462
    -5.8071  -5.5053  -4.9152  -4.5314  -3.9487  -3.4850  -3.0712  -2.8099
    -2.3626  -1.6861  -1.4451  -1.0659  -0.0946   0.1185   0.7330   0.8760
     1.0735   1.3394   1.7075   1.8548   2.1432   2.3015   2.4485   2.8798
     3.0970   3.2782   3.5159

          k =-0.0756 0.0436 0.0000 ( 24448 PWs)   bands (ev):

   -14.8747 -14.1908 -14.1399 -14.0926 -14.0877 -14.0740 -14.0647 -14.0496
   -14.0435 -14.0360 -14.0340 -14.0297 -14.0273 -14.0038 -13.9932 -13.9801
   -13.9759 -13.9723 -13.9719 -13.9598 -13.9527 -13.9437 -13.9284 -13.9282
   -13.9219 -13.9097 -13.9034 -13.8850 -13.8838 -13.8759 -13.8691 -13.8641
   -13.8582 -13.8446 -13.8406 -13.8244 -13.8179 -13.8126 -13.8027 -13.8023
   -13.7924 -13.7887 -13.7748 -13.7714 -13.7555 -13.7549 -13.7534 -13.7532
   -13.7485 -13.7378 -13.7377 -13.7270 -13.7215 -13.7137 -13.6872 -13.6777
   -13.6653 -13.6650 -13.6393 -13.6277 -13.2092  -7.5649  -6.9930  -6.5961
    -5.8109  -5.0440  -4.8163  -4.3169  -4.1224  -3.9396  -3.3290  -2.4698
    -2.4382  -2.3668  -1.0298  -0.6365   0.2519   0.5028   0.6198   0.6539
     0.8938   1.1526   1.9164   2.0138   2.0621   2.1011   2.7931   2.9997
     3.0647   3.2633   3.4331

          k =-0.0756 0.0727 0.0000 ( 24479 PWs)   bands (ev):

   -14.8747 -14.1788 -14.1387 -14.1100 -14.0934 -14.0753 -14.0585 -14.0521
   -14.0432 -14.0394 -14.0293 -14.0252 -14.0146 -14.0066 -13.9957 -13.9864
   -13.9792 -13.9694 -13.9606 -13.9559 -13.9524 -13.9393 -13.9329 -13.9280
   -13.9243 -13.9114 -13.9019 -13.8975 -13.8903 -13.8808 -13.8715 -13.8631
   -13.8576 -13.8504 -13.8435 -13.8365 -13.8322 -13.8222 -13.8128 -13.8009
   -13.7877 -13.7813 -13.7724 -13.7687 -13.7617 -13.7488 -13.7427 -13.7402
   -13.7360 -13.7236 -13.7221 -13.7155 -13.7109 -13.7011 -13.6878 -13.6825
   -13.6766 -13.6700 -13.6543 -13.6436 -13.2093  -7.6092  -6.9814  -6.3462
    -5.8071  -5.5053  -4.9152  -4.5314  -3.9487  -3.4850  -3.0712  -2.8099
    -2.3626  -1.6861  -1.4451  -1.0658  -0.0946   0.1185   0.7330   0.8760
     1.0735   1.3394   1.7075   1.8548   2.1432   2.3015   2.4485   2.8798
     3.0970   3.2782   3.5159

          k =-0.0756 0.1018 0.0000 ( 24479 PWs)   bands (ev):

   -14.8747 -14.1788 -14.1387 -14.1100 -14.0934 -14.0753 -14.0585 -14.0521
   -14.0432 -14.0394 -14.0293 -14.0252 -14.0146 -14.0066 -13.9957 -13.9864
   -13.9792 -13.9694 -13.9606 -13.9559 -13.9524 -13.9393 -13.9329 -13.9280
   -13.9243 -13.9114 -13.9019 -13.8975 -13.8903 -13.8808 -13.8715 -13.8631
   -13.8576 -13.8504 -13.8435 -13.8365 -13.8322 -13.8222 -13.8128 -13.8009
   -13.7877 -13.7813 -13.7724 -13.7687 -13.7617 -13.7488 -13.7427 -13.7402
   -13.7360 -13.7236 -13.7221 -13.7155 -13.7109 -13.7011 -13.6878 -13.6825
   -13.6766 -13.6700 -13.6543 -13.6436 -13.2093  -7.6092  -6.9814  -6.3462
    -5.8071  -5.5053  -4.9152  -4.5314  -3.9487  -3.4850  -3.0712  -2.8099
    -2.3626  -1.6861  -1.4451  -1.0658  -0.0946   0.1185   0.7330   0.8760
     1.0735   1.3394   1.7075   1.8548   2.1432   2.3015   2.4485   2.8798
     3.0970   3.2782   3.5159

          k =-0.0756-0.0436 0.0000 ( 24448 PWs)   bands (ev):

   -14.8747 -14.1908 -14.1399 -14.0926 -14.0877 -14.0740 -14.0647 -14.0496
   -14.0435 -14.0360 -14.0340 -14.0297 -14.0273 -14.0038 -13.9932 -13.9801
   -13.9759 -13.9723 -13.9719 -13.9598 -13.9527 -13.9437 -13.9284 -13.9282
   -13.9219 -13.9097 -13.9034 -13.8850 -13.8838 -13.8759 -13.8691 -13.8641
   -13.8582 -13.8446 -13.8406 -13.8244 -13.8179 -13.8126 -13.8027 -13.8023
   -13.7924 -13.7887 -13.7748 -13.7714 -13.7555 -13.7549 -13.7534 -13.7532
   -13.7485 -13.7378 -13.7377 -13.7270 -13.7215 -13.7137 -13.6872 -13.6777
   -13.6653 -13.6650 -13.6393 -13.6277 -13.2092  -7.5649  -6.9930  -6.5961
    -5.8109  -5.0440  -4.8163  -4.3169  -4.1224  -3.9396  -3.3290  -2.4698
    -2.4382  -2.3668  -1.0298  -0.6365   0.2519   0.5028   0.6198   0.6539
     0.8938   1.1526   1.9164   2.0138   2.0621   2.1011   2.7931   2.9998
     3.0647   3.2633   3.4331

     the Fermi energy is     1.0441 ev

!    total energy              =   -1642.87966926 Ry
     Harris-Foulkes estimate   =   -1642.87966902 Ry
     estimated scf accuracy    <       0.00000216 Ry

     The total energy is the sum of the following terms:

     one-electron contribution =   -9511.83708371 Ry
     hartree contribution      =    4839.37848709 Ry
     xc contribution           =    -479.31249716 Ry
     ewald contribution        =    3508.92955551 Ry
     electric field correction =       0.00008018 Ry
     smearing contrib. (-TS)   =      -0.03821117 Ry

     convergence has been achieved in   7 iterations
 
 BEEF-vdW xc energy contributions
           1 :   -419.639904353555     
           2 :    383.341398451247     
           3 :   -322.017907216117     
           4 :    252.847368904774     
           5 :   -191.564928415253     
           6 :    146.817647080522     
           7 :   -118.506918810396     
           8 :    100.301609240693     
           9 :   -84.4854163590707     
          10 :    66.3264441139391     
          11 :   -45.8120226768638     
          12 :    26.3383935965437     
          13 :   -11.7165499600462     
          14 :    3.56795611667559     
          15 :  -0.576191547258418     
          16 :  -0.325848610875141     
          17 :    1.92635351845308     
          18 :   -5.26224989195271     
[...]

          k = 0.0252 0.0436 0.0000 ( 24482 PWs)   bands (ev):

   -14.5410 -14.5374 -14.5077 -14.4733 -14.4677 -14.4599 -14.4577 -14.4503
   -14.4427 -14.4307 -14.4302 -14.4293 -14.4167 -14.4076 -14.4009 -14.3982
   -14.3961 -14.3915 -14.3882 -14.3831 -14.3800 -14.3623 -14.3580 -14.3499
   -14.3429 -14.3372 -14.3335 -14.3287 -14.3256 -14.2964 -14.2734 -14.2693
   -14.2604 -14.2420 -14.2396 -14.2327 -14.2273 -14.2228 -14.2162 -14.2086
   -14.2046 -14.1958 -14.1824 -14.1800 -14.1790 -14.1765 -14.1745 -14.1657
   -14.1602 -14.1514 -14.1481 -14.1329 -14.1312 -14.1276 -14.1200 -14.1129
   -14.1104 -14.1065 -14.1028 -14.0990 -12.2826  -7.9887  -6.8189  -5.6275
    -5.4783  -5.3444  -4.7262  -4.2930  -3.7698  -3.2658  -2.9691  -2.7480
    -2.6074  -2.0976  -1.4028  -1.3445  -0.9668  -0.8752  -0.2476  -0.2104
     0.0284   0.2450   0.7516   0.9035   1.4953   1.6959   1.8384   2.3787
     2.4824   2.5661   3.2282

          k = 0.0252-0.1018 0.0000 ( 24479 PWs)   bands (ev):

   -14.5092 -14.4815 -14.4753 -14.4641 -14.4468 -14.4369 -14.4333 -14.4243
   -14.4226 -14.4193 -14.4114 -14.4044 -14.3954 -14.3912 -14.3884 -14.3843
   -14.3783 -14.3701 -14.3647 -14.3506 -14.3435 -14.3383 -14.3295 -14.3236
   -14.3225 -14.3167 -14.3111 -14.3096 -14.3052 -14.2951 -14.2890 -14.2834
   -14.2732 -14.2644 -14.2592 -14.2570 -14.2466 -14.2446 -14.2370 -14.2343
   -14.2294 -14.2242 -14.2176 -14.2128 -14.2054 -14.1999 -14.1942 -14.1913
   -14.1867 -14.1837 -14.1701 -14.1674 -14.1570 -14.1514 -14.1467 -14.1438
   -14.1387 -14.1225 -14.1155 -14.1068 -12.2796  -7.4366  -6.6071  -6.3558
    -5.7895  -5.6144  -4.9890  -4.5223  -4.0436  -3.4621  -3.3250  -2.9003
    -2.3964  -1.7771  -1.4931  -1.1099  -0.4181  -0.3590   0.2160   0.4549
     0.5802   0.9887   1.1850   1.3574   1.8982   1.9892   2.0572   2.3603
     2.8365   2.9595   3.0411

          k = 0.0252-0.0727 0.0000 ( 24479 PWs)   bands (ev):

   -14.5092 -14.4815 -14.4753 -14.4641 -14.4468 -14.4369 -14.4333 -14.4243
   -14.4226 -14.4193 -14.4114 -14.4044 -14.3954 -14.3912 -14.3884 -14.3843
   -14.3783 -14.3701 -14.3647 -14.3506 -14.3435 -14.3383 -14.3295 -14.3236
   -14.3225 -14.3167 -14.3111 -14.3096 -14.3052 -14.2951 -14.2890 -14.2834
   -14.2732 -14.2644 -14.2592 -14.2570 -14.2466 -14.2446 -14.2370 -14.2343
   -14.2294 -14.2242 -14.2176 -14.2128 -14.2054 -14.1999 -14.1942 -14.1913
   -14.1867 -14.1837 -14.1701 -14.1674 -14.1570 -14.1514 -14.1467 -14.1438
   -14.1387 -14.1225 -14.1155 -14.1068 -12.2796  -7.4366  -6.6071  -6.3558
    -5.7895  -5.6144  -4.9890  -4.5223  -4.0436  -3.4621  -3.3250  -2.9003
    -2.3964  -1.7771  -1.4931  -1.1099  -0.4181  -0.3590   0.2160   0.4549
     0.5802   0.9887   1.1850   1.3574   1.8982   1.9892   2.0572   2.3603
     2.8365   2.9595   3.0411

          k = 0.0252-0.0436 0.0000 ( 24482 PWs)   bands (ev):

   -14.5410 -14.5374 -14.5077 -14.4733 -14.4677 -14.4599 -14.4577 -14.4503
   -14.4427 -14.4307 -14.4302 -14.4293 -14.4167 -14.4076 -14.4009 -14.3982
   -14.3961 -14.3915 -14.3882 -14.3831 -14.3800 -14.3623 -14.3580 -14.3499
   -14.3429 -14.3372 -14.3335 -14.3287 -14.3256 -14.2964 -14.2734 -14.2693
   -14.2604 -14.2420 -14.2396 -14.2327 -14.2273 -14.2228 -14.2162 -14.2086
   -14.2046 -14.1958 -14.1824 -14.1800 -14.1790 -14.1765 -14.1745 -14.1657
   -14.1602 -14.1514 -14.1481 -14.1329 -14.1312 -14.1276 -14.1200 -14.1129
   -14.1104 -14.1065 -14.1028 -14.0990 -12.2826  -7.9887  -6.8189  -5.6275
    -5.4783  -5.3444  -4.7262  -4.2930  -3.7698  -3.2658  -2.9691  -2.7480
    -2.6074  -2.0976  -1.4028  -1.3445  -0.9668  -0.8752  -0.2476  -0.2104
     0.0284   0.2450   0.7516   0.9035   1.4953   1.6959   1.8384   2.3787
     2.4824   2.5661   3.2282

          k = 0.0504-0.0291 0.0000 ( 24465 PWs)   bands (ev):

   -14.5438 -14.5021 -14.4985 -14.4783 -14.4710 -14.4530 -14.4527 -14.4488
   -14.4243 -14.4221 -14.4176 -14.4130 -14.4100 -14.4055 -14.4032 -14.3975
   -14.3890 -14.3877 -14.3821 -14.3750 -14.3634 -14.3571 -14.3454 -14.3424
   -14.3380 -14.3286 -14.3270 -14.3208 -14.3180 -14.2848 -14.2844 -14.2680
   -14.2552 -14.2516 -14.2511 -14.2372 -14.2367 -14.2323 -14.2261 -14.2101
   -14.2094 -14.2032 -14.2011 -14.1914 -14.1865 -14.1835 -14.1809 -14.1774
   -14.1697 -14.1672 -14.1531 -14.1489 -14.1448 -14.1411 -14.1386 -14.1285
   -14.1137 -14.1073 -14.0933 -14.0928 -12.2816  -7.8510  -6.6997  -6.1887
    -5.5127  -4.9229  -4.5620  -4.5022  -4.2244  -3.4684  -3.3349  -2.9953
    -2.1360  -1.8826  -1.4129  -1.1240  -0.8187  -0.7132  -0.5916   0.2378
     0.3213   0.6100   0.8971   1.5017   1.5790   1.8834   2.0169   2.2647
     2.3098   2.9355   2.9425

          k = 0.0504 0.0000 0.0000 ( 24482 PWs)   bands (ev):

   -14.5410 -14.5374 -14.5077 -14.4733 -14.4677 -14.4599 -14.4577 -14.4503
   -14.4427 -14.4307 -14.4302 -14.4293 -14.4167 -14.4076 -14.4009 -14.3982
   -14.3961 -14.3915 -14.3882 -14.3831 -14.3800 -14.3623 -14.3580 -14.3499
   -14.3429 -14.3372 -14.3335 -14.3287 -14.3256 -14.2964 -14.2734 -14.2693
   -14.2604 -14.2420 -14.2396 -14.2327 -14.2273 -14.2228 -14.2162 -14.2086
   -14.2046 -14.1958 -14.1824 -14.1800 -14.1790 -14.1765 -14.1745 -14.1657
   -14.1602 -14.1514 -14.1481 -14.1329 -14.1312 -14.1276 -14.1200 -14.1129
   -14.1104 -14.1065 -14.1028 -14.0990 -12.2826  -7.9887  -6.8189  -5.6275
    -5.4783  -5.3444  -4.7262  -4.2930  -3.7698  -3.2658  -2.9691  -2.7480
    -2.6074  -2.0976  -1.4028  -1.3445  -0.9668  -0.8752  -0.2476  -0.2104
     0.0284   0.2450   0.7516   0.9035   1.4953   1.6959   1.8384   2.3787
     2.4824   2.5661   3.2282

          k = 0.0504 0.0291 0.0000 ( 24465 PWs)   bands (ev):

   -14.5438 -14.5021 -14.4985 -14.4783 -14.4710 -14.4530 -14.4527 -14.4488
   -14.4243 -14.4221 -14.4176 -14.4130 -14.4100 -14.4055 -14.4032 -14.3975
   -14.3890 -14.3877 -14.3821 -14.3750 -14.3634 -14.3571 -14.3454 -14.3424
   -14.3380 -14.3286 -14.3270 -14.3208 -14.3180 -14.2848 -14.2844 -14.2680
   -14.2552 -14.2516 -14.2511 -14.2372 -14.2367 -14.2323 -14.2261 -14.2101
   -14.2094 -14.2032 -14.2011 -14.1914 -14.1865 -14.1835 -14.1809 -14.1774
   -14.1697 -14.1672 -14.1531 -14.1489 -14.1448 -14.1411 -14.1386 -14.1285
   -14.1137 -14.1073 -14.0933 -14.0928 -12.2816  -7.8510  -6.6997  -6.1887
    -5.5127  -4.9228  -4.5620  -4.5022  -4.2245  -3.4684  -3.3349  -2.9953
    -2.1360  -1.8826  -1.4129  -1.1240  -0.8187  -0.7132  -0.5916   0.2378
     0.3213   0.6100   0.8971   1.5017   1.5790   1.8834   2.0169   2.2647
     2.3098   2.9355   2.9425

          k = 0.0504-0.1163 0.0000 ( 24479 PWs)   bands (ev):

   -14.5092 -14.4815 -14.4753 -14.4641 -14.4468 -14.4369 -14.4333 -14.4243
   -14.4226 -14.4193 -14.4114 -14.4044 -14.3954 -14.3912 -14.3884 -14.3843
   -14.3783 -14.3701 -14.3647 -14.3506 -14.3435 -14.3383 -14.3295 -14.3236
   -14.3225 -14.3167 -14.3111 -14.3096 -14.3052 -14.2951 -14.2890 -14.2834
   -14.2732 -14.2644 -14.2592 -14.2570 -14.2466 -14.2446 -14.2370 -14.2343
   -14.2294 -14.2242 -14.2176 -14.2128 -14.2054 -14.1999 -14.1942 -14.1913
   -14.1867 -14.1837 -14.1701 -14.1674 -14.1570 -14.1514 -14.1467 -14.1438
   -14.1387 -14.1225 -14.1155 -14.1068 -12.2796  -7.4366  -6.6071  -6.3558
    -5.7895  -5.6144  -4.9890  -4.5223  -4.0436  -3.4621  -3.3250  -2.9003
    -2.3964  -1.7771  -1.4931  -1.1099  -0.4181  -0.3590   0.2160   0.4549
     0.5802   0.9887   1.1850   1.3574   1.8982   1.9892   2.0572   2.3603
     2.8365   2.9595   3.0411

          k = 0.0504-0.0872 0.0000 ( 24486 PWs)   bands (ev):

   -14.4676 -14.4644 -14.4616 -14.4506 -14.4378 -14.4366 -14.4348 -14.4254
   -14.4204 -14.4105 -14.4085 -14.4070 -14.3762 -14.3757 -14.3721 -14.3679
   -14.3639 -14.3603 -14.3482 -14.3473 -14.3464 -14.3326 -14.3297 -14.3187
   -14.3182 -14.3138 -14.3132 -14.3117 -14.3083 -14.2971 -14.2938 -14.2892
   -14.2847 -14.2701 -14.2684 -14.2675 -14.2644 -14.2566 -14.2551 -14.2418
   -14.2403 -14.2294 -14.2202 -14.2111 -14.2100 -14.1967 -14.1927 -14.1893
   -14.1759 -14.1756 -14.1710 -14.1696 -14.1620 -14.1599 -14.1579 -14.1573
   -14.1465 -14.1460 -14.1444 -14.1349 -12.2785  -6.7755  -6.7410  -6.7140
    -6.0443  -5.5204  -5.5086  -4.5591  -3.9090  -3.8200  -3.1812  -2.2490
    -2.2155  -2.0874  -1.5111  -1.0365  -0.1776  -0.0298   0.1312   0.2481
     0.4093   0.4318   1.3796   1.5765   1.6065   2.7096   2.7102   2.8893
     3.1612   3.1801   3.1968

          k = 0.0504-0.0582 0.0000 ( 24479 PWs)   bands (ev):

   -14.5092 -14.4815 -14.4753 -14.4641 -14.4468 -14.4369 -14.4333 -14.4243
   -14.4226 -14.4193 -14.4114 -14.4044 -14.3954 -14.3912 -14.3884 -14.3843
   -14.3783 -14.3701 -14.3647 -14.3506 -14.3435 -14.3383 -14.3295 -14.3236
   -14.3225 -14.3167 -14.3111 -14.3096 -14.3052 -14.2951 -14.2890 -14.2834
   -14.2732 -14.2644 -14.2592 -14.2570 -14.2466 -14.2446 -14.2370 -14.2343
   -14.2294 -14.2242 -14.2176 -14.2128 -14.2054 -14.1999 -14.1942 -14.1913
   -14.1867 -14.1837 -14.1701 -14.1674 -14.1570 -14.1514 -14.1467 -14.1438
   -14.1387 -14.1225 -14.1155 -14.1068 -12.2796  -7.4366  -6.6071  -6.3558
    -5.7895  -5.6144  -4.9890  -4.5223  -4.0436  -3.4621  -3.3250  -2.9003
    -2.3964  -1.7771  -1.4931  -1.1099  -0.4181  -0.3590   0.2160   0.4549
     0.5802   0.9887   1.1850   1.3574   1.8982   1.9892   2.0572   2.3603
     2.8365   2.9595   3.0411

          k =-0.0756 0.0436 0.0000 ( 24448 PWs)   bands (ev):

   -14.5105 -14.5064 -14.4599 -14.4535 -14.4489 -14.4454 -14.4447 -14.4406
   -14.4265 -14.4161 -14.4112 -14.4084 -14.3929 -14.3885 -14.3776 -14.3709
   -14.3692 -14.3652 -14.3567 -14.3482 -14.3382 -14.3346 -14.3307 -14.3248
   -14.3153 -14.3103 -14.3099 -14.3019 -14.2976 -14.2910 -14.2898 -14.2747
   -14.2654 -14.2600 -14.2556 -14.2540 -14.2525 -14.2455 -14.2448 -14.2276
   -14.2271 -14.2209 -14.2196 -14.2186 -14.2178 -14.2096 -14.2062 -14.2042
   -14.2035 -14.2017 -14.1953 -14.1918 -14.1550 -14.1486 -14.1480 -14.1440
   -14.1200 -14.1140 -14.0951 -14.0943 -12.2796  -7.1779  -7.1403  -6.2416
    -5.9229  -5.0207  -4.6389  -4.6027  -4.2617  -3.8440  -3.5835  -3.0812
    -2.1937  -1.8925  -1.5012  -0.9438  -0.1181  -0.0565   0.2719   0.3108
     0.7215   0.7825   1.5687   1.6424   1.6695   1.7625   2.3977   2.5562
     2.7109   2.8972   3.0303

          k =-0.0756 0.0727 0.0000 ( 24479 PWs)   bands (ev):

   -14.5092 -14.4815 -14.4753 -14.4641 -14.4468 -14.4369 -14.4333 -14.4243
   -14.4226 -14.4193 -14.4114 -14.4044 -14.3954 -14.3912 -14.3884 -14.3843
   -14.3783 -14.3701 -14.3647 -14.3506 -14.3435 -14.3383 -14.3295 -14.3236
   -14.3225 -14.3167 -14.3111 -14.3096 -14.3052 -14.2951 -14.2890 -14.2834
   -14.2732 -14.2644 -14.2592 -14.2570 -14.2466 -14.2446 -14.2370 -14.2343
   -14.2294 -14.2242 -14.2176 -14.2128 -14.2054 -14.1999 -14.1942 -14.1913
   -14.1867 -14.1837 -14.1701 -14.1674 -14.1570 -14.1514 -14.1467 -14.1438
   -14.1387 -14.1225 -14.1155 -14.1068 -12.2796  -7.4366  -6.6071  -6.3558
    -5.7895  -5.6144  -4.9890  -4.5223  -4.0436  -3.4621  -3.3250  -2.9003
    -2.3964  -1.7771  -1.4931  -1.1099  -0.4182  -0.3590   0.2160   0.4549
     0.5802   0.9887   1.1850   1.3574   1.8982   1.9892   2.0572   2.3603
     2.8365   2.9595   3.0411

          k =-0.0756 0.1018 0.0000 ( 24479 PWs)   bands (ev):

   -14.5092 -14.4815 -14.4753 -14.4641 -14.4468 -14.4369 -14.4333 -14.4243
   -14.4226 -14.4193 -14.4114 -14.4044 -14.3954 -14.3912 -14.3884 -14.3843
   -14.3783 -14.3701 -14.3647 -14.3506 -14.3435 -14.3383 -14.3295 -14.3236
   -14.3225 -14.3167 -14.3111 -14.3096 -14.3052 -14.2951 -14.2890 -14.2834
   -14.2732 -14.2644 -14.2592 -14.2570 -14.2466 -14.2446 -14.2370 -14.2343
   -14.2294 -14.2242 -14.2176 -14.2128 -14.2054 -14.1999 -14.1942 -14.1913
   -14.1867 -14.1837 -14.1701 -14.1674 -14.1570 -14.1514 -14.1467 -14.1438
   -14.1387 -14.1225 -14.1155 -14.1068 -12.2796  -7.4366  -6.6071  -6.3558
    -5.7895  -5.6144  -4.9890  -4.5223  -4.0436  -3.4621  -3.3250  -2.9003
    -2.3964  -1.7771  -1.4931  -1.1099  -0.4182  -0.3590   0.2160   0.4549
     0.5802   0.9887   1.1850   1.3574   1.8982   1.9892   2.0572   2.3603
     2.8365   2.9595   3.0411

          k =-0.0756-0.0436 0.0000 ( 24448 PWs)   bands (ev):

   -14.5105 -14.5064 -14.4599 -14.4535 -14.4489 -14.4454 -14.4447 -14.4406
   -14.4265 -14.4161 -14.4112 -14.4084 -14.3929 -14.3885 -14.3776 -14.3709
   -14.3692 -14.3652 -14.3567 -14.3482 -14.3382 -14.3346 -14.3307 -14.3248
   -14.3153 -14.3103 -14.3099 -14.3019 -14.2976 -14.2910 -14.2898 -14.2747
   -14.2654 -14.2600 -14.2556 -14.2540 -14.2525 -14.2455 -14.2448 -14.2276
   -14.2271 -14.2209 -14.2196 -14.2186 -14.2178 -14.2096 -14.2062 -14.2042
   -14.2035 -14.2017 -14.1953 -14.1918 -14.1550 -14.1486 -14.1480 -14.1440
   -14.1200 -14.1140 -14.0951 -14.0943 -12.2796  -7.1779  -7.1403  -6.2416
    -5.9228  -5.0207  -4.6389  -4.6027  -4.2617  -3.8441  -3.5835  -3.0812
    -2.1937  -1.8925  -1.5012  -0.9438  -0.1181  -0.0565   0.2719   0.3108
     0.7215   0.7825   1.5687   1.6424   1.6695   1.7625   2.3977   2.5562
     2.7109   2.8972   3.0303

     the Fermi energy is     0.5645 ev

!    total energy              =   -1642.95504393 Ry
     Harris-Foulkes estimate   =   -1642.95504382 Ry
     estimated scf accuracy    <       0.00000003 Ry

     The total energy is the sum of the following terms:

     one-electron contribution =   -8892.53028630 Ry
     hartree contribution      =    4527.96204870 Ry
     xc contribution           =    -478.91609226 Ry
     ewald contribution        =    3200.56730406 Ry
     electric field correction =       0.00009668 Ry
     smearing contrib. (-TS)   =      -0.03811481 Ry

     convergence has been achieved in   8 iterations
 
 BEEF-vdW xc energy contributions
           1 :   -419.213428510167     
           2 :    382.650466166108     
           3 :   -321.034001293578     
           4 :    251.802869687112     
           5 :   -190.789467876679     
           6 :    146.520787045673     
           7 :   -118.647427790764     
           8 :    100.627158786166     
           9 :   -84.7040855840581     
          10 :    66.2875951474425     
          11 :   -45.5754980821820     
          12 :    26.0952318378050     
          13 :   -11.6315630478398     
          14 :    3.66417466655258     
          15 :  -0.739444240940202     
          16 :  -0.239229924076483     
          17 :    1.97176425685774     
          18 :   -5.37097557252463     
          19 :    9.53877364885795     
          20 :   -12.8409822506975     
          21 :    14.1796987573235     
          22 :   -13.6246187419506     
          23 :    12.1450637006792     
          24 :   -10.8248848855744     
          25 :    10.1968695539292     
          26 :   -10.1105212457295     
          27 :    10.0826929664257     
          28 :   -9.75745150828629     
          29 :    9.11545904413788     
          30 :   -8.35131772415872     
          31 :   -38.3006005341110     
          32 :   -27.7141164631693     

     Forces acting on atoms (Ry/au):


     negative rho (up, down):  9.893E-04 0.000E+00
     atom    1 type  1   force =    -0.00000004    0.00000003   -0.01281261
     atom    2 type  1   force =     0.00000006    0.00019120   -0.01211096
     atom    3 type  1   force =     0.00016555   -0.00009558   -0.01211089
     atom    4 type  1   force =    -0.00016558   -0.00009566   -0.01211098
     atom    5 type  1   force =     0.00089628   -0.00051749    0.01336810
     atom    6 type  1   force =    -0.00089630   -0.00051745    0.01336835
     atom    7 type  1   force =     0.00000005   -0.00000000    0.01106376
     atom    8 type  1   force =    -0.00000003    0.00103492    0.01336836
     atom    9 type  1   force =    -0.00078055   -0.00045175    0.00060231
     atom   10 type  1   force =     0.00078031   -0.00045037    0.00060241
     atom   11 type  1   force =     0.00000107    0.00090175    0.00060237
     atom   12 type  1   force =    -0.00000100    0.00000050   -0.00165689
     atom   13 type  2   force =     0.00000021   -0.00000010   -0.00083014
     atom   14 type  3   force =    -0.00000003    0.00000001   -0.00134319

     Total force =     0.002961     Total SCF correction =     0.000278


     entering subroutine stress ...


     negative rho (up, down):  9.893E-04 0.000E+00
          total   stress  (Ry/bohr**3)                   (kbar)     P=    4.23
   0.00002889   0.00000000   0.00000000          4.25      0.00      0.00
   0.00000000   0.00002889  -0.00000000          0.00      4.25     -0.00
   0.00000000  -0.00000000   0.00002850          0.00     -0.00      4.19


     bfgs converged in  25 scf cycles and  24 bfgs steps
     (criteria: energy <  1.0E+00, force <  1.9E-03)

     End of BFGS Geometry Optimization

     Final energy   =   -1642.9550439322 Ry
Begin final coordinates

ATOMIC_POSITIONS (crystal)
In1      0.166666667   0.166666667   0.393650374    0   0   0
In1      0.666666667   0.166666667   0.393650374    0   0   0
In1      0.166666667   0.666666667   0.393650374    0   0   0
In1      0.666666667   0.666666667   0.393650374    0   0   0
In1      0.833333333   0.333333333   0.500000000    0   0   0
In1      0.333333333   0.333333333   0.500000000    0   0   0
In1      0.833333333   0.833333333   0.500000000    0   0   0
In1      0.333333333   0.833333333   0.500000000    0   0   0
In1     -0.001723918  -0.001723216   0.621172767
In1      0.503447500  -0.001724396   0.621172892
In1     -0.001724242   0.503446330   0.621172708
In1      0.500001053   0.499998895   0.611809702
S1       0.166666289   0.166666557   0.709383874
H1       0.166666819   0.166666428   0.762912815
End final coordinates



     Writing output data file calc.save
 
     init_run     :      7.48s CPU      9.95s WALL (       1 calls)
     electrons    :   4642.93s CPU   6162.89s WALL (      25 calls)
     update_pot   :     47.23s CPU     53.61s WALL (      24 calls)
     forces       :    156.94s CPU    166.87s WALL (      25 calls)
     stress       :    495.15s CPU    522.14s WALL (      25 calls)

     Called by init_run:
     wfcinit      :      4.43s CPU      6.29s WALL (       1 calls)
     potinit      :      0.94s CPU      1.22s WALL (       1 calls)

     Called by electrons:
     c_bands      :   3116.68s CPU   4171.28s WALL (     249 calls)
     sum_band     :    669.87s CPU    864.46s WALL (     249 calls)
     v_of_rho     :    159.68s CPU    213.49s WALL (     273 calls)
     newd         :    279.90s CPU    342.04s WALL (     273 calls)
     mix_rho      :      4.81s CPU      6.52s WALL (     249 calls)
     vdW_energy   :    129.57s CPU    168.11s WALL (    1173 calls)
     vdW_ffts     :    204.64s CPU    287.90s WALL (    2396 calls)
     vdW_v        :     84.86s CPU    101.89s WALL (    1173 calls)

     Called by c_bands:
     init_us_2    :     23.46s CPU     27.42s WALL (   10980 calls)
     cegterg      :   2953.77s CPU   4001.30s WALL (    5000 calls)

     Called by *egterg:
     h_psi        :   1877.26s CPU   2758.69s WALL (   24644 calls)
     s_psi        :    131.04s CPU    137.69s WALL (   24644 calls)
     g_psi        :     15.70s CPU     15.92s WALL (   19624 calls)
     cdiaghg      :    454.47s CPU    465.06s WALL (   24124 calls)

     Called by h_psi:
     add_vuspsi   :    130.12s CPU    136.35s WALL (   24644 calls)

     General routines
     calbec       :    201.51s CPU    206.28s WALL (   30624 calls)
     fft          :    327.22s CPU    450.20s WALL (   70621 calls)
     ffts         :      0.46s CPU      0.69s WALL (     522 calls)
     fftw         :   1435.56s CPU   2472.06s WALL ( 2849918 calls)
     interpolate  :      2.88s CPU      5.06s WALL (     522 calls)
     davcio       :      0.02s CPU      0.36s WALL (      20 calls)
 
     Parallel routines
     fft_scatter  :    982.34s CPU   1627.39s WALL ( 2921061 calls)
 
     PWSCF        :     1h29m CPU        1h56m WALL

 
   This run was terminated on:  11: 5: 7  18Apr2018            

=------------------------------------------------------------------------------=
   JOB DONE.
=------------------------------------------------------------------------------=
