  python dir          : /u/if/mamunm/src/espresso
  espresso dir        : /nfs/slac/g/suncatfs/sw/espv18/espresso-dynpy-beef/bin
  pseudo dir          : /u/if/mamunm/psp/gbrv1.5pbe
  ase-espresso py git : GITVERSION



     Program PWSCF v.5.1rc2 (svn rev. 11289) starts on 23Apr2018 at 12:51: 0 

     This program is part of the open-source Quantum ESPRESSO suite
     for quantum simulation of materials; please cite
         "P. Giannozzi et al., J. Phys.:Condens. Matter 21 395502 (2009);
          URL http://www.quantum-espresso.org", 
     in publications or presentations arising from this work. More details at
     http://www.quantum-espresso.org/quote

     Parallel version (MPI), running on    36 processors
     K-points division:     npool     =       3
     R & G space division:  proc/nbgrp/npool/nimage =      12
     Reading input from pw.inp
     Message from routine read_cards :
     DEPRECATED: no units specified in CELL_PARAMETERS card

     Current dimensions of program PWSCF are:
     Max number of different atomic species (ntypx) = 10
     Max number of k-points (npk) =  40000
     Max angular momentum in pseudopotentials (lmaxx) =  3
     Presently stress not available with electric field


     **************************************************************************
     Initializing libbeef V0.1.1 with the BEEF-vdW functional.
     Citation: Wellendorff et al., PRB 85, 235149 (2012).
     **************************************************************************


     IMPORTANT: XC functional enforced from input :
     Exchange-correlation      = BEEF-VDW ( 1  4 27 13 2)
     Any further DFT definition will be discarded
     Please, verify this is what you really want


     Subspace diagonalization in iterative solution of the eigenvalue problem:
     a serial algorithm will be used

 
     Parallelization info
     --------------------
     sticks:   dense  smooth     PW     G-vecs:    dense   smooth      PW
     Min         226      89     26                42660    10745    1708
     Max         227      90     27                42689    10802    1729
     Sum        2713    1069    313               511963   129143   20533
 


     bravais-lattice index     =            0
     lattice parameter (alat)  =       1.8897  a.u.
     unit-cell volume          =    4301.6107 (a.u.)^3
     number of atoms/cell      =           14
     number of atomic types    =            3
     number of electrons       =       187.00
     number of Kohn-Sham states=          103
     kinetic-energy cutoff     =      36.7493  Ry
     charge density cutoff     =     367.4932  Ry
     convergence threshold     =      1.0E-05
     mixing beta               =       0.3000
     number of iterations used =           10  plain     mixing
     Exchange-correlation      = BEEF-VDW ( 1  4 27 13 2)
     nstep                     =           50


     celldm(1)=   1.889726  celldm(2)=   0.000000  celldm(3)=   0.000000
     celldm(4)=   0.000000  celldm(5)=   0.000000  celldm(6)=   0.000000

     crystal axes: (cart. coord. in units of alat)
               a(1) = (   5.483647   0.000000   0.000000 )  
               a(2) = (   2.741823   4.748977   0.000000 )  
               a(3) = (   0.000000   0.000000  24.477379 )  

     reciprocal axes: (cart. coord. in units 2 pi/alat)
               b(1) = (  0.182360 -0.105286  0.000000 )  
               b(2) = (  0.000000  0.210572  0.000000 )  
               b(3) = (  0.000000  0.000000  0.040854 )  


     PseudoPot. # 1 for Tc read from file:
     /u/if/mamunm/psp/gbrv1.5pbe/Tc.UPF
     MD5 check sum: 9eb49e5b028550b2339a02317eb7b844
     Pseudo is Ultrasoft + core correction, Zval = 15.0
     Generated by new atomic code, or converted to UPF format
     Using radial grid of  965 points,  6 beta functions with: 
                l(1) =   0
                l(2) =   0
                l(3) =   1
                l(4) =   1
                l(5) =   2
                l(6) =   2
     Q(r) pseudized with  8 coefficients,  rinner =    1.300   1.300   1.300
                                                       1.300   1.300

     PseudoPot. # 2 for O  read from file:
     /u/if/mamunm/psp/gbrv1.5pbe/O.UPF
     MD5 check sum: 734c27235a0248c51dbae37a1fbe46ec
     Pseudo is Ultrasoft + core correction, Zval =  6.0
     Generated by new atomic code, or converted to UPF format
     Using radial grid of  737 points,  5 beta functions with: 
                l(1) =   0
                l(2) =   0
                l(3) =   1
                l(4) =   1
                l(5) =   2
     Q(r) pseudized with  8 coefficients,  rinner =    0.900   0.900   0.900
                                                       0.900   0.900

     PseudoPot. # 3 for H  read from file:
     /u/if/mamunm/psp/gbrv1.5pbe/H.UPF
     MD5 check sum: 761ae9a214b05c3daf00ab9f6b793d6f
     Pseudo is Ultrasoft, Zval =  1.0
     Generated by new atomic code, or converted to UPF format
     Using radial grid of  615 points,  2 beta functions with: 
                l(1) =   0
                l(2) =   0
     Q(r) pseudized with  8 coefficients,  rinner =    0.700

     vdW kernel table read from file vdW_kernel_table
     MD5 check sum: 095c7af220d748ca6e76c0b4c6cfb241

     atomic species   valence    mass     pseudopotential
        Tc1           15.00    97.90721     Tc( 1.00)
        O1             6.00    15.99900     O ( 1.00)
        H1             1.00     1.00800     H ( 1.00)

     No symmetry found



   Cartesian axes

     site n.     atom                  positions (alat units)
         1           Tc1 tau(   1) = (   1.3709117   0.7914962  10.0000000  )
         2           Tc1 tau(   2) = (   4.1127351   0.7914962  10.0000000  )
         3           Tc1 tau(   3) = (   2.7418234   3.1659850  10.0000000  )
         4           Tc1 tau(   4) = (   5.4836469   3.1659850  10.0000000  )
         5           Tc1 tau(   5) = (   5.4836469   1.5829925  12.2386895  )
         6           Tc1 tau(   6) = (   2.7418234   1.5829925  12.2386895  )
         7           Tc1 tau(   7) = (   6.8545586   3.9574812  12.2386895  )
         8           Tc1 tau(   8) = (   4.1127351   3.9574812  12.2386895  )
         9           Tc1 tau(   9) = (   0.0000000   0.0000000  14.4773789  )
        10           Tc1 tau(  10) = (   2.7418234   0.0000000  14.4773789  )
        11           Tc1 tau(  11) = (   1.3709117   2.3744887  14.4773789  )
        12           Tc1 tau(  12) = (   4.1127351   2.3744887  14.4773789  )
        13           O1  tau(  13) = (   1.3709117   0.7914962  15.8618789  )
        14           H1  tau(  14) = (   1.3709117   0.7914962  16.8118789  )

     number of k points=    20  Fermi-Dirac smearing, width (Ry)=  0.0110
                       cart. coord. in units 2pi/alat
        k(    1) = (   0.0000000   0.0000000   0.0000000), wk =   0.0555556
        k(    2) = (   0.0000000   0.0350953   0.0000000), wk =   0.1111111
        k(    3) = (   0.0000000   0.0701905   0.0000000), wk =   0.1111111
        k(    4) = (   0.0000000  -0.1052858   0.0000000), wk =   0.0555556
        k(    5) = (   0.0303934  -0.0175476   0.0000000), wk =   0.1111111
        k(    6) = (   0.0303934   0.0175476   0.0000000), wk =   0.1111111
        k(    7) = (   0.0303934   0.0526429   0.0000000), wk =   0.1111111
        k(    8) = (   0.0303934  -0.1228335   0.0000000), wk =   0.1111111
        k(    9) = (   0.0303934  -0.0877382   0.0000000), wk =   0.1111111
        k(   10) = (   0.0303934  -0.0526429   0.0000000), wk =   0.1111111
        k(   11) = (   0.0607868  -0.0350953   0.0000000), wk =   0.1111111
        k(   12) = (   0.0607868   0.0000000   0.0000000), wk =   0.1111111
        k(   13) = (   0.0607868   0.0350953   0.0000000), wk =   0.1111111
        k(   14) = (   0.0607868  -0.1403811   0.0000000), wk =   0.1111111
        k(   15) = (   0.0607868  -0.1052858   0.0000000), wk =   0.1111111
        k(   16) = (   0.0607868  -0.0701905   0.0000000), wk =   0.1111111
        k(   17) = (  -0.0911802   0.0526429   0.0000000), wk =   0.0555556
        k(   18) = (  -0.0911802   0.0877382   0.0000000), wk =   0.1111111
        k(   19) = (  -0.0911802   0.1228335   0.0000000), wk =   0.1111111
        k(   20) = (  -0.0911802  -0.0526429   0.0000000), wk =   0.0555556

     Dense  grid:   511963 G-vectors     FFT dimensions: (  64,  64, 288)

     Smooth grid:   129143 G-vectors     FFT dimensions: (  40,  40, 180)

     Largest allocated arrays     est. size (Mb)     dimensions
        Kohn-Sham Wavefunctions         2.20 Mb     (    1398,  103)
        NL pseudopotentials             4.93 Mb     (    1398,  231)
        Each V/rho on FFT grid          1.50 Mb     (   98304)
        Each G-vector array             0.33 Mb     (   42662)
        G-vector shells                 0.11 Mb     (   14814)
     Largest temporary arrays     est. size (Mb)     dimensions
        Auxiliary wavefunctions         8.79 Mb     (    1398,  412)
        Each subspace H/S matrix        2.59 Mb     (     412,  412)
        Each <psi_i|beta_j> matrix      0.36 Mb     (     231,  103)
        Arrays for rho mixing          15.00 Mb     (   98304,   10)

     Check: negative/imaginary core charge=   -0.000022    0.000000

     Initial potential from superposition of free atoms
     Check: negative starting charge=   -1.504998

     starting charge  174.99966, renormalised to  187.00000

     negative rho (up, down):  1.608E+00 0.000E+00


     ************************************************************************
     *
     * You are using vdW-DF for exchange-correlation in this calculation.
     * Please cite the following three references that made this development
     * possible:
     *
     *   M. Dion, H. Rydberg, E. Schroder, D. C. Langreth, and
     *   B. I. Lundqvist, Phys. Rev. Lett. 92, 246401 (2004).
     *
     *   T. Thonhauser, V. R. Cooper, S. Li, A. Puzder, P. Hyldgaard, and
     *   D. C. Langreth, Phys. Rev. B 76, 125112 (2007).
     *
     *   G. Roman-Perez and J. M. Soler, Phys. Rev. Lett. 103, 096102 (2009).
     *
     *
     * If you are using vdW-DF2, please also cite:
     *
     *   K. Lee, E. D. Murray, L. Kong, B. I. Lundqvist, and
     *   D. C. Langreth, Phys. Rev. B 82, 081101(R) (2010).
     *
     *
     * If you are calculating the stress with vdW-DF, please also cite:
     *
     *   R. Sabatini, E. Kucukbenli, B. Kolb, T. Thonhauser, and
     *   S. de Gironcoli, J. Phys.: Condens. Matter 24, 424209 (2012).
     *
     ************************************************************************

     Carrying out vdW-DF run using the following parameters:

     Nqs =      20    Nr_points =    1024   r_max =   100.000
     q_mesh =
               0.00001000     0.04494208     0.09755937     0.15916263
               0.23128650     0.31572767     0.41458969     0.53033537
               0.66584808     0.82450364     1.01025438     1.22772762
               1.48234092     1.78043706     2.12944203     2.53805004
               3.01644009     3.57652955     4.23227104     5.00000000

     Gradients computed in reciprocal space

     ************************************************************************


 
     Adding external electric field

     Computed dipole along edir(3) : 
        Dipole               -3.4096 Ry au,         -8.6663 Debye
        Dipole field         -0.0100 Ry au
 
        Potential amp.        0.8984 Ry
        Total length         45.0992 bohr
 
     Starting wfc are  161 randomized atomic wfcs

     total cpu time spent up to now is        9.6 secs

     per-process dynamical memory:    62.9 Mb

     Self-consistent Calculation

     iteration #  1     ecut=    36.75 Ry     beta=0.30
     Davidson diagonalization with overlap
     ethr =  1.00E-02,  avg # of iterations =  8.8

     negative rho (up, down):  1.601E+00 0.000E+00
 
     Adding external electric field

     Computed dipole along edir(3) : 
        Dipole               75.0307 Ry au,        190.7089 Debye
        Dipole field          0.2192 Ry au
 
        Potential amp.      -19.7704 Ry
        Total length         45.0992 bohr
 

     total cpu time spent up to now is       30.8 secs

     total energy              =   -1859.71275531 Ry
     Harris-Foulkes estimate   =   -2132.08471370 Ry
     estimated scf accuracy    <     573.01557776 Ry

     iteration #  2     ecut=    36.75 Ry     beta=0.30
     Davidson diagonalization with overlap
     ethr =  1.00E-02,  avg # of iterations = 18.6

     negative rho (up, down):  1.566E+00 0.000E+00
 
     Adding external electric field

     Computed dipole along edir(3) : 
        Dipole               12.5613 Ry au,         31.9275 Debye
        Dipole field          0.0367 Ry au
 
        Potential amp.       -3.3099 Ry
        Total length         45.0992 bohr
 

     total cpu time spent up to now is       90.5 secs

     total energy              =   -1733.68654287 Ry
     Harris-Foulkes estimate   =   -3164.37586058 Ry
     estimated scf accuracy    <   22909.06038828 Ry

     iteration #  3     ecut=    36.75 Ry     beta=0.30
     Davidson diagonalization with overlap
     ethr =  1.00E-02,  avg # of iterations = 13.4

     negative rho (up, down):  1.557E+00 0.000E+00
 
     Adding external electric field

     Computed dipole along edir(3) : 
        Dipole               13.9258 Ry au,         35.3958 Debye
        Dipole field          0.0407 Ry au
 
        Potential amp.       -3.6694 Ry
        Total length         45.0992 bohr
 

     total cpu time spent up to now is      134.2 secs

     total energy              =   -2068.11381893 Ry
     Harris-Foulkes estimate   =   -2372.87210679 Ry
     estimated scf accuracy    <    3497.24763927 Ry

     iteration #  4     ecut=    36.75 Ry     beta=0.30
     Davidson diagonalization with overlap
     ethr =  1.00E-02,  avg # of iterations =  7.9

     negative rho (up, down):  1.578E+00 0.000E+00
 
     Adding external electric field

     Computed dipole along edir(3) : 
        Dipole                9.1823 Ry au,         23.3390 Debye
        Dipole field          0.0268 Ry au
 
        Potential amp.       -2.4195 Ry
        Total length         45.0992 bohr
 

     total cpu time spent up to now is      161.5 secs

     total energy              =   -2127.43939995 Ry
     Harris-Foulkes estimate   =   -2163.42289888 Ry
     estimated scf accuracy    <     508.83966198 Ry

     iteration #  5     ecut=    36.75 Ry     beta=0.30
     Davidson diagonalization with overlap
     ethr =  1.00E-02,  avg # of iterations =  6.8

     negative rho (up, down):  1.577E+00 0.000E+00
 
     Adding external electric field

     Computed dipole along edir(3) : 
        Dipole                9.1283 Ry au,         23.2017 Debye
        Dipole field          0.0267 Ry au
 
        Potential amp.       -2.4053 Ry
        Total length         45.0992 bohr
 

     total cpu time spent up to now is      187.2 secs

     total energy              =   -2136.48826708 Ry
     Harris-Foulkes estimate   =   -2147.62835346 Ry
     estimated scf accuracy    <      92.80766895 Ry

     iteration #  6     ecut=    36.75 Ry     beta=0.30
     Davidson diagonalization with overlap
     ethr =  1.00E-02,  avg # of iterations =  4.6

     negative rho (up, down):  1.574E+00 0.000E+00
 
     Adding external electric field

     Computed dipole along edir(3) : 
        Dipole                8.6883 Ry au,         22.0834 Debye
        Dipole field          0.0254 Ry au
 
        Potential amp.       -2.2893 Ry
        Total length         45.0992 bohr
 

     total cpu time spent up to now is      204.0 secs

     total energy              =   -2140.02403771 Ry
     Harris-Foulkes estimate   =   -2141.44214808 Ry
     estimated scf accuracy    <      58.45130377 Ry

     iteration #  7     ecut=    36.75 Ry     beta=0.30
     Davidson diagonalization with overlap
     ethr =  1.00E-02,  avg # of iterations =  1.0

     negative rho (up, down):  1.570E+00 0.000E+00
 
     Adding external electric field

     Computed dipole along edir(3) : 
        Dipole                9.1946 Ry au,         23.3705 Debye
        Dipole field          0.0269 Ry au
 
        Potential amp.       -2.4228 Ry
        Total length         45.0992 bohr
 

     total cpu time spent up to now is      217.3 secs

     total energy              =   -2140.80301518 Ry
     Harris-Foulkes estimate   =   -2140.42791568 Ry
     estimated scf accuracy    <      12.45371401 Ry

     iteration #  8     ecut=    36.75 Ry     beta=0.30
     Davidson diagonalization with overlap
     ethr =  6.66E-03,  avg # of iterations =  1.1

     negative rho (up, down):  1.596E+00 0.000E+00
 
     Adding external electric field

     Computed dipole along edir(3) : 
        Dipole                4.8356 Ry au,         12.2909 Debye
        Dipole field          0.0141 Ry au
 
        Potential amp.       -1.2742 Ry
        Total length         45.0992 bohr
 

     total cpu time spent up to now is      229.8 secs

     total energy              =   -2137.57668300 Ry
     Harris-Foulkes estimate   =   -2141.12892914 Ry
     estimated scf accuracy    <       8.99547039 Ry

     iteration #  9     ecut=    36.75 Ry     beta=0.30
     Davidson diagonalization with overlap
     ethr =  4.81E-03,  avg # of iterations =  2.2

     negative rho (up, down):  1.601E+00 0.000E+00
 
     Adding external electric field

     Computed dipole along edir(3) : 
        Dipole                3.5786 Ry au,          9.0958 Debye
        Dipole field          0.0105 Ry au
 
        Potential amp.       -0.9429 Ry
        Total length         45.0992 bohr
 

     total cpu time spent up to now is      243.6 secs

     total energy              =   -2137.72060343 Ry
     Harris-Foulkes estimate   =   -2138.24201885 Ry
     estimated scf accuracy    <       9.46377903 Ry

     iteration # 10     ecut=    36.75 Ry     beta=0.30
     Davidson diagonalization with overlap
     ethr =  4.81E-03,  avg # of iterations =  1.0

     negative rho (up, down):  1.599E+00 0.000E+00
 
     Adding external electric field

     Computed dipole along edir(3) : 
        Dipole                2.9461 Ry au,          7.4882 Debye
        Dipole field          0.0086 Ry au
 
        Potential amp.       -0.7763 Ry
        Total length         45.0992 bohr
 

     total cpu time spent up to now is      256.0 secs

     total energy              =   -2137.59322600 Ry
     Harris-Foulkes estimate   =   -2137.84529851 Ry
     estimated scf accuracy    <      11.41948016 Ry

     iteration # 11     ecut=    36.75 Ry     beta=0.30
     Davidson diagonalization with overlap
     ethr =  4.81E-03,  avg # of iterations =  1.0

     negative rho (up, down):  1.598E+00 0.000E+00
 
     Adding external electric field

     Computed dipole along edir(3) : 
        Dipole                2.2481 Ry au,          5.7140 Debye
        Dipole field          0.0066 Ry au
 
        Potential amp.       -0.5924 Ry
        Total length         45.0992 bohr
 

     total cpu time spent up to now is      268.4 secs

     total energy              =   -2137.43872517 Ry
     Harris-Foulkes estimate   =   -2137.65005329 Ry
     estimated scf accuracy    <       5.21226915 Ry

     iteration # 12     ecut=    36.75 Ry     beta=0.30
     Davidson diagonalization with overlap
     ethr =  2.79E-03,  avg # of iterations =  1.0

     negative rho (up, down):  1.597E+00 0.000E+00
 
     Adding external electric field

     Computed dipole along edir(3) : 
        Dipole               -1.1638 Ry au,         -2.9581 Debye
        Dipole field         -0.0034 Ry au
 
        Potential amp.        0.3067 Ry
        Total length         45.0992 bohr
 

     total cpu time spent up to now is      280.8 secs

     total energy              =   -2136.91872414 Ry
     Harris-Foulkes estimate   =   -2137.47966332 Ry
     estimated scf accuracy    <       2.50151109 Ry

     iteration # 13     ecut=    36.75 Ry     beta=0.30
     Davidson diagonalization with overlap
     ethr =  1.34E-03,  avg # of iterations =  6.0

     negative rho (up, down):  1.600E+00 0.000E+00
 
     Adding external electric field

     Computed dipole along edir(3) : 
        Dipole               -1.3409 Ry au,         -3.4082 Debye
        Dipole field         -0.0039 Ry au
 
        Potential amp.        0.3533 Ry
        Total length         45.0992 bohr
 

     total cpu time spent up to now is      300.0 secs

     total energy              =   -2137.30858631 Ry
     Harris-Foulkes estimate   =   -2137.28406715 Ry
     estimated scf accuracy    <       1.98878972 Ry

     iteration # 14     ecut=    36.75 Ry     beta=0.30
     Davidson diagonalization with overlap
     ethr =  1.06E-03,  avg # of iterations =  2.2

     negative rho (up, down):  1.600E+00 0.000E+00
 
     Adding external electric field

     Computed dipole along edir(3) : 
        Dipole               -1.5299 Ry au,         -3.8886 Debye
        Dipole field         -0.0045 Ry au
 
        Potential amp.        0.4031 Ry
        Total length         45.0992 bohr
 

     total cpu time spent up to now is      313.5 secs

     total energy              =   -2137.42078104 Ry
     Harris-Foulkes estimate   =   -2137.37825162 Ry
     estimated scf accuracy    <       1.77012697 Ry

     iteration # 15     ecut=    36.75 Ry     beta=0.30
     Davidson diagonalization with overlap
     ethr =  9.47E-04,  avg # of iterations =  1.0

     negative rho (up, down):  1.597E+00 0.000E+00
 
     Adding external electric field

     Computed dipole along edir(3) : 
        Dipole               -0.5204 Ry au,         -1.3227 Debye
        Dipole field         -0.0015 Ry au
 
        Potential amp.        0.1371 Ry
        Total length         45.0992 bohr
 

     total cpu time spent up to now is      326.0 secs

     total energy              =   -2137.14560103 Ry
     Harris-Foulkes estimate   =   -2137.43837676 Ry
     estimated scf accuracy    <       2.70082168 Ry

     iteration # 16     ecut=    36.75 Ry     beta=0.30
     Davidson diagonalization with overlap
     ethr =  9.47E-04,  avg # of iterations =  2.4

     negative rho (up, down):  1.589E+00 0.000E+00
 
     Adding external electric field

     Computed dipole along edir(3) : 
        Dipole                0.2143 Ry au,          0.5447 Debye
        Dipole field          0.0006 Ry au
 
        Potential amp.       -0.0565 Ry
        Total length         45.0992 bohr
 

     total cpu time spent up to now is      339.1 secs

     total energy              =   -2137.09440540 Ry
     Harris-Foulkes estimate   =   -2137.22851870 Ry
     estimated scf accuracy    <       0.57486320 Ry

     iteration # 17     ecut=    36.75 Ry     beta=0.30
     Davidson diagonalization with overlap
     ethr =  3.07E-04,  avg # of iterations =  5.7

     negative rho (up, down):  1.590E+00 0.000E+00
 
     Adding external electric field

     Computed dipole along edir(3) : 
        Dipole               -0.1811 Ry au,         -0.4602 Debye
        Dipole field         -0.0005 Ry au
 
        Potential amp.        0.0477 Ry
        Total length         45.0992 bohr
 

     total cpu time spent up to now is      357.4 secs

     total energy              =   -2137.16794827 Ry
     Harris-Foulkes estimate   =   -2137.21229730 Ry
     estimated scf accuracy    <       1.14888063 Ry

     iteration # 18     ecut=    36.75 Ry     beta=0.30
     Davidson diagonalization with overlap
     ethr =  3.07E-04,  avg # of iterations =  1.6

     negative rho (up, down):  1.605E+00 0.000E+00
 
     Adding external electric field

     Computed dipole along edir(3) : 
        Dipole               -0.3454 Ry au,         -0.8778 Debye
        Dipole field         -0.0010 Ry au
 
        Potential amp.        0.0910 Ry
        Total length         45.0992 bohr
 

     total cpu time spent up to now is      370.4 secs

     total energy              =   -2137.15937770 Ry
     Harris-Foulkes estimate   =   -2137.18375828 Ry
     estimated scf accuracy    <       0.47289991 Ry

     iteration # 19     ecut=    36.75 Ry     beta=0.30
     Davidson diagonalization with overlap
     ethr =  2.53E-04,  avg # of iterations =  4.5

     negative rho (up, down):  1.590E+00 0.000E+00
 
     Adding external electric field

     Computed dipole along edir(3) : 
        Dipole                0.2105 Ry au,          0.5349 Debye
        Dipole field          0.0006 Ry au
 
        Potential amp.       -0.0555 Ry
        Total length         45.0992 bohr
 

     total cpu time spent up to now is      386.2 secs

     total energy              =   -2137.15106333 Ry
     Harris-Foulkes estimate   =   -2137.20882061 Ry
     estimated scf accuracy    <       0.40056570 Ry

     iteration # 20     ecut=    36.75 Ry     beta=0.30
     Davidson diagonalization with overlap
     ethr =  2.14E-04,  avg # of iterations =  2.4

     negative rho (up, down):  1.589E+00 0.000E+00
 
     Adding external electric field

     Computed dipole along edir(3) : 
        Dipole                0.3869 Ry au,          0.9835 Debye
        Dipole field          0.0011 Ry au
 
        Potential amp.       -0.1020 Ry
        Total length         45.0992 bohr
 

     total cpu time spent up to now is      399.6 secs

     total energy              =   -2137.16345514 Ry
     Harris-Foulkes estimate   =   -2137.17023326 Ry
     estimated scf accuracy    <       0.04620664 Ry

     iteration # 21     ecut=    36.75 Ry     beta=0.30
     Davidson diagonalization with overlap
     ethr =  2.47E-05,  avg # of iterations =  5.5

     negative rho (up, down):  1.589E+00 0.000E+00
 
     Adding external electric field

     Computed dipole along edir(3) : 
        Dipole                0.4929 Ry au,          1.2527 Debye
        Dipole field          0.0014 Ry au
 
        Potential amp.       -0.1299 Ry
        Total length         45.0992 bohr
 

     total cpu time spent up to now is      418.3 secs

     total energy              =   -2137.17175622 Ry
     Harris-Foulkes estimate   =   -2137.17320540 Ry
     estimated scf accuracy    <       0.04195783 Ry

     iteration # 22     ecut=    36.75 Ry     beta=0.30
     Davidson diagonalization with overlap
     ethr =  2.24E-05,  avg # of iterations =  1.0

     negative rho (up, down):  1.589E+00 0.000E+00
 
     Adding external electric field

     Computed dipole along edir(3) : 
        Dipole                0.5038 Ry au,          1.2806 Debye
        Dipole field          0.0015 Ry au
 
        Potential amp.       -0.1328 Ry
        Total length         45.0992 bohr
 

     total cpu time spent up to now is      430.7 secs

     total energy              =   -2137.17022800 Ry
     Harris-Foulkes estimate   =   -2137.17209194 Ry
     estimated scf accuracy    <       0.02291176 Ry

     iteration # 23     ecut=    36.75 Ry     beta=0.30
     Davidson diagonalization with overlap
     ethr =  1.23E-05,  avg # of iterations =  3.7

     negative rho (up, down):  1.590E+00 0.000E+00
 
     Adding external electric field

     Computed dipole along edir(3) : 
        Dipole                0.4917 Ry au,          1.2497 Debye
        Dipole field          0.0014 Ry au
 
        Potential amp.       -0.1295 Ry
        Total length         45.0992 bohr
 

     total cpu time spent up to now is      445.0 secs

     total energy              =   -2137.17114324 Ry
     Harris-Foulkes estimate   =   -2137.17134906 Ry
     estimated scf accuracy    <       0.00090932 Ry

     iteration # 24     ecut=    36.75 Ry     beta=0.30
     Davidson diagonalization with overlap
     ethr =  4.86E-07,  avg # of iterations =  5.8

     negative rho (up, down):  1.589E+00 0.000E+00
 
     Adding external electric field

     Computed dipole along edir(3) : 
        Dipole                0.4835 Ry au,          1.2290 Debye
        Dipole field          0.0014 Ry au
 
        Potential amp.       -0.1274 Ry
        Total length         45.0992 bohr
 

     total cpu time spent up to now is      466.0 secs

     total energy              =   -2137.17138363 Ry
     Harris-Foulkes estimate   =   -2137.17157215 Ry
     estimated scf accuracy    <       0.00317039 Ry

     iteration # 25     ecut=    36.75 Ry     beta=0.30
     Davidson diagonalization with overlap
     ethr =  4.86E-07,  avg # of iterations =  1.4

     negative rho (up, down):  1.589E+00 0.000E+00
 
     Adding external electric field

     Computed dipole along edir(3) : 
        Dipole                0.4770 Ry au,          1.2124 Debye
        Dipole field          0.0014 Ry au
 
        Potential amp.       -0.1257 Ry
        Total length         45.0992 bohr
 

     total cpu time spent up to now is      479.0 secs

     total energy              =   -2137.17140575 Ry
     Harris-Foulkes estimate   =   -2137.17144053 Ry
     estimated scf accuracy    <       0.00141886 Ry

     iteration # 26     ecut=    36.75 Ry     beta=0.30
     Davidson diagonalization with overlap
     ethr =  4.86E-07,  avg # of iterations =  1.9

     negative rho (up, down):  1.589E+00 0.000E+00
 
     Adding external electric field

     Computed dipole along edir(3) : 
        Dipole                0.4582 Ry au,          1.1646 Debye
        Dipole field          0.0013 Ry au
 
        Potential amp.       -0.1207 Ry
        Total length         45.0992 bohr
 

     total cpu time spent up to now is      492.2 secs

     total energy              =   -2137.17131034 Ry
     Harris-Foulkes estimate   =   -2137.17147587 Ry
     estimated scf accuracy    <       0.00104825 Ry

     iteration # 27     ecut=    36.75 Ry     beta=0.30
     Davidson diagonalization with overlap
     ethr =  4.86E-07,  avg # of iterations =  4.5

     negative rho (up, down):  1.589E+00 0.000E+00
 
     Adding external electric field

     Computed dipole along edir(3) : 
        Dipole                0.4570 Ry au,          1.1615 Debye
        Dipole field          0.0013 Ry au
 
        Potential amp.       -0.1204 Ry
        Total length         45.0992 bohr
 

     total cpu time spent up to now is      507.5 secs

     total energy              =   -2137.17140129 Ry
     Harris-Foulkes estimate   =   -2137.17141345 Ry
     estimated scf accuracy    <       0.00025410 Ry

     iteration # 28     ecut=    36.75 Ry     beta=0.30
     Davidson diagonalization with overlap
     ethr =  1.36E-07,  avg # of iterations =  2.1

     negative rho (up, down):  1.589E+00 0.000E+00
 
     Adding external electric field

     Computed dipole along edir(3) : 
        Dipole                0.4571 Ry au,          1.1617 Debye
        Dipole field          0.0013 Ry au
 
        Potential amp.       -0.1204 Ry
        Total length         45.0992 bohr
 

     total cpu time spent up to now is      520.8 secs

     total energy              =   -2137.17140072 Ry
     Harris-Foulkes estimate   =   -2137.17140969 Ry
     estimated scf accuracy    <       0.00020125 Ry

     iteration # 29     ecut=    36.75 Ry     beta=0.30
     Davidson diagonalization with overlap
     ethr =  1.08E-07,  avg # of iterations =  1.0

     negative rho (up, down):  1.589E+00 0.000E+00
 
     Adding external electric field

     Computed dipole along edir(3) : 
        Dipole                0.4581 Ry au,          1.1644 Debye
        Dipole field          0.0013 Ry au
 
        Potential amp.       -0.1207 Ry
        Total length         45.0992 bohr
 

     total cpu time spent up to now is      533.4 secs

     total energy              =   -2137.17139728 Ry
     Harris-Foulkes estimate   =   -2137.17140134 Ry
     estimated scf accuracy    <       0.00008763 Ry

     iteration # 30     ecut=    36.75 Ry     beta=0.30
     Davidson diagonalization with overlap
     ethr =  4.69E-08,  avg # of iterations =  4.3

     negative rho (up, down):  1.589E+00 0.000E+00

     negative rho (up, down):  1.589E+00 0.000E+00

     negative rho (up, down):  1.589E+00 0.000E+00

     negative rho (up, down):  1.589E+00 0.000E+00

     negative rho (up, down):  1.589E+00 0.000E+00

     negative rho (up, down):  1.589E+00 0.000E+00

     negative rho (up, down):  1.589E+00 0.000E+00

     negative rho (up, down):  1.589E+00 0.000E+00

     negative rho (up, down):  1.589E+00 0.000E+00

     negative rho (up, down):  1.589E+00 0.000E+00

     negative rho (up, down):  1.589E+00 0.000E+00

     negative rho (up, down):  1.589E+00 0.000E+00

     negative rho (up, down):  1.589E+00 0.000E+00

     negative rho (up, down):  1.589E+00 0.000E+00

     negative rho (up, down):  1.589E+00 0.000E+00

     negative rho (up, down):  1.589E+00 0.000E+00

     negative rho (up, down):  1.589E+00 0.000E+00

     negative rho (up, down):  1.589E+00 0.000E+00

     negative rho (up, down):  1.589E+00 0.000E+00

     negative rho (up, down):  1.589E+00 0.000E+00

     negative rho (up, down):  1.589E+00 0.000E+00

     negative rho (up, down):  1.589E+00 0.000E+00

     negative rho (up, down):  1.589E+00 0.000E+00

     negative rho (up, down):  1.589E+00 0.000E+00

     negative rho (up, down):  1.589E+00 0.000E+00

     negative rho (up, down):  1.589E+00 0.000E+00

     negative rho (up, down):  1.589E+00 0.000E+00

     negative rho (up, down):  1.589E+00 0.000E+00

     negative rho (up, down):  1.589E+00 0.000E+00

     negative rho (up, down):  1.589E+00 0.000E+00

     negative rho (up, down):  1.589E+00 0.000E+00

     negative rho (up, down):  1.589E+00 0.000E+00

     negative rho (up, down):  1.589E+00 0.000E+00

     negative rho (up, down):  1.589E+00 0.000E+00

     negative rho (up, down):  1.589E+00 0.000E+00
 
     Adding external electric field

     Computed dipole along edir(3) : 
        Dipole                0.4471 Ry au,          1.1364 Debye
        Dipole field          0.0013 Ry au
 
        Potential amp.       -0.1178 Ry
        Total length         45.0992 bohr
 

     total cpu time spent up to now is      580.7 secs

     End of self-consistent calculation

          k = 0.0000 0.0000 0.0000 ( 16073 PWs)   bands (ev):

   -64.0973 -64.0088 -63.9481 -63.9477 -63.9150 -63.9148 -63.8602 -63.8094
   -63.6987 -63.6781 -63.6776 -63.6581 -36.6298 -36.5058 -36.5055 -36.5053
   -36.4099 -36.3764 -36.3760 -36.2298 -36.2297 -36.2194 -35.9930 -35.9923
   -35.9668 -35.8313 -35.8311 -35.8250 -35.7977 -35.7753 -35.7752 -35.7428
   -35.6725 -35.6722 -35.6515 -35.6293 -35.6291 -35.5996 -35.5502 -35.5286
   -35.5286 -35.4768 -35.4766 -35.4731 -35.3864 -35.3861 -35.2775 -35.2774
   -18.7265  -7.1430  -3.3138  -3.3138  -3.2358  -2.0372  -1.9249  -1.9248
    -1.9009  -1.8564  -1.5399  -1.4598  -1.4597  -1.3846  -1.3845  -1.1732
    -0.9675  -0.9674  -0.7870   0.2645   0.2646   0.5978   0.9441   0.9441
     0.9799   1.1947   1.3846   1.5192   1.5192   1.8100   1.8100   1.8954
     1.9691   1.9692   2.0557   2.0557   2.4819   2.5337   2.5339   3.0310
     3.4906   3.5342   3.5343   3.8168   3.8170   3.8958   3.8959   3.9961
     4.2397   4.3664   4.3664   5.0114   5.0116   5.0525   5.1938

          k = 0.0000 0.0351 0.0000 ( 16137 PWs)   bands (ev):

   -64.0874 -64.0026 -63.9556 -63.9482 -63.9206 -63.9149 -63.8615 -63.8016
   -63.7021 -63.6828 -63.6778 -63.6592 -36.5916 -36.4741 -36.4732 -36.4531
   -36.3900 -36.3469 -36.3435 -36.2007 -36.2002 -36.1781 -36.0128 -35.9964
   -35.9647 -35.8713 -35.8595 -35.8122 -35.8008 -35.7994 -35.7633 -35.7247
   -35.7003 -35.6969 -35.6537 -35.6330 -35.6217 -35.6019 -35.5740 -35.5547
   -35.5427 -35.5074 -35.5057 -35.4630 -35.4333 -35.3971 -35.3351 -35.2908
   -18.7244  -7.1136  -3.3401  -3.2713  -2.9654  -1.8782  -1.7703  -1.7229
    -1.6740  -1.6107  -1.4037  -1.3464  -1.2954  -1.2488  -1.2359  -1.0118
    -0.8141  -0.7353  -0.6489   0.2528   0.3199   0.5881   1.0216   1.0516
     1.0684   1.1036   1.2496   1.3267   1.6961   1.7250   1.7293   1.8824
     1.9580   1.9594   2.0345   2.2485   2.2822   2.4036   2.4099   2.7139
     3.1389   3.2341   3.4104   3.4925   3.6293   3.7239   3.7796   3.8139
     3.9768   4.3534   4.4768   4.4964   4.6802   4.7859   4.8799

          k = 0.0000 0.0702 0.0000 ( 16149 PWs)   bands (ev):

   -64.0608 -63.9929 -63.9723 -63.9484 -63.9360 -63.9148 -63.8642 -63.7805
   -63.7184 -63.6884 -63.6778 -63.6616 -36.5017 -36.3979 -36.3921 -36.3389
   -36.3164 -36.2802 -36.2796 -36.1636 -36.1261 -36.0918 -36.0235 -36.0028
   -35.9787 -35.9182 -35.9165 -35.8497 -35.8156 -35.7952 -35.7608 -35.7600
   -35.7329 -35.7231 -35.6820 -35.6462 -35.6433 -35.6287 -35.6023 -35.5798
   -35.5740 -35.5697 -35.5569 -35.5386 -35.4700 -35.4320 -35.4175 -35.3269
   -18.7204  -7.0546  -3.3471  -3.1909  -2.3287  -1.5960  -1.3370  -1.2619
    -1.2317  -1.1313  -0.9730  -0.9117  -0.8865  -0.8440  -0.7963  -0.6755
    -0.4556  -0.1762  -0.1233   0.2464   0.4123   0.4794   0.6205   0.8295
     1.1332   1.1668   1.2108   1.3025   1.4572   1.4676   1.6826   1.7828
     1.8776   1.9348   2.0436   2.1772   2.2662   2.2740   2.3274   2.5617
     2.6029   2.6852   2.8500   2.9053   2.9554   3.1287   3.2486   3.2662
     3.5718   3.6845   3.7137   4.0833   4.1973   4.2058   4.2803

          k = 0.0000-0.1053 0.0000 ( 16164 PWs)   bands (ev):

   -64.0327 -64.0129 -63.9579 -63.9564 -63.9485 -63.9148 -63.8654 -63.7588
   -63.7391 -63.6896 -63.6778 -63.6628 -36.4418 -36.3431 -36.3341 -36.2948
   -36.2912 -36.2420 -36.2066 -36.1118 -36.0832 -36.0819 -36.0430 -36.0400
   -35.9680 -35.9566 -35.9294 -35.8264 -35.8246 -35.8062 -35.7844 -35.7786
   -35.7288 -35.7148 -35.6939 -35.6883 -35.6671 -35.6659 -35.6520 -35.6463
   -35.5936 -35.5819 -35.5725 -35.5478 -35.5350 -35.4377 -35.3854 -35.3681
   -18.7184  -7.0251  -3.3504  -3.1529  -1.7246  -1.6324  -1.0401  -1.0380
    -0.9726  -0.9426  -0.7150  -0.6612  -0.5162  -0.3546  -0.2993  -0.2399
    -0.1366  -0.0582   0.0114   0.0328   0.5126   0.5371   0.6878   0.7250
     0.7390   0.8281   1.1440   1.2570   1.5616   1.6219   1.7125   1.7153
     1.7494   1.7887   1.8466   1.9722   1.9943   2.0131   2.0942   2.1944
     2.2438   2.3538   2.4661   2.8105   3.0703   3.0770   3.0904   3.1394
     3.1797   3.5597   3.5695   3.6909   3.7439   3.8112   3.9180

          k = 0.0304-0.0175 0.0000 ( 16137 PWs)   bands (ev):

   -64.0874 -64.0026 -63.9560 -63.9478 -63.9208 -63.9147 -63.8615 -63.8016
   -63.7021 -63.6828 -63.6778 -63.6592 -36.5916 -36.4744 -36.4730 -36.4530
   -36.3899 -36.3472 -36.3433 -36.2007 -36.2003 -36.1781 -36.0133 -35.9959
   -35.9647 -35.8712 -35.8596 -35.8122 -35.8009 -35.7993 -35.7633 -35.7249
   -35.7002 -35.6972 -35.6533 -35.6330 -35.6217 -35.6019 -35.5740 -35.5547
   -35.5426 -35.5074 -35.5057 -35.4630 -35.4331 -35.3973 -35.3351 -35.2908
   -18.7244  -7.1136  -3.3401  -3.2712  -2.9654  -1.8782  -1.7704  -1.7229
    -1.6740  -1.6107  -1.4036  -1.3465  -1.2954  -1.2487  -1.2360  -1.0118
    -0.8140  -0.7354  -0.6489   0.2526   0.3201   0.5881   1.0216   1.0517
     1.0684   1.1035   1.2496   1.3266   1.6961   1.7249   1.7293   1.8824
     1.9579   1.9593   2.0346   2.2486   2.2821   2.4035   2.4101   2.7139
     3.1389   3.2341   3.4104   3.4926   3.6293   3.7239   3.7795   3.8139
     3.9767   4.3534   4.4768   4.4964   4.6801   4.7859   4.8799

          k = 0.0304 0.0175 0.0000 ( 16137 PWs)   bands (ev):

   -64.0874 -64.0026 -63.9559 -63.9479 -63.9207 -63.9148 -63.8615 -63.8016
   -63.7022 -63.6823 -63.6782 -63.6592 -36.5916 -36.4744 -36.4729 -36.4530
   -36.3899 -36.3472 -36.3433 -36.2008 -36.2001 -36.1781 -36.0133 -35.9958
   -35.9647 -35.8712 -35.8596 -35.8122 -35.8008 -35.7994 -35.7634 -35.7248
   -35.7003 -35.6971 -35.6533 -35.6329 -35.6218 -35.6018 -35.5740 -35.5547
   -35.5426 -35.5072 -35.5060 -35.4629 -35.4331 -35.3973 -35.3350 -35.2909
   -18.7244  -7.1136  -3.3401  -3.2712  -2.9654  -1.8781  -1.7705  -1.7228
    -1.6740  -1.6107  -1.4036  -1.3465  -1.2953  -1.2488  -1.2359  -1.0118
    -0.8141  -0.7353  -0.6489   0.2527   0.3200   0.5881   1.0216   1.0517
     1.0685   1.1035   1.2496   1.3267   1.6961   1.7250   1.7293   1.8824
     1.9579   1.9593   2.0346   2.2486   2.2821   2.4035   2.4100   2.7139
     3.1388   3.2341   3.4104   3.4926   3.6294   3.7239   3.7795   3.8138
     3.9768   4.3534   4.4768   4.4964   4.6800   4.7859   4.8798

          k = 0.0304 0.0526 0.0000 ( 16202 PWs)   bands (ev):

   -64.0691 -63.9924 -63.9688 -63.9516 -63.9276 -63.9170 -63.8632 -63.7871
   -63.7098 -63.6933 -63.6747 -63.6610 -36.5259 -36.4300 -36.3847 -36.3776
   -36.3524 -36.2965 -36.2951 -36.1736 -36.1438 -36.1100 -36.0206 -36.0131
   -35.9707 -35.9281 -35.8887 -35.8466 -35.8056 -35.7793 -35.7695 -35.7494
   -35.7128 -35.6974 -35.6858 -35.6616 -35.6324 -35.6207 -35.5970 -35.5882
   -35.5787 -35.5523 -35.5029 -35.4789 -35.4778 -35.4308 -35.4194 -35.3197
   -18.7214  -7.0693  -3.3391  -3.2181  -2.5151  -1.5799  -1.5120  -1.3966
    -1.2778  -1.2014  -1.1849  -1.1118  -1.0131  -0.9568  -0.9298  -0.7296
    -0.5174  -0.4356  -0.2637   0.2520   0.3874   0.5203   0.7208   0.9651
     1.1074   1.1811   1.2249   1.2889   1.4067   1.6486   1.6784   1.7662
     1.8630   2.0394   2.0606   2.1360   2.1755   2.2391   2.4895   2.6810
     2.7048   2.7922   2.8373   3.1878   3.2915   3.3514   3.3829   3.4402
     3.5471   3.6788   3.8663   4.1392   4.3039   4.3923   4.5455

          k = 0.0304-0.1228 0.0000 ( 16203 PWs)   bands (ev):

   -64.0387 -63.9983 -63.9752 -63.9553 -63.9370 -63.9198 -63.8643 -63.7632
   -63.7278 -63.7029 -63.6714 -63.6628 -36.4345 -36.3481 -36.3140 -36.2942
   -36.2724 -36.2438 -36.2293 -36.1676 -36.0991 -36.0611 -36.0429 -36.0160
   -35.9767 -35.9417 -35.9169 -35.8613 -35.8382 -35.8030 -35.7841 -35.7616
   -35.7516 -35.7219 -35.6982 -35.6916 -35.6643 -35.6520 -35.6395 -35.6251
   -35.5970 -35.5746 -35.5540 -35.5219 -35.5141 -35.4553 -35.4292 -35.3702
   -18.7184  -7.0248  -3.3338  -3.1722  -1.8157  -1.3616  -1.0412  -0.9959
    -0.9397  -0.8585  -0.7657  -0.6017  -0.5541  -0.5302  -0.4070  -0.2545
    -0.1639  -0.0743   0.0877   0.1668   0.4301   0.4681   0.5336   0.7602
     0.8400   0.8972   1.0096   1.1462   1.3694   1.4705   1.5203   1.5709
     1.7148   1.7532   1.8022   1.8297   1.9716   2.1106   2.1700   2.3252
     2.3939   2.4870   2.5755   2.6508   2.9326   3.0897   3.1801   3.2023
     3.3763   3.4592   3.5539   3.6113   3.8438   3.9361   4.1488

          k = 0.0304-0.0877 0.0000 ( 16203 PWs)   bands (ev):

   -64.0387 -63.9983 -63.9752 -63.9554 -63.9370 -63.9197 -63.8643 -63.7632
   -63.7277 -63.7030 -63.6713 -63.6628 -36.4345 -36.3481 -36.3140 -36.2942
   -36.2724 -36.2439 -36.2293 -36.1676 -36.0992 -36.0610 -36.0429 -36.0160
   -35.9768 -35.9417 -35.9169 -35.8613 -35.8382 -35.8030 -35.7840 -35.7615
   -35.7516 -35.7219 -35.6982 -35.6916 -35.6644 -35.6520 -35.6395 -35.6251
   -35.5970 -35.5747 -35.5540 -35.5219 -35.5141 -35.4553 -35.4292 -35.3701
   -18.7184  -7.0248  -3.3338  -3.1722  -1.8157  -1.3616  -1.0412  -0.9959
    -0.9397  -0.8584  -0.7658  -0.6017  -0.5541  -0.5302  -0.4071  -0.2545
    -0.1639  -0.0743   0.0877   0.1668   0.4301   0.4682   0.5336   0.7602
     0.8400   0.8972   1.0096   1.1461   1.3694   1.4705   1.5203   1.5709
     1.7148   1.7532   1.8022   1.8296   1.9717   2.1107   2.1699   2.3252
     2.3939   2.4870   2.5754   2.6508   2.9327   3.0897   3.1801   3.2023
     3.3763   3.4592   3.5539   3.6113   3.8438   3.9361   4.1488

          k = 0.0304-0.0526 0.0000 ( 16202 PWs)   bands (ev):

   -64.0691 -63.9924 -63.9689 -63.9516 -63.9277 -63.9169 -63.8633 -63.7871
   -63.7095 -63.6936 -63.6746 -63.6610 -36.5259 -36.4300 -36.3847 -36.3776
   -36.3524 -36.2966 -36.2950 -36.1735 -36.1438 -36.1100 -36.0205 -36.0131
   -35.9707 -35.9282 -35.8888 -35.8466 -35.8056 -35.7793 -35.7695 -35.7494
   -35.7128 -35.6974 -35.6857 -35.6617 -35.6323 -35.6206 -35.5970 -35.5883
   -35.5787 -35.5524 -35.5029 -35.4788 -35.4779 -35.4308 -35.4194 -35.3197
   -18.7214  -7.0693  -3.3391  -3.2181  -2.5151  -1.5799  -1.5120  -1.3966
    -1.2778  -1.2014  -1.1849  -1.1119  -1.0130  -0.9569  -0.9298  -0.7296
    -0.5174  -0.4356  -0.2637   0.2519   0.3874   0.5203   0.7208   0.9651
     1.1074   1.1811   1.2249   1.2888   1.4066   1.6486   1.6784   1.7662
     1.8630   2.0394   2.0606   2.1360   2.1755   2.2390   2.4895   2.6810
     2.7049   2.7922   2.8373   3.1877   3.2916   3.3514   3.3829   3.4402
     3.5471   3.6788   3.8663   4.1392   4.3039   4.3923   4.5455

          k = 0.0608-0.0351 0.0000 ( 16149 PWs)   bands (ev):

   -64.0607 -63.9926 -63.9730 -63.9481 -63.9362 -63.9146 -63.8642 -63.7805
   -63.7184 -63.6884 -63.6778 -63.6616 -36.5013 -36.3982 -36.3919 -36.3388
   -36.3166 -36.2806 -36.2795 -36.1638 -36.1263 -36.0919 -36.0232 -36.0029
   -35.9785 -35.9182 -35.9163 -35.8499 -35.8157 -35.7951 -35.7608 -35.7603
   -35.7330 -35.7230 -35.6819 -35.6460 -35.6433 -35.6286 -35.6023 -35.5797
   -35.5739 -35.5696 -35.5569 -35.5385 -35.4700 -35.4321 -35.4178 -35.3269
   -18.7204  -7.0546  -3.3472  -3.1909  -2.3287  -1.5960  -1.3370  -1.2619
    -1.2318  -1.1312  -0.9730  -0.9116  -0.8865  -0.8441  -0.7963  -0.6756
    -0.4555  -0.1761  -0.1234   0.2462   0.4124   0.4795   0.6205   0.8295
     1.1331   1.1669   1.2109   1.3025   1.4572   1.4676   1.6827   1.7827
     1.8776   1.9347   2.0436   2.1771   2.2662   2.2740   2.3274   2.5617
     2.6030   2.6852   2.8500   2.9053   2.9554   3.1287   3.2486   3.2664
     3.5717   3.6845   3.7136   4.0832   4.1974   4.2058   4.2803

          k = 0.0608 0.0000 0.0000 ( 16202 PWs)   bands (ev):

   -64.0691 -63.9922 -63.9692 -63.9515 -63.9277 -63.9168 -63.8632 -63.7871
   -63.7097 -63.6933 -63.6747 -63.6610 -36.5257 -36.4301 -36.3849 -36.3774
   -36.3523 -36.2964 -36.2953 -36.1736 -36.1440 -36.1100 -36.0209 -36.0127
   -35.9707 -35.9281 -35.8888 -35.8466 -35.8056 -35.7792 -35.7697 -35.7496
   -35.7128 -35.6972 -35.6855 -35.6616 -35.6324 -35.6207 -35.5970 -35.5882
   -35.5787 -35.5523 -35.5029 -35.4789 -35.4778 -35.4308 -35.4196 -35.3197
   -18.7214  -7.0693  -3.3391  -3.2180  -2.5152  -1.5799  -1.5120  -1.3966
    -1.2779  -1.2015  -1.1849  -1.1118  -1.0131  -0.9569  -0.9298  -0.7296
    -0.5174  -0.4356  -0.2637   0.2518   0.3874   0.5203   0.7207   0.9650
     1.1075   1.1811   1.2250   1.2889   1.4067   1.6486   1.6784   1.7661
     1.8630   2.0394   2.0607   2.1359   2.1754   2.2391   2.4895   2.6809
     2.7048   2.7924   2.8373   3.1877   3.2916   3.3514   3.3829   3.4402
     3.5471   3.6786   3.8663   4.1391   4.3039   4.3923   4.5456

          k = 0.0608 0.0351 0.0000 ( 16149 PWs)   bands (ev):

   -64.0607 -63.9926 -63.9729 -63.9481 -63.9361 -63.9147 -63.8641 -63.7804
   -63.7186 -63.6878 -63.6782 -63.6616 -36.5013 -36.3983 -36.3918 -36.3388
   -36.3166 -36.2806 -36.2795 -36.1639 -36.1262 -36.0920 -36.0232 -36.0029
   -35.9785 -35.9181 -35.9163 -35.8499 -35.8158 -35.7951 -35.7608 -35.7604
   -35.7329 -35.7230 -35.6819 -35.6461 -35.6432 -35.6287 -35.6022 -35.5798
   -35.5739 -35.5699 -35.5567 -35.5384 -35.4700 -35.4320 -35.4178 -35.3270
   -18.7204  -7.0546  -3.3472  -3.1909  -2.3287  -1.5959  -1.3370  -1.2618
    -1.2319  -1.1312  -0.9730  -0.9116  -0.8865  -0.8442  -0.7963  -0.6755
    -0.4555  -0.1762  -0.1233   0.2463   0.4124   0.4794   0.6205   0.8295
     1.1331   1.1669   1.2109   1.3025   1.4572   1.4676   1.6827   1.7827
     1.8776   1.9347   2.0436   2.1771   2.2662   2.2740   2.3274   2.5617
     2.6029   2.6852   2.8500   2.9054   2.9554   3.1287   3.2487   3.2663
     3.5718   3.6844   3.7136   4.0832   4.1974   4.2058   4.2804

          k = 0.0608-0.1404 0.0000 ( 16203 PWs)   bands (ev):

   -64.0386 -63.9983 -63.9755 -63.9550 -63.9372 -63.9196 -63.8643 -63.7631
   -63.7280 -63.7027 -63.6714 -63.6628 -36.4342 -36.3481 -36.3141 -36.2941
   -36.2724 -36.2442 -36.2295 -36.1675 -36.0992 -36.0611 -36.0429 -36.0161
   -35.9763 -35.9416 -35.9170 -35.8611 -35.8383 -35.8031 -35.7842 -35.7617
   -35.7515 -35.7218 -35.6983 -35.6917 -35.6642 -35.6518 -35.6394 -35.6251
   -35.5969 -35.5745 -35.5539 -35.5218 -35.5141 -35.4556 -35.4291 -35.3702
   -18.7184  -7.0248  -3.3338  -3.1722  -1.8157  -1.3616  -1.0412  -0.9959
    -0.9399  -0.8584  -0.7658  -0.6017  -0.5542  -0.5302  -0.4071  -0.2544
    -0.1639  -0.0743   0.0876   0.1668   0.4301   0.4682   0.5337   0.7602
     0.8399   0.8972   1.0096   1.1462   1.3694   1.4706   1.5202   1.5709
     1.7148   1.7532   1.8022   1.8297   1.9716   2.1106   2.1700   2.3252
     2.3940   2.4869   2.5754   2.6508   2.9327   3.0897   3.1802   3.2023
     3.3764   3.4592   3.5538   3.6113   3.8438   3.9361   4.1488

          k = 0.0608-0.1053 0.0000 ( 16272 PWs)   bands (ev):

   -64.0186 -63.9998 -63.9926 -63.9522 -63.9317 -63.9296 -63.8636 -63.7496
   -63.7251 -63.7230 -63.6677 -63.6634 -36.3546 -36.3342 -36.2714 -36.2704
   -36.2418 -36.2209 -36.2147 -36.1559 -36.1488 -36.1128 -36.0102 -35.9824
   -35.9571 -35.9298 -35.9177 -35.8702 -35.8662 -35.8370 -35.8252 -35.7685
   -35.7637 -35.7258 -35.7086 -35.6862 -35.6672 -35.6654 -35.6549 -35.6409
   -35.6125 -35.5664 -35.5440 -35.5187 -35.5086 -35.4491 -35.4486 -35.4340
   -18.7173  -7.0097  -3.3160  -3.1767  -1.2378  -1.2163  -1.0908  -0.6687
    -0.6139  -0.5761  -0.5683  -0.5604  -0.3163  -0.2242  -0.2239  -0.2114
    -0.1470  -0.1068  -0.0869   0.3885   0.3942   0.6754   0.7042   0.7043
     0.8204   0.8280   0.8425   0.9539   0.9900   1.0454   1.1076   1.1143
     1.3603   1.4175   1.7586   1.7889   2.0100   2.0337   2.1142   2.2093
     2.2705   2.3030   2.3638   2.6546   2.9215   3.0696   3.1542   3.3513
     3.3916   3.4705   3.5361   3.7093   3.8768   3.8975   4.5114

          k = 0.0608-0.0702 0.0000 ( 16203 PWs)   bands (ev):

   -64.0386 -63.9983 -63.9755 -63.9551 -63.9372 -63.9195 -63.8643 -63.7632
   -63.7277 -63.7030 -63.6713 -63.6628 -36.4342 -36.3481 -36.3141 -36.2941
   -36.2725 -36.2442 -36.2294 -36.1675 -36.0993 -36.0611 -36.0429 -36.0161
   -35.9763 -35.9416 -35.9170 -35.8611 -35.8383 -35.8031 -35.7841 -35.7616
   -35.7515 -35.7218 -35.6982 -35.6916 -35.6644 -35.6518 -35.6394 -35.6251
   -35.5969 -35.5746 -35.5539 -35.5219 -35.5141 -35.4557 -35.4292 -35.3701
   -18.7184  -7.0248  -3.3338  -3.1722  -1.8157  -1.3616  -1.0412  -0.9959
    -0.9398  -0.8584  -0.7658  -0.6017  -0.5542  -0.5302  -0.4071  -0.2544
    -0.1639  -0.0743   0.0876   0.1668   0.4301   0.4682   0.5336   0.7602
     0.8399   0.8973   1.0096   1.1462   1.3694   1.4706   1.5202   1.5709
     1.7148   1.7533   1.8022   1.8297   1.9717   2.1107   2.1700   2.3251
     2.3940   2.4869   2.5754   2.6508   2.9327   3.0897   3.1802   3.2023
     3.3764   3.4592   3.5537   3.6113   3.8438   3.9361   4.1488

          k =-0.0912 0.0526 0.0000 ( 16164 PWs)   bands (ev):

   -64.0324 -64.0132 -63.9578 -63.9571 -63.9481 -63.9145 -63.8654 -63.7589
   -63.7391 -63.6896 -63.6778 -63.6628 -36.4412 -36.3435 -36.3338 -36.2951
   -36.2909 -36.2424 -36.2073 -36.1118 -36.0830 -36.0821 -36.0429 -36.0401
   -35.9675 -35.9564 -35.9295 -35.8264 -35.8245 -35.8066 -35.7842 -35.7784
   -35.7289 -35.7148 -35.6939 -35.6879 -35.6673 -35.6658 -35.6519 -35.6464
   -35.5935 -35.5816 -35.5725 -35.5477 -35.5350 -35.4382 -35.3854 -35.3681
   -18.7184  -7.0251  -3.3504  -3.1528  -1.7247  -1.6322  -1.0402  -1.0380
    -0.9725  -0.9426  -0.7153  -0.6611  -0.5162  -0.3547  -0.2994  -0.2397
    -0.1367  -0.0579   0.0116   0.0326   0.5126   0.5371   0.6877   0.7249
     0.7389   0.8282   1.1441   1.2570   1.5616   1.6220   1.7125   1.7153
     1.7495   1.7886   1.8465   1.9723   1.9942   2.0132   2.0943   2.1945
     2.2439   2.3536   2.4662   2.8102   3.0703   3.0771   3.0904   3.1396
     3.1797   3.5598   3.5694   3.6907   3.7440   3.8111   3.9179

          k =-0.0912 0.0877 0.0000 ( 16203 PWs)   bands (ev):

   -64.0385 -63.9984 -63.9753 -63.9554 -63.9371 -63.9195 -63.8643 -63.7632
   -63.7278 -63.7029 -63.6714 -63.6628 -36.4340 -36.3482 -36.3142 -36.2941
   -36.2723 -36.2441 -36.2296 -36.1678 -36.0991 -36.0612 -36.0428 -36.0162
   -35.9767 -35.9419 -35.9166 -35.8613 -35.8381 -35.8029 -35.7840 -35.7617
   -35.7516 -35.7217 -35.6982 -35.6916 -35.6643 -35.6519 -35.6394 -35.6251
   -35.5969 -35.5745 -35.5539 -35.5219 -35.5141 -35.4557 -35.4292 -35.3702
   -18.7184  -7.0248  -3.3338  -3.1722  -1.8157  -1.3616  -1.0412  -0.9959
    -0.9398  -0.8585  -0.7657  -0.6017  -0.5541  -0.5303  -0.4071  -0.2545
    -0.1639  -0.0743   0.0877   0.1668   0.4301   0.4681   0.5336   0.7602
     0.8399   0.8973   1.0096   1.1462   1.3694   1.4705   1.5203   1.5709
     1.7148   1.7533   1.8023   1.8297   1.9716   2.1106   2.1700   2.3252
     2.3940   2.4869   2.5753   2.6509   2.9326   3.0897   3.1801   3.2024
     3.3765   3.4591   3.5537   3.6113   3.8438   3.9361   4.1490

          k =-0.0912 0.1228 0.0000 ( 16203 PWs)   bands (ev):

   -64.0385 -63.9984 -63.9753 -63.9554 -63.9371 -63.9195 -63.8643 -63.7631
   -63.7280 -63.7027 -63.6714 -63.6628 -36.4340 -36.3482 -36.3142 -36.2941
   -36.2723 -36.2441 -36.2296 -36.1677 -36.0991 -36.0612 -36.0429 -36.0161
   -35.9767 -35.9418 -35.9165 -35.8614 -35.8381 -35.8029 -35.7841 -35.7617
   -35.7515 -35.7217 -35.6983 -35.6917 -35.6642 -35.6519 -35.6394 -35.6251
   -35.5969 -35.5746 -35.5539 -35.5219 -35.5141 -35.4557 -35.4291 -35.3702
   -18.7184  -7.0248  -3.3338  -3.1722  -1.8157  -1.3616  -1.0412  -0.9959
    -0.9399  -0.8584  -0.7657  -0.6017  -0.5541  -0.5303  -0.4071  -0.2545
    -0.1639  -0.0743   0.0877   0.1668   0.4301   0.4681   0.5336   0.7602
     0.8399   0.8972   1.0097   1.1461   1.3694   1.4705   1.5203   1.5709
     1.7149   1.7533   1.8023   1.8297   1.9717   2.1106   2.1700   2.3252
     2.3939   2.4869   2.5753   2.6509   2.9326   3.0898   3.1800   3.2023
     3.3764   3.4591   3.5538   3.6113   3.8438   3.9361   4.1490

          k =-0.0912-0.0526 0.0000 ( 16164 PWs)   bands (ev):

   -64.0324 -64.0132 -63.9577 -63.9570 -63.9482 -63.9146 -63.8654 -63.7586
   -63.7395 -63.6890 -63.6782 -63.6628 -36.4412 -36.3436 -36.3336 -36.2952
   -36.2908 -36.2424 -36.2073 -36.1118 -36.0831 -36.0821 -36.0430 -36.0399
   -35.9674 -35.9564 -35.9295 -35.8265 -35.8245 -35.8065 -35.7842 -35.7785
   -35.7289 -35.7148 -35.6940 -35.6879 -35.6674 -35.6657 -35.6521 -35.6461
   -35.5937 -35.5816 -35.5723 -35.5476 -35.5351 -35.4381 -35.3850 -35.3685
   -18.7184  -7.0251  -3.3504  -3.1528  -1.7247  -1.6322  -1.0402  -1.0381
    -0.9724  -0.9426  -0.7152  -0.6612  -0.5161  -0.3547  -0.2994  -0.2397
    -0.1366  -0.0580   0.0115   0.0327   0.5126   0.5371   0.6877   0.7249
     0.7390   0.8281   1.1441   1.2570   1.5617   1.6219   1.7124   1.7153
     1.7495   1.7887   1.8465   1.9722   1.9943   2.0132   2.0943   2.1945
     2.2440   2.3535   2.4662   2.8102   3.0704   3.0772   3.0903   3.1395
     3.1797   3.5598   3.5695   3.6908   3.7440   3.8111   3.9179

     the Fermi energy is     3.2171 ev

!    total energy              =   -2137.17140049 Ry
     Harris-Foulkes estimate   =   -2137.17143145 Ry
     estimated scf accuracy    <       0.00000252 Ry

     The total energy is the sum of the following terms:

     one-electron contribution =  -19307.44503549 Ry
     hartree contribution      =    9659.60637907 Ry
     xc contribution           =    -405.46412933 Ry
     ewald contribution        =    7916.22031728 Ry
     electric field correction =       0.00058395 Ry
     smearing contrib. (-TS)   =      -0.08951596 Ry

     convergence has been achieved in  30 iterations
 
 BEEF-vdW xc energy contributions
           1 :   -355.108110340654     
           2 :    326.256432577336     
           3 :   -275.032192731811     
           4 :    211.816928322517     
           5 :   -147.616083497594     
           6 :    91.0322993400222     
           7 :   -46.6107842672315     
           8 :    14.7395390289020     
           9 :    7.05024548306773     
          10 :   -22.1825419139093     
          11 :    33.3113034227726     
          12 :   -41.4446865682526     
          13 :    46.0405381944752     
          14 :   -45.8591160299840     
          15 :    40.0363786092792     
          16 :   -28.8974405668142     
          17 :    14.1726234364954     
          18 :    1.40468806916897     
          19 :   -14.9226547131303     
          20 :    24.1526320557394     
          21 :   -28.1131963970030     
          22 :    27.1331676459938     
          23 :   -22.4654393238986     
          24 :    15.6682007617018     
          25 :   -8.05853165986514     
          26 :   0.446598707277815     
          27 :    6.79134778993819     
          28 :   -13.4284872492661     
          29 :    19.0968042485920     
          30 :   -23.1743068894498     
          31 :   -33.8891528011022     
          32 :   -24.8256424696847     

     Forces acting on atoms (Ry/au):


     negative rho (up, down):  1.589E+00 0.000E+00
     atom    1 type  1   force =    -0.00000646   -0.00003134    0.03186191
     atom    2 type  1   force =     0.00000343   -0.00523926    0.03060800
     atom    3 type  1   force =    -0.00450915    0.00260995    0.03061039
     atom    4 type  1   force =     0.00450598    0.00261593    0.03062833
     atom    5 type  1   force =    -0.00416485    0.00229328    0.00228108
     atom    6 type  1   force =     0.00416985    0.00236401    0.00222386
     atom    7 type  1   force =     0.00006361    0.00005047   -0.06188399
     atom    8 type  1   force =    -0.00006286   -0.00475226    0.00233585
     atom    9 type  1   force =    -0.02791073   -0.01613925   -0.02645080
     atom   10 type  1   force =     0.02792230   -0.01617171   -0.02637986
     atom   11 type  1   force =    -0.00001427    0.03228951   -0.02637517
     atom   12 type  1   force =     0.00000706    0.00002437   -0.04564252
     atom   13 type  2   force =    -0.00000429    0.00009162    0.00460794
     atom   14 type  3   force =     0.00000038   -0.00000530    0.05157500

     Total force =     0.099895     Total SCF correction =     0.001832


     entering subroutine stress ...


     negative rho (up, down):  1.589E+00 0.000E+00
          total   stress  (Ry/bohr**3)                   (kbar)     P=  -26.91
  -0.00020113   0.00000002   0.00000001        -29.59      0.00      0.00
   0.00000002  -0.00020108  -0.00000004          0.00    -29.58     -0.01
   0.00000001  -0.00000004  -0.00014649          0.00     -0.01    -21.55


     BFGS Geometry Optimization

     number of scf cycles    =   1
     number of bfgs steps    =   0

     energy   new            =   -2137.1714004900 Ry

     new trust radius        =       0.0515749964 bohr
     new conv_thr            =       0.0000099958 Ry


ATOMIC_POSITIONS (crystal)
Tc1      0.166666667   0.166666667   0.408540475    0   0   0
Tc1      0.666666667   0.166666667   0.408540475    0   0   0
Tc1      0.166666667   0.666666667   0.408540475    0   0   0
Tc1      0.666666667   0.666666667   0.408540475    0   0   0
Tc1      0.833333333   0.333333333   0.500000000    0   0   0
Tc1      0.333333333   0.333333333   0.500000000    0   0   0
Tc1      0.833333333   0.833333333   0.500000000    0   0   0
Tc1      0.333333333   0.833333333   0.500000000    0   0   0
Tc1     -0.001794217  -0.001798392   0.590887684
Tc1      0.503595533  -0.001802009   0.590889218
Tc1     -0.001800382   0.503598011   0.590889320
Tc1      0.499999323   0.500002716   0.590472778
O1       0.166661149   0.166676875   0.648121573
H1       0.166666999   0.166666076   0.687948301



     Writing output data file calc.save
     Check: negative starting charge=   -1.504998
     NEW-OLD atomic charge density approx. for the potential

     Check: negative/imaginary core charge=   -0.000022    0.000000
     Check: negative starting charge=   -1.507435

     negative rho (up, down):  1.591E+00 0.000E+00
 
     Adding external electric field

     Computed dipole along edir(3) : 
        Dipole                0.3222 Ry au,          0.8191 Debye
        Dipole field          0.0009 Ry au
 
        Potential amp.       -0.0849 Ry
        Total length         45.0992 bohr
 

     total cpu time spent up to now is      629.5 secs

     per-process dynamical memory:   125.3 Mb

     Self-consistent Calculation

     iteration #  1     ecut=    36.75 Ry     beta=0.30
     Davidson diagonalization with overlap
     c_bands:  1 eigenvalues not converged
     ethr =  1.00E-06,  avg # of iterations = 15.1

     negative rho (up, down):  1.591E+00 0.000E+00
 
     Adding external electric field

     Computed dipole along edir(3) : 
        Dipole                2.5906 Ry au,          6.5846 Debye
        Dipole field          0.0076 Ry au
 
        Potential amp.       -0.6826 Ry
        Total length         45.0992 bohr
 

     total cpu time spent up to now is      665.6 secs

     total energy              =   -2136.82595738 Ry
     Harris-Foulkes estimate   =   -2137.17079835 Ry
     estimated scf accuracy    <       0.72092505 Ry

     iteration #  2     ecut=    36.75 Ry     beta=0.30
     Davidson diagonalization with overlap
     ethr =  3.86E-04,  avg # of iterations = 12.5

     negative rho (up, down):  1.591E+00 0.000E+00
 
     Adding external electric field

     Computed dipole along edir(3) : 
        Dipole                0.0763 Ry au,          0.1940 Debye
        Dipole field          0.0002 Ry au
 
        Potential amp.       -0.0201 Ry
        Total length         45.0992 bohr
 

     total cpu time spent up to now is      695.1 secs

     total energy              =   -2132.19276292 Ry
     Harris-Foulkes estimate   =   -2142.36298834 Ry
     estimated scf accuracy    <     471.47614550 Ry

     iteration #  3     ecut=    36.75 Ry     beta=0.30
     Davidson diagonalization with overlap
     ethr =  3.86E-04,  avg # of iterations =  7.0

     negative rho (up, down):  1.591E+00 0.000E+00
 
     Adding external electric field

     Computed dipole along edir(3) : 
        Dipole                0.1583 Ry au,          0.4023 Debye
        Dipole field          0.0005 Ry au
 
        Potential amp.       -0.0417 Ry
        Total length         45.0992 bohr
 

     total cpu time spent up to now is      719.6 secs

     total energy              =   -2137.14249239 Ry
     Harris-Foulkes estimate   =   -2137.21378556 Ry
     estimated scf accuracy    <       0.76986798 Ry

     iteration #  4     ecut=    36.75 Ry     beta=0.30
     Davidson diagonalization with overlap
     ethr =  3.86E-04,  avg # of iterations =  2.8

     negative rho (up, down):  1.591E+00 0.000E+00
 
     Adding external electric field

     Computed dipole along edir(3) : 
        Dipole                0.2431 Ry au,          0.6180 Debye
        Dipole field          0.0007 Ry au
 
        Potential amp.       -0.0641 Ry
        Total length         45.0992 bohr
 

     total cpu time spent up to now is      733.4 secs

     total energy              =   -2137.16923975 Ry
     Harris-Foulkes estimate   =   -2137.17448773 Ry
     estimated scf accuracy    <       0.12958540 Ry

     iteration #  5     ecut=    36.75 Ry     beta=0.30
     Davidson diagonalization with overlap
     ethr =  6.93E-05,  avg # of iterations =  5.0

     negative rho (up, down):  1.591E+00 0.000E+00
 
     Adding external electric field

     Computed dipole along edir(3) : 
        Dipole                0.2640 Ry au,          0.6711 Debye
        Dipole field          0.0008 Ry au
 
        Potential amp.       -0.0696 Ry
        Total length         45.0992 bohr
 

     total cpu time spent up to now is      749.7 secs

     total energy              =   -2137.17850085 Ry
     Harris-Foulkes estimate   =   -2137.17920819 Ry
     estimated scf accuracy    <       0.00705626 Ry

     iteration #  6     ecut=    36.75 Ry     beta=0.30
     Davidson diagonalization with overlap
     ethr =  3.77E-06,  avg # of iterations =  6.1

     negative rho (up, down):  1.591E+00 0.000E+00
 
     Adding external electric field

     Computed dipole along edir(3) : 
        Dipole                0.2739 Ry au,          0.6963 Debye
        Dipole field          0.0008 Ry au
 
        Potential amp.       -0.0722 Ry
        Total length         45.0992 bohr
 

     total cpu time spent up to now is      767.8 secs

     total energy              =   -2137.17901444 Ry
     Harris-Foulkes estimate   =   -2137.17949621 Ry
     estimated scf accuracy    <       0.00484783 Ry

     iteration #  7     ecut=    36.75 Ry     beta=0.30
     Davidson diagonalization with overlap
     ethr =  2.59E-06,  avg # of iterations =  1.1

     negative rho (up, down):  1.591E+00 0.000E+00
 
     Adding external electric field

     Computed dipole along edir(3) : 
        Dipole                0.2949 Ry au,          0.7495 Debye
        Dipole field          0.0009 Ry au
 
        Potential amp.       -0.0777 Ry
        Total length         45.0992 bohr
 

     total cpu time spent up to now is      780.5 secs

     total energy              =   -2137.17908908 Ry
     Harris-Foulkes estimate   =   -2137.17917027 Ry
     estimated scf accuracy    <       0.00153118 Ry

     iteration #  8     ecut=    36.75 Ry     beta=0.30
     Davidson diagonalization with overlap
     ethr =  8.19E-07,  avg # of iterations =  4.3

     negative rho (up, down):  1.591E+00 0.000E+00
 
     Adding external electric field

     Computed dipole along edir(3) : 
        Dipole                0.3325 Ry au,          0.8451 Debye
        Dipole field          0.0010 Ry au
 
        Potential amp.       -0.0876 Ry
        Total length         45.0992 bohr
 

     total cpu time spent up to now is      795.7 secs

     total energy              =   -2137.17907039 Ry
     Harris-Foulkes estimate   =   -2137.17913894 Ry
     estimated scf accuracy    <       0.00166248 Ry

     iteration #  9     ecut=    36.75 Ry     beta=0.30
     Davidson diagonalization with overlap
     ethr =  8.19E-07,  avg # of iterations =  1.9

     negative rho (up, down):  1.591E+00 0.000E+00
 
     Adding external electric field

     Computed dipole along edir(3) : 
        Dipole                0.3626 Ry au,          0.9218 Debye
        Dipole field          0.0011 Ry au
 
        Potential amp.       -0.0956 Ry
        Total length         45.0992 bohr
 

     total cpu time spent up to now is      809.3 secs

     total energy              =   -2137.17896724 Ry
     Harris-Foulkes estimate   =   -2137.17904626 Ry
     estimated scf accuracy    <       0.00137160 Ry

     iteration # 10     ecut=    36.75 Ry     beta=0.30
     Davidson diagonalization with overlap
     ethr =  7.33E-07,  avg # of iterations =  1.2

     negative rho (up, down):  1.591E+00 0.000E+00
 
     Adding external electric field

     Computed dipole along edir(3) : 
        Dipole                0.3779 Ry au,          0.9606 Debye
        Dipole field          0.0011 Ry au
 
        Potential amp.       -0.0996 Ry
        Total length         45.0992 bohr
 

     total cpu time spent up to now is      821.9 secs

     total energy              =   -2137.17894795 Ry
     Harris-Foulkes estimate   =   -2137.17896505 Ry
     estimated scf accuracy    <       0.00057045 Ry

     iteration # 11     ecut=    36.75 Ry     beta=0.30
     Davidson diagonalization with overlap
     ethr =  3.05E-07,  avg # of iterations =  3.5

     negative rho (up, down):  1.591E+00 0.000E+00
 
     Adding external electric field

     Computed dipole along edir(3) : 
        Dipole                0.4093 Ry au,          1.0404 Debye
        Dipole field          0.0012 Ry au
 
        Potential amp.       -0.1079 Ry
        Total length         45.0992 bohr
 

     total cpu time spent up to now is      836.1 secs

     total energy              =   -2137.17890448 Ry
     Harris-Foulkes estimate   =   -2137.17888987 Ry
     estimated scf accuracy    <       0.00027083 Ry

     iteration # 12     ecut=    36.75 Ry     beta=0.30
     Davidson diagonalization with overlap
     ethr =  1.45E-07,  avg # of iterations =  5.3

     negative rho (up, down):  1.591E+00 0.000E+00
 
     Adding external electric field

     Computed dipole along edir(3) : 
        Dipole                0.4419 Ry au,          1.1232 Debye
        Dipole field          0.0013 Ry au
 
        Potential amp.       -0.1164 Ry
        Total length         45.0992 bohr
 

     total cpu time spent up to now is      852.6 secs

     total energy              =   -2137.17889598 Ry
     Harris-Foulkes estimate   =   -2137.17884399 Ry
     estimated scf accuracy    <       0.00010713 Ry

     iteration # 13     ecut=    36.75 Ry     beta=0.30
     Davidson diagonalization with overlap
     ethr =  5.73E-08,  avg # of iterations =  3.2

     negative rho (up, down):  1.591E+00 0.000E+00
 
     Adding external electric field

     Computed dipole along edir(3) : 
        Dipole                0.4536 Ry au,          1.1529 Debye
        Dipole field          0.0013 Ry au
 
        Potential amp.       -0.1195 Ry
        Total length         45.0992 bohr
 

     total cpu time spent up to now is      866.8 secs

     total energy              =   -2137.17889498 Ry
     Harris-Foulkes estimate   =   -2137.17887212 Ry
     estimated scf accuracy    <       0.00005638 Ry

     iteration # 14     ecut=    36.75 Ry     beta=0.30
     Davidson diagonalization with overlap
     ethr =  3.02E-08,  avg # of iterations =  3.8

     negative rho (up, down):  1.591E+00 0.000E+00

     negative rho (up, down):  1.591E+00 0.000E+00

     negative rho (up, down):  1.591E+00 0.000E+00

     negative rho (up, down):  1.591E+00 0.000E+00

     negative rho (up, down):  1.591E+00 0.000E+00

     negative rho (up, down):  1.591E+00 0.000E+00

     negative rho (up, down):  1.591E+00 0.000E+00

     negative rho (up, down):  1.591E+00 0.000E+00

     negative rho (up, down):  1.591E+00 0.000E+00

     negative rho (up, down):  1.591E+00 0.000E+00

     negative rho (up, down):  1.591E+00 0.000E+00

     negative rho (up, down):  1.591E+00 0.000E+00

     negative rho (up, down):  1.591E+00 0.000E+00

     negative rho (up, down):  1.591E+00 0.000E+00

     negative rho (up, down):  1.591E+00 0.000E+00

     negative rho (up, down):  1.591E+00 0.000E+00

     negative rho (up, down):  1.591E+00 0.000E+00

     negative rho (up, down):  1.591E+00 0.000E+00

     negative rho (up, down):  1.591E+00 0.000E+00

     negative rho (up, down):  1.591E+00 0.000E+00

     negative rho (up, down):  1.591E+00 0.000E+00

     negative rho (up, down):  1.591E+00 0.000E+00

     negative rho (up, down):  1.591E+00 0.000E+00

     negative rho (up, down):  1.591E+00 0.000E+00

     negative rho (up, down):  1.591E+00 0.000E+00

     negative rho (up, down):  1.591E+00 0.000E+00

     negative rho (up, down):  1.591E+00 0.000E+00

     negative rho (up, down):  1.591E+00 0.000E+00

     negative rho (up, down):  1.591E+00 0.000E+00

     negative rho (up, down):  1.591E+00 0.000E+00

     negative rho (up, down):  1.591E+00 0.000E+00

     negative rho (up, down):  1.591E+00 0.000E+00

     negative rho (up, down):  1.591E+00 0.000E+00

     negative rho (up, down):  1.591E+00 0.000E+00

     negative rho (up, down):  1.591E+00 0.000E+00
 
     Adding external electric field

     Computed dipole along edir(3) : 
        Dipole                0.4649 Ry au,          1.1816 Debye
        Dipole field          0.0014 Ry au
 
        Potential amp.       -0.1225 Ry
        Total length         45.0992 bohr
 

     total cpu time spent up to now is      913.7 secs

     End of self-consistent calculation

          k = 0.0000 0.0000 0.0000 ( 16073 PWs)   bands (ev):

   -64.1013 -64.0060 -63.9489 -63.9480 -63.9143 -63.9133 -63.8683 -63.8172
   -63.7068 -63.6862 -63.6854 -63.6549 -36.6267 -36.5170 -36.5168 -36.5152
   -36.4226 -36.3809 -36.3806 -36.2324 -36.2320 -36.2272 -35.9857 -35.9848
   -35.9652 -35.8333 -35.8329 -35.8327 -35.8044 -35.7825 -35.7820 -35.7502
   -35.6724 -35.6717 -35.6466 -35.6341 -35.6333 -35.6004 -35.5465 -35.5363
   -35.5363 -35.4848 -35.4846 -35.4797 -35.3825 -35.3822 -35.2852 -35.2852
   -18.4129  -6.8596  -3.2485  -3.1342  -3.1342  -2.0570  -1.9457  -1.9456
    -1.9166  -1.8628  -1.5645  -1.4695  -1.4694  -1.4053  -1.4052  -1.1887
    -0.9689  -0.9688  -0.8064   0.2519   0.2522   0.5594   0.9610   0.9636
     0.9636   1.2199   1.3766   1.4973   1.4974   1.7914   1.7914   1.8709
     1.9388   1.9390   2.0514   2.0514   2.4693   2.5171   2.5175   3.0306
     3.4886   3.5315   3.5317   3.7959   3.7959   3.8890   3.8891   3.9989
     4.2295   4.3692   4.3692   5.0091   5.0095   5.0480   5.1974

          k = 0.0000 0.0351 0.0000 ( 16137 PWs)   bands (ev):

   -64.0912 -64.0001 -63.9570 -63.9482 -63.9201 -63.9132 -63.8693 -63.8095
   -63.7101 -63.6910 -63.6854 -63.6561 -36.5890 -36.4846 -36.4842 -36.4637
   -36.4022 -36.3520 -36.3484 -36.2044 -36.2025 -36.1826 -36.0081 -35.9883
   -35.9644 -35.8787 -35.8666 -35.8186 -35.8047 -35.8020 -35.7684 -35.7279
   -35.6991 -35.6988 -35.6513 -35.6382 -35.6241 -35.6051 -35.5771 -35.5541
   -35.5502 -35.5145 -35.5126 -35.4705 -35.4287 -35.3934 -35.3427 -35.2986
   -18.4109  -6.8283  -3.1838  -3.0846  -2.9514  -1.8980  -1.7929  -1.7469
    -1.6893  -1.6184  -1.4246  -1.3643  -1.3104  -1.2683  -1.2529  -1.0279
    -0.8171  -0.7390  -0.6658   0.2363   0.3062   0.5490   1.0205   1.0553
     1.0862   1.0999   1.2525   1.3099   1.6752   1.6939   1.7086   1.8785
     1.9336   1.9562   2.0098   2.2435   2.2691   2.3853   2.3957   2.7086
     3.1288   3.2238   3.4162   3.4890   3.6180   3.7116   3.7711   3.8046
     3.9681   4.3572   4.4728   4.4892   4.6881   4.7768   4.8829

          k = 0.0000 0.0702 0.0000 ( 16149 PWs)   bands (ev):

   -64.0637 -63.9932 -63.9728 -63.9484 -63.9348 -63.9131 -63.8716 -63.7884
   -63.7262 -63.6967 -63.6854 -63.6585 -36.5012 -36.4073 -36.4037 -36.3496
   -36.3260 -36.2868 -36.2857 -36.1619 -36.1281 -36.0923 -36.0201 -36.0094
   -35.9820 -35.9253 -35.9198 -35.8534 -35.8178 -35.8016 -35.7586 -35.7574
   -35.7342 -35.7280 -35.6884 -35.6484 -35.6468 -35.6318 -35.6080 -35.5835
   -35.5793 -35.5750 -35.5560 -35.5367 -35.4735 -35.4378 -35.4158 -35.3346
   -18.4067  -6.7655  -3.1685  -2.9916  -2.3331  -1.6180  -1.3545  -1.2933
    -1.2498  -1.1466  -0.9869  -0.9345  -0.9039  -0.8657  -0.8129  -0.6966
    -0.4615  -0.1867  -0.1374   0.2302   0.3807   0.4652   0.6016   0.8062
     1.1119   1.1692   1.1937   1.2949   1.4501   1.4702   1.6861   1.7809
     1.8693   1.9339   2.0255   2.1468   2.2363   2.2681   2.3031   2.5550
     2.5992   2.6835   2.8435   2.9054   2.9517   3.1222   3.2443   3.2627
     3.5532   3.6887   3.7160   4.0783   4.1906   4.2017   4.2742

          k = 0.0000-0.1053 0.0000 ( 16164 PWs)   bands (ev):

   -64.0322 -64.0189 -63.9607 -63.9507 -63.9485 -63.9130 -63.8728 -63.7669
   -63.7467 -63.6979 -63.6854 -63.6596 -36.4441 -36.3507 -36.3462 -36.3068
   -36.2985 -36.2473 -36.1988 -36.1207 -36.0930 -36.0845 -36.0530 -36.0435
   -35.9621 -35.9483 -35.9432 -35.8282 -35.8269 -35.8012 -35.7904 -35.7741
   -35.7348 -35.7226 -35.6985 -35.6915 -35.6754 -35.6700 -35.6576 -35.6501
   -35.5970 -35.5831 -35.5740 -35.5488 -35.5312 -35.4350 -35.3921 -35.3760
   -18.4047  -6.7340  -3.1682  -2.9479  -1.7356  -1.6448  -1.0663  -1.0458
    -1.0091  -0.9606  -0.7315  -0.6929  -0.5298  -0.3642  -0.3265  -0.2634
    -0.1561  -0.0673  -0.0038   0.0092   0.4867   0.5064   0.6707   0.6988
     0.7356   0.7976   1.1509   1.2566   1.5410   1.5898   1.7105   1.7121
     1.7580   1.7854   1.8297   1.9676   1.9916   2.0256   2.0843   2.1891
     2.2321   2.3232   2.4457   2.8439   3.0555   3.0694   3.0760   3.1448
     3.1754   3.5727   3.5772   3.6846   3.6889   3.8244   3.9050

          k = 0.0304-0.0175 0.0000 ( 16137 PWs)   bands (ev):

   -64.0912 -64.0002 -63.9564 -63.9487 -63.9195 -63.9138 -63.8693 -63.8095
   -63.7103 -63.6902 -63.6860 -63.6561 -36.5891 -36.4845 -36.4842 -36.4638
   -36.4022 -36.3517 -36.3486 -36.2047 -36.2022 -36.1825 -36.0077 -35.9889
   -35.9644 -35.8786 -35.8667 -35.8184 -35.8046 -35.8021 -35.7686 -35.7276
   -35.6995 -35.6983 -35.6518 -35.6378 -35.6245 -35.6050 -35.5771 -35.5541
   -35.5502 -35.5143 -35.5130 -35.4704 -35.4289 -35.3931 -35.3426 -35.2986
   -18.4109  -6.8283  -3.1837  -3.0846  -2.9514  -1.8980  -1.7931  -1.7467
    -1.6893  -1.6184  -1.4246  -1.3643  -1.3103  -1.2684  -1.2528  -1.0279
    -0.8172  -0.7388  -0.6659   0.2366   0.3060   0.5490   1.0204   1.0552
     1.0862   1.1000   1.2526   1.3099   1.6751   1.6942   1.7085   1.8785
     1.9336   1.9563   2.0097   2.2435   2.2691   2.3855   2.3955   2.7086
     3.1287   3.2238   3.4162   3.4889   3.6182   3.7116   3.7711   3.8045
     3.9682   4.3572   4.4727   4.4891   4.6881   4.7768   4.8825

          k = 0.0304 0.0175 0.0000 ( 16137 PWs)   bands (ev):

   -64.0912 -64.0002 -63.9562 -63.9489 -63.9194 -63.9140 -63.8693 -63.8095
   -63.7102 -63.6904 -63.6859 -63.6561 -36.5891 -36.4844 -36.4843 -36.4638
   -36.4022 -36.3518 -36.3485 -36.2046 -36.2022 -36.1825 -36.0077 -35.9889
   -35.9644 -35.8785 -35.8668 -35.8183 -35.8045 -35.8022 -35.7687 -35.7276
   -35.6994 -35.6983 -35.6519 -35.6378 -35.6245 -35.6050 -35.5771 -35.5541
   -35.5501 -35.5143 -35.5129 -35.4704 -35.4289 -35.3931 -35.3426 -35.2986
   -18.4109  -6.8283  -3.1837  -3.0846  -2.9514  -1.8980  -1.7931  -1.7467
    -1.6893  -1.6184  -1.4246  -1.3643  -1.3103  -1.2684  -1.2528  -1.0279
    -0.8172  -0.7389  -0.6658   0.2366   0.3060   0.5490   1.0204   1.0552
     1.0862   1.1000   1.2526   1.3100   1.6750   1.6942   1.7085   1.8785
     1.9335   1.9563   2.0098   2.2435   2.2692   2.3855   2.3955   2.7086
     3.1287   3.2239   3.4162   3.4889   3.6182   3.7116   3.7711   3.8045
     3.9682   4.3572   4.4727   4.4891   4.6881   4.7768   4.8825

          k = 0.0304 0.0526 0.0000 ( 16202 PWs)   bands (ev):

   -64.0724 -63.9910 -63.9699 -63.9521 -63.9265 -63.9154 -63.8707 -63.7950
   -63.7175 -63.7015 -63.6825 -63.6578 -36.5249 -36.4406 -36.3947 -36.3876
   -36.3643 -36.3025 -36.3008 -36.1753 -36.1414 -36.1136 -36.0215 -36.0099
   -35.9728 -35.9352 -35.8967 -35.8474 -35.8106 -35.7833 -35.7700 -35.7512
   -35.7144 -35.6999 -35.6859 -35.6655 -35.6369 -35.6242 -35.6019 -35.5923
   -35.5816 -35.5537 -35.5005 -35.4857 -35.4841 -35.4358 -35.4164 -35.3275
   -18.4078  -6.7811  -3.1626  -3.0228  -2.5170  -1.5996  -1.5377  -1.4233
    -1.2917  -1.2173  -1.2018  -1.1317  -1.0341  -0.9707  -0.9483  -0.7505
    -0.5183  -0.4506  -0.2735   0.2314   0.3710   0.4862   0.7069   0.9427
     1.1130   1.1676   1.2246   1.2897   1.3997   1.6303   1.6604   1.7653
     1.8637   2.0228   2.0601   2.1100   2.1574   2.2108   2.4791   2.6702
     2.6970   2.7877   2.8377   3.1849   3.2877   3.3430   3.3819   3.4335
     3.5295   3.6799   3.8649   4.1215   4.3049   4.3796   4.5497

          k = 0.0304-0.1228 0.0000 ( 16203 PWs)   bands (ev):

   -64.0404 -64.0014 -63.9770 -63.9525 -63.9365 -63.9173 -63.8716 -63.7712
   -63.7355 -63.7111 -63.6792 -63.6596 -36.4380 -36.3591 -36.3204 -36.3037
   -36.2814 -36.2495 -36.2316 -36.1701 -36.1021 -36.0641 -36.0456 -36.0232
   -35.9792 -35.9481 -35.9137 -35.8647 -35.8440 -35.8028 -35.7825 -35.7618
   -35.7564 -35.7240 -35.7038 -35.6969 -35.6691 -35.6564 -35.6420 -35.6290
   -35.6020 -35.5760 -35.5534 -35.5219 -35.5170 -35.4526 -35.4357 -35.3778
   -18.4046  -6.7337  -3.1500  -2.9700  -1.8232  -1.3784  -1.0544  -1.0285
    -0.9658  -0.8745  -0.7844  -0.6229  -0.5773  -0.5507  -0.4258  -0.2779
    -0.1846  -0.0818   0.0622   0.1513   0.4142   0.4466   0.5205   0.7396
     0.8146   0.8809   0.9993   1.1370   1.3613   1.4545   1.5082   1.5535
     1.7129   1.7516   1.7942   1.8284   1.9679   2.1171   2.1645   2.3169
     2.3869   2.4910   2.5639   2.6366   2.9106   3.0987   3.1759   3.1996
     3.3866   3.4476   3.5445   3.6080   3.8407   3.9206   4.1463

          k = 0.0304-0.0877 0.0000 ( 16203 PWs)   bands (ev):

   -64.0404 -64.0015 -63.9769 -63.9526 -63.9364 -63.9173 -63.8717 -63.7712
   -63.7355 -63.7111 -63.6792 -63.6596 -36.4380 -36.3591 -36.3204 -36.3037
   -36.2814 -36.2495 -36.2315 -36.1700 -36.1023 -36.0641 -36.0456 -36.0232
[...]
    -0.5348  -0.2311  -0.2217   0.1763   0.2669   0.4116   0.5607   0.6956
     0.9939   1.1211   1.1386   1.2650   1.3989   1.4811   1.6634   1.7634
     1.7685   1.9167   1.9384   1.9592   2.1139   2.2031   2.2616   2.5192
     2.5783   2.6610   2.8202   2.8881   2.9086   3.0690   3.2358   3.2403
     3.4797   3.5990   3.6266   4.0724   4.1828   4.1881   4.2908

          k = 0.0608 0.0000 0.0000 ( 16202 PWs)   bands (ev):

   -64.1147 -64.0106 -64.0007 -63.9849 -63.9367 -63.9158 -63.9111 -63.8443
   -63.7678 -63.7478 -63.7294 -63.7143 -36.5409 -36.4956 -36.4705 -36.4530
   -36.4333 -36.3697 -36.3667 -36.2072 -36.1583 -36.1412 -36.0558 -36.0322
   -36.0042 -35.9817 -35.9374 -35.8679 -35.8371 -35.8266 -35.8119 -35.7700
   -35.7526 -35.7453 -35.7117 -35.6880 -35.6774 -35.6564 -35.6407 -35.6316
   -35.6133 -35.5734 -35.5382 -35.5247 -35.5224 -35.4706 -35.4456 -35.3741
   -17.8888  -6.2636  -2.7496  -2.4578  -2.4369  -1.7072  -1.6498  -1.5330
    -1.4136  -1.3095  -1.2839  -1.2169  -1.1179  -1.0403  -1.0319  -0.8323
    -0.5644  -0.5216  -0.3352   0.1579   0.3124   0.4071   0.6514   0.8371
     1.0740   1.0890   1.2024   1.2716   1.3627   1.5654   1.5813   1.7087
     1.8360   1.9415   1.9501   2.0076   2.0733   2.1253   2.4245   2.6324
     2.6698   2.7771   2.8330   3.1676   3.2175   3.2915   3.3373   3.4248
     3.4651   3.6055   3.8002   4.0606   4.3100   4.3548   4.5226

          k = 0.0608 0.0351 0.0000 ( 16149 PWs)   bands (ev):

   -64.1056 -64.0248 -63.9883 -63.9865 -63.9417 -63.9149 -63.9122 -63.8380
   -63.7754 -63.7440 -63.7322 -63.7148 -36.5159 -36.4731 -36.4637 -36.4298
   -36.3868 -36.3566 -36.3509 -36.1896 -36.1562 -36.1079 -36.0542 -36.0469
   -36.0250 -35.9714 -35.9430 -35.8765 -35.8359 -35.8354 -35.7928 -35.7806
   -35.7659 -35.7639 -35.7443 -35.6866 -35.6861 -35.6643 -35.6517 -35.6184
   -35.6168 -35.6078 -35.5709 -35.5655 -35.4964 -35.4844 -35.4463 -35.3809
   -17.8881  -6.2484  -2.6788  -2.4103  -2.3229  -1.7277  -1.4528  -1.4114
    -1.3544  -1.2559  -1.0684  -1.0337  -0.9994  -0.9478  -0.8927  -0.7663
    -0.5348  -0.2311  -0.2217   0.1764   0.2669   0.4116   0.5607   0.6956
     0.9939   1.1211   1.1386   1.2650   1.3989   1.4811   1.6634   1.7634
     1.7685   1.9166   1.9383   1.9592   2.1139   2.2031   2.2616   2.5192
     2.5783   2.6610   2.8202   2.8881   2.9086   3.0690   3.2358   3.2403
     3.4797   3.5990   3.6265   4.0724   4.1828   4.1881   4.2908

          k = 0.0608-0.1404 0.0000 ( 16203 PWs)   bands (ev):

   -64.0812 -64.0392 -64.0054 -63.9708 -63.9466 -63.9170 -63.9131 -63.8218
   -63.7837 -63.7581 -63.7264 -63.7160 -36.4566 -36.4227 -36.3934 -36.3708
   -36.3494 -36.3208 -36.2816 -36.2155 -36.1415 -36.1013 -36.0837 -36.0450
   -36.0073 -35.9742 -35.9272 -35.8942 -35.8783 -35.8292 -35.8063 -35.8002
   -35.7929 -35.7639 -35.7489 -35.7343 -35.7122 -35.6956 -35.6820 -35.6618
   -35.6365 -35.6070 -35.5780 -35.5543 -35.5241 -35.4872 -35.4744 -35.4236
   -17.8866  -6.2177  -2.5873  -2.3715  -1.8697  -1.4657  -1.1685  -1.1431
    -1.0874  -0.9680  -0.8963  -0.7238  -0.6703  -0.6388  -0.5137  -0.3917
    -0.2811  -0.1398  -0.0227   0.0642   0.3270   0.3752   0.4557   0.6582
     0.7276   0.8164   0.9430   1.1012   1.3088   1.3906   1.4390   1.5009
     1.6468   1.7061   1.7761   1.8196   1.9235   2.0833   2.1403   2.2691
     2.3218   2.4369   2.5075   2.5764   2.8139   3.0728   3.1369   3.2008
     3.3707   3.4104   3.4977   3.5696   3.7938   3.8985   4.1069

          k = 0.0608-0.1053 0.0000 ( 16272 PWs)   bands (ev):

   -64.0549 -64.0496 -64.0254 -63.9601 -63.9505 -63.9193 -63.9130 -63.8104
   -63.7797 -63.7772 -63.7229 -63.7165 -36.3971 -36.3764 -36.3655 -36.3300
   -36.3217 -36.2986 -36.2622 -36.2253 -36.2191 -36.1334 -36.0460 -35.9996
   -35.9769 -35.9613 -35.9561 -35.9091 -35.8868 -35.8745 -35.8686 -35.8015
   -35.7936 -35.7616 -35.7468 -35.7222 -35.7214 -35.7133 -35.7091 -35.6659
   -35.6489 -35.6035 -35.5510 -35.5422 -35.5301 -35.5002 -35.4895 -35.4845
   -17.8859  -6.2022  -2.5423  -2.3765  -1.3235  -1.2997  -1.1508  -0.8778
    -0.7219  -0.7098  -0.6856  -0.6632  -0.4833  -0.4700  -0.3714  -0.3382
    -0.2564  -0.2026  -0.1925   0.2499   0.2952   0.6310   0.6500   0.6608
     0.6686   0.7959   0.8078   0.8575   0.9240   0.9850   1.0499   1.1159
     1.2914   1.3201   1.7097   1.7381   1.8640   2.0073   2.1729   2.2216
     2.2256   2.2560   2.4045   2.5324   2.8523   2.9378   3.1081   3.3151
     3.4628   3.4719   3.5055   3.5900   3.7993   3.8481   4.3908

          k = 0.0608-0.0702 0.0000 ( 16203 PWs)   bands (ev):

   -64.0812 -64.0392 -64.0054 -63.9708 -63.9466 -63.9169 -63.9131 -63.8218
   -63.7837 -63.7581 -63.7264 -63.7160 -36.4566 -36.4227 -36.3934 -36.3708
   -36.3494 -36.3208 -36.2816 -36.2155 -36.1415 -36.1013 -36.0837 -36.0450
   -36.0073 -35.9742 -35.9271 -35.8942 -35.8783 -35.8292 -35.8063 -35.8002
   -35.7929 -35.7639 -35.7489 -35.7343 -35.7122 -35.6956 -35.6820 -35.6618
   -35.6365 -35.6070 -35.5780 -35.5543 -35.5241 -35.4872 -35.4744 -35.4236
   -17.8866  -6.2177  -2.5874  -2.3715  -1.8697  -1.4657  -1.1685  -1.1431
    -1.0874  -0.9680  -0.8963  -0.7238  -0.6703  -0.6388  -0.5137  -0.3917
    -0.2811  -0.1398  -0.0227   0.0642   0.3270   0.3751   0.4557   0.6582
     0.7276   0.8165   0.9430   1.1012   1.3088   1.3907   1.4390   1.5009
     1.6468   1.7061   1.7761   1.8196   1.9235   2.0834   2.1403   2.2691
     2.3218   2.4369   2.5075   2.5763   2.8139   3.0728   3.1369   3.2008
     3.3707   3.4105   3.4977   3.5696   3.7939   3.8985   4.1069

          k =-0.0912 0.0526 0.0000 ( 16164 PWs)   bands (ev):

   -64.0731 -64.0566 -63.9884 -63.9749 -63.9514 -63.9149 -63.9140 -63.8185
   -63.7935 -63.7458 -63.7322 -63.7160 -36.4568 -36.4298 -36.4042 -36.3802
   -36.3616 -36.3254 -36.2118 -36.1752 -36.1740 -36.1215 -36.0974 -36.0830
   -35.9667 -35.9497 -35.9494 -35.8522 -35.8434 -35.8308 -35.8262 -35.7922
   -35.7894 -35.7777 -35.7451 -35.7422 -35.7284 -35.7143 -35.7007 -35.6893
   -35.6306 -35.6010 -35.5978 -35.5710 -35.5289 -35.4700 -35.4367 -35.4211
   -17.8866  -6.2181  -2.6076  -2.3413  -1.8131  -1.6980  -1.2090  -1.1391
    -1.1363  -1.0536  -0.8439  -0.7710  -0.5937  -0.4947  -0.4272  -0.3412
    -0.2064  -0.1476  -0.1275  -0.0651   0.3410   0.4085   0.5912   0.6000
     0.6963   0.7386   1.1287   1.2789   1.4471   1.4661   1.6349   1.7064
     1.7177   1.7659   1.8270   1.9297   1.9709   1.9722   2.0618   2.1298
     2.1471   2.2384   2.3807   2.7416   2.9448   2.9947   3.0845   3.1399
     3.2537   3.5260   3.5640   3.6217   3.6740   3.7607   3.8534

          k =-0.0912 0.0877 0.0000 ( 16203 PWs)   bands (ev):

   -64.0812 -64.0392 -64.0054 -63.9708 -63.9466 -63.9170 -63.9131 -63.8218
   -63.7837 -63.7581 -63.7264 -63.7160 -36.4566 -36.4226 -36.3934 -36.3708
   -36.3494 -36.3208 -36.2816 -36.2155 -36.1415 -36.1013 -36.0837 -36.0450
   -36.0074 -35.9741 -35.9272 -35.8942 -35.8783 -35.8292 -35.8063 -35.8002
   -35.7929 -35.7639 -35.7489 -35.7343 -35.7122 -35.6956 -35.6820 -35.6618
   -35.6365 -35.6070 -35.5780 -35.5543 -35.5241 -35.4872 -35.4744 -35.4236
   -17.8866  -6.2177  -2.5874  -2.3715  -1.8697  -1.4657  -1.1685  -1.1430
    -1.0874  -0.9680  -0.8963  -0.7238  -0.6703  -0.6388  -0.5137  -0.3917
    -0.2811  -0.1398  -0.0227   0.0642   0.3270   0.3752   0.4557   0.6582
     0.7276   0.8165   0.9430   1.1011   1.3089   1.3906   1.4390   1.5009
     1.6467   1.7061   1.7761   1.8195   1.9235   2.0834   2.1403   2.2691
     2.3218   2.4369   2.5075   2.5763   2.8139   3.0727   3.1369   3.2008
     3.3707   3.4105   3.4977   3.5696   3.7938   3.8985   4.1069

          k =-0.0912 0.1228 0.0000 ( 16203 PWs)   bands (ev):

   -64.0812 -64.0392 -64.0054 -63.9708 -63.9466 -63.9170 -63.9131 -63.8218
   -63.7837 -63.7581 -63.7264 -63.7160 -36.4566 -36.4226 -36.3934 -36.3708
   -36.3494 -36.3208 -36.2816 -36.2155 -36.1415 -36.1013 -36.0837 -36.0450
   -36.0074 -35.9741 -35.9272 -35.8942 -35.8783 -35.8292 -35.8063 -35.8002
   -35.7929 -35.7639 -35.7489 -35.7343 -35.7122 -35.6956 -35.6820 -35.6618
   -35.6365 -35.6070 -35.5780 -35.5543 -35.5241 -35.4872 -35.4744 -35.4236
   -17.8866  -6.2177  -2.5873  -2.3715  -1.8697  -1.4657  -1.1685  -1.1431
    -1.0874  -0.9680  -0.8963  -0.7238  -0.6703  -0.6388  -0.5137  -0.3917
    -0.2811  -0.1398  -0.0227   0.0642   0.3270   0.3752   0.4557   0.6582
     0.7276   0.8164   0.9430   1.1011   1.3089   1.3906   1.4390   1.5009
     1.6467   1.7061   1.7761   1.8195   1.9235   2.0834   2.1403   2.2691
     2.3218   2.4369   2.5075   2.5763   2.8139   3.0727   3.1369   3.2008
     3.3707   3.4105   3.4977   3.5696   3.7938   3.8985   4.1069

          k =-0.0912-0.0526 0.0000 ( 16164 PWs)   bands (ev):

   -64.0731 -64.0566 -63.9884 -63.9748 -63.9513 -63.9149 -63.9140 -63.8185
   -63.7936 -63.7458 -63.7322 -63.7160 -36.4568 -36.4298 -36.4042 -36.3802
   -36.3616 -36.3254 -36.2118 -36.1752 -36.1740 -36.1215 -36.0974 -36.0830
   -35.9667 -35.9497 -35.9494 -35.8522 -35.8434 -35.8308 -35.8262 -35.7922
   -35.7894 -35.7777 -35.7451 -35.7422 -35.7284 -35.7143 -35.7007 -35.6893
   -35.6306 -35.6010 -35.5978 -35.5710 -35.5289 -35.4700 -35.4366 -35.4211
   -17.8866  -6.2181  -2.6075  -2.3413  -1.8131  -1.6980  -1.2089  -1.1391
    -1.1363  -1.0536  -0.8439  -0.7710  -0.5937  -0.4947  -0.4272  -0.3412
    -0.2064  -0.1476  -0.1275  -0.0650   0.3409   0.4085   0.5912   0.5999
     0.6963   0.7386   1.1287   1.2790   1.4471   1.4661   1.6348   1.7064
     1.7177   1.7659   1.8270   1.9297   1.9709   1.9722   2.0618   2.1298
     2.1471   2.2384   2.3806   2.7416   2.9448   2.9947   3.0845   3.1399
     3.2537   3.5260   3.5639   3.6217   3.6740   3.7607   3.8534

     the Fermi energy is     3.1797 ev

!    total energy              =   -2137.18882747 Ry
     Harris-Foulkes estimate   =   -2137.18882590 Ry
     estimated scf accuracy    <       0.00000003 Ry

     The total energy is the sum of the following terms:

     one-electron contribution =  -19459.00109206 Ry
     hartree contribution      =    9735.27764960 Ry
     xc contribution           =    -405.55172883 Ry
     ewald contribution        =    7992.17496350 Ry
     electric field correction =       0.00060293 Ry
     smearing contrib. (-TS)   =      -0.08922261 Ry

     convergence has been achieved in  11 iterations
 
 BEEF-vdW xc energy contributions
           1 :   -355.193619442456     
           2 :    326.365580870103     
           3 :   -275.186891135048     
           4 :    212.020096514276     
           5 :   -147.836591081271     
           6 :    91.2137669689286     
           7 :   -46.6988350126607     
           8 :    14.7144913943646     
           9 :    7.15557440346316     
          10 :   -22.2914915317313     
          11 :    33.3405813716849     
          12 :   -41.3505177827045     
          13 :    45.8460267959773     
          14 :   -45.6466628583308     
          15 :    39.9068620100617     
          16 :   -28.9163272340114     
          17 :    14.3311314197258     
          18 :    1.18960625579274     
          19 :   -14.7658229212758     
          20 :    24.1398660436963     
          21 :   -28.2552925331112     
          22 :    27.3590389007393     
          23 :   -22.6568647758609     
          24 :    15.7196717268354     
          25 :   -7.93072902332597     
          26 :   0.186571584945341     
          27 :    7.07312144070880     
          28 :   -13.6109714024023     
          29 :    19.1043004353201     
          30 :   -23.0101927987404     
          31 :   -33.8956036827818     
          32 :   -24.8379298903130     

     Forces acting on atoms (Ry/au):


     negative rho (up, down):  1.590E+00 0.000E+00
     atom    1 type  1   force =    -0.00000211   -0.00000308    0.02360804
     atom    2 type  1   force =     0.00000044   -0.00465332    0.02123128
     atom    3 type  1   force =    -0.00402976    0.00232787    0.02123535
     atom    4 type  1   force =     0.00403082    0.00232753    0.02123359
     atom    5 type  1   force =    -0.00063115    0.00036603   -0.00932851
     atom    6 type  1   force =     0.00063074    0.00036360   -0.00932847
     atom    7 type  1   force =     0.00000124    0.00000050   -0.05979299
     atom    8 type  1   force =     0.00000156   -0.00072983   -0.00932408
     atom    9 type  1   force =    -0.00057215   -0.00033714    0.00000185
     atom   10 type  1   force =     0.00057159   -0.00033797    0.00000454
     atom   11 type  1   force =    -0.00000134    0.00066736    0.00001343
     atom   12 type  1   force =     0.00000192    0.00001399   -0.00057818
     atom   13 type  2   force =    -0.00000185   -0.00000641    0.00109890
     atom   14 type  3   force =     0.00000006    0.00000087   -0.00007475

     Total force =     0.001696     Total SCF correction =     0.000792
     SCF correction compared to forces is large: reduce conv_thr to get better values


     entering subroutine stress ...


     negative rho (up, down):  1.590E+00 0.000E+00
          total   stress  (Ry/bohr**3)                   (kbar)     P=  -22.99
  -0.00018427   0.00000000   0.00000000        -27.11      0.00      0.00
   0.00000000  -0.00018428   0.00000000          0.00    -27.11      0.00
   0.00000000   0.00000000  -0.00010035          0.00      0.00    -14.76


     bfgs converged in  13 scf cycles and  12 bfgs steps
     (criteria: energy <  1.0E+00, force <  1.9E-03)

     End of BFGS Geometry Optimization

     Final energy   =   -2137.1888274734 Ry
Begin final coordinates

ATOMIC_POSITIONS (crystal)
Tc1      0.166666667   0.166666667   0.408540475    0   0   0
Tc1      0.666666667   0.166666667   0.408540475    0   0   0
Tc1      0.166666667   0.666666667   0.408540475    0   0   0
Tc1      0.666666667   0.666666667   0.408540475    0   0   0
Tc1      0.833333333   0.333333333   0.500000000    0   0   0
Tc1      0.333333333   0.333333333   0.500000000    0   0   0
Tc1      0.833333333   0.833333333   0.500000000    0   0   0
Tc1      0.333333333   0.833333333   0.500000000    0   0   0
Tc1     -0.001431406  -0.001433098   0.589448898
Tc1      0.502872773  -0.001442155   0.589449155
Tc1     -0.001445212   0.502882108   0.589447553
Tc1      0.500002832   0.499984322   0.585060419
O1       0.166663208   0.166677858   0.651357500
H1       0.166666035   0.166666758   0.691089197
End final coordinates



     Writing output data file calc.save
 
     init_run     :      8.67s CPU      9.13s WALL (       1 calls)
     electrons    :   3728.97s CPU   3993.84s WALL (      13 calls)
     update_pot   :     27.83s CPU     29.85s WALL (      12 calls)
     forces       :    141.67s CPU    149.31s WALL (      13 calls)
     stress       :    420.92s CPU    441.59s WALL (      13 calls)

     Called by init_run:
     wfcinit      :      4.25s CPU      4.40s WALL (       1 calls)
     potinit      :      1.33s CPU      1.42s WALL (       1 calls)

     Called by electrons:
     c_bands      :   2173.84s CPU   2313.53s WALL (     206 calls)
     sum_band     :    539.93s CPU    574.10s WALL (     206 calls)
     v_of_rho     :    206.76s CPU    230.33s WALL (     218 calls)
     newd         :    429.03s CPU    436.39s WALL (     218 calls)
     mix_rho      :      7.78s CPU      8.17s WALL (     206 calls)
     vdW_energy   :    118.16s CPU    128.92s WALL (     686 calls)
     vdW_ffts     :    197.24s CPU    217.38s WALL (    1398 calls)
     vdW_v        :     82.10s CPU     87.40s WALL (     686 calls)

     Called by c_bands:
     init_us_2    :     12.95s CPU     13.04s WALL (    3073 calls)
     cegterg      :   2042.19s CPU   2102.89s WALL (    1442 calls)

     Called by *egterg:
     h_psi        :   1057.31s CPU   1101.84s WALL (    7477 calls)
     s_psi        :    120.04s CPU    120.22s WALL (    7477 calls)
     g_psi        :      7.44s CPU      7.41s WALL (    6028 calls)
     cdiaghg      :    394.92s CPU    398.76s WALL (    7379 calls)

     Called by h_psi:
     add_vuspsi   :    127.10s CPU    127.37s WALL (    7477 calls)

     General routines
     calbec       :    199.87s CPU    203.98s WALL (    9101 calls)
     fft          :    299.00s CPU    340.64s WALL (   41743 calls)
     ffts         :      0.50s CPU      0.59s WALL (     424 calls)
     fftw         :    575.33s CPU    641.55s WALL (  923046 calls)
     interpolate  :      4.22s CPU      4.51s WALL (     424 calls)
     davcio       :      0.00s CPU      0.08s WALL (       7 calls)
 
     Parallel routines
     fft_scatter  :    473.81s CPU    577.59s WALL (  965213 calls)
 
     PWSCF        :     1h12m CPU        1h17m WALL

 
   This run was terminated on:  14: 8:40  23Apr2018            

=------------------------------------------------------------------------------=
   JOB DONE.
=------------------------------------------------------------------------------=
Job  /afs/slac/g/suncat/bin/suncat-tsmpirun -x LD_LIBRARY_PATH -wdir /scratch/qe374740_CbISs pw.x -npool 3 -in pw.inp

TID   HOST_NAME   COMMAND_LINE            STATUS            TERMINATION_TIME
===== ========== ================  =======================  ===================
00000 suncat1063 pw.x -npool 3 -i  Done                     04/23/2018 14:08:40
00001 suncat1063 pw.x -npool 3 -i  Done                     04/23/2018 14:08:40
00002 suncat1063 pw.x -npool 3 -i  Done                     04/23/2018 14:08:40
00003 suncat1063 pw.x -npool 3 -i  Done                     04/23/2018 14:08:40
00004 suncat1063 pw.x -npool 3 -i  Done                     04/23/2018 14:08:40
00005 suncat1063 pw.x -npool 3 -i  Done                     04/23/2018 14:08:40
00006 suncat1063 pw.x -npool 3 -i  Done                     04/23/2018 14:08:40
00007 suncat1063 pw.x -npool 3 -i  Done                     04/23/2018 14:08:40
00008 suncat1063 pw.x -npool 3 -i  Done                     04/23/2018 14:08:40
00009 suncat1063 pw.x -npool 3 -i  Done                     04/23/2018 14:08:40
00010 suncat1063 pw.x -npool 3 -i  Done                     04/23/2018 14:08:40
00011 suncat1063 pw.x -npool 3 -i  Done                     04/23/2018 14:08:40
00012 suncat1022 pw.x -npool 3 -i  Done                     04/23/2018 14:08:40
00013 suncat1022 pw.x -npool 3 -i  Done                     04/23/2018 14:08:40
00014 suncat1022 pw.x -npool 3 -i  Done                     04/23/2018 14:08:40
00015 suncat1022 pw.x -npool 3 -i  Done                     04/23/2018 14:08:40
00016 suncat1022 pw.x -npool 3 -i  Done                     04/23/2018 14:08:40
00017 suncat1022 pw.x -npool 3 -i  Done                     04/23/2018 14:08:40
00018 suncat1022 pw.x -npool 3 -i  Done                     04/23/2018 14:08:40
00019 suncat1022 pw.x -npool 3 -i  Done                     04/23/2018 14:08:40
00020 suncat1022 pw.x -npool 3 -i  Done                     04/23/2018 14:08:40
00021 suncat1022 pw.x -npool 3 -i  Done                     04/23/2018 14:08:40
00022 suncat1022 pw.x -npool 3 -i  Done                     04/23/2018 14:08:40
00023 suncat1022 pw.x -npool 3 -i  Done                     04/23/2018 14:08:40
00024 suncat1015 pw.x -npool 3 -i  Done                     04/23/2018 14:08:40
00025 suncat1015 pw.x -npool 3 -i  Done                     04/23/2018 14:08:40
00026 suncat1015 pw.x -npool 3 -i  Done                     04/23/2018 14:08:40
00027 suncat1015 pw.x -npool 3 -i  Done                     04/23/2018 14:08:40
00028 suncat1015 pw.x -npool 3 -i  Done                     04/23/2018 14:08:40
00029 suncat1015 pw.x -npool 3 -i  Done                     04/23/2018 14:08:40
00030 suncat1015 pw.x -npool 3 -i  Done                     04/23/2018 14:08:40
00031 suncat1015 pw.x -npool 3 -i  Done                     04/23/2018 14:08:40
00032 suncat1015 pw.x -npool 3 -i  Done                     04/23/2018 14:08:40
00033 suncat1015 pw.x -npool 3 -i  Done                     04/23/2018 14:08:40
00034 suncat1015 pw.x -npool 3 -i  Done                     04/23/2018 14:08:40
00035 suncat1015 pw.x -npool 3 -i  Done                     04/23/2018 14:08:40
