  python dir          : /home/mamunm/src/espresso
  espresso dir        : /home/vossj/suncat/esdld/espresso-dynpy-beef/bin
  pseudo dir          : /home/mamunm/src/pseudo/gbrv1.5pbe
  ase-espresso py git : GITVERSION



     Program PWSCF v.5.1rc2 (svn rev. ) starts on 18Apr2018 at 21:51:50 

     This program is part of the open-source Quantum ESPRESSO suite
     for quantum simulation of materials; please cite
         "P. Giannozzi et al., J. Phys.:Condens. Matter 21 395502 (2009);
          URL http://www.quantum-espresso.org", 
     in publications or presentations arising from this work. More details at
     http://www.quantum-espresso.org/quote

     Parallel version (MPI), running on    16 processors
     R & G space division:  proc/nbgrp/npool/nimage =      16
     Reading input from pw.inp
     Message from routine read_cards :
     DEPRECATED: no units specified in CELL_PARAMETERS card

     Current dimensions of program PWSCF are:
     Max number of different atomic species (ntypx) = 10
     Max number of k-points (npk) =  40000
     Max angular momentum in pseudopotentials (lmaxx) =  3
     Presently stress not available with electric field


     **************************************************************************
     Initializing libbeef V0.1.1 with the BEEF-vdW functional.
     Citation: Wellendorff et al., PRB 85, 235149 (2012).
     **************************************************************************


     IMPORTANT: XC functional enforced from input :
     Exchange-correlation      = BEEF-VDW ( 1  4 27 13 2)
     Any further DFT definition will be discarded
     Please, verify this is what you really want


     Subspace diagonalization in iterative solution of the eigenvalue problem:
     a serial algorithm will be used

 
     Parallelization info
     --------------------
     sticks:   dense  smooth     PW     G-vecs:    dense   smooth      PW
     Min         315     126     35                63229    15971    2391
     Max         316     127     37                63240    16003    2398
     Sum        5041    2029    571              1011733   255863   38327
 


     bravais-lattice index     =            0
     lattice parameter (alat)  =       1.8897  a.u.
     unit-cell volume          =    8507.0471 (a.u.)^3
     number of atoms/cell      =           14
     number of atomic types    =            3
     number of electrons       =       138.00
     number of Kohn-Sham states=           79
     kinetic-energy cutoff     =      36.7493  Ry
     charge density cutoff     =     367.4932  Ry
     convergence threshold     =      1.0E-05
     mixing beta               =       0.3000
     number of iterations used =           10  plain     mixing
     Exchange-correlation      = BEEF-VDW ( 1  4 27 13 2)
     nstep                     =           50


     celldm(1)=   1.889726  celldm(2)=   0.000000  celldm(3)=   0.000000
     celldm(4)=   0.000000  celldm(5)=   0.000000  celldm(6)=   0.000000

     crystal axes: (cart. coord. in units of alat)
               a(1) = (   7.468327   0.000000   0.000000 )  
               a(2) = (   3.734164   6.467761   0.000000 )  
               a(3) = (   0.000000   0.000000  26.097863 )  

     reciprocal axes: (cart. coord. in units 2 pi/alat)
               b(1) = (  0.133899 -0.077307  0.000000 )  
               b(2) = (  0.000000  0.154613  0.000000 )  
               b(3) = (  0.000000  0.000000  0.038317 )  


     PseudoPot. # 1 for La read from file:
     /home/mamunm/src/pseudo/gbrv1.5pbe/La.UPF
     MD5 check sum: 5937b0c7494ba0601a847275249473aa
     Pseudo is Ultrasoft + core correction, Zval = 11.0
     Generated by new atomic code, or converted to UPF format
     Using radial grid of  995 points,  8 beta functions with: 
                l(1) =   0
                l(2) =   0
                l(3) =   1
                l(4) =   1
                l(5) =   2
                l(6) =   2
                l(7) =   3
                l(8) =   3
     Q(r) pseudized with  8 coefficients,  rinner =    1.700   1.700   1.700
                                                       1.700   1.700   1.700
                                                       1.700

     PseudoPot. # 2 for N  read from file:
     /home/mamunm/src/pseudo/gbrv1.5pbe/N.UPF
     MD5 check sum: 95339753478d7afb44899504a8723017
     Pseudo is Ultrasoft + core correction, Zval =  5.0
     Generated by new atomic code, or converted to UPF format
     Using radial grid of  729 points,  4 beta functions with: 
                l(1) =   0
                l(2) =   0
                l(3) =   1
                l(4) =   1
     Q(r) pseudized with  8 coefficients,  rinner =    0.900   0.900   0.900


     PseudoPot. # 3 for H  read from file:
     /home/mamunm/src/pseudo/gbrv1.5pbe/H.UPF
     MD5 check sum: 761ae9a214b05c3daf00ab9f6b793d6f
     Pseudo is Ultrasoft, Zval =  1.0
     Generated by new atomic code, or converted to UPF format
     Using radial grid of  615 points,  2 beta functions with: 
                l(1) =   0
                l(2) =   0
     Q(r) pseudized with  8 coefficients,  rinner =    0.700

     vdW kernel table read from file vdW_kernel_table
     MD5 check sum: 095c7af220d748ca6e76c0b4c6cfb241

     atomic species   valence    mass     pseudopotential
        La1           11.00   138.90547     La( 1.00)
        N1             5.00    14.00700     N ( 1.00)
        H1             1.00     1.00800     H ( 1.00)

     No symmetry found



   Cartesian axes

     site n.     atom                  positions (alat units)
         1           La1 tau(   1) = (   1.8670818   1.0779602  10.0000000  )
         2           La1 tau(   2) = (   5.6012453   1.0779602  10.0000000  )
         3           La1 tau(   3) = (   3.7341635   4.3118406  10.0000000  )
         4           La1 tau(   4) = (   7.4683270   4.3118406  10.0000000  )
         5           La1 tau(   5) = (   7.4683270   2.1559203  13.0489317  )
         6           La1 tau(   6) = (   3.7341635   2.1559203  13.0489317  )
         7           La1 tau(   7) = (   9.3354088   5.3898008  13.0489317  )
         8           La1 tau(   8) = (   5.6012453   5.3898008  13.0489317  )
         9           La1 tau(   9) = (   0.0000000   0.0000000  16.0978635  )
        10           La1 tau(  10) = (   3.7341635   0.0000000  16.0978635  )
        11           La1 tau(  11) = (   1.8670818   3.2338805  16.0978635  )
        12           La1 tau(  12) = (   5.6012453   3.2338805  16.0978635  )
        13           N1  tau(  13) = (   0.0000000   0.0000000  18.4608635  )
        14           H1  tau(  14) = (   0.0000000   0.0000000  19.5108635  )

     number of k points=    20  Fermi-Dirac smearing, width (Ry)=  0.0110
                       cart. coord. in units 2pi/alat
        k(    1) = (   0.0000000   0.0000000   0.0000000), wk =   0.0555556
        k(    2) = (   0.0000000   0.0257688   0.0000000), wk =   0.1111111
        k(    3) = (   0.0000000   0.0515377   0.0000000), wk =   0.1111111
        k(    4) = (   0.0000000  -0.0773065   0.0000000), wk =   0.0555556
        k(    5) = (   0.0223165  -0.0128844   0.0000000), wk =   0.1111111
        k(    6) = (   0.0223165   0.0128844   0.0000000), wk =   0.1111111
        k(    7) = (   0.0223165   0.0386533   0.0000000), wk =   0.1111111
        k(    8) = (   0.0223165  -0.0901909   0.0000000), wk =   0.1111111
        k(    9) = (   0.0223165  -0.0644221   0.0000000), wk =   0.1111111
        k(   10) = (   0.0223165  -0.0386533   0.0000000), wk =   0.1111111
        k(   11) = (   0.0446329  -0.0257688   0.0000000), wk =   0.1111111
        k(   12) = (   0.0446329   0.0000000   0.0000000), wk =   0.1111111
        k(   13) = (   0.0446329   0.0257688   0.0000000), wk =   0.1111111
        k(   14) = (   0.0446329  -0.1030753   0.0000000), wk =   0.1111111
        k(   15) = (   0.0446329  -0.0773065   0.0000000), wk =   0.1111111
        k(   16) = (   0.0446329  -0.0515377   0.0000000), wk =   0.1111111
        k(   17) = (  -0.0669494   0.0386533   0.0000000), wk =   0.0555556
        k(   18) = (  -0.0669494   0.0644221   0.0000000), wk =   0.1111111
        k(   19) = (  -0.0669494   0.0901909   0.0000000), wk =   0.1111111
        k(   20) = (  -0.0669494  -0.0386533   0.0000000), wk =   0.0555556

     Dense  grid:  1011733 G-vectors     FFT dimensions: (  90,  90, 320)

     Smooth grid:   255863 G-vectors     FFT dimensions: (  60,  60, 192)

     Largest allocated arrays     est. size (Mb)     dimensions
        Kohn-Sham Wavefunctions         2.49 Mb     (    2068,   79)
        NL pseudopotentials            12.43 Mb     (    2068,  394)
        Each V/rho on FFT grid          2.47 Mb     (  162000)
        Each G-vector array             0.48 Mb     (   63235)
        G-vector shells                 0.18 Mb     (   23142)
     Largest temporary arrays     est. size (Mb)     dimensions
        Auxiliary wavefunctions         9.97 Mb     (    2068,  316)
        Each subspace H/S matrix        1.52 Mb     (     316,  316)
        Each <psi_i|beta_j> matrix      0.47 Mb     (     394,   79)
        Arrays for rho mixing          24.72 Mb     (  162000,   10)

     Initial potential from superposition of free atoms
     Check: negative starting charge=   -0.830930

     starting charge  137.61516, renormalised to  138.00000

     negative rho (up, down):  8.333E-01 0.000E+00


     ************************************************************************
     *
     * You are using vdW-DF for exchange-correlation in this calculation.
     * Please cite the following three references that made this development
     * possible:
     *
     *   M. Dion, H. Rydberg, E. Schroder, D. C. Langreth, and
     *   B. I. Lundqvist, Phys. Rev. Lett. 92, 246401 (2004).
     *
     *   T. Thonhauser, V. R. Cooper, S. Li, A. Puzder, P. Hyldgaard, and
     *   D. C. Langreth, Phys. Rev. B 76, 125112 (2007).
     *
     *   G. Roman-Perez and J. M. Soler, Phys. Rev. Lett. 103, 096102 (2009).
     *
     *
     * If you are using vdW-DF2, please also cite:
     *
     *   K. Lee, E. D. Murray, L. Kong, B. I. Lundqvist, and
     *   D. C. Langreth, Phys. Rev. B 82, 081101(R) (2010).
     *
     *
     * If you are calculating the stress with vdW-DF, please also cite:
     *
     *   R. Sabatini, E. Kucukbenli, B. Kolb, T. Thonhauser, and
     *   S. de Gironcoli, J. Phys.: Condens. Matter 24, 424209 (2012).
     *
     ************************************************************************

     Carrying out vdW-DF run using the following parameters:

     Nqs =      20    Nr_points =    1024   r_max =   100.000
     q_mesh =
               0.00001000     0.04494208     0.09755937     0.15916263
               0.23128650     0.31572767     0.41458969     0.53033537
               0.66584808     0.82450364     1.01025438     1.22772762
               1.48234092     1.78043706     2.12944203     2.53805004
               3.01644009     3.57652955     4.23227104     5.00000000

     Gradients computed in reciprocal space

     ************************************************************************


 
     Adding external electric field

     Computed dipole along edir(3) : 
        Dipole               -0.1769 Ry au,         -0.4498 Debye
        Dipole field         -0.0003 Ry au
 
        Potential amp.        0.0251 Ry
        Total length         48.0849 bohr
 
     Starting wfc are  245 randomized atomic wfcs

     total cpu time spent up to now is       29.4 secs

     Self-consistent Calculation

     iteration #  1     ecut=    36.75 Ry     beta=0.30
     Davidson diagonalization with overlap
     ethr =  1.00E-02,  avg # of iterations =  2.0

     negative rho (up, down):  7.202E-01 0.000E+00
 
     Adding external electric field

     Computed dipole along edir(3) : 
        Dipole               -3.5444 Ry au,         -9.0089 Debye
        Dipole field         -0.0052 Ry au
 
        Potential amp.        0.5035 Ry
        Total length         48.0849 bohr
 

     total cpu time spent up to now is       60.1 secs

     total energy              =   -1267.06390882 Ry
     Harris-Foulkes estimate   =   -1270.60344499 Ry
     estimated scf accuracy    <       7.53377375 Ry

     iteration #  2     ecut=    36.75 Ry     beta=0.30
     Davidson diagonalization with overlap
     ethr =  5.46E-03,  avg # of iterations = 10.1

     negative rho (up, down):  6.634E-01 0.000E+00
 
     Adding external electric field

     Computed dipole along edir(3) : 
        Dipole                2.6094 Ry au,          6.6325 Debye
        Dipole field          0.0039 Ry au
 
        Potential amp.       -0.3707 Ry
        Total length         48.0849 bohr
 

     total cpu time spent up to now is      111.6 secs

     total energy              =   -1259.93359215 Ry
     Harris-Foulkes estimate   =   -1277.32722435 Ry
     estimated scf accuracy    <     404.56552303 Ry

     iteration #  3     ecut=    36.75 Ry     beta=0.30
     Davidson diagonalization with overlap
     ethr =  5.46E-03,  avg # of iterations = 13.0

     negative rho (up, down):  5.194E-01 0.000E+00
 
     Adding external electric field

     Computed dipole along edir(3) : 
        Dipole                0.1729 Ry au,          0.4395 Debye
        Dipole field          0.0003 Ry au
 
        Potential amp.       -0.0246 Ry
        Total length         48.0849 bohr
 

     total cpu time spent up to now is      168.1 secs

     total energy              =   -1264.96913432 Ry
     Harris-Foulkes estimate   =   -1278.37771653 Ry
     estimated scf accuracy    <     353.26484171 Ry

     iteration #  4     ecut=    36.75 Ry     beta=0.30
     Davidson diagonalization with overlap
     ethr =  5.46E-03,  avg # of iterations =  9.7

     negative rho (up, down):  5.257E-01 0.000E+00
 
     Adding external electric field

     Computed dipole along edir(3) : 
        Dipole               -0.3746 Ry au,         -0.9522 Debye
        Dipole field         -0.0006 Ry au
 
        Potential amp.        0.0532 Ry
        Total length         48.0849 bohr
 

     total cpu time spent up to now is      216.1 secs

     total energy              =   -1268.93938435 Ry
     Harris-Foulkes estimate   =   -1269.96220239 Ry
     estimated scf accuracy    <      25.66532996 Ry

     iteration #  5     ecut=    36.75 Ry     beta=0.30
     Davidson diagonalization with overlap
     ethr =  5.46E-03,  avg # of iterations =  6.2

     negative rho (up, down):  5.330E-01 0.000E+00
 
     Adding external electric field

     Computed dipole along edir(3) : 
        Dipole               -0.3287 Ry au,         -0.8355 Debye
        Dipole field         -0.0005 Ry au
 
        Potential amp.        0.0467 Ry
        Total length         48.0849 bohr
 

     total cpu time spent up to now is      252.0 secs

     total energy              =   -1269.61174522 Ry
     Harris-Foulkes estimate   =   -1269.71937416 Ry
     estimated scf accuracy    <       0.70947397 Ry

     iteration #  6     ecut=    36.75 Ry     beta=0.30
     Davidson diagonalization with overlap
     ethr =  5.14E-04,  avg # of iterations =  9.7

     negative rho (up, down):  5.355E-01 0.000E+00
 
     Adding external electric field

     Computed dipole along edir(3) : 
        Dipole               -0.4255 Ry au,         -1.0815 Debye
        Dipole field         -0.0006 Ry au
 
        Potential amp.        0.0604 Ry
        Total length         48.0849 bohr
 

     total cpu time spent up to now is      297.3 secs

     total energy              =   -1269.70916340 Ry
     Harris-Foulkes estimate   =   -1269.76197465 Ry
     estimated scf accuracy    <       0.52386588 Ry

     iteration #  7     ecut=    36.75 Ry     beta=0.30
     Davidson diagonalization with overlap
     ethr =  3.80E-04,  avg # of iterations =  3.2

     negative rho (up, down):  5.277E-01 0.000E+00
 
     Adding external electric field

     Computed dipole along edir(3) : 
        Dipole               -0.3352 Ry au,         -0.8519 Debye
        Dipole field         -0.0005 Ry au
 
        Potential amp.        0.0476 Ry
        Total length         48.0849 bohr
 

     total cpu time spent up to now is      327.8 secs

     total energy              =   -1269.68442125 Ry
     Harris-Foulkes estimate   =   -1269.72967216 Ry
     estimated scf accuracy    <       0.19028639 Ry

     iteration #  8     ecut=    36.75 Ry     beta=0.30
     Davidson diagonalization with overlap
     ethr =  1.38E-04,  avg # of iterations =  7.9

     negative rho (up, down):  5.354E-01 0.000E+00
 
     Adding external electric field

     Computed dipole along edir(3) : 
        Dipole               -0.3655 Ry au,         -0.9291 Debye
        Dipole field         -0.0005 Ry au
 
        Potential amp.        0.0519 Ry
        Total length         48.0849 bohr
 

     total cpu time spent up to now is      366.1 secs

     total energy              =   -1269.69342854 Ry
     Harris-Foulkes estimate   =   -1269.71012538 Ry
     estimated scf accuracy    <       0.67069206 Ry

     iteration #  9     ecut=    36.75 Ry     beta=0.30
     Davidson diagonalization with overlap
     ethr =  1.38E-04,  avg # of iterations =  2.0

     negative rho (up, down):  5.596E-01 0.000E+00
 
     Adding external electric field

     Computed dipole along edir(3) : 
        Dipole               -0.3442 Ry au,         -0.8749 Debye
        Dipole field         -0.0005 Ry au
 
        Potential amp.        0.0489 Ry
        Total length         48.0849 bohr
 

     total cpu time spent up to now is      395.8 secs

     total energy              =   -1269.68452011 Ry
     Harris-Foulkes estimate   =   -1269.69887683 Ry
     estimated scf accuracy    <       0.27160955 Ry

     iteration # 10     ecut=    36.75 Ry     beta=0.30
     Davidson diagonalization with overlap
     ethr =  1.38E-04,  avg # of iterations =  4.9

     negative rho (up, down):  5.653E-01 0.000E+00
 
     Adding external electric field

     Computed dipole along edir(3) : 
        Dipole               -0.4182 Ry au,         -1.0630 Debye
        Dipole field         -0.0006 Ry au
 
        Potential amp.        0.0594 Ry
        Total length         48.0849 bohr
 

     total cpu time spent up to now is      429.4 secs

     total energy              =   -1269.68852730 Ry
     Harris-Foulkes estimate   =   -1269.69313870 Ry
     estimated scf accuracy    <       0.09616858 Ry

     iteration # 11     ecut=    36.75 Ry     beta=0.30
     Davidson diagonalization with overlap
     c_bands:  1 eigenvalues not converged
     ethr =  6.97E-05,  avg # of iterations =  4.3

     negative rho (up, down):  5.701E-01 0.000E+00
 
     Adding external electric field

     Computed dipole along edir(3) : 
        Dipole               -0.4192 Ry au,         -1.0656 Debye
        Dipole field         -0.0006 Ry au
 
        Potential amp.        0.0596 Ry
        Total length         48.0849 bohr
 

     total cpu time spent up to now is      461.1 secs

     total energy              =   -1269.68905168 Ry
     Harris-Foulkes estimate   =   -1269.69122925 Ry
     estimated scf accuracy    <       0.07677381 Ry

     iteration # 12     ecut=    36.75 Ry     beta=0.30
     Davidson diagonalization with overlap
     ethr =  5.56E-05,  avg # of iterations =  4.1

     negative rho (up, down):  5.819E-01 0.000E+00
 
     Adding external electric field

     Computed dipole along edir(3) : 
        Dipole               -0.4061 Ry au,         -1.0323 Debye
        Dipole field         -0.0006 Ry au
 
        Potential amp.        0.0577 Ry
        Total length         48.0849 bohr
 

     total cpu time spent up to now is      492.9 secs

     total energy              =   -1269.68667045 Ry
     Harris-Foulkes estimate   =   -1269.69019955 Ry
     estimated scf accuracy    <       0.05028236 Ry

     iteration # 13     ecut=    36.75 Ry     beta=0.30
     Davidson diagonalization with overlap
     c_bands:  2 eigenvalues not converged
     ethr =  3.64E-05,  avg # of iterations =  9.2

     negative rho (up, down):  5.881E-01 0.000E+00
 
     Adding external electric field

     Computed dipole along edir(3) : 
        Dipole               -0.4186 Ry au,         -1.0641 Debye
        Dipole field         -0.0006 Ry au
 
        Potential amp.        0.0595 Ry
        Total length         48.0849 bohr
 

     total cpu time spent up to now is      530.7 secs

     total energy              =   -1269.68841949 Ry
     Harris-Foulkes estimate   =   -1269.68891477 Ry
     estimated scf accuracy    <       0.00182815 Ry

     iteration # 14     ecut=    36.75 Ry     beta=0.30
     Davidson diagonalization with overlap
     c_bands:  2 eigenvalues not converged
     c_bands:  1 eigenvalues not converged
     c_bands:  2 eigenvalues not converged
     c_bands:  1 eigenvalues not converged
     c_bands:  1 eigenvalues not converged
     c_bands:  1 eigenvalues not converged
     c_bands:  1 eigenvalues not converged
     ethr =  1.32E-06,  avg # of iterations = 14.9

     negative rho (up, down):  5.848E-01 0.000E+00
 
     Adding external electric field

     Computed dipole along edir(3) : 
        Dipole               -0.4323 Ry au,         -1.0988 Debye
        Dipole field         -0.0006 Ry au
 
        Potential amp.        0.0614 Ry
        Total length         48.0849 bohr
 

     total cpu time spent up to now is      585.1 secs

     total energy              =   -1269.68995855 Ry
     Harris-Foulkes estimate   =   -1269.69025400 Ry
     estimated scf accuracy    <       0.00228047 Ry

     iteration # 15     ecut=    36.75 Ry     beta=0.30
     Davidson diagonalization with overlap
     c_bands:  1 eigenvalues not converged
     c_bands:  1 eigenvalues not converged
     ethr =  1.32E-06,  avg # of iterations =  6.2

     negative rho (up, down):  5.836E-01 0.000E+00
 
     Adding external electric field

     Computed dipole along edir(3) : 
        Dipole               -0.4255 Ry au,         -1.0816 Debye
        Dipole field         -0.0006 Ry au
 
        Potential amp.        0.0605 Ry
        Total length         48.0849 bohr
 

     total cpu time spent up to now is      619.3 secs

     total energy              =   -1269.69002927 Ry
     Harris-Foulkes estimate   =   -1269.69010788 Ry
     estimated scf accuracy    <       0.00046094 Ry

     iteration # 16     ecut=    36.75 Ry     beta=0.30
     Davidson diagonalization with overlap
     ethr =  3.34E-07,  avg # of iterations =  9.5

     negative rho (up, down):  5.850E-01 0.000E+00
 
     Adding external electric field

     Computed dipole along edir(3) : 
        Dipole               -0.4231 Ry au,         -1.0755 Debye
        Dipole field         -0.0006 Ry au
 
        Potential amp.        0.0601 Ry
        Total length         48.0849 bohr
 

     total cpu time spent up to now is      661.0 secs

     total energy              =   -1269.69007693 Ry
     Harris-Foulkes estimate   =   -1269.69010738 Ry
     estimated scf accuracy    <       0.00062321 Ry

     iteration # 17     ecut=    36.75 Ry     beta=0.30
     Davidson diagonalization with overlap
     ethr =  3.34E-07,  avg # of iterations =  1.9

     negative rho (up, down):  5.857E-01 0.000E+00
 
     Adding external electric field

     Computed dipole along edir(3) : 
        Dipole               -0.4248 Ry au,         -1.0796 Debye
        Dipole field         -0.0006 Ry au
 
        Potential amp.        0.0603 Ry
        Total length         48.0849 bohr
 

     total cpu time spent up to now is      690.6 secs

     total energy              =   -1269.69008755 Ry
     Harris-Foulkes estimate   =   -1269.69009039 Ry
     estimated scf accuracy    <       0.00011631 Ry

     iteration # 18     ecut=    36.75 Ry     beta=0.30
     Davidson diagonalization with overlap
     ethr =  8.43E-08,  avg # of iterations =  8.8

     negative rho (up, down):  5.853E-01 0.000E+00
 
     Adding external electric field

     Computed dipole along edir(3) : 
        Dipole               -0.4256 Ry au,         -1.0819 Debye
        Dipole field         -0.0006 Ry au
 
        Potential amp.        0.0605 Ry
        Total length         48.0849 bohr
 

     total cpu time spent up to now is      732.3 secs

     total energy              =   -1269.69009423 Ry
     Harris-Foulkes estimate   =   -1269.69010642 Ry
     estimated scf accuracy    <       0.00005643 Ry

     iteration # 19     ecut=    36.75 Ry     beta=0.30
     Davidson diagonalization with overlap
     ethr =  4.09E-08,  avg # of iterations =  5.2

     negative rho (up, down):  5.854E-01 0.000E+00
 
     Adding external electric field

     Computed dipole along edir(3) : 
        Dipole               -0.4249 Ry au,         -1.0801 Debye
        Dipole field         -0.0006 Ry au
 
        Potential amp.        0.0604 Ry
        Total length         48.0849 bohr
 

     total cpu time spent up to now is      769.1 secs

     total energy              =   -1269.69010088 Ry
     Harris-Foulkes estimate   =   -1269.69010247 Ry
     estimated scf accuracy    <       0.00001576 Ry

     iteration # 20     ecut=    36.75 Ry     beta=0.30
     Davidson diagonalization with overlap
     ethr =  1.14E-08,  avg # of iterations =  9.3

     negative rho (up, down):  5.855E-01 0.000E+00

     negative rho (up, down):  5.855E-01 0.000E+00

     negative rho (up, down):  5.855E-01 0.000E+00

     negative rho (up, down):  5.855E-01 0.000E+00

     negative rho (up, down):  5.855E-01 0.000E+00

     negative rho (up, down):  5.855E-01 0.000E+00

     negative rho (up, down):  5.855E-01 0.000E+00

     negative rho (up, down):  5.855E-01 0.000E+00

     negative rho (up, down):  5.855E-01 0.000E+00

     negative rho (up, down):  5.855E-01 0.000E+00

     negative rho (up, down):  5.855E-01 0.000E+00

     negative rho (up, down):  5.855E-01 0.000E+00

     negative rho (up, down):  5.855E-01 0.000E+00

     negative rho (up, down):  5.855E-01 0.000E+00

     negative rho (up, down):  5.855E-01 0.000E+00

     negative rho (up, down):  5.855E-01 0.000E+00

     negative rho (up, down):  5.855E-01 0.000E+00

     negative rho (up, down):  5.855E-01 0.000E+00

     negative rho (up, down):  5.855E-01 0.000E+00

     negative rho (up, down):  5.855E-01 0.000E+00

     negative rho (up, down):  5.855E-01 0.000E+00

     negative rho (up, down):  5.855E-01 0.000E+00

     negative rho (up, down):  5.855E-01 0.000E+00

     negative rho (up, down):  5.855E-01 0.000E+00

     negative rho (up, down):  5.855E-01 0.000E+00

     negative rho (up, down):  5.855E-01 0.000E+00

     negative rho (up, down):  5.855E-01 0.000E+00

     negative rho (up, down):  5.855E-01 0.000E+00

     negative rho (up, down):  5.855E-01 0.000E+00

     negative rho (up, down):  5.855E-01 0.000E+00

     negative rho (up, down):  5.855E-01 0.000E+00

     negative rho (up, down):  5.855E-01 0.000E+00

     negative rho (up, down):  5.855E-01 0.000E+00

     negative rho (up, down):  5.855E-01 0.000E+00

     negative rho (up, down):  5.855E-01 0.000E+00
 
     Adding external electric field

     Computed dipole along edir(3) : 
        Dipole               -0.4233 Ry au,         -1.0760 Debye
        Dipole field         -0.0006 Ry au
 
        Potential amp.        0.0601 Ry
        Total length         48.0849 bohr
 

     total cpu time spent up to now is      843.6 secs

     End of self-consistent calculation

          k = 0.0000 0.0000 0.0000 ( 31997 PWs)   bands (ev):

   -31.8410 -31.7409 -31.7392 -31.7391 -31.6102 -31.6102 -31.6058 -31.2932
   -31.1754 -31.1754 -31.1461 -30.9723 -15.9072 -15.8358 -15.8357 -15.8004
   -15.7590 -15.7590 -15.7334 -15.6288 -15.6288 -15.5736 -15.4457 -15.3188
   -15.3187 -15.1428 -15.1268 -15.0933 -15.0933 -14.9990 -14.9990 -14.9978
   -14.9654 -14.9653 -14.8677 -14.7451 -14.7451 -14.7004 -14.7003 -14.6464
   -14.5839 -14.5817 -14.5817 -14.5726 -14.4496 -14.4496 -14.3317 -14.3317
   -11.5822  -2.5854  -1.1460  -0.4405  -0.0734  -0.0555  -0.0555  -0.0298
     0.2166   0.2167   0.2663   0.4574   0.4777   0.4777   0.5025   0.5026
     0.6186   0.7629   0.7629   1.3026   1.6720   1.6721   1.8127   2.1599
     2.3316   2.3316   2.3523   2.4511   2.7041   2.7943   2.7960

          k = 0.0000 0.0258 0.0000 ( 32061 PWs)   bands (ev):

   -31.8347 -31.7450 -31.7392 -31.7322 -31.6182 -31.6103 -31.6069 -31.2852
   -31.1818 -31.1754 -31.1482 -30.9729 -15.8647 -15.7989 -15.7864 -15.7575
   -15.7217 -15.7149 -15.7095 -15.6046 -15.6013 -15.5424 -15.4383 -15.3377
   -15.3259 -15.1550 -15.1510 -15.0803 -15.0780 -15.0433 -15.0420 -15.0223
   -14.9875 -14.9690 -14.8750 -14.8204 -14.7626 -14.7082 -14.6978 -14.6367
   -14.6245 -14.6127 -14.5718 -14.5670 -14.4884 -14.4595 -14.4030 -14.3465
   -11.5821  -2.5825  -0.9665  -0.2608   0.0395   0.0799   0.1020   0.1223
     0.2639   0.3496   0.3935   0.5130   0.5933   0.5950   0.6548   0.6855
     0.7276   0.8166   0.8256   1.3519   1.6612   1.6784   1.7998   2.1519
     2.2452   2.3140   2.3227   2.3707   2.4175   2.5831   2.6070

          k = 0.0000 0.0515 0.0000 ( 32002 PWs)   bands (ev):

   -31.8184 -31.7606 -31.7393 -31.7084 -31.6425 -31.6103 -31.6072 -31.2637
   -31.2018 -31.1754 -31.1508 -30.9739 -15.7763 -15.7062 -15.6778 -15.6623
   -15.6414 -15.6246 -15.5642 -15.5507 -15.5392 -15.4793 -15.4203 -15.3735
   -15.3494 -15.2431 -15.1917 -15.1700 -15.1551 -15.1148 -15.0404 -15.0338
   -15.0116 -14.9783 -14.9340 -14.8573 -14.8100 -14.7621 -14.7303 -14.6927
   -14.6711 -14.6230 -14.6012 -14.5629 -14.5441 -14.5395 -14.4680 -14.3857
   -11.5819  -2.5775  -0.4956   0.1584   0.2584   0.3206   0.3437   0.4413
     0.5382   0.6420   0.6472   0.7606   0.7934   0.8601   0.9794   1.0690
     1.0890   1.1608   1.2087   1.4354   1.6399   1.6442   1.7139   1.8682
     2.0184   2.0871   2.1701   2.2252   2.2403   2.3339   2.3704

          k = 0.0000-0.0773 0.0000 ( 31970 PWs)   bands (ev):

   -31.8050 -31.7736 -31.7393 -31.6770 -31.6743 -31.6104 -31.6073 -31.2405
   -31.2247 -31.1754 -31.1517 -30.9745 -15.7282 -15.6396 -15.6190 -15.6151
   -15.5852 -15.5557 -15.5049 -15.4777 -15.4461 -15.4075 -15.3938 -15.3865
   -15.3287 -15.3039 -15.3017 -15.2983 -15.2438 -15.2233 -15.1127 -14.9952
   -14.9725 -14.9332 -14.8738 -14.8725 -14.8302 -14.7909 -14.7842 -14.7703
   -14.7519 -14.6773 -14.6175 -14.5687 -14.5560 -14.5363 -14.4461 -14.4269
   -11.5817  -2.5754   0.0124   0.0639   0.3835   0.4669   0.5053   0.5912
     0.7862   0.7867   0.8546   0.9019   0.9332   1.0546   1.2609   1.3162
     1.4242   1.4395   1.4641   1.5185   1.7230   1.7454   1.8177   1.8190
     1.8589   1.9829   1.9848   2.0313   2.1113   2.2231   2.2283

          k = 0.0223-0.0129 0.0000 ( 32061 PWs)   bands (ev):

   -31.8347 -31.7451 -31.7392 -31.7322 -31.6182 -31.6102 -31.6069 -31.2852
   -31.1818 -31.1754 -31.1482 -30.9729 -15.8647 -15.7989 -15.7863 -15.7575
   -15.7217 -15.7149 -15.7095 -15.6046 -15.6013 -15.5424 -15.4383 -15.3378
   -15.3258 -15.1550 -15.1510 -15.0802 -15.0780 -15.0433 -15.0420 -15.0224
   -14.9875 -14.9689 -14.8750 -14.8204 -14.7626 -14.7082 -14.6978 -14.6367
   -14.6245 -14.6127 -14.5718 -14.5670 -14.4884 -14.4595 -14.4030 -14.3465
   -11.5821  -2.5825  -0.9665  -0.2608   0.0395   0.0799   0.1020   0.1223
     0.2639   0.3496   0.3935   0.5130   0.5933   0.5950   0.6548   0.6854
     0.7276   0.8166   0.8256   1.3519   1.6612   1.6784   1.7998   2.1519
     2.2452   2.3140   2.3227   2.3707   2.4176   2.5829   2.6066

          k = 0.0223 0.0129 0.0000 ( 32061 PWs)   bands (ev):

   -31.8347 -31.7451 -31.7391 -31.7322 -31.6182 -31.6102 -31.6069 -31.2852
   -31.1818 -31.1754 -31.1482 -30.9729 -15.8647 -15.7989 -15.7863 -15.7575
   -15.7217 -15.7149 -15.7095 -15.6045 -15.6013 -15.5424 -15.4383 -15.3378
   -15.3258 -15.1550 -15.1510 -15.0802 -15.0780 -15.0433 -15.0420 -15.0224
   -14.9875 -14.9689 -14.8750 -14.8203 -14.7626 -14.7081 -14.6978 -14.6367
   -14.6245 -14.6127 -14.5718 -14.5670 -14.4884 -14.4595 -14.4030 -14.3465
   -11.5821  -2.5825  -0.9665  -0.2608   0.0395   0.0799   0.1020   0.1223
     0.2639   0.3496   0.3935   0.5129   0.5933   0.5950   0.6548   0.6854
     0.7276   0.8166   0.8256   1.3519   1.6612   1.6784   1.7998   2.1519
     2.2452   2.3140   2.3228   2.3708   2.4176   2.5831   2.6069

          k = 0.0223 0.0387 0.0000 ( 32007 PWs)   bands (ev):

   -31.8232 -31.7558 -31.7394 -31.7160 -31.6271 -31.6243 -31.6008 -31.2705
   -31.1919 -31.1801 -31.1490 -30.9737 -15.7964 -15.7288 -15.7060 -15.6825
   -15.6778 -15.6340 -15.6272 -15.5648 -15.5611 -15.4944 -15.4253 -15.3650
   -15.3419 -15.2338 -15.1876 -15.1481 -15.0956 -15.0510 -15.0454 -15.0073
   -15.0003 -14.9933 -14.9743 -14.8584 -14.7998 -14.7518 -14.7035 -14.6955
   -14.6277 -14.6076 -14.5885 -14.5574 -14.5356 -14.5191 -14.4744 -14.3802
   -11.5819  -2.5787  -0.6368   0.0541   0.2527   0.2611   0.3340   0.4101
     0.4319   0.4537   0.6163   0.6447   0.7715   0.8111   0.8349   0.9263
     0.9515   1.0278   1.1167   1.4222   1.6368   1.6737   1.7332   1.9879
     2.0450   2.1225   2.1757   2.2590   2.2702   2.3925   2.5126

          k = 0.0223-0.0902 0.0000 ( 31991 PWs)   bands (ev):

   -31.8055 -31.7726 -31.7398 -31.6877 -31.6546 -31.6301 -31.5964 -31.2456
   -31.2131 -31.1859 -31.1477 -30.9745 -15.7069 -15.6366 -15.6226 -15.6004
   -15.5845 -15.5371 -15.5169 -15.4981 -15.4522 -15.4417 -15.4109 -15.3947
   -15.3799 -15.3394 -15.3253 -15.2285 -15.1973 -15.1521 -15.0680 -15.0165
   -14.9855 -14.9695 -14.9274 -14.8810 -14.8641 -14.8138 -14.7590 -14.7205
   -14.6999 -14.6432 -14.6134 -14.5763 -14.5489 -14.5395 -14.4873 -14.4366
   -11.5817  -2.5754  -0.1004   0.3352   0.4254   0.4571   0.5791   0.6269
     0.7216   0.7675   0.8040   0.9405   1.0218   1.0751   1.1634   1.2263
     1.3008   1.3478   1.5021   1.5445   1.6059   1.6339   1.6961   1.8302
     1.8572   1.9247   1.9495   2.0298   2.1101   2.2050   2.2381

          k = 0.0223-0.0644 0.0000 ( 31991 PWs)   bands (ev):

   -31.8055 -31.7726 -31.7398 -31.6877 -31.6546 -31.6301 -31.5964 -31.2456
   -31.2131 -31.1859 -31.1477 -30.9745 -15.7069 -15.6366 -15.6226 -15.6004
   -15.5845 -15.5371 -15.5169 -15.4981 -15.4522 -15.4417 -15.4109 -15.3947
   -15.3799 -15.3394 -15.3253 -15.2286 -15.1973 -15.1521 -15.0680 -15.0165
   -14.9855 -14.9695 -14.9274 -14.8810 -14.8641 -14.8137 -14.7589 -14.7205
   -14.6999 -14.6432 -14.6134 -14.5763 -14.5489 -14.5395 -14.4873 -14.4366
   -11.5817  -2.5754  -0.1004   0.3352   0.4254   0.4571   0.5791   0.6269
     0.7216   0.7675   0.8040   0.9405   1.0218   1.0751   1.1633   1.2263
     1.3008   1.3478   1.5021   1.5445   1.6059   1.6339   1.6961   1.8302
     1.8572   1.9247   1.9495   2.0298   2.1101   2.2050   2.2381

          k = 0.0223-0.0387 0.0000 ( 32007 PWs)   bands (ev):

   -31.8232 -31.7557 -31.7395 -31.7160 -31.6271 -31.6244 -31.6008 -31.2705
   -31.1920 -31.1800 -31.1490 -30.9737 -15.7965 -15.7288 -15.7060 -15.6824
   -15.6778 -15.6340 -15.6271 -15.5649 -15.5611 -15.4944 -15.4253 -15.3650
   -15.3419 -15.2338 -15.1876 -15.1481 -15.0956 -15.0510 -15.0454 -15.0073
   -15.0003 -14.9933 -14.9743 -14.8584 -14.7998 -14.7518 -14.7035 -14.6954
   -14.6277 -14.6076 -14.5884 -14.5574 -14.5356 -14.5191 -14.4744 -14.3801
   -11.5819  -2.5787  -0.6368   0.0541   0.2527   0.2611   0.3340   0.4101
     0.4320   0.4537   0.6163   0.6447   0.7715   0.8111   0.8349   0.9263
     0.9515   1.0278   1.1167   1.4222   1.6368   1.6737   1.7332   1.9879
     2.0450   2.1225   2.1757   2.2590   2.2702   2.3925   2.5136

          k = 0.0446-0.0258 0.0000 ( 32002 PWs)   bands (ev):

   -31.8184 -31.7606 -31.7392 -31.7084 -31.6425 -31.6103 -31.6072 -31.2637
   -31.2018 -31.1754 -31.1508 -30.9739 -15.7763 -15.7063 -15.6778 -15.6623
   -15.6414 -15.6246 -15.5642 -15.5507 -15.5392 -15.4792 -15.4203 -15.3736
   -15.3494 -15.2431 -15.1917 -15.1700 -15.1551 -15.1148 -15.0404 -15.0338
   -15.0116 -14.9783 -14.9340 -14.8573 -14.8100 -14.7621 -14.7303 -14.6928
   -14.6711 -14.6230 -14.6012 -14.5629 -14.5441 -14.5395 -14.4680 -14.3858
   -11.5819  -2.5775  -0.4956   0.1584   0.2584   0.3206   0.3437   0.4413
     0.5382   0.6420   0.6472   0.7607   0.7934   0.8601   0.9794   1.0690
     1.0890   1.1608   1.2087   1.4354   1.6399   1.6441   1.7139   1.8682
     2.0184   2.0871   2.1701   2.2252   2.2403   2.3339   2.3704

          k = 0.0446 0.0000 0.0000 ( 32007 PWs)   bands (ev):

   -31.8232 -31.7558 -31.7394 -31.7160 -31.6271 -31.6243 -31.6008 -31.2705
   -31.1919 -31.1801 -31.1490 -30.9737 -15.7964 -15.7288 -15.7060 -15.6825
   -15.6778 -15.6339 -15.6272 -15.5648 -15.5611 -15.4944 -15.4253 -15.3650
   -15.3419 -15.2338 -15.1876 -15.1481 -15.0956 -15.0510 -15.0454 -15.0073
   -15.0003 -14.9933 -14.9743 -14.8584 -14.7998 -14.7518 -14.7035 -14.6955
   -14.6277 -14.6076 -14.5885 -14.5574 -14.5356 -14.5191 -14.4744 -14.3802
   -11.5819  -2.5787  -0.6368   0.0541   0.2527   0.2611   0.3340   0.4101
     0.4320   0.4537   0.6163   0.6447   0.7715   0.8110   0.8349   0.9263
     0.9515   1.0278   1.1167   1.4222   1.6368   1.6737   1.7332   1.9879
     2.0450   2.1225   2.1757   2.2590   2.2702   2.3925   2.5120

          k = 0.0446 0.0258 0.0000 ( 32002 PWs)   bands (ev):

   -31.8184 -31.7607 -31.7392 -31.7084 -31.6425 -31.6103 -31.6073 -31.2637
   -31.2018 -31.1755 -31.1508 -30.9739 -15.7762 -15.7063 -15.6777 -15.6623
   -15.6414 -15.6247 -15.5642 -15.5506 -15.5392 -15.4793 -15.4203 -15.3736
   -15.3494 -15.2431 -15.1917 -15.1700 -15.1551 -15.1148 -15.0404 -15.0337
   -15.0116 -14.9782 -14.9340 -14.8573 -14.8100 -14.7620 -14.7304 -14.6927
   -14.6712 -14.6230 -14.6012 -14.5629 -14.5441 -14.5394 -14.4680 -14.3858
   -11.5819  -2.5775  -0.4956   0.1584   0.2584   0.3206   0.3436   0.4413
     0.5382   0.6420   0.6472   0.7607   0.7934   0.8601   0.9794   1.0690
     1.0890   1.1608   1.2087   1.4354   1.6399   1.6441   1.7139   1.8682
     2.0184   2.0871   2.1701   2.2252   2.2403   2.3339   2.3704

          k = 0.0446-0.1031 0.0000 ( 31991 PWs)   bands (ev):

   -31.8055 -31.7727 -31.7398 -31.6877 -31.6546 -31.6301 -31.5964 -31.2457
   -31.2130 -31.1860 -31.1476 -30.9745 -15.7068 -15.6366 -15.6226 -15.6004
   -15.5845 -15.5372 -15.5169 -15.4981 -15.4522 -15.4417 -15.4109 -15.3947
   -15.3799 -15.3393 -15.3253 -15.2286 -15.1973 -15.1521 -15.0680 -15.0164
   -14.9854 -14.9695 -14.9274 -14.8810 -14.8641 -14.8138 -14.7590 -14.7205
   -14.6999 -14.6432 -14.6134 -14.5763 -14.5489 -14.5396 -14.4873 -14.4366
   -11.5817  -2.5754  -0.1004   0.3352   0.4254   0.4571   0.5790   0.6269
     0.7216   0.7675   0.8040   0.9405   1.0218   1.0751   1.1633   1.2263
     1.3008   1.3478   1.5021   1.5445   1.6059   1.6339   1.6961   1.8302
     1.8572   1.9247   1.9495   2.0298   2.1101   2.2050   2.2381

          k = 0.0446-0.0773 0.0000 ( 31986 PWs)   bands (ev):

   -31.7887 -31.7887 -31.7404 -31.6605 -31.6604 -31.6563 -31.5919 -31.2270
   -31.2216 -31.1992 -31.1448 -30.9748 -15.6050 -15.5989 -15.5772 -15.5670
   -15.5492 -15.5192 -15.5046 -15.4529 -15.4511 -15.4406 -15.4263 -15.3640
   -15.3625 -15.3619 -15.3544 -15.3194 -15.3118 -15.1572 -15.0555 -14.9842
   -14.9812 -14.9765 -14.9426 -14.9003 -14.8749 -14.8695 -14.7790 -14.7296
   -14.7199 -14.6225 -14.5884 -14.5747 -14.5509 -14.5180 -14.5163 -14.5130
   -11.5817  -2.5744   0.4073   0.4124   0.4458   0.5049   0.5336   0.8618
     0.8742   0.9173   0.9748   1.0278   1.2328   1.3121   1.3144   1.3213
     1.3627   1.3668   1.3953   1.5337   1.5590   1.5717   1.6686   1.7029
     1.7259   1.8985   1.9082   1.9188   1.9795   2.0388   2.0495

          k = 0.0446-0.0515 0.0000 ( 31991 PWs)   bands (ev):

   -31.8055 -31.7726 -31.7398 -31.6877 -31.6546 -31.6301 -31.5964 -31.2456
   -31.2131 -31.1859 -31.1477 -30.9745 -15.7069 -15.6366 -15.6226 -15.6004
   -15.5845 -15.5371 -15.5169 -15.4981 -15.4522 -15.4417 -15.4109 -15.3947
   -15.3799 -15.3393 -15.3253 -15.2286 -15.1973 -15.1521 -15.0680 -15.0165
   -14.9855 -14.9695 -14.9274 -14.8810 -14.8641 -14.8137 -14.7589 -14.7205
   -14.6999 -14.6432 -14.6134 -14.5763 -14.5489 -14.5395 -14.4873 -14.4366
   -11.5817  -2.5754  -0.1004   0.3352   0.4254   0.4571   0.5790   0.6269
     0.7216   0.7675   0.8040   0.9405   1.0218   1.0751   1.1633   1.2263
     1.3008   1.3478   1.5021   1.5445   1.6059   1.6339   1.6961   1.8302
     1.8572   1.9247   1.9495   2.0298   2.1101   2.2050   2.2381

          k =-0.0669 0.0387 0.0000 ( 31970 PWs)   bands (ev):

   -31.8050 -31.7736 -31.7393 -31.6770 -31.6743 -31.6103 -31.6073 -31.2405
   -31.2247 -31.1754 -31.1517 -30.9745 -15.7282 -15.6396 -15.6190 -15.6151
   -15.5852 -15.5557 -15.5049 -15.4777 -15.4461 -15.4075 -15.3938 -15.3865
   -15.3287 -15.3039 -15.3017 -15.2983 -15.2438 -15.2233 -15.1127 -14.9952
   -14.9725 -14.9332 -14.8738 -14.8725 -14.8302 -14.7909 -14.7842 -14.7703
   -14.7519 -14.6773 -14.6175 -14.5687 -14.5560 -14.5363 -14.4461 -14.4269
   -11.5817  -2.5754   0.0124   0.0639   0.3835   0.4669   0.5053   0.5912
     0.7862   0.7867   0.8546   0.9019   0.9332   1.0546   1.2609   1.3162
     1.4242   1.4395   1.4641   1.5185   1.7230   1.7454   1.8177   1.8190
     1.8589   1.9829   1.9848   2.0313   2.1113   2.2231   2.2283

          k =-0.0669 0.0644 0.0000 ( 31991 PWs)   bands (ev):

   -31.8055 -31.7726 -31.7398 -31.6877 -31.6546 -31.6301 -31.5964 -31.2456
   -31.2131 -31.1859 -31.1477 -30.9745 -15.7069 -15.6366 -15.6226 -15.6004
   -15.5845 -15.5371 -15.5169 -15.4981 -15.4522 -15.4417 -15.4109 -15.3947
   -15.3799 -15.3394 -15.3253 -15.2285 -15.1973 -15.1521 -15.0680 -15.0165
   -14.9855 -14.9695 -14.9274 -14.8810 -14.8641 -14.8138 -14.7590 -14.7205
   -14.6999 -14.6432 -14.6134 -14.5763 -14.5489 -14.5395 -14.4873 -14.4366
   -11.5817  -2.5754  -0.1004   0.3352   0.4254   0.4571   0.5790   0.6269
     0.7216   0.7675   0.8040   0.9405   1.0218   1.0751   1.1634   1.2263
     1.3008   1.3478   1.5021   1.5445   1.6059   1.6339   1.6961   1.8302
     1.8572   1.9247   1.9495   2.0298   2.1101   2.2050   2.2381

          k =-0.0669 0.0902 0.0000 ( 31991 PWs)   bands (ev):

   -31.8055 -31.7727 -31.7398 -31.6877 -31.6546 -31.6301 -31.5964 -31.2456
   -31.2130 -31.1860 -31.1476 -30.9745 -15.7068 -15.6366 -15.6226 -15.6004
   -15.5845 -15.5372 -15.5169 -15.4981 -15.4522 -15.4417 -15.4109 -15.3947
   -15.3799 -15.3393 -15.3253 -15.2286 -15.1973 -15.1521 -15.0680 -15.0164
   -14.9854 -14.9695 -14.9274 -14.8810 -14.8641 -14.8138 -14.7590 -14.7205
   -14.6999 -14.6432 -14.6134 -14.5763 -14.5489 -14.5396 -14.4873 -14.4366
   -11.5817  -2.5754  -0.1004   0.3352   0.4254   0.4571   0.5790   0.6269
     0.7216   0.7675   0.8040   0.9405   1.0218   1.0751   1.1633   1.2263
     1.3008   1.3478   1.5021   1.5445   1.6059   1.6339   1.6961   1.8302
     1.8572   1.9247   1.9495   2.0298   2.1101   2.2050   2.2381

          k =-0.0669-0.0387 0.0000 ( 31970 PWs)   bands (ev):

   -31.8050 -31.7737 -31.7392 -31.6769 -31.6743 -31.6103 -31.6073 -31.2405
   -31.2247 -31.1755 -31.1517 -30.9745 -15.7281 -15.6397 -15.6189 -15.6151
   -15.5853 -15.5557 -15.5048 -15.4778 -15.4461 -15.4075 -15.3938 -15.3865
   -15.3288 -15.3039 -15.3017 -15.2983 -15.2439 -15.2233 -15.1127 -14.9952
   -14.9725 -14.9332 -14.8738 -14.8725 -14.8302 -14.7909 -14.7842 -14.7703
   -14.7518 -14.6773 -14.6175 -14.5687 -14.5559 -14.5364 -14.4461 -14.4269
   -11.5817  -2.5754   0.0124   0.0639   0.3835   0.4669   0.5053   0.5912
     0.7862   0.7866   0.8546   0.9019   0.9332   1.0546   1.2609   1.3162
     1.4242   1.4394   1.4641   1.5185   1.7230   1.7454   1.8177   1.8190
     1.8589   1.9829   1.9848   2.0313   2.1113   2.2231   2.2283

     the Fermi energy is     1.6192 ev

!    total energy              =   -1269.69009617 Ry
     Harris-Foulkes estimate   =   -1269.69010509 Ry
     estimated scf accuracy    <       0.00000792 Ry

     The total energy is the sum of the following terms:

     one-electron contribution =   -4725.83782346 Ry
     hartree contribution      =    2376.14003194 Ry
     xc contribution           =    -614.72301047 Ry
     ewald contribution        =    1694.84989932 Ry
     electric field correction =       0.00026474 Ry
     smearing contrib. (-TS)   =      -0.11945825 Ry

     convergence has been achieved in  20 iterations
 
 BEEF-vdW xc energy contributions
           1 :   -544.499974600413     
           2 :    500.712856007126     
           3 :   -423.358881237063     
           4 :    328.995928411019     
           5 :   -235.121439129861     
           6 :    155.547906112856     
           7 :   -97.8360629853460     
           8 :    62.9998205184750     
           9 :   -46.9818249250765     
          10 :    43.0369298672599     
          11 :   -44.1303720450755     
          12 :    44.6610468127799     
          13 :   -41.2640206900923     
          14 :    32.8578813721513     
          15 :   -20.2696769772415     
          16 :    5.67057728926261     
          17 :    8.09557575086114     
          18 :   -18.2849418235189     
          19 :    23.0434320756949     
          20 :   -22.0056366685478     
          21 :    16.4527062819459     
          22 :   -8.90256541447002     
          23 :    2.22950278610381     
          24 :    1.36052889360053     
          25 :   -1.08042673307864     
          26 :   -2.28101090676125     
          27 :    6.84763979143713     
          28 :   -10.5459983953104     
          29 :    11.9783879846441     
          30 :   -10.9051424740019     
          31 :   -46.4169534209273     
          32 :   -33.2840217927492     

     Forces acting on atoms (Ry/au):


     negative rho (up, down):  5.855E-01 0.000E+00
     atom    1 type  1   force =    -0.00043204   -0.00024580    0.00492662
     atom    2 type  1   force =     0.00042086   -0.00025528    0.00496363
     atom    3 type  1   force =    -0.00000984    0.00050311    0.00496552
     atom    4 type  1   force =     0.00000456   -0.00000235    0.00490029
     atom    5 type  1   force =    -0.00000930    0.00505767   -0.00711624
     atom    6 type  1   force =     0.00000347    0.00002117   -0.00177050
     atom    7 type  1   force =    -0.00436831   -0.00252774   -0.00713233
     atom    8 type  1   force =     0.00437465   -0.00254654   -0.00712634
     atom    9 type  1   force =    -0.00000262   -0.00000498    0.08880292
     atom   10 type  1   force =     0.00000655   -0.00117025    0.00720138
     atom   11 type  1   force =    -0.00100073    0.00058062    0.00720694
     atom   12 type  1   force =     0.00101372    0.00058940    0.00719685
     atom   13 type  2   force =    -0.00000145    0.00000034   -0.06980539
     atom   14 type  3   force =     0.00000048    0.00000062   -0.03721335

     Total force =     0.119596     Total SCF correction =     0.005882


     entering subroutine stress ...


     negative rho (up, down):  5.855E-01 0.000E+00
          total   stress  (Ry/bohr**3)                   (kbar)     P=   -4.46
  -0.00000702  -0.00000001   0.00000000         -1.03     -0.00      0.00
  -0.00000001  -0.00000702  -0.00000000         -0.00     -1.03     -0.00
   0.00000000  -0.00000000  -0.00007686          0.00     -0.00    -11.31


     BFGS Geometry Optimization

     number of scf cycles    =   1
     number of bfgs steps    =   0

     energy   new            =   -1269.6900961739 Ry

     new trust radius        =       0.0888029176 bohr
     new conv_thr            =       0.0000099958 Ry


ATOMIC_POSITIONS (crystal)
La1      0.166666667   0.166666667   0.383173129    0   0   0
La1      0.666666667   0.166666667   0.383173129    0   0   0
La1      0.166666667   0.666666667   0.383173129    0   0   0
La1      0.666666667   0.666666667   0.383173129    0   0   0
La1      0.833333333   0.333333333   0.500000000    0   0   0
La1      0.333333333   0.333333333   0.500000000    0   0   0
La1      0.833333333   0.833333333   0.500000000    0   0   0
La1      0.333333333   0.833333333   0.500000000    0   0   0
La1      0.000000018  -0.000000407   0.618627497
La1      0.500048338  -0.000095747   0.616972891
La1     -0.000094660   0.500047505   0.616973004
La1      0.500047717   0.500048223   0.616972799
N1      -0.000000117   0.000000028   0.705955262
H1       0.000000009   0.000000051   0.746849298



     Writing output data file calc.save
     Check: negative starting charge=   -0.830930
     NEW-OLD atomic charge density approx. for the potential
     Check: negative starting charge=   -0.831804

     negative rho (up, down):  5.861E-01 0.000E+00
 
     Adding external electric field

     Computed dipole along edir(3) : 
        Dipole               -0.4198 Ry au,         -1.0670 Debye
        Dipole field         -0.0006 Ry au
 
        Potential amp.        0.0596 Ry
        Total length         48.0849 bohr
 

     total cpu time spent up to now is      933.2 secs

     Self-consistent Calculation

     iteration #  1     ecut=    36.75 Ry     beta=0.30
     Davidson diagonalization with overlap
     c_bands:  1 eigenvalues not converged
     ethr =  1.00E-06,  avg # of iterations = 13.8

     negative rho (up, down):  5.854E-01 0.000E+00
 
     Adding external electric field

     Computed dipole along edir(3) : 
        Dipole               -0.5640 Ry au,         -1.4335 Debye
        Dipole field         -0.0008 Ry au
 
        Potential amp.        0.0801 Ry
        Total length         48.0849 bohr
 

     total cpu time spent up to now is      994.9 secs

     total energy              =   -1269.69822278 Ry
     Harris-Foulkes estimate   =   -1269.70405838 Ry
     estimated scf accuracy    <       0.01286101 Ry

     iteration #  2     ecut=    36.75 Ry     beta=0.30
     Davidson diagonalization with overlap
     ethr =  9.32E-06,  avg # of iterations = 12.3

     negative rho (up, down):  5.851E-01 0.000E+00
 
     Adding external electric field

     Computed dipole along edir(3) : 
        Dipole               -0.2684 Ry au,         -0.6821 Debye
        Dipole field         -0.0004 Ry au
 
        Potential amp.        0.0381 Ry
        Total length         48.0849 bohr
 

     total cpu time spent up to now is     1047.2 secs

     total energy              =   -1269.67983554 Ry
     Harris-Foulkes estimate   =   -1269.72101876 Ry
     estimated scf accuracy    <       0.90014180 Ry

     iteration #  3     ecut=    36.75 Ry     beta=0.30
     Davidson diagonalization with overlap
     ethr =  9.32E-06,  avg # of iterations = 12.6

     negative rho (up, down):  5.847E-01 0.000E+00
 
     Adding external electric field

     Computed dipole along edir(3) : 
        Dipole               -0.3948 Ry au,         -1.0034 Debye
        Dipole field         -0.0006 Ry au
 
        Potential amp.        0.0561 Ry
        Total length         48.0849 bohr
 

     total cpu time spent up to now is     1099.6 secs

     total energy              =   -1269.69185600 Ry
     Harris-Foulkes estimate   =   -1269.71331582 Ry
     estimated scf accuracy    <       0.71383145 Ry

     iteration #  4     ecut=    36.75 Ry     beta=0.30
     Davidson diagonalization with overlap
     ethr =  9.32E-06,  avg # of iterations = 11.6

     negative rho (up, down):  5.846E-01 0.000E+00
 
     Adding external electric field

     Computed dipole along edir(3) : 
        Dipole               -0.3746 Ry au,         -0.9521 Debye
        Dipole field         -0.0006 Ry au
 
        Potential amp.        0.0532 Ry
        Total length         48.0849 bohr
 

     total cpu time spent up to now is     1147.8 secs

     total energy              =   -1269.70269281 Ry
     Harris-Foulkes estimate   =   -1269.70291414 Ry
     estimated scf accuracy    <       0.00147730 Ry

     iteration #  5     ecut=    36.75 Ry     beta=0.30
     Davidson diagonalization with overlap
     ethr =  1.07E-06,  avg # of iterations =  5.9

     negative rho (up, down):  5.846E-01 0.000E+00
 
     Adding external electric field

     Computed dipole along edir(3) : 
        Dipole               -0.3856 Ry au,         -0.9802 Debye
        Dipole field         -0.0006 Ry au
 
        Potential amp.        0.0548 Ry
        Total length         48.0849 bohr
 

     total cpu time spent up to now is     1185.2 secs

     total energy              =   -1269.70280417 Ry
     Harris-Foulkes estimate   =   -1269.70284537 Ry
     estimated scf accuracy    <       0.00022238 Ry

     iteration #  6     ecut=    36.75 Ry     beta=0.30
     Davidson diagonalization with overlap
     c_bands:  1 eigenvalues not converged
     ethr =  1.61E-07,  avg # of iterations =  8.4

     negative rho (up, down):  5.846E-01 0.000E+00
 
     Adding external electric field

     Computed dipole along edir(3) : 
        Dipole               -0.3834 Ry au,         -0.9746 Debye
        Dipole field         -0.0006 Ry au
 
        Potential amp.        0.0545 Ry
        Total length         48.0849 bohr
 

     total cpu time spent up to now is     1225.1 secs

     total energy              =   -1269.70283748 Ry
     Harris-Foulkes estimate   =   -1269.70285475 Ry
     estimated scf accuracy    <       0.00008412 Ry

     iteration #  7     ecut=    36.75 Ry     beta=0.30
     Davidson diagonalization with overlap
     ethr =  6.10E-08,  avg # of iterations =  6.8

     negative rho (up, down):  5.846E-01 0.000E+00
 
     Adding external electric field

     Computed dipole along edir(3) : 
        Dipole               -0.3838 Ry au,         -0.9756 Debye
        Dipole field         -0.0006 Ry au
 
        Potential amp.        0.0545 Ry
        Total length         48.0849 bohr
 

     total cpu time spent up to now is     1262.6 secs

     total energy              =   -1269.70284746 Ry
     Harris-Foulkes estimate   =   -1269.70284935 Ry
     estimated scf accuracy    <       0.00002329 Ry

     iteration #  8     ecut=    36.75 Ry     beta=0.30
     Davidson diagonalization with overlap
     ethr =  1.69E-08,  avg # of iterations =  6.0

     negative rho (up, down):  5.846E-01 0.000E+00

     negative rho (up, down):  5.846E-01 0.000E+00

     negative rho (up, down):  5.846E-01 0.000E+00

     negative rho (up, down):  5.846E-01 0.000E+00

     negative rho (up, down):  5.846E-01 0.000E+00

     negative rho (up, down):  5.846E-01 0.000E+00

     negative rho (up, down):  5.846E-01 0.000E+00

     negative rho (up, down):  5.846E-01 0.000E+00

     negative rho (up, down):  5.846E-01 0.000E+00

     negative rho (up, down):  5.846E-01 0.000E+00

     negative rho (up, down):  5.846E-01 0.000E+00

     negative rho (up, down):  5.846E-01 0.000E+00

     negative rho (up, down):  5.846E-01 0.000E+00

     negative rho (up, down):  5.846E-01 0.000E+00

     negative rho (up, down):  5.846E-01 0.000E+00

     negative rho (up, down):  5.846E-01 0.000E+00

     negative rho (up, down):  5.846E-01 0.000E+00

     negative rho (up, down):  5.846E-01 0.000E+00

     negative rho (up, down):  5.846E-01 0.000E+00

     negative rho (up, down):  5.846E-01 0.000E+00

     negative rho (up, down):  5.846E-01 0.000E+00

     negative rho (up, down):  5.846E-01 0.000E+00

     negative rho (up, down):  5.846E-01 0.000E+00

     negative rho (up, down):  5.846E-01 0.000E+00

     negative rho (up, down):  5.846E-01 0.000E+00

     negative rho (up, down):  5.846E-01 0.000E+00

     negative rho (up, down):  5.846E-01 0.000E+00

     negative rho (up, down):  5.846E-01 0.000E+00

     negative rho (up, down):  5.846E-01 0.000E+00

     negative rho (up, down):  5.846E-01 0.000E+00

     negative rho (up, down):  5.846E-01 0.000E+00

     negative rho (up, down):  5.846E-01 0.000E+00

     negative rho (up, down):  5.846E-01 0.000E+00

     negative rho (up, down):  5.846E-01 0.000E+00

     negative rho (up, down):  5.846E-01 0.000E+00
 
     Adding external electric field

     Computed dipole along edir(3) : 
        Dipole               -0.3886 Ry au,         -0.9877 Debye
        Dipole field         -0.0006 Ry au
 
        Potential amp.        0.0552 Ry
        Total length         48.0849 bohr
 

     total cpu time spent up to now is     1333.9 secs

     End of self-consistent calculation

          k = 0.0000 0.0000 0.0000 ( 31997 PWs)   bands (ev):

   -31.8136 -31.7123 -31.7122 -31.7093 -31.5792 -31.5792 -31.5727 -31.2674
   -31.1518 -31.1518 -31.1139 -30.8439 -15.8766 -15.8012 -15.8012 -15.7693
   -15.7228 -15.7228 -15.7041 -15.5998 -15.5998 -15.5409 -15.4172 -15.2912
   -15.2911 -15.1105 -15.1013 -15.0650 -15.0650 -14.9667 -14.9665 -14.9665
   -14.9319 -14.9318 -14.8652 -14.7133 -14.7133 -14.6715 -14.6715 -14.6145
   -14.5955 -14.5489 -14.5489 -14.5481 -14.3641 -14.3641 -14.2993 -14.2993
   -11.4016  -2.5863  -1.1163  -0.4119  -0.0389  -0.0309  -0.0309   0.0046
     0.2277   0.2277   0.2972   0.4913   0.4927   0.4928   0.5190   0.5190
     0.6594   0.7503   0.7503   1.3298   1.7001   1.7001   1.8440   2.1868
     2.3596   2.3596   2.3683   2.4774   2.7343   2.8226   2.8226

          k = 0.0000 0.0258 0.0000 ( 32061 PWs)   bands (ev):

   -31.8073 -31.7182 -31.7122 -31.7006 -31.5869 -31.5793 -31.5741 -31.2595
   -31.1580 -31.1518 -31.1160 -30.8444 -15.8340 -15.7645 -15.7524 -15.7258
   -15.6855 -15.6855 -15.6754 -15.5755 -15.5724 -15.5099 -15.4097 -15.3096
   -15.2980 -15.1292 -15.1190 -15.0520 -15.0495 -15.0121 -15.0097 -14.9903
   -14.9548 -14.9366 -14.8671 -14.7943 -14.7308 -14.6728 -14.6677 -14.6050
   -14.6006 -14.5866 -14.5743 -14.5354 -14.4107 -14.3767 -14.3653 -14.3127
   -11.4015  -2.5836  -0.9366  -0.2322   0.0635   0.0928   0.1320   0.1565
     0.2819   0.3553   0.4159   0.5213   0.5935   0.6115   0.6891   0.7191
     0.7624   0.8183   0.8289   1.3792   1.6900   1.7080   1.8311   2.1795
     2.2707   2.3427   2.3536   2.4005   2.4471   2.6140   2.6387

          k = 0.0000 0.0515 0.0000 ( 32002 PWs)   bands (ev):

   -31.7912 -31.7337 -31.7123 -31.6769 -31.6109 -31.5793 -31.5747 -31.2382
   -31.1770 -31.1519 -31.1191 -30.8456 -15.7457 -15.6722 -15.6467 -15.6328
   -15.6094 -15.5878 -15.5349 -15.5218 -15.5089 -15.4471 -15.3908 -15.3442
   -15.3209 -15.2158 -15.1603 -15.1394 -15.1242 -15.0833 -15.0089 -15.0057
   -14.9836 -14.9475 -14.9023 -14.8510 -14.7781 -14.7076 -14.7010 -14.6639
   -14.6431 -14.5916 -14.5786 -14.5657 -14.5020 -14.4662 -14.4019 -14.3460
   -11.4012  -2.5791  -0.4653   0.1802   0.2779   0.3064   0.3561   0.4410
     0.5591   0.6426   0.6533   0.7926   0.8182   0.8794   1.0020   1.1030
     1.1278   1.1923   1.2419   1.4641   1.6719   1.6767   1.7442   1.9042
     2.0451   2.1151   2.2031   2.2559   2.2762   2.3630   2.4072

          k = 0.0000-0.0773 0.0000 ( 31970 PWs)   bands (ev):

   -31.7780 -31.7467 -31.7123 -31.6460 -31.6421 -31.5794 -31.5748 -31.2158
   -31.1988 -31.1519 -31.1203 -30.8461 -15.6989 -15.6059 -15.5881 -15.5852
   -15.5571 -15.5186 -15.4745 -15.4486 -15.4151 -15.3770 -15.3656 -15.3584
   -15.2986 -15.2740 -15.2716 -15.2669 -15.2119 -15.1926 -15.0822 -14.9669
   -14.9436 -14.9066 -14.8421 -14.8406 -14.8035 -14.7642 -14.7640 -14.7298
   -14.7050 -14.6459 -14.5856 -14.5704 -14.4995 -14.4769 -14.4162 -14.3689
   -11.4011  -2.5771   0.0423   0.0954   0.3743   0.3917   0.5374   0.5651
     0.8178   0.8234   0.8874   0.9269   0.9606   1.0774   1.2928   1.3490
     1.4605   1.4750   1.4944   1.5607   1.7579   1.7773   1.8471   1.8493
     1.8886   2.0152   2.0152   2.0701   2.1414   2.2551   2.2562

          k = 0.0223-0.0129 0.0000 ( 32061 PWs)   bands (ev):

   -31.8073 -31.7182 -31.7123 -31.7006 -31.5869 -31.5793 -31.5741 -31.2595
   -31.1580 -31.1518 -31.1160 -30.8444 -15.8340 -15.7645 -15.7524 -15.7258
   -15.6855 -15.6854 -15.6754 -15.5755 -15.5724 -15.5099 -15.4097 -15.3096
   -15.2980 -15.1292 -15.1190 -15.0520 -15.0495 -15.0121 -15.0097 -14.9902
   -14.9548 -14.9366 -14.8671 -14.7943 -14.7308 -14.6728 -14.6676 -14.6050
   -14.6006 -14.5865 -14.5743 -14.5354 -14.4107 -14.3767 -14.3653 -14.3127
   -11.4015  -2.5836  -0.9366  -0.2322   0.0635   0.0928   0.1320   0.1565
     0.2819   0.3553   0.4159   0.5213   0.5935   0.6115   0.6891   0.7191
     0.7624   0.8183   0.8289   1.3792   1.6900   1.7080   1.8311   2.1795
     2.2707   2.3427   2.3535   2.4005   2.4471   2.6141   2.6387

          k = 0.0223 0.0129 0.0000 ( 32061 PWs)   bands (ev):

   -31.8073 -31.7181 -31.7123 -31.7006 -31.5869 -31.5792 -31.5741 -31.2595
   -31.1580 -31.1518 -31.1160 -30.8444 -15.8341 -15.7645 -15.7524 -15.7258
   -15.6855 -15.6854 -15.6754 -15.5755 -15.5724 -15.5099 -15.4097 -15.3096
   -15.2980 -15.1292 -15.1190 -15.0520 -15.0495 -15.0121 -15.0097 -14.9902
   -14.9548 -14.9367 -14.8671 -14.7943 -14.7308 -14.6728 -14.6676 -14.6050
   -14.6006 -14.5865 -14.5743 -14.5354 -14.4107 -14.3767 -14.3653 -14.3127
   -11.4015  -2.5836  -0.9366  -0.2322   0.0635   0.0928   0.1320   0.1565
     0.2819   0.3553   0.4159   0.5213   0.5935   0.6115   0.6891   0.7191
     0.7624   0.8182   0.8289   1.3792   1.6900   1.7080   1.8311   2.1795
     2.2707   2.3427   2.3535   2.4005   2.4471   2.6141   2.6387

          k = 0.0223 0.0387 0.0000 ( 32007 PWs)   bands (ev):

   -31.7960 -31.7288 -31.7125 -31.6844 -31.5961 -31.5921 -31.5689 -31.2449
   -31.1680 -31.1555 -31.1177 -30.8453 -15.7652 -15.6965 -15.6725 -15.6498
   -15.6474 -15.6020 -15.5926 -15.5358 -15.5325 -15.4621 -15.3962 -15.3361
   -15.3135 -15.2055 -15.1559 -15.1169 -15.0666 -15.0229 -15.0171 -14.9748
   -14.9690 -14.9615 -14.9432 -14.8529 -14.7685 -14.7125 -14.6700 -14.6621
   -14.5964 -14.5898 -14.5559 -14.5513 -14.5075 -14.4430 -14.3958 -14.3451
   -11.4013  -2.5801  -0.6066   0.0803   0.2472   0.2630   0.3559   0.4308
     0.4636   0.4857   0.6063   0.6227   0.8036   0.8454   0.8649   0.9445
     0.9745   1.0649   1.1491   1.4505   1.6667   1.7052   1.7646   2.0257
     2.0714   2.1526   2.2052   2.2916   2.3028   2.4248   2.5449

          k = 0.0223-0.0902 0.0000 ( 31991 PWs)   bands (ev):

   -31.7784 -31.7457 -31.7128 -31.6562 -31.6230 -31.5984 -31.5646 -31.2205
   -31.1882 -31.1606 -31.1175 -30.8461 -15.6765 -15.6047 -15.5930 -15.5689
   -15.5537 -15.5059 -15.4881 -15.4666 -15.4210 -15.4105 -15.3794 -15.3654
   -15.3497 -15.3096 -15.2945 -15.1989 -15.1655 -15.1215 -15.0374 -14.9855
   -14.9574 -14.9397 -14.8977 -14.8547 -14.8345 -14.7986 -14.7111 -14.6833
   -14.6667 -14.6152 -14.5837 -14.5680 -14.5112 -14.4788 -14.4345 -14.3894
   -11.4011  -2.5771  -0.0699   0.3514   0.3890   0.4132   0.5981   0.6339
     0.7439   0.8013   0.8251   0.9671   1.0543   1.1085   1.1940   1.2637
     1.3316   1.3831   1.5354   1.5792   1.6365   1.6713   1.7272   1.8600
     1.8851   1.9577   1.9842   2.0639   2.1412   2.2343   2.2683

          k = 0.0223-0.0644 0.0000 ( 31991 PWs)   bands (ev):

   -31.7784 -31.7457 -31.7128 -31.6562 -31.6230 -31.5984 -31.5646 -31.2205
   -31.1882 -31.1606 -31.1175 -30.8461 -15.6765 -15.6047 -15.5930 -15.5689
   -15.5537 -15.5059 -15.4880 -15.4666 -15.4210 -15.4105 -15.3794 -15.3655
   -15.3497 -15.3096 -15.2945 -15.1989 -15.1655 -15.1215 -15.0374 -14.9855
   -14.9574 -14.9398 -14.8977 -14.8547 -14.8344 -14.7987 -14.7111 -14.6833
   -14.6667 -14.6152 -14.5837 -14.5680 -14.5112 -14.4788 -14.4345 -14.3894
   -11.4011  -2.5771  -0.0699   0.3514   0.3890   0.4132   0.5981   0.6339
     0.7439   0.8013   0.8251   0.9671   1.0543   1.1085   1.1940   1.2637
     1.3316   1.3831   1.5354   1.5792   1.6365   1.6713   1.7272   1.8600
     1.8850   1.9577   1.9842   2.0639   2.1412   2.2343   2.2683

          k = 0.0223-0.0387 0.0000 ( 32007 PWs)   bands (ev):

   -31.7960 -31.7289 -31.7124 -31.6844 -31.5961 -31.5922 -31.5689 -31.2449
   -31.1680 -31.1555 -31.1177 -30.8453 -15.7652 -15.6965 -15.6724 -15.6498
   -15.6475 -15.6020 -15.5926 -15.5357 -15.5325 -15.4621 -15.3962 -15.3361
   -15.3135 -15.2055 -15.1559 -15.1169 -15.0666 -15.0229 -15.0171 -14.9748
   -14.9690 -14.9615 -14.9432 -14.8529 -14.7685 -14.7125 -14.6700 -14.6621
   -14.5964 -14.5898 -14.5559 -14.5513 -14.5075 -14.4430 -14.3958 -14.3451
   -11.4013  -2.5801  -0.6066   0.0803   0.2472   0.2630   0.3559   0.4308
     0.4636   0.4857   0.6063   0.6227   0.8036   0.8454   0.8649   0.9445
     0.9745   1.0649   1.1491   1.4505   1.6667   1.7052   1.7646   2.0257
     2.0714   2.1526   2.2052   2.2916   2.3028   2.4247   2.5451

          k = 0.0446-0.0258 0.0000 ( 32002 PWs)   bands (ev):

   -31.7912 -31.7337 -31.7123 -31.6769 -31.6109 -31.5793 -31.5747 -31.2382
   -31.1771 -31.1519 -31.1192 -30.8456 -15.7458 -15.6722 -15.6467 -15.6328
   -15.6095 -15.5878 -15.5349 -15.5218 -15.5089 -15.4471 -15.3908 -15.3442
   -15.3209 -15.2158 -15.1603 -15.1394 -15.1242 -15.0834 -15.0089 -15.0057
   -14.9836 -14.9475 -14.9023 -14.8510 -14.7781 -14.7076 -14.7010 -14.6639
   -14.6431 -14.5916 -14.5786 -14.5657 -14.5020 -14.4662 -14.4019 -14.3460
   -11.4012  -2.5791  -0.4653   0.1802   0.2779   0.3065   0.3561   0.4410
     0.5591   0.6426   0.6533   0.7927   0.8182   0.8794   1.0020   1.1030
     1.1278   1.1923   1.2419   1.4641   1.6719   1.6767   1.7442   1.9042
     2.0451   2.1151   2.2031   2.2559   2.2762   2.3630   2.4072

          k = 0.0446 0.0000 0.0000 ( 32007 PWs)   bands (ev):

   -31.7960 -31.7288 -31.7125 -31.6844 -31.5961 -31.5921 -31.5689 -31.2449
   -31.1680 -31.1554 -31.1177 -30.8453 -15.7652 -15.6965 -15.6725 -15.6498
   -15.6474 -15.6020 -15.5926 -15.5358 -15.5325 -15.4621 -15.3961 -15.3361
   -15.3135 -15.2054 -15.1559 -15.1169 -15.0666 -15.0229 -15.0171 -14.9748
   -14.9690 -14.9615 -14.9432 -14.8529 -14.7685 -14.7125 -14.6700 -14.6621
   -14.5964 -14.5898 -14.5559 -14.5513 -14.5075 -14.4430 -14.3957 -14.3451
   -11.4013  -2.5801  -0.6066   0.0803   0.2472   0.2630   0.3559   0.4308
     0.4636   0.4857   0.6063   0.6227   0.8036   0.8454   0.8649   0.9445
     0.9745   1.0649   1.1491   1.4505   1.6667   1.7052   1.7646   2.0257
     2.0714   2.1526   2.2052   2.2916   2.3028   2.4247   2.5448

          k = 0.0446 0.0258 0.0000 ( 32002 PWs)   bands (ev):

   -31.7912 -31.7336 -31.7124 -31.6769 -31.6109 -31.5793 -31.5747 -31.2382
   -31.1771 -31.1518 -31.1192 -30.8456 -15.7458 -15.6722 -15.6466 -15.6328
   -15.6095 -15.5878 -15.5349 -15.5218 -15.5088 -15.4471 -15.3908 -15.3442
   -15.3209 -15.2158 -15.1603 -15.1393 -15.1242 -15.0834 -15.0089 -15.0057
   -14.9836 -14.9476 -14.9023 -14.8510 -14.7781 -14.7077 -14.7010 -14.6640
   -14.6431 -14.5916 -14.5786 -14.5657 -14.5020 -14.4662 -14.4019 -14.3459
   -11.4012  -2.5791  -0.4653   0.1802   0.2779   0.3065   0.3561   0.4410
     0.5591   0.6426   0.6532   0.7927   0.8182   0.8794   1.0020   1.1030
     1.1279   1.1923   1.2419   1.4641   1.6719   1.6767   1.7442   1.9042
     2.0451   2.1151   2.2031   2.2559   2.2762   2.3630   2.4072

          k = 0.0446-0.1031 0.0000 ( 31991 PWs)   bands (ev):

   -31.7785 -31.7456 -31.7129 -31.6562 -31.6231 -31.5984 -31.5646 -31.2205
   -31.1883 -31.1605 -31.1175 -30.8461 -15.6766 -15.6047 -15.5931 -15.5688
   -15.5537 -15.5059 -15.4881 -15.4665 -15.4210 -15.4105 -15.3794 -15.3654
   -15.3497 -15.3096 -15.2945 -15.1989 -15.1655 -15.1215 -15.0375 -14.9856
   -14.9574 -14.9397 -14.8977 -14.8547 -14.8344 -14.7986 -14.7111 -14.6833
   -14.6667 -14.6152 -14.5837 -14.5680 -14.5112 -14.4788 -14.4345 -14.3894
   -11.4011  -2.5771  -0.0699   0.3514   0.3890   0.4132   0.5981   0.6339
     0.7439   0.8013   0.8251   0.9671   1.0543   1.1085   1.1940   1.2637
     1.3316   1.3831   1.5354   1.5792   1.6365   1.6713   1.7272   1.8600
     1.8850   1.9577   1.9842   2.0639   2.1412   2.2343   2.2683

          k = 0.0446-0.0773 0.0000 ( 31986 PWs)   bands (ev):

   -31.7619 -31.7616 -31.7133 -31.6295 -31.6294 -31.6234 -31.5601 -31.2019
   -31.1980 -31.1718 -31.1153 -30.8464 -15.5739 -15.5706 -15.5460 -15.5399
   -15.5183 -15.4891 -15.4736 -15.4239 -15.4215 -15.4089 -15.3966 -15.3325
   -15.3312 -15.3300 -15.3230 -15.2848 -15.2794 -15.1268 -15.0256 -14.9538
   -14.9507 -14.9465 -14.9131 -14.8751 -14.8459 -14.8376 -14.7711 -14.6840
   -14.6714 -14.5899 -14.5766 -14.5433 -14.5112 -14.4999 -14.4506 -14.4493
   -11.4011  -2.5761   0.4200   0.4343   0.4530   0.4557   0.4788   0.8910
     0.9014   0.9508   1.0061   1.0592   1.2695   1.3441   1.3464   1.3576
     1.3987   1.4023   1.4330   1.5658   1.5929   1.6155   1.6941   1.7303
     1.7446   1.9318   1.9422   1.9485   2.0119   2.0723   2.0901

          k = 0.0446-0.0515 0.0000 ( 31991 PWs)   bands (ev):

   -31.7784 -31.7457 -31.7128 -31.6562 -31.6230 -31.5984 -31.5646 -31.2205
   -31.1882 -31.1605 -31.1175 -30.8461 -15.6765 -15.6047 -15.5930 -15.5688
   -15.5537 -15.5059 -15.4881 -15.4666 -15.4210 -15.4105 -15.3794 -15.3655
   -15.3497 -15.3096 -15.2945 -15.1989 -15.1655 -15.1215 -15.0375 -14.9855
   -14.9574 -14.9398 -14.8977 -14.8547 -14.8344 -14.7987 -14.7111 -14.6833
   -14.6667 -14.6152 -14.5837 -14.5680 -14.5112 -14.4788 -14.4345 -14.3894
   -11.4011  -2.5771  -0.0699   0.3514   0.3890   0.4132   0.5981   0.6339
     0.7439   0.8013   0.8251   0.9671   1.0543   1.1085   1.1940   1.2637
     1.3316   1.3831   1.5354   1.5792   1.6365   1.6713   1.7272   1.8600
     1.8850   1.9577   1.9842   2.0639   2.1412   2.2343   2.2683

          k =-0.0669 0.0387 0.0000 ( 31970 PWs)   bands (ev):

   -31.7780 -31.7466 -31.7123 -31.6460 -31.6421 -31.5793 -31.5748 -31.2158
   -31.1988 -31.1519 -31.1203 -30.8461 -15.6989 -15.6059 -15.5880 -15.5853
   -15.5570 -15.5186 -15.4745 -15.4486 -15.4151 -15.3770 -15.3656 -15.3584
   -15.2986 -15.2740 -15.2716 -15.2669 -15.2119 -15.1926 -15.0822 -14.9669
   -14.9436 -14.9066 -14.8421 -14.8406 -14.8035 -14.7642 -14.7639 -14.7298
   -14.7051 -14.6458 -14.5856 -14.5704 -14.4995 -14.4769 -14.4163 -14.3689
   -11.4011  -2.5771   0.0423   0.0954   0.3742   0.3917   0.5374   0.5651
     0.8178   0.8234   0.8874   0.9269   0.9606   1.0774   1.2928   1.3490
     1.4605   1.4750   1.4944   1.5607   1.7579   1.7773   1.8471   1.8493
     1.8886   2.0152   2.0152   2.0701   2.1414   2.2551   2.2562

          k =-0.0669 0.0644 0.0000 ( 31991 PWs)   bands (ev):

   -31.7785 -31.7456 -31.7128 -31.6562 -31.6230 -31.5984 -31.5646 -31.2205
   -31.1882 -31.1605 -31.1175 -30.8461 -15.6765 -15.6047 -15.5931 -15.5689
   -15.5537 -15.5059 -15.4881 -15.4665 -15.4210 -15.4105 -15.3793 -15.3654
   -15.3497 -15.3096 -15.2945 -15.1989 -15.1655 -15.1215 -15.0374 -14.9855
   -14.9574 -14.9397 -14.8977 -14.8547 -14.8344 -14.7986 -14.7111 -14.6833
   -14.6667 -14.6152 -14.5837 -14.5680 -14.5112 -14.4788 -14.4345 -14.3894
   -11.4011  -2.5771  -0.0699   0.3514   0.3890   0.4132   0.5981   0.6339
     0.7439   0.8013   0.8251   0.9671   1.0543   1.1085   1.1940   1.2637
     1.3316   1.3831   1.5354   1.5792   1.6365   1.6713   1.7272   1.8600
     1.8851   1.9577   1.9842   2.0639   2.1412   2.2343   2.2683

          k =-0.0669 0.0902 0.0000 ( 31991 PWs)   bands (ev):

   -31.7785 -31.7456 -31.7129 -31.6562 -31.6231 -31.5984 -31.5646 -31.2205
   -31.1883 -31.1605 -31.1175 -30.8461 -15.6766 -15.6048 -15.5931 -15.5688
   -15.5537 -15.5059 -15.4881 -15.4665 -15.4210 -15.4105 -15.3794 -15.3654
   -15.3497 -15.3096 -15.2945 -15.1989 -15.1655 -15.1215 -15.0375 -14.9856
   -14.9574 -14.9397 -14.8977 -14.8547 -14.8344 -14.7986 -14.7111 -14.6833
   -14.6667 -14.6152 -14.5837 -14.5680 -14.5112 -14.4788 -14.4345 -14.3894
   -11.4011  -2.5771  -0.0699   0.3514   0.3890   0.4132   0.5981   0.6339
     0.7439   0.8013   0.8251   0.9671   1.0543   1.1085   1.1940   1.2637
     1.3316   1.3831   1.5354   1.5792   1.6365   1.6713   1.7272   1.8600
     1.8850   1.9577   1.9842   2.0639   2.1412   2.2343   2.2683

          k =-0.0669-0.0387 0.0000 ( 31970 PWs)   bands (ev):

   -31.7781 -31.7464 -31.7124 -31.6459 -31.6421 -31.5793 -31.5748 -31.2158
   -31.1989 -31.1518 -31.1203 -30.8461 -15.6990 -15.6059 -15.5880 -15.5853
   -15.5570 -15.5186 -15.4745 -15.4486 -15.4151 -15.3770 -15.3656 -15.3585
   -15.2985 -15.2741 -15.2716 -15.2669 -15.2119 -15.1926 -15.0822 -14.9670
   -14.9437 -14.9066 -14.8421 -14.8406 -14.8035 -14.7642 -14.7639 -14.7298
   -14.7051 -14.6458 -14.5856 -14.5704 -14.4995 -14.4769 -14.4163 -14.3688
   -11.4011  -2.5771   0.0423   0.0954   0.3742   0.3917   0.5374   0.5651
     0.8178   0.8234   0.8874   0.9269   0.9607   1.0774   1.2928   1.3490
     1.4605   1.4750   1.4944   1.5607   1.7579   1.7773   1.8471   1.8493
     1.8886   2.0152   2.0152   2.0701   2.1414   2.2551   2.2562

     the Fermi energy is     1.6511 ev

!    total energy              =   -1269.70284934 Ry
     Harris-Foulkes estimate   =   -1269.70284506 Ry
     estimated scf accuracy    <       0.00000586 Ry

     The total energy is the sum of the following terms:

     one-electron contribution =   -4721.70700228 Ry
     hartree contribution      =    2374.16388627 Ry
     xc contribution           =    -614.74149107 Ry
     ewald contribution        =    1692.70102076 Ry
     electric field correction =       0.00022304 Ry
     smearing contrib. (-TS)   =      -0.11948607 Ry

     convergence has been achieved in   8 iterations
 
 BEEF-vdW xc energy contributions
           1 :   -544.519889744995     
           2 :    500.738735337465     
           3 :   -423.391375279315     
           4 :    329.030211530719     
           5 :   -235.150401345474     
           6 :    155.564457709291     
           7 :   -97.8336309473067     
           8 :    62.9738162626910     
           9 :   -46.9328621924233     
          10 :    42.9733713357655     
          11 :   -44.0672401682535     
          12 :    44.6148616851615     
          13 :   -41.2452386233583     
          14 :    32.8650081616595     
          15 :   -20.2898818959020     
          16 :    5.68642587626960     
          17 :    8.09753608576398     
          18 :   -18.3080803172263     
          19 :    23.0809217331347     
          20 :   -22.0457808201766     
          21 :    16.4863265408571     
          22 :   -8.92770914155426     
          23 :    2.25046816874465     
          24 :    1.33840386449378     
          25 :   -1.05594072088707     
          26 :   -2.30376977104424     
          27 :    6.86255795966042     
          28 :   -10.5502365753455     
          29 :    11.9759845950880     
          30 :   -10.9057005634401     
          31 :   -46.4181244381039     
          32 :   -33.2862495849272     

     Forces acting on atoms (Ry/au):


     negative rho (up, down):  5.846E-01 0.000E+00
     atom    1 type  1   force =    -0.00043166   -0.00025202    0.00454439
     atom    2 type  1   force =     0.00042959   -0.00025599    0.00453779
     atom    3 type  1   force =    -0.00000599    0.00049822    0.00453389
     atom    4 type  1   force =     0.00000306    0.00000183    0.00466570
     atom    5 type  1   force =     0.00001702    0.00472281   -0.00595520
     atom    6 type  1   force =    -0.00001667   -0.00001852   -0.00143987
     atom    7 type  1   force =    -0.00409510   -0.00235574   -0.00593414
     atom    8 type  1   force =     0.00410173   -0.00234398   -0.00594937
     atom    9 type  1   force =    -0.00000189    0.00000158    0.07225069
     atom   10 type  1   force =     0.00000098   -0.00080958    0.00655896
     atom   11 type  1   force =    -0.00069990    0.00040744    0.00657269
     atom   12 type  1   force =     0.00070139    0.00040423    0.00658998
     atom   13 type  2   force =    -0.00000150    0.00000015   -0.03095346
     atom   14 type  3   force =    -0.00000107   -0.00000041   -0.06002205

     Total force =     0.099562     Total SCF correction =     0.002487


     entering subroutine stress ...


     negative rho (up, down):  5.846E-01 0.000E+00
          total   stress  (Ry/bohr**3)                   (kbar)     P=   -4.05
  -0.00000460   0.00000000   0.00000000         -0.68      0.00      0.00
   0.00000000  -0.00000460   0.00000000          0.00     -0.68      0.00
   0.00000000   0.00000000  -0.00007331          0.00      0.00    -10.78


     number of scf cycles    =   2
     number of bfgs steps    =   1

     energy   old            =   -1269.6900961739 Ry
     energy   new            =   -1269.7028493443 Ry

     CASE: energy  _new < energy  _old

     new trust radius        =       0.0976832094 bohr
     new conv_thr            =       0.0000001000 Ry


ATOMIC_POSITIONS (crystal)
La1      0.166666667   0.166666667   0.383173129    0   0   0
La1      0.666666667   0.166666667   0.383173129    0   0   0
La1      0.166666667   0.666666667   0.383173129    0   0   0
La1      0.666666667   0.666666667   0.383173129    0   0   0
La1      0.833333333   0.333333333   0.500000000    0   0   0
La1      0.333333333   0.333333333   0.500000000    0   0   0
La1      0.833333333   0.833333333   0.500000000    0   0   0
La1      0.333333333   0.833333333   0.500000000    0   0   0
La1     -0.000000148  -0.000000456   0.620608185
La1      0.500096184  -0.000190953   0.617145823
La1     -0.000189456   0.500095150   0.617146221
La1      0.500095294   0.500095924   0.617146240
N1      -0.000000260   0.000000050   0.704852812
H1      -0.000000039   0.000000042   0.745496095



     Writing output data file calc.save
     Check: negative starting charge=   -0.831804
     NEW-OLD atomic charge density approx. for the potential
     Check: negative starting charge=   -0.831495

     negative rho (up, down):  5.858E-01 0.000E+00
 
     Adding external electric field

     Computed dipole along edir(3) : 
        Dipole               -0.3846 Ry au,         -0.9776 Debye
        Dipole field         -0.0006 Ry au
 
        Potential amp.        0.0546 Ry
        Total length         48.0849 bohr
 

     total cpu time spent up to now is     1423.7 secs

     Self-consistent Calculation

     iteration #  1     ecut=    36.75 Ry     beta=0.30
     Davidson diagonalization with overlap
     c_bands:  1 eigenvalues not converged
     ethr =  1.00E-06,  avg # of iterations = 12.9

     negative rho (up, down):  5.849E-01 0.000E+00
 
     Adding external electric field

     Computed dipole along edir(3) : 
        Dipole               -0.3974 Ry au,         -1.0101 Debye
        Dipole field         -0.0006 Ry au
 
        Potential amp.        0.0565 Ry
        Total length         48.0849 bohr
 

     total cpu time spent up to now is     1483.5 secs

     total energy              =   -1269.71032324 Ry
     Harris-Foulkes estimate   =   -1269.71579608 Ry
     estimated scf accuracy    <       0.01201324 Ry

     iteration #  2     ecut=    36.75 Ry     beta=0.30
     Davidson diagonalization with overlap
     ethr =  8.71E-06,  avg # of iterations =  8.4

     negative rho (up, down):  5.844E-01 0.000E+00
 
     Adding external electric field

     Computed dipole along edir(3) : 
        Dipole               -0.4115 Ry au,         -1.0460 Debye
        Dipole field         -0.0006 Ry au
 
        Potential amp.        0.0585 Ry
        Total length         48.0849 bohr
 

     total cpu time spent up to now is     1527.9 secs

     total energy              =   -1269.70642477 Ry
     Harris-Foulkes estimate   =   -1269.72004024 Ry
     estimated scf accuracy    <       0.11093918 Ry

     iteration #  3     ecut=    36.75 Ry     beta=0.30
     Davidson diagonalization with overlap
     ethr =  8.71E-06,  avg # of iterations =  9.2

     negative rho (up, down):  5.843E-01 0.000E+00
 
     Adding external electric field

     Computed dipole along edir(3) : 
        Dipole               -0.2932 Ry au,         -0.7451 Debye
        Dipole field         -0.0004 Ry au
 
        Potential amp.        0.0416 Ry
        Total length         48.0849 bohr
 

     total cpu time spent up to now is     1573.5 secs

     total energy              =   -1269.71122792 Ry
     Harris-Foulkes estimate   =   -1269.71565058 Ry
     estimated scf accuracy    <       0.08642049 Ry

     iteration #  4     ecut=    36.75 Ry     beta=0.30
     Davidson diagonalization with overlap
     c_bands:  2 eigenvalues not converged
     c_bands:  1 eigenvalues not converged
     c_bands:  2 eigenvalues not converged
     ethr =  8.71E-06,  avg # of iterations = 11.1

[...]

          k = 0.0223-0.0129 0.0000 ( 32061 PWs)   bands (ev):

   -31.6422 -31.5557 -31.5499 -31.4596 -31.3454 -31.3378 -31.3324 -31.0579
   -30.9525 -30.9460 -30.9281 -30.3412 -15.6272 -15.5311 -15.5237 -15.4955
   -15.4748 -15.4704 -15.4594 -15.3623 -15.3392 -15.3356 -15.2146 -15.1196
   -15.1110 -15.0644 -14.9654 -14.8484 -14.8480 -14.8309 -14.8010 -14.7748
   -14.7691 -14.7520 -14.7081 -14.5669 -14.4921 -14.4876 -14.4830 -14.4392
   -14.4189 -14.3835 -14.3800 -14.3288 -14.1842 -14.1281 -13.9191 -13.8923
   -11.3798  -2.6756  -0.7090  -0.1207  -0.0890   0.0295   0.3811   0.4070
     0.4510   0.4877   0.6136   0.7183   0.7567   0.8451   0.9471   0.9699
     1.0126   1.0328   1.0330   1.5662   1.9269   1.9572   2.0629   2.3696
     2.4610   2.5425   2.5631   2.5940   2.6781   2.8561   2.8601

          k = 0.0223 0.0129 0.0000 ( 32061 PWs)   bands (ev):

   -31.6422 -31.5557 -31.5499 -31.4596 -31.3454 -31.3378 -31.3324 -31.0579
   -30.9525 -30.9460 -30.9281 -30.3412 -15.6272 -15.5311 -15.5237 -15.4955
   -15.4748 -15.4704 -15.4594 -15.3623 -15.3392 -15.3356 -15.2146 -15.1196
   -15.1110 -15.0644 -14.9654 -14.8484 -14.8480 -14.8309 -14.8010 -14.7748
   -14.7691 -14.7520 -14.7081 -14.5669 -14.4921 -14.4876 -14.4830 -14.4392
   -14.4189 -14.3835 -14.3800 -14.3288 -14.1841 -14.1281 -13.9191 -13.8923
   -11.3798  -2.6756  -0.7090  -0.1207  -0.0890   0.0295   0.3811   0.4070
     0.4510   0.4877   0.6136   0.7183   0.7567   0.8451   0.9471   0.9699
     1.0126   1.0328   1.0330   1.5662   1.9269   1.9572   2.0629   2.3696
     2.4610   2.5425   2.5631   2.5940   2.6781   2.8560   2.8601

          k = 0.0223 0.0387 0.0000 ( 32007 PWs)   bands (ev):

   -31.6314 -31.5662 -31.5501 -31.4433 -31.3547 -31.3506 -31.3272 -31.0428
   -30.9623 -30.9526 -30.9275 -30.3419 -15.5578 -15.4638 -15.4594 -15.4379
   -15.4213 -15.3847 -15.3742 -15.3175 -15.3033 -15.3024 -15.1995 -15.1292
   -15.1203 -15.0816 -15.0306 -14.9116 -14.8845 -14.8246 -14.8224 -14.8084
   -14.7761 -14.7311 -14.7301 -14.7044 -14.5300 -14.5186 -14.4849 -14.4641
   -14.4316 -14.4107 -14.3515 -14.3495 -14.3068 -14.1630 -13.9650 -13.9119
   -11.3794  -2.6713  -0.3849  -0.0541  -0.0479   0.3462   0.6029   0.6322
     0.6987   0.7300   0.7580   0.8058   1.0591   1.0902   1.1146   1.1722
     1.2102   1.3143   1.4004   1.6479   1.8903   1.9452   2.0148   2.2764
     2.2835   2.3681   2.4321   2.4991   2.5194   2.6658   2.7247

          k = 0.0223-0.0902 0.0000 ( 31991 PWs)   bands (ev):

   -31.6146 -31.5825 -31.5503 -31.4150 -31.3817 -31.3569 -31.3229 -31.0169
   -30.9847 -30.9592 -30.9249 -30.3425 -15.4752 -15.3802 -15.3750 -15.3547
   -15.3301 -15.3056 -15.2711 -15.2626 -15.2475 -15.1939 -15.1927 -15.1635
   -15.1258 -15.1225 -15.0850 -15.0582 -15.0146 -14.9238 -14.8316 -14.7976
   -14.7866 -14.7353 -14.7211 -14.6548 -14.6272 -14.6051 -14.5133 -14.4891
   -14.4695 -14.4260 -14.4084 -14.3907 -14.2948 -14.2230 -14.0062 -13.9355
   -11.3790  -2.6675  -0.0141  -0.0066   0.1643   0.6035   0.7965   0.8649
     0.9700   1.0229   1.0728   1.2103   1.3012   1.3476   1.4371   1.5097
     1.6032   1.6124   1.7738   1.8242   1.8664   1.9081   1.9927   2.0875
     2.1296   2.2021   2.2130   2.2959   2.3820   2.4729   2.5050

          k = 0.0223-0.0644 0.0000 ( 31991 PWs)   bands (ev):

   -31.6146 -31.5825 -31.5503 -31.4150 -31.3817 -31.3569 -31.3229 -31.0169
   -30.9847 -30.9592 -30.9249 -30.3425 -15.4752 -15.3802 -15.3750 -15.3547
   -15.3301 -15.3056 -15.2711 -15.2626 -15.2475 -15.1939 -15.1928 -15.1635
   -15.1258 -15.1225 -15.0850 -15.0582 -15.0146 -14.9238 -14.8316 -14.7976
   -14.7866 -14.7353 -14.7211 -14.6548 -14.6272 -14.6051 -14.5133 -14.4891
   -14.4695 -14.4260 -14.4084 -14.3907 -14.2948 -14.2230 -14.0062 -13.9355
   -11.3790  -2.6675  -0.0141  -0.0066   0.1643   0.6035   0.7965   0.8649
     0.9700   1.0229   1.0728   1.2103   1.3012   1.3476   1.4371   1.5097
     1.6032   1.6124   1.7738   1.8242   1.8664   1.9081   1.9927   2.0875
     2.1296   2.2021   2.2130   2.2959   2.3820   2.4729   2.5050

          k = 0.0223-0.0387 0.0000 ( 32007 PWs)   bands (ev):

   -31.6314 -31.5662 -31.5501 -31.4433 -31.3547 -31.3506 -31.3272 -31.0428
   -30.9623 -30.9526 -30.9275 -30.3419 -15.5578 -15.4638 -15.4594 -15.4379
   -15.4213 -15.3847 -15.3742 -15.3175 -15.3033 -15.3024 -15.1995 -15.1292
   -15.1203 -15.0816 -15.0306 -14.9116 -14.8845 -14.8246 -14.8224 -14.8084
   -14.7761 -14.7311 -14.7301 -14.7044 -14.5300 -14.5186 -14.4849 -14.4641
   -14.4316 -14.4107 -14.3515 -14.3495 -14.3068 -14.1630 -13.9650 -13.9119
   -11.3794  -2.6713  -0.3849  -0.0541  -0.0479   0.3462   0.6029   0.6322
     0.6987   0.7300   0.7580   0.8058   1.0591   1.0902   1.1146   1.1722
     1.2102   1.3143   1.4004   1.6479   1.8903   1.9452   2.0148   2.2764
     2.2835   2.3681   2.4321   2.4991   2.5194   2.6658   2.7247

          k = 0.0446-0.0258 0.0000 ( 32002 PWs)   bands (ev):

   -31.6268 -31.5707 -31.5500 -31.4357 -31.3695 -31.3378 -31.3330 -31.0358
   -30.9733 -30.9460 -30.9302 -30.3421 -15.5426 -15.4379 -15.4231 -15.4139
   -15.3969 -15.3761 -15.3224 -15.3014 -15.2915 -15.2796 -15.1935 -15.1356
   -15.1168 -15.0894 -15.0459 -14.9560 -14.8931 -14.8860 -14.8050 -14.7995
   -14.7750 -14.7717 -14.7615 -14.6640 -14.5386 -14.5119 -14.5044 -14.4642
   -14.4439 -14.4305 -14.4087 -14.3678 -14.2893 -14.1715 -13.9901 -13.9094
   -11.3793  -2.6700  -0.2482  -0.0355  -0.0289   0.4548   0.5821   0.6059
     0.7964   0.8344   0.8672   1.0491   1.0558   1.0964   1.2386   1.3622
     1.3757   1.4480   1.4846   1.6744   1.8890   1.9216   1.9857   2.1648
     2.2556   2.3325   2.4161   2.4894   2.5012   2.6231   2.6472

          k = 0.0446 0.0000 0.0000 ( 32007 PWs)   bands (ev):

   -31.6314 -31.5662 -31.5501 -31.4433 -31.3547 -31.3505 -31.3272 -31.0428
   -30.9623 -30.9526 -30.9275 -30.3419 -15.5578 -15.4638 -15.4594 -15.4379
   -15.4213 -15.3847 -15.3742 -15.3175 -15.3033 -15.3024 -15.1995 -15.1292
   -15.1202 -15.0816 -15.0306 -14.9116 -14.8845 -14.8246 -14.8224 -14.8084
   -14.7761 -14.7311 -14.7301 -14.7044 -14.5300 -14.5186 -14.4849 -14.4641
   -14.4316 -14.4107 -14.3515 -14.3495 -14.3068 -14.1630 -13.9650 -13.9119
   -11.3794  -2.6713  -0.3849  -0.0541  -0.0479   0.3462   0.6029   0.6321
     0.6987   0.7300   0.7580   0.8058   1.0591   1.0902   1.1146   1.1722
     1.2102   1.3143   1.4004   1.6479   1.8903   1.9452   2.0148   2.2764
     2.2835   2.3681   2.4321   2.4991   2.5194   2.6658   2.7247

          k = 0.0446 0.0258 0.0000 ( 32002 PWs)   bands (ev):

   -31.6268 -31.5707 -31.5500 -31.4357 -31.3695 -31.3378 -31.3330 -31.0358
   -30.9733 -30.9460 -30.9302 -30.3421 -15.5426 -15.4379 -15.4231 -15.4139
   -15.3969 -15.3761 -15.3224 -15.3014 -15.2915 -15.2796 -15.1935 -15.1356
   -15.1169 -15.0894 -15.0459 -14.9560 -14.8931 -14.8860 -14.8051 -14.7995
   -14.7750 -14.7717 -14.7615 -14.6640 -14.5386 -14.5119 -14.5044 -14.4642
   -14.4439 -14.4305 -14.4087 -14.3678 -14.2893 -14.1715 -13.9901 -13.9094
   -11.3793  -2.6700  -0.2482  -0.0355  -0.0289   0.4548   0.5821   0.6059
     0.7964   0.8344   0.8672   1.0491   1.0558   1.0964   1.2386   1.3622
     1.3757   1.4480   1.4846   1.6744   1.8890   1.9216   1.9857   2.1648
     2.2556   2.3325   2.4161   2.4894   2.5012   2.6231   2.6472

          k = 0.0446-0.1031 0.0000 ( 31991 PWs)   bands (ev):

   -31.6146 -31.5825 -31.5503 -31.4150 -31.3817 -31.3569 -31.3229 -31.0169
   -30.9847 -30.9592 -30.9249 -30.3425 -15.4752 -15.3802 -15.3750 -15.3547
   -15.3301 -15.3056 -15.2711 -15.2626 -15.2475 -15.1939 -15.1928 -15.1635
   -15.1257 -15.1225 -15.0850 -15.0582 -15.0146 -14.9238 -14.8316 -14.7976
   -14.7866 -14.7353 -14.7211 -14.6548 -14.6273 -14.6051 -14.5133 -14.4891
   -14.4695 -14.4260 -14.4084 -14.3908 -14.2948 -14.2230 -14.0062 -13.9355
   -11.3790  -2.6675  -0.0141  -0.0066   0.1643   0.6035   0.7965   0.8649
     0.9700   1.0229   1.0728   1.2103   1.3012   1.3476   1.4371   1.5097
     1.6032   1.6124   1.7738   1.8242   1.8664   1.9081   1.9927   2.0875
     2.1296   2.2021   2.2131   2.2959   2.3820   2.4729   2.5050

          k = 0.0446-0.0773 0.0000 ( 31986 PWs)   bands (ev):

   -31.5988 -31.5979 -31.5506 -31.3882 -31.3881 -31.3818 -31.3185 -30.9964
   -30.9924 -30.9758 -30.9213 -30.3428 -15.3628 -15.3525 -15.3396 -15.3299
   -15.3247 -15.2998 -15.2591 -15.2470 -15.1923 -15.1852 -15.1831 -15.1615
   -15.1099 -15.0943 -15.0917 -15.0876 -15.0865 -15.0792 -14.8362 -14.7673
   -14.7323 -14.7294 -14.7260 -14.7002 -14.6306 -14.6290 -14.6199 -14.4953
   -14.4673 -14.4192 -14.4041 -14.3258 -14.3067 -14.3049 -13.9822 -13.9796
   -11.3789  -2.6662   0.0032   0.0153   0.6490   0.6586   0.7142   1.1098
     1.1131   1.1757   1.2659   1.3147   1.4861   1.5913   1.5997   1.6004
     1.6574   1.6627   1.6854   1.8111   1.8553   1.8888   1.9184   1.9296
     2.0533   2.1743   2.1898   2.1901   2.2179   2.3009   2.3356

          k = 0.0446-0.0515 0.0000 ( 31991 PWs)   bands (ev):

   -31.6146 -31.5825 -31.5503 -31.4150 -31.3817 -31.3569 -31.3229 -31.0170
   -30.9847 -30.9592 -30.9249 -30.3425 -15.4752 -15.3802 -15.3750 -15.3547
   -15.3301 -15.3056 -15.2711 -15.2626 -15.2475 -15.1939 -15.1928 -15.1635
   -15.1257 -15.1225 -15.0850 -15.0582 -15.0146 -14.9238 -14.8316 -14.7976
   -14.7866 -14.7353 -14.7211 -14.6548 -14.6273 -14.6051 -14.5133 -14.4891
   -14.4695 -14.4260 -14.4084 -14.3908 -14.2948 -14.2230 -14.0062 -13.9355
   -11.3790  -2.6675  -0.0141  -0.0066   0.1643   0.6035   0.7965   0.8649
     0.9700   1.0229   1.0728   1.2103   1.3012   1.3476   1.4371   1.5097
     1.6032   1.6124   1.7738   1.8242   1.8664   1.9081   1.9927   2.0875
     2.1296   2.2021   2.2130   2.2959   2.3820   2.4729   2.5050

          k =-0.0669 0.0387 0.0000 ( 31970 PWs)   bands (ev):

   -31.6143 -31.5831 -31.5500 -31.4048 -31.4007 -31.3379 -31.3331 -31.0105
   -30.9984 -30.9461 -30.9307 -30.3425 -15.5027 -15.3691 -15.3630 -15.3539
   -15.3532 -15.3044 -15.2728 -15.2553 -15.2350 -15.1883 -15.1624 -15.1564
   -15.1278 -15.0892 -15.0873 -15.0313 -15.0256 -14.9629 -14.9532 -14.7724
   -14.7718 -14.7623 -14.6132 -14.6058 -14.6029 -14.6014 -14.5697 -14.5404
   -14.4819 -14.4522 -14.4214 -14.4021 -14.2454 -14.2174 -14.0255 -13.9179
   -11.3790  -2.6675  -0.0107  -0.0040   0.2656   0.3346   0.7315   0.7858
     1.0495   1.0751   1.1229   1.1538   1.2069   1.2996   1.5360   1.5950
     1.7005   1.7127   1.7879   1.8000   1.9753   2.0306   2.0626   2.0776
     2.1359   2.2304   2.2945   2.3079   2.3623   2.4901   2.5042

          k =-0.0669 0.0644 0.0000 ( 31991 PWs)   bands (ev):

   -31.6146 -31.5825 -31.5503 -31.4150 -31.3817 -31.3569 -31.3229 -31.0170
   -30.9847 -30.9593 -30.9249 -30.3425 -15.4752 -15.3802 -15.3750 -15.3547
   -15.3301 -15.3056 -15.2711 -15.2626 -15.2475 -15.1939 -15.1928 -15.1635
   -15.1258 -15.1224 -15.0850 -15.0582 -15.0146 -14.9238 -14.8316 -14.7976
   -14.7866 -14.7353 -14.7211 -14.6548 -14.6272 -14.6051 -14.5133 -14.4891
   -14.4695 -14.4260 -14.4084 -14.3908 -14.2948 -14.2230 -14.0062 -13.9355
   -11.3790  -2.6675  -0.0141  -0.0066   0.1643   0.6035   0.7965   0.8649
     0.9700   1.0229   1.0728   1.2103   1.3012   1.3476   1.4371   1.5097
     1.6032   1.6124   1.7738   1.8242   1.8664   1.9081   1.9927   2.0875
     2.1296   2.2021   2.2130   2.2959   2.3820   2.4729   2.5050

          k =-0.0669 0.0902 0.0000 ( 31991 PWs)   bands (ev):

   -31.6146 -31.5825 -31.5503 -31.4150 -31.3817 -31.3569 -31.3229 -31.0170
   -30.9847 -30.9593 -30.9249 -30.3425 -15.4752 -15.3802 -15.3750 -15.3547
   -15.3301 -15.3056 -15.2711 -15.2626 -15.2475 -15.1939 -15.1928 -15.1635
   -15.1258 -15.1224 -15.0850 -15.0582 -15.0146 -14.9238 -14.8316 -14.7976
   -14.7866 -14.7353 -14.7211 -14.6548 -14.6272 -14.6051 -14.5133 -14.4891
   -14.4695 -14.4260 -14.4084 -14.3907 -14.2948 -14.2230 -14.0062 -13.9355
   -11.3790  -2.6675  -0.0141  -0.0066   0.1643   0.6035   0.7965   0.8649
     0.9700   1.0229   1.0728   1.2103   1.3012   1.3476   1.4371   1.5097
     1.6032   1.6124   1.7738   1.8242   1.8664   1.9081   1.9927   2.0875
     2.1296   2.2021   2.2131   2.2959   2.3820   2.4729   2.5050

          k =-0.0669-0.0387 0.0000 ( 31970 PWs)   bands (ev):

   -31.6143 -31.5831 -31.5500 -31.4048 -31.4007 -31.3379 -31.3331 -31.0105
   -30.9985 -30.9461 -30.9307 -30.3425 -15.5027 -15.3691 -15.3630 -15.3539
   -15.3532 -15.3044 -15.2728 -15.2553 -15.2350 -15.1883 -15.1624 -15.1564
   -15.1278 -15.0892 -15.0873 -15.0313 -15.0256 -14.9629 -14.9532 -14.7723
   -14.7718 -14.7623 -14.6133 -14.6058 -14.6029 -14.6014 -14.5697 -14.5404
   -14.4819 -14.4521 -14.4214 -14.4021 -14.2454 -14.2174 -14.0255 -13.9179
   -11.3790  -2.6675  -0.0107  -0.0040   0.2656   0.3346   0.7315   0.7858
     1.0495   1.0751   1.1229   1.1538   1.2069   1.2996   1.5360   1.5950
     1.7005   1.7127   1.7879   1.8000   1.9753   2.0306   2.0626   2.0776
     2.1358   2.2304   2.2945   2.3079   2.3623   2.4901   2.5042

     the Fermi energy is     1.8896 ev

!    total energy              =   -1269.72939040 Ry
     Harris-Foulkes estimate   =   -1269.72938987 Ry
     estimated scf accuracy    <       0.00000006 Ry

     The total energy is the sum of the following terms:

     one-electron contribution =   -4726.74972581 Ry
     hartree contribution      =    2377.54395265 Ry
     xc contribution           =    -614.87675547 Ry
     ewald contribution        =    1694.47336967 Ry
     electric field correction =       0.00000764 Ry
     smearing contrib. (-TS)   =      -0.12023907 Ry

     convergence has been achieved in  11 iterations
 
 BEEF-vdW xc energy contributions
           1 :   -544.647522788446     
           2 :    500.873740493725     
           3 :   -423.534346670802     
           4 :    329.183162449814     
           5 :   -235.316146953278     
           6 :    155.732964505399     
           7 :   -97.9744887470634     
           8 :    63.0461342740811     
           9 :   -46.9077744774426     
          10 :    42.8543088944223     
          11 :   -43.8949994096522     
          12 :    44.4533772907934     
          13 :   -41.1540004366913     
          14 :    32.8708699730774     
          15 :   -20.3743041207950     
          16 :    5.79789705178598     
          17 :    8.01279612107919     
          18 :   -18.2771254029493     
          19 :    23.0942104132240     
          20 :   -22.0705974307408     
          21 :    16.4934759676048     
          22 :   -8.91365747524321     
          23 :    2.23924190297487     
          24 :    1.31606065113840     
          25 :  -0.990998189414199     
          26 :   -2.38513994282800     
          27 :    6.91186979826477     
          28 :   -10.5275923982264     
          29 :    11.8778243067360     
          30 :   -10.7704114460761     
          31 :   -46.4245250793972     
          32 :   -33.2952317194251     

     Forces acting on atoms (Ry/au):


     negative rho (up, down):  5.819E-01 0.000E+00
     atom    1 type  1   force =    -0.00050247   -0.00028772    0.00497117
     atom    2 type  1   force =     0.00050258   -0.00028944    0.00497273
     atom    3 type  1   force =    -0.00000138    0.00057770    0.00496924
     atom    4 type  1   force =     0.00000149   -0.00000136    0.00443297
     atom    5 type  1   force =    -0.00000069    0.00910802   -0.00584196
     atom    6 type  1   force =     0.00000115   -0.00000504    0.00625133
     atom    7 type  1   force =    -0.00789139   -0.00455124   -0.00583960
     atom    8 type  1   force =     0.00789198   -0.00455242   -0.00583785
     atom    9 type  1   force =     0.00000230    0.00000970   -0.00104966
     atom   10 type  1   force =    -0.00000142   -0.00011521   -0.00185608
     atom   11 type  1   force =    -0.00010668    0.00005327   -0.00185495
     atom   12 type  1   force =     0.00010600    0.00005424   -0.00185361
     atom   13 type  2   force =    -0.00000166   -0.00000113    0.00031380
     atom   14 type  3   force =     0.00000019    0.00000063   -0.00177754

     Total force =     0.003837     Total SCF correction =     0.000309


     entering subroutine stress ...


     negative rho (up, down):  5.819E-01 0.000E+00
          total   stress  (Ry/bohr**3)                   (kbar)     P=   -1.61
  -0.00000591  -0.00000000  -0.00000000         -0.87     -0.00     -0.00
  -0.00000000  -0.00000591  -0.00000000         -0.00     -0.87     -0.00
  -0.00000000  -0.00000000  -0.00002102         -0.00     -0.00     -3.09


     bfgs converged in  19 scf cycles and  18 bfgs steps
     (criteria: energy <  1.0E+00, force <  1.9E-03)

     End of BFGS Geometry Optimization

     Final energy   =   -1269.7293903973 Ry
Begin final coordinates

ATOMIC_POSITIONS (crystal)
La1      0.166666667   0.166666667   0.383173129    0   0   0
La1      0.666666667   0.166666667   0.383173129    0   0   0
La1      0.166666667   0.666666667   0.383173129    0   0   0
La1      0.666666667   0.666666667   0.383173129    0   0   0
La1      0.833333333   0.333333333   0.500000000    0   0   0
La1      0.333333333   0.333333333   0.500000000    0   0   0
La1      0.833333333   0.833333333   0.500000000    0   0   0
La1      0.333333333   0.833333333   0.500000000    0   0   0
La1      0.000000492  -0.000002689   0.613317638
La1      0.500152434  -0.000299571   0.621831394
La1     -0.000298900   0.500153229   0.621831902
La1      0.500150424   0.500149249   0.621831184
N1      -0.000001222   0.000001064   0.693145801
H1      -0.000000740  -0.000000899   0.732487431
End final coordinates



     Writing output data file calc.save
 
     init_run     :     22.29s CPU     29.10s WALL (       1 calls)
     electrons    :   8150.18s CPU  10163.56s WALL (      19 calls)
     update_pot   :     42.07s CPU     48.62s WALL (      18 calls)
     forces       :    356.79s CPU    373.83s WALL (      19 calls)
     stress       :   1129.97s CPU   1182.99s WALL (      19 calls)

     Called by init_run:
     wfcinit      :     15.88s CPU     21.73s WALL (       1 calls)
     potinit      :      1.32s CPU      1.62s WALL (       1 calls)

     Called by electrons:
     c_bands      :   5282.97s CPU   6673.26s WALL (     226 calls)
     sum_band     :   1337.14s CPU   1593.54s WALL (     226 calls)
     v_of_rho     :    200.79s CPU    266.65s WALL (     242 calls)
     newd         :    918.21s CPU   1062.01s WALL (     242 calls)
     mix_rho      :      6.49s CPU      8.60s WALL (     226 calls)
     vdW_energy   :    144.87s CPU    185.30s WALL (     926 calls)
     vdW_ffts     :    258.32s CPU    350.27s WALL (    1890 calls)
     vdW_v        :     98.54s CPU    116.79s WALL (     926 calls)

     Called by c_bands:
     init_us_2    :     46.08s CPU     54.25s WALL (    9820 calls)
     cegterg      :   4770.51s CPU   6145.12s WALL (    4520 calls)

     Called by *egterg:
     h_psi        :   2851.62s CPU   4053.89s WALL (   42511 calls)
     s_psi        :    309.02s CPU    319.94s WALL (   42511 calls)
     g_psi        :     18.85s CPU     19.47s WALL (   37971 calls)
     cdiaghg      :    826.88s CPU    846.07s WALL (   42071 calls)

     Called by h_psi:
     add_vuspsi   :    305.71s CPU    317.41s WALL (   42511 calls)

     General routines
     calbec       :    393.63s CPU    403.05s WALL (   47791 calls)
     fft          :    423.21s CPU    559.49s WALL (   55959 calls)
     ffts         :      0.53s CPU      0.81s WALL (     468 calls)
     fftw         :   1797.50s CPU   3181.30s WALL ( 2514288 calls)
     interpolate  :      3.99s CPU      6.71s WALL (     468 calls)
     davcio       :      0.02s CPU      0.51s WALL (      20 calls)
 
     Parallel routines
     fft_scatter  :   1289.20s CPU   2167.42s WALL ( 2570715 calls)
 
     PWSCF        :     2h42m CPU        3h18m WALL

 
   This run was terminated on:   1:10: 3  19Apr2018            

=------------------------------------------------------------------------------=
   JOB DONE.
=------------------------------------------------------------------------------=
