  python dir          : /u/if/mamunm/src/espresso
  espresso dir        : /nfs/slac/g/suncatfs/sw/espv18/espresso-dynpy-beef/bin
  pseudo dir          : /u/if/mamunm/psp/gbrv1.5pbe
  ase-espresso py git : GITVERSION



     Program PWSCF v.5.1rc2 (svn rev. 11289) starts on 25Apr2018 at  2:41:50 

     This program is part of the open-source Quantum ESPRESSO suite
     for quantum simulation of materials; please cite
         "P. Giannozzi et al., J. Phys.:Condens. Matter 21 395502 (2009);
          URL http://www.quantum-espresso.org", 
     in publications or presentations arising from this work. More details at
     http://www.quantum-espresso.org/quote

     Parallel version (MPI), running on    32 processors
     K-points division:     npool     =       4
     R & G space division:  proc/nbgrp/npool/nimage =       8
     Reading input from pw.inp
     Message from routine read_cards :
     DEPRECATED: no units specified in CELL_PARAMETERS card

     Current dimensions of program PWSCF are:
     Max number of different atomic species (ntypx) = 10
     Max number of k-points (npk) =  40000
     Max angular momentum in pseudopotentials (lmaxx) =  3
     Presently stress not available with electric field


     **************************************************************************
     Initializing libbeef V0.1.1 with the BEEF-vdW functional.
     Citation: Wellendorff et al., PRB 85, 235149 (2012).
     **************************************************************************


     IMPORTANT: XC functional enforced from input :
     Exchange-correlation      = BEEF-VDW ( 1  4 27 13 2)
     Any further DFT definition will be discarded
     Please, verify this is what you really want


     Subspace diagonalization in iterative solution of the eigenvalue problem:
     a serial algorithm will be used

 
     Parallelization info
     --------------------
     sticks:   dense  smooth     PW     G-vecs:    dense   smooth      PW
     Min         354     143     40                67132    16991    2682
     Max         355     144     43                67159    17028    2691
     Sum        2839    1147    337               537229   136073   21493
 


     bravais-lattice index     =            0
     lattice parameter (alat)  =       1.8897  a.u.
     unit-cell volume          =    4515.4205 (a.u.)^3
     number of atoms/cell      =           14
     number of atomic types    =            3
     number of electrons       =       247.00
     number of Kohn-Sham states=          133
     kinetic-energy cutoff     =      36.7493  Ry
     charge density cutoff     =     367.4932  Ry
     convergence threshold     =      1.0E-05
     mixing beta               =       0.3000
     number of iterations used =           10  plain     mixing
     Exchange-correlation      = BEEF-VDW ( 1  4 27 13 2)
     nstep                     =           50


     celldm(1)=   1.889726  celldm(2)=   0.000000  celldm(3)=   0.000000
     celldm(4)=   0.000000  celldm(5)=   0.000000  celldm(6)=   0.000000

     crystal axes: (cart. coord. in units of alat)
               a(1) = (   5.606773   0.000000   0.000000 )  
               a(2) = (   2.803387   4.855608   0.000000 )  
               a(3) = (   0.000000   0.000000  24.577911 )  

     reciprocal axes: (cart. coord. in units 2 pi/alat)
               b(1) = (  0.178356 -0.102974  0.000000 )  
               b(2) = (  0.000000  0.205947  0.000000 )  
               b(3) = (  0.000000  0.000000  0.040687 )  


     PseudoPot. # 1 for Zn read from file:
     /u/if/mamunm/psp/gbrv1.5pbe/Zn.UPF
     MD5 check sum: df62231357ef9e81f77b2b3087fa5675
     Pseudo is Ultrasoft, Zval = 20.0
     Generated by new atomic code, or converted to UPF format
     Using radial grid of  943 points,  6 beta functions with: 
                l(1) =   0
                l(2) =   0
                l(3) =   1
                l(4) =   1
                l(5) =   2
                l(6) =   2
     Q(r) pseudized with  8 coefficients,  rinner =    1.100   1.100   1.100
                                                       1.100   1.100

     PseudoPot. # 2 for O  read from file:
     /u/if/mamunm/psp/gbrv1.5pbe/O.UPF
     MD5 check sum: 734c27235a0248c51dbae37a1fbe46ec
     Pseudo is Ultrasoft + core correction, Zval =  6.0
     Generated by new atomic code, or converted to UPF format
     Using radial grid of  737 points,  5 beta functions with: 
                l(1) =   0
                l(2) =   0
                l(3) =   1
                l(4) =   1
                l(5) =   2
     Q(r) pseudized with  8 coefficients,  rinner =    0.900   0.900   0.900
                                                       0.900   0.900

     PseudoPot. # 3 for H  read from file:
     /u/if/mamunm/psp/gbrv1.5pbe/H.UPF
     MD5 check sum: 761ae9a214b05c3daf00ab9f6b793d6f
     Pseudo is Ultrasoft, Zval =  1.0
     Generated by new atomic code, or converted to UPF format
     Using radial grid of  615 points,  2 beta functions with: 
                l(1) =   0
                l(2) =   0
     Q(r) pseudized with  8 coefficients,  rinner =    0.700

     vdW kernel table read from file vdW_kernel_table
     MD5 check sum: 095c7af220d748ca6e76c0b4c6cfb241

     atomic species   valence    mass     pseudopotential
        Zn1           20.00    65.38000     Zn( 1.00)
        O1             6.00    15.99900     O ( 1.00)
        H1             1.00     1.00800     H ( 1.00)

     No symmetry found



   Cartesian axes

     site n.     atom                  positions (alat units)
         1           Zn1 tau(   1) = (   1.4016933   0.8092680  10.0000000  )
         2           Zn1 tau(   2) = (   4.2050800   0.8092680  10.0000000  )
         3           Zn1 tau(   3) = (   2.8033867   3.2370721  10.0000000  )
         4           Zn1 tau(   4) = (   5.6067733   3.2370721  10.0000000  )
         5           Zn1 tau(   5) = (   5.6067733   1.6185360  12.2889556  )
         6           Zn1 tau(   6) = (   2.8033867   1.6185360  12.2889556  )
         7           Zn1 tau(   7) = (   7.0084667   4.0463401  12.2889556  )
         8           Zn1 tau(   8) = (   4.2050800   4.0463401  12.2889556  )
         9           Zn1 tau(   9) = (   0.0000000   0.0000000  14.5779113  )
        10           Zn1 tau(  10) = (   2.8033867   0.0000000  14.5779113  )
        11           Zn1 tau(  11) = (   1.4016933   2.4278041  14.5779113  )
        12           Zn1 tau(  12) = (   4.2050800   2.4278041  14.5779113  )
        13           O1  tau(  13) = (   1.4016933   0.8092680  15.7999113  )
        14           H1  tau(  14) = (   1.4016933   0.8092680  16.7499113  )

     number of k points=    20  Fermi-Dirac smearing, width (Ry)=  0.0110
                       cart. coord. in units 2pi/alat
        k(    1) = (   0.0000000   0.0000000   0.0000000), wk =   0.0555556
        k(    2) = (   0.0000000   0.0343246   0.0000000), wk =   0.1111111
        k(    3) = (   0.0000000   0.0686491   0.0000000), wk =   0.1111111
        k(    4) = (   0.0000000  -0.1029737   0.0000000), wk =   0.0555556
        k(    5) = (   0.0297260  -0.0171623   0.0000000), wk =   0.1111111
        k(    6) = (   0.0297260   0.0171623   0.0000000), wk =   0.1111111
        k(    7) = (   0.0297260   0.0514869   0.0000000), wk =   0.1111111
        k(    8) = (   0.0297260  -0.1201360   0.0000000), wk =   0.1111111
        k(    9) = (   0.0297260  -0.0858114   0.0000000), wk =   0.1111111
        k(   10) = (   0.0297260  -0.0514869   0.0000000), wk =   0.1111111
        k(   11) = (   0.0594519  -0.0343246   0.0000000), wk =   0.1111111
        k(   12) = (   0.0594519   0.0000000   0.0000000), wk =   0.1111111
        k(   13) = (   0.0594519   0.0343246   0.0000000), wk =   0.1111111
        k(   14) = (   0.0594519  -0.1372983   0.0000000), wk =   0.1111111
        k(   15) = (   0.0594519  -0.1029737   0.0000000), wk =   0.1111111
        k(   16) = (   0.0594519  -0.0686491   0.0000000), wk =   0.1111111
        k(   17) = (  -0.0891779   0.0514869   0.0000000), wk =   0.0555556
        k(   18) = (  -0.0891779   0.0858114   0.0000000), wk =   0.1111111
        k(   19) = (  -0.0891779   0.1201360   0.0000000), wk =   0.1111111
        k(   20) = (  -0.0891779  -0.0514869   0.0000000), wk =   0.0555556

     Dense  grid:   537229 G-vectors     FFT dimensions: (  72,  72, 288)

     Smooth grid:   136073 G-vectors     FFT dimensions: (  45,  45, 180)

     Largest allocated arrays     est. size (Mb)     dimensions
        Kohn-Sham Wavefunctions         4.39 Mb     (    2163,  133)
        NL pseudopotentials             7.62 Mb     (    2163,  231)
        Each V/rho on FFT grid          2.85 Mb     (  186624)
        Each G-vector array             0.51 Mb     (   67157)
        G-vector shells                 0.14 Mb     (   17773)
     Largest temporary arrays     est. size (Mb)     dimensions
        Auxiliary wavefunctions        17.56 Mb     (    2163,  532)
        Each subspace H/S matrix        4.32 Mb     (     532,  532)
        Each <psi_i|beta_j> matrix      0.47 Mb     (     231,  133)
        Arrays for rho mixing          28.48 Mb     (  186624,   10)

     Initial potential from superposition of free atoms
     Check: negative starting charge=   -0.000825

     starting charge  246.99830, renormalised to  247.00000

     negative rho (up, down):  8.250E-04 0.000E+00


     ************************************************************************
     *
     * You are using vdW-DF for exchange-correlation in this calculation.
     * Please cite the following three references that made this development
     * possible:
     *
     *   M. Dion, H. Rydberg, E. Schroder, D. C. Langreth, and
     *   B. I. Lundqvist, Phys. Rev. Lett. 92, 246401 (2004).
     *
     *   T. Thonhauser, V. R. Cooper, S. Li, A. Puzder, P. Hyldgaard, and
     *   D. C. Langreth, Phys. Rev. B 76, 125112 (2007).
     *
     *   G. Roman-Perez and J. M. Soler, Phys. Rev. Lett. 103, 096102 (2009).
     *
     *
     * If you are using vdW-DF2, please also cite:
     *
     *   K. Lee, E. D. Murray, L. Kong, B. I. Lundqvist, and
     *   D. C. Langreth, Phys. Rev. B 82, 081101(R) (2010).
     *
     *
     * If you are calculating the stress with vdW-DF, please also cite:
     *
     *   R. Sabatini, E. Kucukbenli, B. Kolb, T. Thonhauser, and
     *   S. de Gironcoli, J. Phys.: Condens. Matter 24, 424209 (2012).
     *
     ************************************************************************

     Carrying out vdW-DF run using the following parameters:

     Nqs =      20    Nr_points =    1024   r_max =   100.000
     q_mesh =
               0.00001000     0.04494208     0.09755937     0.15916263
               0.23128650     0.31572767     0.41458969     0.53033537
               0.66584808     0.82450364     1.01025438     1.22772762
               1.48234092     1.78043706     2.12944203     2.53805004
               3.01644009     3.57652955     4.23227104     5.00000000

     Gradients computed in reciprocal space

     ************************************************************************


 
     Adding external electric field

     Computed dipole along edir(3) : 
        Dipole               -0.0002 Ry au,         -0.0006 Debye
        Dipole field         -0.0000 Ry au
 
        Potential amp.        0.0001 Ry
        Total length         45.2844 bohr
 
     Starting wfc are  161 randomized atomic wfcs

     total cpu time spent up to now is       12.7 secs

     per-process dynamical memory:    92.0 Mb

     Self-consistent Calculation

     iteration #  1     ecut=    36.75 Ry     beta=0.30
     Davidson diagonalization with overlap
     ethr =  1.00E-02,  avg # of iterations =  2.5

     Threshold (ethr) on eigenvalues was too large:
     Diagonalizing with lowered threshold

     Davidson diagonalization with overlap
     ethr =  3.17E-04,  avg # of iterations =  4.3

     negative rho (up, down):  8.434E-04 0.000E+00
 
     Adding external electric field

     Computed dipole along edir(3) : 
        Dipole               -0.2080 Ry au,         -0.5286 Debye
        Dipole field         -0.0006 Ry au
 
        Potential amp.        0.0524 Ry
        Total length         45.2844 bohr
 

     total cpu time spent up to now is       52.0 secs

     total energy              =   -5586.92170535 Ry
     Harris-Foulkes estimate   =   -5587.23431094 Ry
     estimated scf accuracy    <       0.79337336 Ry

     iteration #  2     ecut=    36.75 Ry     beta=0.30
     Davidson diagonalization with overlap
     ethr =  3.21E-04,  avg # of iterations =  3.6

     negative rho (up, down):  9.271E-04 0.000E+00
 
     Adding external electric field

     Computed dipole along edir(3) : 
        Dipole                1.0711 Ry au,          2.7226 Debye
        Dipole field          0.0030 Ry au
 
        Potential amp.       -0.2700 Ry
        Total length         45.2844 bohr
 

     total cpu time spent up to now is       75.5 secs

     total energy              =   -5586.90596027 Ry
     Harris-Foulkes estimate   =   -5587.07892577 Ry
     estimated scf accuracy    <       0.62511438 Ry

     iteration #  3     ecut=    36.75 Ry     beta=0.30
     Davidson diagonalization with overlap
     ethr =  2.53E-04,  avg # of iterations =  6.4

     negative rho (up, down):  9.454E-04 0.000E+00
 
     Adding external electric field

     Computed dipole along edir(3) : 
        Dipole                0.1930 Ry au,          0.4906 Debye
        Dipole field          0.0005 Ry au
 
        Potential amp.       -0.0487 Ry
        Total length         45.2844 bohr
 

     total cpu time spent up to now is      101.4 secs

     total energy              =   -5586.87204782 Ry
     Harris-Foulkes estimate   =   -5587.22932040 Ry
     estimated scf accuracy    <       3.93286940 Ry

     iteration #  4     ecut=    36.75 Ry     beta=0.30
     Davidson diagonalization with overlap
     ethr =  2.53E-04,  avg # of iterations =  4.4

     negative rho (up, down):  9.578E-04 0.000E+00
 
     Adding external electric field

     Computed dipole along edir(3) : 
        Dipole                0.2774 Ry au,          0.7051 Debye
        Dipole field          0.0008 Ry au
 
        Potential amp.       -0.0699 Ry
        Total length         45.2844 bohr
 

     total cpu time spent up to now is      125.0 secs

     total energy              =   -5587.05055359 Ry
     Harris-Foulkes estimate   =   -5587.05283562 Ry
     estimated scf accuracy    <       0.02327468 Ry

     iteration #  5     ecut=    36.75 Ry     beta=0.30
     Davidson diagonalization with overlap
     ethr =  9.42E-06,  avg # of iterations =  3.8

     negative rho (up, down):  1.006E-03 0.000E+00
 
     Adding external electric field

     Computed dipole along edir(3) : 
        Dipole                0.3588 Ry au,          0.9121 Debye
        Dipole field          0.0010 Ry au
 
        Potential amp.       -0.0904 Ry
        Total length         45.2844 bohr
 

     total cpu time spent up to now is      148.3 secs

     total energy              =   -5587.05169099 Ry
     Harris-Foulkes estimate   =   -5587.05264294 Ry
     estimated scf accuracy    <       0.01054493 Ry

     iteration #  6     ecut=    36.75 Ry     beta=0.30
     Davidson diagonalization with overlap
     ethr =  4.27E-06,  avg # of iterations =  6.2

     negative rho (up, down):  1.016E-03 0.000E+00
 
     Adding external electric field

     Computed dipole along edir(3) : 
        Dipole                0.3438 Ry au,          0.8739 Debye
        Dipole field          0.0010 Ry au
 
        Potential amp.       -0.0867 Ry
        Total length         45.2844 bohr
 

     total cpu time spent up to now is      174.0 secs

     total energy              =   -5587.05271971 Ry
     Harris-Foulkes estimate   =   -5587.05281947 Ry
     estimated scf accuracy    <       0.00077056 Ry

     iteration #  7     ecut=    36.75 Ry     beta=0.30
     Davidson diagonalization with overlap
     ethr =  3.12E-07,  avg # of iterations =  3.5

     negative rho (up, down):  1.026E-03 0.000E+00
 
     Adding external electric field

     Computed dipole along edir(3) : 
        Dipole                0.3419 Ry au,          0.8691 Debye
        Dipole field          0.0010 Ry au
 
        Potential amp.       -0.0862 Ry
        Total length         45.2844 bohr
 

     total cpu time spent up to now is      196.6 secs

     total energy              =   -5587.05284169 Ry
     Harris-Foulkes estimate   =   -5587.05280367 Ry
     estimated scf accuracy    <       0.00011481 Ry

     iteration #  8     ecut=    36.75 Ry     beta=0.30
     Davidson diagonalization with overlap
     ethr =  4.65E-08,  avg # of iterations =  2.3

     negative rho (up, down):  1.032E-03 0.000E+00
 
     Adding external electric field

     Computed dipole along edir(3) : 
        Dipole                0.3398 Ry au,          0.8638 Debye
        Dipole field          0.0009 Ry au
 
        Potential amp.       -0.0857 Ry
        Total length         45.2844 bohr
 

     total cpu time spent up to now is      219.1 secs

     total energy              =   -5587.05286462 Ry
     Harris-Foulkes estimate   =   -5587.05285619 Ry
     estimated scf accuracy    <       0.00002011 Ry

     iteration #  9     ecut=    36.75 Ry     beta=0.30
     Davidson diagonalization with overlap
     ethr =  8.14E-09,  avg # of iterations =  2.9

     negative rho (up, down):  1.053E-03 0.000E+00

     negative rho (up, down):  1.053E-03 0.000E+00

     negative rho (up, down):  1.053E-03 0.000E+00

     negative rho (up, down):  1.053E-03 0.000E+00

     negative rho (up, down):  1.053E-03 0.000E+00

     negative rho (up, down):  1.053E-03 0.000E+00

     negative rho (up, down):  1.053E-03 0.000E+00

     negative rho (up, down):  1.053E-03 0.000E+00

     negative rho (up, down):  1.053E-03 0.000E+00

     negative rho (up, down):  1.053E-03 0.000E+00

     negative rho (up, down):  1.053E-03 0.000E+00

     negative rho (up, down):  1.053E-03 0.000E+00

     negative rho (up, down):  1.053E-03 0.000E+00

     negative rho (up, down):  1.053E-03 0.000E+00

     negative rho (up, down):  1.053E-03 0.000E+00

     negative rho (up, down):  1.053E-03 0.000E+00

     negative rho (up, down):  1.053E-03 0.000E+00

     negative rho (up, down):  1.053E-03 0.000E+00

     negative rho (up, down):  1.053E-03 0.000E+00

     negative rho (up, down):  1.053E-03 0.000E+00

     negative rho (up, down):  1.053E-03 0.000E+00

     negative rho (up, down):  1.053E-03 0.000E+00

     negative rho (up, down):  1.053E-03 0.000E+00

     negative rho (up, down):  1.053E-03 0.000E+00

     negative rho (up, down):  1.053E-03 0.000E+00

     negative rho (up, down):  1.053E-03 0.000E+00

     negative rho (up, down):  1.053E-03 0.000E+00

     negative rho (up, down):  1.053E-03 0.000E+00

     negative rho (up, down):  1.053E-03 0.000E+00

     negative rho (up, down):  1.053E-03 0.000E+00

     negative rho (up, down):  1.053E-03 0.000E+00

     negative rho (up, down):  1.053E-03 0.000E+00

     negative rho (up, down):  1.053E-03 0.000E+00

     negative rho (up, down):  1.053E-03 0.000E+00

     negative rho (up, down):  1.053E-03 0.000E+00
 
     Adding external electric field

     Computed dipole along edir(3) : 
        Dipole                0.3372 Ry au,          0.8570 Debye
        Dipole field          0.0009 Ry au
 
        Potential amp.       -0.0850 Ry
        Total length         45.2844 bohr
 

     total cpu time spent up to now is      302.5 secs

     End of self-consistent calculation

          k = 0.0000 0.0000 0.0000 ( 16931 PWs)   bands (ev):

  -125.7588-125.7360-125.7351-125.7351-125.6152-125.6143-125.6143-125.5350
  -125.5340-125.5340-125.5203-125.4648 -79.9431 -79.9360 -79.9360 -79.9177
   -79.9149 -79.9149 -79.9109 -79.9102 -79.9093 -79.9093 -79.9051 -79.9051
   -79.8281 -79.8210 -79.8210 -79.8062 -79.8062 -79.8015 -79.7780 -79.7729
   -79.7729 -79.7241 -79.7231 -79.7231 -79.7139 -79.7122 -79.7122 -79.7041
   -79.7019 -79.7016 -79.7016 -79.6932 -79.6932 -79.6479 -79.6358 -79.6358
   -20.4442  -9.3632  -8.3337  -7.3044  -7.3044  -7.3018  -7.3017  -7.3017
    -7.2855  -7.2411  -7.2083  -7.1436  -7.1436  -7.0536  -7.0536  -7.0467
    -6.9032  -6.9032  -6.8649  -6.7574  -6.7572  -6.7572  -6.7351  -6.7351
    -6.7127  -6.6933  -6.6933  -6.6522  -6.6384  -6.6384  -6.5506  -6.5506
    -6.4695  -6.4688  -6.4688  -6.3841  -6.3841  -6.3548  -6.3548  -6.3412
    -6.2880  -6.2595  -6.2595  -6.2182  -6.2182  -6.1798  -6.1765  -6.1760
    -6.1760  -6.1508  -6.1508  -6.1374  -6.1158  -6.1158  -6.1032  -6.1032
    -6.0747  -6.0595  -6.0039  -6.0039  -5.9514  -5.9474  -5.9474  -5.4921
    -4.0233  -4.0233  -2.9378  -1.5642  -1.5642  -1.4636  -1.0706  -1.0706
    -1.0234  -0.3271   0.0644   0.0644   0.1840   0.9973   0.9973   1.6030
     2.7400   2.8972   2.8972   3.1460   3.5236

          k = 0.0000 0.0343 0.0000 ( 16966 PWs)   bands (ev):

  -125.7588-125.7360-125.7352-125.7351-125.6151-125.6143-125.6143-125.5349
  -125.5341-125.5340-125.5203-125.4648 -79.9432 -79.9358 -79.9355 -79.9171
   -79.9152 -79.9148 -79.9114 -79.9103 -79.9093 -79.9093 -79.9059 -79.9053
   -79.8276 -79.8214 -79.8210 -79.8061 -79.8060 -79.8020 -79.7779 -79.7732
   -79.7729 -79.7243 -79.7232 -79.7232 -79.7132 -79.7116 -79.7115 -79.7046
   -79.7023 -79.7020 -79.7018 -79.6938 -79.6935 -79.6480 -79.6359 -79.6359
   -20.4437  -9.3180  -8.1869  -7.2893  -7.2762  -7.2651  -7.2507  -7.2485
    -7.2292  -7.1883  -7.1525  -7.1251  -7.1146  -7.0479  -7.0152  -7.0032
    -6.9021  -6.8776  -6.8458  -6.7763  -6.7406  -6.7396  -6.7261  -6.7217
    -6.7103  -6.6938  -6.6881  -6.6567  -6.6415  -6.6233  -6.5785  -6.5280
    -6.5047  -6.4853  -6.4625  -6.4300  -6.4004  -6.3769  -6.3742  -6.3532
    -6.3196  -6.2854  -6.2804  -6.2449  -6.2313  -6.2249  -6.2103  -6.1970
    -6.1938  -6.1672  -6.1661  -6.1491  -6.1403  -6.1345  -6.1122  -6.1102
    -6.1054  -6.0685  -6.0428  -6.0024  -6.0006  -5.9866  -5.9852  -5.3674
    -4.1921  -4.0771  -3.2496  -2.7174  -2.1833  -2.1563  -1.3961  -0.4373
    -0.4105  -0.0800   0.0705   0.2292   0.9038   1.4845   1.6189   2.0978
     2.7057   2.7266   2.9948   3.2546   4.0032

          k = 0.0000 0.0686 0.0000 ( 16996 PWs)   bands (ev):

  -125.7588-125.7359-125.7353-125.7351-125.6150-125.6145-125.6143-125.5348
  -125.5342-125.5340-125.5203-125.4648 -79.9432 -79.9355 -79.9347 -79.9167
   -79.9146 -79.9141 -79.9122 -79.9102 -79.9097 -79.9093 -79.9080 -79.9057
   -79.8265 -79.8224 -79.8209 -79.8062 -79.8054 -79.8028 -79.7772 -79.7742
   -79.7730 -79.7241 -79.7234 -79.7232 -79.7121 -79.7102 -79.7099 -79.7058
   -79.7043 -79.7020 -79.7019 -79.6950 -79.6938 -79.6480 -79.6361 -79.6360
   -20.4427  -9.2303  -7.7709  -7.2661  -7.2138  -7.1748  -7.1231  -7.1138
    -7.1077  -7.1025  -7.0808  -7.0400  -7.0396  -6.9705  -6.9530  -6.9237
    -6.8495  -6.8240  -6.8098  -6.8066  -6.7680  -6.7674  -6.7206  -6.7058
    -6.6636  -6.6532  -6.6439  -6.6367  -6.6136  -6.6130  -6.5814  -6.5658
    -6.5275  -6.5212  -6.5034  -6.4924  -6.4621  -6.4252  -6.3809  -6.3766
    -6.3523  -6.3347  -6.3299  -6.3125  -6.3119  -6.2843  -6.2806  -6.2525
    -6.2525  -6.2487  -6.2258  -6.2234  -6.2035  -6.1944  -6.1680  -6.1497
    -6.1282  -6.1099  -6.0997  -6.0803  -6.0591  -6.0565  -5.8841  -5.3230
    -4.7845  -4.1770  -4.1697  -2.9376  -2.6301  -2.6051  -2.0744  -0.8928
    -0.7286  -0.0040   0.7207   1.5249   1.5416   2.0064   2.1959   3.1690
     3.4473   3.5129   3.7151   4.0324   4.5915

          k = 0.0000-0.1030 0.0000 ( 17028 PWs)   bands (ev):

  -125.7588-125.7357-125.7354-125.7351-125.6149-125.6146-125.6143-125.5346
  -125.5343-125.5340-125.5203-125.4648 -79.9432 -79.9353 -79.9343 -79.9170
   -79.9134 -79.9130 -79.9129 -79.9107 -79.9101 -79.9094 -79.9093 -79.9058
   -79.8257 -79.8232 -79.8208 -79.8063 -79.8049 -79.8034 -79.7767 -79.7750
   -79.7730 -79.7240 -79.7236 -79.7232 -79.7116 -79.7091 -79.7076 -79.7070
   -79.7067 -79.7020 -79.7018 -79.6958 -79.6939 -79.6480 -79.6363 -79.6360
   -20.4422  -9.1877  -7.3994  -7.2936  -7.1719  -7.1119  -7.0757  -7.0650
    -7.0412  -6.9945  -6.9888  -6.9756  -6.9692  -6.9553  -6.9295  -6.8984
    -6.8533  -6.8284  -6.8210  -6.7920  -6.7455  -6.7408  -6.7241  -6.7122
    -6.6732  -6.6687  -6.6657  -6.6074  -6.5998  -6.5751  -6.5393  -6.5383
    -6.5303  -6.4896  -6.4829  -6.4797  -6.4746  -6.4459  -6.4429  -6.4005
    -6.3927  -6.3894  -6.3833  -6.3641  -6.3588  -6.3407  -6.3109  -6.3105
    -6.2958  -6.2570  -6.2541  -6.2428  -6.2268  -6.2229  -6.2220  -6.2004
    -6.1514  -6.1318  -6.1155  -6.1016  -6.0791  -6.0666  -6.0623  -5.6075
    -5.0000  -4.2229  -4.0320  -3.5840  -2.8376  -2.7689  -1.5334  -1.3046
    -0.8435  -0.5526   1.3860   1.7256   1.8186   2.3878   3.4974   3.6019
     3.6448   3.7841   4.2028   4.2821   4.8132

          k = 0.0297-0.0172 0.0000 ( 16966 PWs)   bands (ev):

  -125.7588-125.7360-125.7352-125.7351-125.6151-125.6143-125.6143-125.5349
  -125.5341-125.5340-125.5203-125.4648 -79.9432 -79.9358 -79.9355 -79.9171
   -79.9152 -79.9148 -79.9114 -79.9103 -79.9093 -79.9093 -79.9059 -79.9053
   -79.8276 -79.8214 -79.8210 -79.8061 -79.8060 -79.8020 -79.7779 -79.7732
   -79.7730 -79.7243 -79.7232 -79.7232 -79.7132 -79.7116 -79.7115 -79.7046
   -79.7023 -79.7020 -79.7018 -79.6938 -79.6935 -79.6480 -79.6359 -79.6359
   -20.4437  -9.3180  -8.1869  -7.2893  -7.2762  -7.2651  -7.2507  -7.2485
    -7.2292  -7.1883  -7.1525  -7.1251  -7.1146  -7.0479  -7.0152  -7.0032
    -6.9021  -6.8776  -6.8458  -6.7763  -6.7406  -6.7396  -6.7261  -6.7217
    -6.7103  -6.6938  -6.6881  -6.6567  -6.6415  -6.6233  -6.5785  -6.5280
    -6.5047  -6.4853  -6.4625  -6.4300  -6.4004  -6.3769  -6.3742  -6.3532
    -6.3196  -6.2854  -6.2804  -6.2449  -6.2313  -6.2249  -6.2103  -6.1970
    -6.1938  -6.1672  -6.1661  -6.1491  -6.1403  -6.1345  -6.1122  -6.1102
    -6.1054  -6.0685  -6.0428  -6.0024  -6.0006  -5.9866  -5.9852  -5.3674
    -4.1921  -4.0771  -3.2496  -2.7174  -2.1833  -2.1563  -1.3961  -0.4373
    -0.4105  -0.0800   0.0705   0.2292   0.9038   1.4845   1.6189   2.0978
     2.7057   2.7266   2.9948   3.2546   4.0032

          k = 0.0297 0.0172 0.0000 ( 16966 PWs)   bands (ev):

  -125.7588-125.7360-125.7352-125.7351-125.6151-125.6143-125.6143-125.5349
  -125.5341-125.5340-125.5203-125.4648 -79.9432 -79.9358 -79.9355 -79.9171
   -79.9152 -79.9148 -79.9114 -79.9103 -79.9093 -79.9093 -79.9059 -79.9053
   -79.8276 -79.8214 -79.8210 -79.8061 -79.8060 -79.8020 -79.7779 -79.7732
   -79.7730 -79.7243 -79.7232 -79.7232 -79.7132 -79.7116 -79.7115 -79.7046
   -79.7023 -79.7020 -79.7018 -79.6938 -79.6935 -79.6480 -79.6359 -79.6359
   -20.4437  -9.3180  -8.1869  -7.2893  -7.2762  -7.2651  -7.2507  -7.2485
    -7.2292  -7.1883  -7.1525  -7.1251  -7.1146  -7.0479  -7.0152  -7.0032
    -6.9021  -6.8776  -6.8458  -6.7763  -6.7406  -6.7396  -6.7261  -6.7217
    -6.7103  -6.6938  -6.6881  -6.6567  -6.6415  -6.6233  -6.5785  -6.5280
    -6.5047  -6.4853  -6.4625  -6.4300  -6.4004  -6.3769  -6.3742  -6.3532
    -6.3196  -6.2854  -6.2804  -6.2449  -6.2313  -6.2249  -6.2103  -6.1970
    -6.1938  -6.1672  -6.1661  -6.1491  -6.1403  -6.1345  -6.1122  -6.1102
    -6.1054  -6.0685  -6.0428  -6.0024  -6.0006  -5.9866  -5.9852  -5.3674
    -4.1921  -4.0771  -3.2496  -2.7174  -2.1833  -2.1563  -1.3961  -0.4373
    -0.4105  -0.0800   0.0705   0.2292   0.9038   1.4845   1.6189   2.0978
     2.7057   2.7266   2.9948   3.2546   4.0032

          k = 0.0297 0.0515 0.0000 ( 16978 PWs)   bands (ev):

  -125.7588-125.7359-125.7353-125.7351-125.6150-125.6144-125.6143-125.5348
  -125.5342-125.5340-125.5203-125.4648 -79.9432 -79.9355 -79.9350 -79.9162
   -79.9157 -79.9141 -79.9120 -79.9101 -79.9096 -79.9093 -79.9072 -79.9056
   -79.8268 -79.8221 -79.8209 -79.8062 -79.8055 -79.8026 -79.7774 -79.7739
   -79.7730 -79.7240 -79.7234 -79.7232 -79.7123 -79.7108 -79.7104 -79.7055
   -79.7033 -79.7021 -79.7020 -79.6946 -79.6937 -79.6480 -79.6361 -79.6360
   -20.4429  -9.2521  -7.9007  -7.2582  -7.2105  -7.2042  -7.1927  -7.1463
    -7.1348  -7.1261  -7.0903  -7.0830  -7.0432  -6.9969  -6.9705  -6.9372
    -6.8714  -6.8368  -6.8206  -6.8047  -6.7628  -6.7410  -6.7217  -6.7138
    -6.6790  -6.6633  -6.6554  -6.6471  -6.6335  -6.6097  -6.5911  -6.5609
    -6.5380  -6.5081  -6.4901  -6.4679  -6.4581  -6.4234  -6.3787  -6.3620
    -6.3486  -6.3280  -6.3069  -6.2928  -6.2814  -6.2685  -6.2556  -6.2338
    -6.2297  -6.2190  -6.2004  -6.1894  -6.1779  -6.1707  -6.1668  -6.1324
    -6.1195  -6.1110  -6.0937  -6.0783  -6.0522  -6.0465  -5.9034  -5.2310
    -4.4356  -4.2559  -3.8324  -3.7763  -2.3438  -2.1695  -1.7482  -0.8240
    -0.5508   0.2911   0.4199   0.7812   1.1607   1.7512   2.5419   2.6820
     3.2527   3.6097   3.7244   4.0425   4.1908

          k = 0.0297-0.1201 0.0000 ( 16986 PWs)   bands (ev):

  -125.7588-125.7357-125.7354-125.7351-125.6149-125.6146-125.6143-125.5346
  -125.5343-125.5340-125.5203-125.4648 -79.9432 -79.9351 -79.9345 -79.9164
   -79.9146 -79.9131 -79.9125 -79.9101 -79.9100 -79.9094 -79.9091 -79.9060
   -79.8256 -79.8232 -79.8208 -79.8063 -79.8049 -79.8033 -79.7766 -79.7749
   -79.7731 -79.7239 -79.7235 -79.7232 -79.7112 -79.7095 -79.7082 -79.7073
   -79.7051 -79.7023 -79.7020 -79.6954 -79.6941 -79.6480 -79.6362 -79.6360
   -20.4422  -9.1887  -7.4504  -7.2318  -7.1417  -7.1147  -7.0653  -7.0522
    -7.0439  -7.0303  -7.0211  -6.9874  -6.9654  -6.9482  -6.9036  -6.8962
    -6.8814  -6.8617  -6.7975  -6.7803  -6.7587  -6.7219  -6.7085  -6.6951
    -6.6901  -6.6824  -6.6514  -6.6275  -6.6129  -6.6011  -6.5811  -6.5665
    -6.5429  -6.5269  -6.5199  -6.5029  -6.4781  -6.4556  -6.4304  -6.4032
    -6.3921  -6.3866  -6.3706  -6.3576  -6.3472  -6.3180  -6.3079  -6.2939
    -6.2806  -6.2639  -6.2449  -6.2397  -6.2238  -6.2028  -6.1956  -6.1623
    -6.1577  -6.1456  -6.1159  -6.1095  -6.1034  -6.0767  -5.8481  -5.4430
    -4.9306  -4.5658  -4.0544  -3.9068  -3.1971  -2.2793  -1.5829  -1.0433
    -0.5995   0.4608   0.8078   1.0969   1.5456   2.5539   2.9390   3.3111
     3.6144   3.7636   4.0302   4.4673   4.8414

          k = 0.0297-0.0858 0.0000 ( 16986 PWs)   bands (ev):

  -125.7588-125.7357-125.7354-125.7351-125.6149-125.6146-125.6143-125.5346
  -125.5343-125.5340-125.5203-125.4648 -79.9432 -79.9351 -79.9345 -79.9164
   -79.9146 -79.9131 -79.9125 -79.9101 -79.9100 -79.9094 -79.9091 -79.9060
   -79.8256 -79.8232 -79.8208 -79.8063 -79.8049 -79.8033 -79.7766 -79.7749
   -79.7731 -79.7239 -79.7235 -79.7232 -79.7112 -79.7095 -79.7082 -79.7073
   -79.7051 -79.7023 -79.7020 -79.6954 -79.6941 -79.6480 -79.6362 -79.6360
   -20.4422  -9.1887  -7.4504  -7.2318  -7.1417  -7.1147  -7.0653  -7.0522
    -7.0439  -7.0303  -7.0211  -6.9874  -6.9654  -6.9482  -6.9036  -6.8962
    -6.8814  -6.8617  -6.7975  -6.7803  -6.7587  -6.7219  -6.7085  -6.6951
    -6.6901  -6.6824  -6.6514  -6.6275  -6.6129  -6.6011  -6.5811  -6.5665
    -6.5429  -6.5269  -6.5199  -6.5029  -6.4781  -6.4556  -6.4304  -6.4032
    -6.3921  -6.3866  -6.3706  -6.3576  -6.3472  -6.3180  -6.3079  -6.2939
    -6.2806  -6.2639  -6.2449  -6.2397  -6.2238  -6.2028  -6.1956  -6.1623
    -6.1577  -6.1456  -6.1159  -6.1095  -6.1034  -6.0767  -5.8481  -5.4430
    -4.9306  -4.5658  -4.0544  -3.9068  -3.1971  -2.2793  -1.5829  -1.0433
    -0.5995   0.4608   0.8078   1.0969   1.5456   2.5539   2.9390   3.3111
     3.6144   3.7636   4.0302   4.4673   4.8414

          k = 0.0297-0.0515 0.0000 ( 16978 PWs)   bands (ev):

  -125.7588-125.7359-125.7353-125.7351-125.6150-125.6144-125.6143-125.5348
  -125.5342-125.5340-125.5203-125.4648 -79.9432 -79.9355 -79.9350 -79.9162
   -79.9157 -79.9141 -79.9120 -79.9101 -79.9096 -79.9093 -79.9072 -79.9056
   -79.8268 -79.8221 -79.8209 -79.8062 -79.8055 -79.8026 -79.7774 -79.7739
   -79.7730 -79.7240 -79.7234 -79.7232 -79.7123 -79.7108 -79.7104 -79.7055
   -79.7033 -79.7021 -79.7020 -79.6946 -79.6937 -79.6480 -79.6361 -79.6360
   -20.4429  -9.2521  -7.9007  -7.2582  -7.2105  -7.2042  -7.1927  -7.1463
    -7.1348  -7.1261  -7.0903  -7.0830  -7.0432  -6.9969  -6.9705  -6.9372
    -6.8714  -6.8368  -6.8206  -6.8047  -6.7628  -6.7410  -6.7217  -6.7138
    -6.6790  -6.6633  -6.6554  -6.6471  -6.6335  -6.6097  -6.5911  -6.5609
    -6.5380  -6.5081  -6.4901  -6.4679  -6.4581  -6.4234  -6.3787  -6.3620
    -6.3486  -6.3280  -6.3069  -6.2928  -6.2814  -6.2685  -6.2556  -6.2338
    -6.2297  -6.2190  -6.2004  -6.1894  -6.1779  -6.1707  -6.1668  -6.1324
    -6.1195  -6.1110  -6.0937  -6.0783  -6.0522  -6.0465  -5.9034  -5.2310
    -4.4356  -4.2559  -3.8324  -3.7763  -2.3438  -2.1695  -1.7482  -0.8240
    -0.5508   0.2911   0.4199   0.7812   1.1607   1.7512   2.5419   2.6820
     3.2527   3.6097   3.7244   4.0425   4.1908

          k = 0.0595-0.0343 0.0000 ( 16996 PWs)   bands (ev):

  -125.7588-125.7359-125.7353-125.7351-125.6150-125.6145-125.6143-125.5348
  -125.5342-125.5340-125.5203-125.4648 -79.9432 -79.9355 -79.9347 -79.9167
   -79.9146 -79.9141 -79.9122 -79.9102 -79.9097 -79.9093 -79.9080 -79.9057
   -79.8265 -79.8224 -79.8209 -79.8062 -79.8054 -79.8028 -79.7772 -79.7742
   -79.7730 -79.7241 -79.7234 -79.7232 -79.7121 -79.7102 -79.7099 -79.7058
   -79.7042 -79.7020 -79.7019 -79.6950 -79.6938 -79.6480 -79.6361 -79.6360
   -20.4427  -9.2303  -7.7709  -7.2661  -7.2138  -7.1748  -7.1231  -7.1138
    -7.1077  -7.1025  -7.0808  -7.0400  -7.0396  -6.9705  -6.9530  -6.9237
    -6.8495  -6.8240  -6.8098  -6.8066  -6.7680  -6.7674  -6.7206  -6.7058
    -6.6636  -6.6532  -6.6439  -6.6367  -6.6136  -6.6130  -6.5814  -6.5658
    -6.5275  -6.5212  -6.5034  -6.4924  -6.4621  -6.4252  -6.3809  -6.3766
    -6.3523  -6.3347  -6.3299  -6.3125  -6.3119  -6.2843  -6.2806  -6.2525
    -6.2525  -6.2487  -6.2258  -6.2234  -6.2035  -6.1944  -6.1680  -6.1497
    -6.1282  -6.1099  -6.0997  -6.0803  -6.0591  -6.0565  -5.8841  -5.3230
    -4.7845  -4.1770  -4.1697  -2.9376  -2.6301  -2.6051  -2.0744  -0.8928
    -0.7286  -0.0040   0.7207   1.5249   1.5416   2.0064   2.1959   3.1690
     3.4473   3.5129   3.7151   4.0324   4.5915

          k = 0.0595 0.0000 0.0000 ( 16978 PWs)   bands (ev):

  -125.7588-125.7359-125.7353-125.7351-125.6150-125.6144-125.6143-125.5348
  -125.5342-125.5340-125.5203-125.4648 -79.9432 -79.9355 -79.9350 -79.9162
   -79.9157 -79.9141 -79.9120 -79.9101 -79.9096 -79.9093 -79.9072 -79.9056
   -79.8268 -79.8221 -79.8209 -79.8062 -79.8055 -79.8026 -79.7774 -79.7739
   -79.7730 -79.7240 -79.7234 -79.7232 -79.7123 -79.7108 -79.7104 -79.7055
   -79.7033 -79.7021 -79.7020 -79.6946 -79.6937 -79.6480 -79.6361 -79.6360
   -20.4429  -9.2521  -7.9007  -7.2582  -7.2105  -7.2042  -7.1927  -7.1463
    -7.1348  -7.1261  -7.0903  -7.0830  -7.0432  -6.9969  -6.9705  -6.9372
    -6.8714  -6.8368  -6.8206  -6.8047  -6.7628  -6.7410  -6.7217  -6.7138
    -6.6790  -6.6633  -6.6554  -6.6471  -6.6335  -6.6097  -6.5911  -6.5609
    -6.5380  -6.5081  -6.4901  -6.4679  -6.4581  -6.4234  -6.3787  -6.3620
    -6.3486  -6.3280  -6.3069  -6.2928  -6.2814  -6.2685  -6.2556  -6.2338
    -6.2297  -6.2190  -6.2004  -6.1894  -6.1779  -6.1707  -6.1668  -6.1324
    -6.1195  -6.1110  -6.0937  -6.0783  -6.0522  -6.0465  -5.9034  -5.2310
    -4.4356  -4.2559  -3.8324  -3.7763  -2.3438  -2.1695  -1.7482  -0.8240
    -0.5508   0.2911   0.4199   0.7812   1.1607   1.7512   2.5419   2.6820
     3.2527   3.6097   3.7244   4.0425   4.1908

          k = 0.0595 0.0343 0.0000 ( 16996 PWs)   bands (ev):

  -125.7588-125.7359-125.7353-125.7351-125.6150-125.6145-125.6143-125.5348
  -125.5342-125.5340-125.5203-125.4648 -79.9432 -79.9355 -79.9347 -79.9167
   -79.9146 -79.9141 -79.9122 -79.9102 -79.9097 -79.9093 -79.9080 -79.9057
   -79.8265 -79.8224 -79.8209 -79.8062 -79.8054 -79.8028 -79.7772 -79.7742
   -79.7730 -79.7241 -79.7234 -79.7232 -79.7121 -79.7102 -79.7099 -79.7058
   -79.7042 -79.7020 -79.7019 -79.6950 -79.6938 -79.6480 -79.6361 -79.6360
   -20.4427  -9.2303  -7.7709  -7.2661  -7.2138  -7.1748  -7.1231  -7.1138
    -7.1077  -7.1025  -7.0808  -7.0400  -7.0396  -6.9705  -6.9530  -6.9237
    -6.8495  -6.8240  -6.8098  -6.8066  -6.7680  -6.7674  -6.7206  -6.7058
    -6.6636  -6.6532  -6.6439  -6.6367  -6.6136  -6.6130  -6.5814  -6.5658
    -6.5275  -6.5212  -6.5034  -6.4924  -6.4621  -6.4252  -6.3809  -6.3766
    -6.3523  -6.3347  -6.3299  -6.3125  -6.3119  -6.2843  -6.2806  -6.2525
    -6.2525  -6.2487  -6.2258  -6.2234  -6.2035  -6.1944  -6.1680  -6.1497
    -6.1282  -6.1099  -6.0997  -6.0803  -6.0591  -6.0565  -5.8841  -5.3230
    -4.7845  -4.1770  -4.1697  -2.9376  -2.6301  -2.6051  -2.0744  -0.8928
    -0.7286  -0.0040   0.7207   1.5249   1.5416   2.0064   2.1959   3.1690
     3.4473   3.5129   3.7151   4.0324   4.5915

          k = 0.0595-0.1373 0.0000 ( 16986 PWs)   bands (ev):

  -125.7588-125.7357-125.7354-125.7351-125.6149-125.6146-125.6143-125.5346
  -125.5343-125.5340-125.5203-125.4648 -79.9432 -79.9351 -79.9345 -79.9164
   -79.9146 -79.9131 -79.9125 -79.9101 -79.9100 -79.9094 -79.9091 -79.9060
   -79.8256 -79.8232 -79.8208 -79.8063 -79.8049 -79.8033 -79.7766 -79.7749
   -79.7731 -79.7239 -79.7235 -79.7232 -79.7112 -79.7095 -79.7082 -79.7073
   -79.7051 -79.7023 -79.7020 -79.6954 -79.6941 -79.6480 -79.6362 -79.6360
   -20.4422  -9.1887  -7.4504  -7.2318  -7.1417  -7.1147  -7.0654  -7.0522
    -7.0439  -7.0303  -7.0211  -6.9874  -6.9654  -6.9482  -6.9036  -6.8962
    -6.8814  -6.8617  -6.7975  -6.7803  -6.7587  -6.7219  -6.7085  -6.6951
    -6.6901  -6.6824  -6.6514  -6.6275  -6.6129  -6.6011  -6.5811  -6.5665
    -6.5429  -6.5269  -6.5199  -6.5029  -6.4781  -6.4556  -6.4304  -6.4032
    -6.3921  -6.3866  -6.3706  -6.3576  -6.3472  -6.3180  -6.3079  -6.2939
    -6.2806  -6.2639  -6.2449  -6.2397  -6.2238  -6.2028  -6.1956  -6.1623
    -6.1577  -6.1456  -6.1159  -6.1095  -6.1034  -6.0767  -5.8481  -5.4430
    -4.9306  -4.5658  -4.0544  -3.9068  -3.1971  -2.2793  -1.5829  -1.0433
    -0.5995   0.4608   0.8078   1.0969   1.5456   2.5539   2.9390   3.3111
     3.6144   3.7636   4.0302   4.4673   4.8414

          k = 0.0595-0.1030 0.0000 ( 17004 PWs)   bands (ev):

  -125.7588-125.7356-125.7356-125.7351-125.6147-125.6147-125.6143-125.5345
  -125.5345-125.5340-125.5203-125.4648 -79.9432 -79.9347 -79.9347 -79.9158
   -79.9145 -79.9145 -79.9110 -79.9110 -79.9097 -79.9096 -79.9094 -79.9064
   -79.8245 -79.8244 -79.8208 -79.8064 -79.8042 -79.8042 -79.7759 -79.7756
   -79.7732 -79.7237 -79.7237 -79.7232 -79.7097 -79.7097 -79.7089 -79.7063
   -79.7063 -79.7029 -79.7020 -79.6950 -79.6950 -79.6480 -79.6362 -79.6362
   -20.4420  -9.1689  -7.3090  -7.0902  -7.0800  -7.0576  -6.9941  -6.9861
    -6.9827  -6.9782  -6.9715  -6.9691  -6.9467  -6.9405  -6.9360  -6.9280
    -6.9203  -6.9001  -6.8263  -6.8186  -6.8084  -6.6961  -6.6954  -6.6954
    -6.6566  -6.6464  -6.6458  -6.6143  -6.6100  -6.5907  -6.5846  -6.5795
    -6.5727  -6.5582  -6.5312  -6.5248  -6.5167  -6.4950  -6.4835  -6.4478
    -6.4454  -6.4373  -6.3842  -6.3452  -6.3360  -6.3297  -6.3296  -6.3234
    -6.2835  -6.2675  -6.2565  -6.2309  -6.2022  -6.1718  -6.1661  -6.1640
    -6.1639  -6.1500  -6.1495  -6.1456  -6.1199  -5.9699  -5.7011  -5.6041
    -5.2144  -4.6263  -4.6052  -3.4282  -3.2217  -3.2185  -0.9712  -0.9104
    -0.3450   0.9351   0.9763   0.9799   2.0989   2.1792   2.4738   2.7030
     3.1445   3.4913   4.5295   4.7465   4.8033

          k = 0.0595-0.0686 0.0000 ( 16986 PWs)   bands (ev):

  -125.7588-125.7357-125.7354-125.7351-125.6149-125.6146-125.6143-125.5346
  -125.5343-125.5340-125.5203-125.4648 -79.9432 -79.9351 -79.9345 -79.9164
   -79.9146 -79.9131 -79.9125 -79.9101 -79.9100 -79.9094 -79.9091 -79.9060
   -79.8256 -79.8232 -79.8208 -79.8063 -79.8049 -79.8033 -79.7766 -79.7749
   -79.7731 -79.7239 -79.7235 -79.7232 -79.7112 -79.7095 -79.7082 -79.7073
   -79.7051 -79.7023 -79.7020 -79.6954 -79.6941 -79.6480 -79.6362 -79.6360
   -20.4422  -9.1887  -7.4504  -7.2318  -7.1417  -7.1147  -7.0654  -7.0522
    -7.0439  -7.0303  -7.0211  -6.9874  -6.9654  -6.9482  -6.9036  -6.8962
    -6.8814  -6.8617  -6.7975  -6.7803  -6.7587  -6.7219  -6.7085  -6.6951
    -6.6901  -6.6824  -6.6514  -6.6275  -6.6129  -6.6011  -6.5811  -6.5665
    -6.5429  -6.5269  -6.5199  -6.5029  -6.4781  -6.4556  -6.4304  -6.4032
    -6.3921  -6.3866  -6.3706  -6.3576  -6.3472  -6.3180  -6.3079  -6.2939
    -6.2806  -6.2639  -6.2449  -6.2397  -6.2238  -6.2028  -6.1956  -6.1623
    -6.1577  -6.1456  -6.1159  -6.1095  -6.1034  -6.0767  -5.8481  -5.4430
    -4.9306  -4.5658  -4.0544  -3.9068  -3.1971  -2.2793  -1.5829  -1.0433
    -0.5995   0.4608   0.8078   1.0969   1.5456   2.5539   2.9390   3.3111
     3.6144   3.7636   4.0302   4.4673   4.8414

          k =-0.0892 0.0515 0.0000 ( 17028 PWs)   bands (ev):

  -125.7588-125.7357-125.7354-125.7351-125.6149-125.6146-125.6143-125.5346
  -125.5343-125.5340-125.5203-125.4648 -79.9432 -79.9353 -79.9343 -79.9170
   -79.9134 -79.9130 -79.9129 -79.9107 -79.9101 -79.9094 -79.9093 -79.9058
   -79.8257 -79.8232 -79.8208 -79.8063 -79.8049 -79.8034 -79.7767 -79.7750
   -79.7730 -79.7240 -79.7236 -79.7232 -79.7116 -79.7091 -79.7076 -79.7070
   -79.7067 -79.7020 -79.7018 -79.6958 -79.6939 -79.6480 -79.6363 -79.6360
   -20.4422  -9.1877  -7.3994  -7.2936  -7.1719  -7.1119  -7.0757  -7.0650
    -7.0412  -6.9945  -6.9888  -6.9756  -6.9692  -6.9553  -6.9295  -6.8984
    -6.8533  -6.8284  -6.8210  -6.7920  -6.7455  -6.7408  -6.7241  -6.7122
    -6.6732  -6.6687  -6.6657  -6.6074  -6.5998  -6.5751  -6.5393  -6.5383
    -6.5303  -6.4896  -6.4829  -6.4797  -6.4746  -6.4459  -6.4429  -6.4005
    -6.3927  -6.3894  -6.3833  -6.3641  -6.3588  -6.3407  -6.3109  -6.3105
    -6.2958  -6.2570  -6.2541  -6.2428  -6.2268  -6.2229  -6.2220  -6.2004
    -6.1514  -6.1318  -6.1155  -6.1016  -6.0791  -6.0666  -6.0623  -5.6075
    -5.0000  -4.2229  -4.0320  -3.5840  -2.8376  -2.7689  -1.5334  -1.3046
    -0.8435  -0.5526   1.3860   1.7256   1.8186   2.3878   3.4974   3.6019
     3.6448   3.7841   4.2028   4.2821   4.8132

          k =-0.0892 0.0858 0.0000 ( 16986 PWs)   bands (ev):

  -125.7588-125.7357-125.7354-125.7351-125.6149-125.6146-125.6143-125.5346
  -125.5343-125.5340-125.5203-125.4648 -79.9432 -79.9351 -79.9345 -79.9164
   -79.9146 -79.9131 -79.9125 -79.9101 -79.9100 -79.9094 -79.9091 -79.9060
   -79.8256 -79.8232 -79.8208 -79.8063 -79.8049 -79.8033 -79.7766 -79.7749
   -79.7731 -79.7239 -79.7235 -79.7232 -79.7112 -79.7095 -79.7082 -79.7073
   -79.7051 -79.7023 -79.7020 -79.6954 -79.6941 -79.6480 -79.6362 -79.6360
   -20.4422  -9.1887  -7.4504  -7.2318  -7.1417  -7.1147  -7.0653  -7.0522
    -7.0439  -7.0303  -7.0211  -6.9874  -6.9654  -6.9482  -6.9036  -6.8962
    -6.8814  -6.8617  -6.7975  -6.7803  -6.7587  -6.7219  -6.7085  -6.6951
    -6.6901  -6.6824  -6.6514  -6.6275  -6.6129  -6.6011  -6.5811  -6.5665
    -6.5429  -6.5269  -6.5199  -6.5029  -6.4781  -6.4556  -6.4304  -6.4032
    -6.3921  -6.3866  -6.3706  -6.3576  -6.3472  -6.3180  -6.3079  -6.2939
    -6.2806  -6.2639  -6.2449  -6.2397  -6.2238  -6.2028  -6.1956  -6.1623
    -6.1577  -6.1456  -6.1159  -6.1095  -6.1034  -6.0767  -5.8481  -5.4430
    -4.9306  -4.5658  -4.0544  -3.9068  -3.1971  -2.2793  -1.5829  -1.0433
    -0.5995   0.4608   0.8078   1.0969   1.5456   2.5539   2.9390   3.3111
     3.6144   3.7636   4.0302   4.4673   4.8414

          k =-0.0892 0.1201 0.0000 ( 16986 PWs)   bands (ev):

  -125.7588-125.7357-125.7354-125.7351-125.6149-125.6146-125.6143-125.5346
  -125.5343-125.5340-125.5203-125.4648 -79.9432 -79.9351 -79.9345 -79.9164
   -79.9146 -79.9131 -79.9125 -79.9101 -79.9100 -79.9094 -79.9091 -79.9060
   -79.8256 -79.8232 -79.8208 -79.8063 -79.8049 -79.8033 -79.7766 -79.7749
   -79.7731 -79.7239 -79.7235 -79.7232 -79.7112 -79.7095 -79.7082 -79.7073
   -79.7051 -79.7023 -79.7020 -79.6954 -79.6941 -79.6480 -79.6362 -79.6360
   -20.4422  -9.1887  -7.4504  -7.2318  -7.1417  -7.1147  -7.0654  -7.0522
    -7.0439  -7.0303  -7.0211  -6.9874  -6.9654  -6.9482  -6.9036  -6.8962
    -6.8814  -6.8617  -6.7975  -6.7803  -6.7587  -6.7219  -6.7085  -6.6951
    -6.6901  -6.6824  -6.6514  -6.6275  -6.6129  -6.6011  -6.5811  -6.5665
    -6.5429  -6.5269  -6.5199  -6.5029  -6.4781  -6.4556  -6.4304  -6.4032
    -6.3921  -6.3866  -6.3706  -6.3576  -6.3472  -6.3180  -6.3079  -6.2939
    -6.2806  -6.2639  -6.2449  -6.2397  -6.2238  -6.2028  -6.1956  -6.1623
    -6.1577  -6.1456  -6.1159  -6.1095  -6.1034  -6.0767  -5.8481  -5.4430
    -4.9306  -4.5658  -4.0544  -3.9068  -3.1971  -2.2793  -1.5829  -1.0433
    -0.5995   0.4608   0.8078   1.0969   1.5456   2.5539   2.9390   3.3111
     3.6144   3.7636   4.0302   4.4673   4.8414

          k =-0.0892-0.0515 0.0000 ( 17028 PWs)   bands (ev):

  -125.7588-125.7357-125.7354-125.7351-125.6149-125.6146-125.6143-125.5346
  -125.5343-125.5340-125.5203-125.4648 -79.9432 -79.9353 -79.9343 -79.9170
   -79.9134 -79.9130 -79.9129 -79.9107 -79.9101 -79.9094 -79.9093 -79.9058
   -79.8257 -79.8231 -79.8208 -79.8063 -79.8049 -79.8034 -79.7767 -79.7750
   -79.7730 -79.7240 -79.7236 -79.7232 -79.7116 -79.7091 -79.7076 -79.7070
   -79.7067 -79.7020 -79.7018 -79.6958 -79.6939 -79.6480 -79.6363 -79.6360
   -20.4422  -9.1877  -7.3994  -7.2936  -7.1719  -7.1119  -7.0757  -7.0650
    -7.0412  -6.9945  -6.9888  -6.9756  -6.9692  -6.9553  -6.9295  -6.8984
    -6.8533  -6.8284  -6.8210  -6.7920  -6.7455  -6.7408  -6.7241  -6.7122
    -6.6732  -6.6687  -6.6657  -6.6074  -6.5998  -6.5751  -6.5393  -6.5383
    -6.5303  -6.4896  -6.4829  -6.4797  -6.4746  -6.4459  -6.4429  -6.4005
    -6.3927  -6.3894  -6.3833  -6.3641  -6.3588  -6.3407  -6.3109  -6.3105
    -6.2958  -6.2570  -6.2541  -6.2428  -6.2268  -6.2229  -6.2220  -6.2004
    -6.1514  -6.1318  -6.1155  -6.1016  -6.0791  -6.0666  -6.0623  -5.6075
    -5.0000  -4.2229  -4.0320  -3.5840  -2.8376  -2.7689  -1.5334  -1.3046
    -0.8435  -0.5526   1.3860   1.7256   1.8186   2.3878   3.4974   3.6019
     3.6448   3.7841   4.2028   4.2821   4.8132

     the Fermi energy is     1.0103 ev

!    total energy              =   -5587.05287139 Ry
     Harris-Foulkes estimate   =   -5587.05287222 Ry
     estimated scf accuracy    <       0.00000386 Ry

     The total energy is the sum of the following terms:

     one-electron contribution =  -36384.06737077 Ry
     hartree contribution      =   18177.81709305 Ry
     xc contribution           =    -529.43284575 Ry
     ewald contribution        =   13148.65484729 Ry
     electric field correction =       0.00031641 Ry
     smearing contrib. (-TS)   =      -0.02491162 Ry

     convergence has been achieved in   9 iterations
 
 BEEF-vdW xc energy contributions
           1 :   -470.134087568789     
           2 :    425.858219801861     
           3 :   -351.667271695064     
           4 :    269.141094950418     
           5 :   -197.285851166169     
           6 :    145.447371095777     
           7 :   -112.124798199660     
           8 :    89.3082057346587     
           9 :   -69.0130576244284     
          10 :    47.9221505206337     
          11 :   -27.8464501672785     
          12 :    12.6670719525412     
          13 :   -4.53279993990225     
          14 :    2.06632280082511     
          15 :   -1.49667684334793     
          16 :  -0.559606666919308     
          17 :    4.92680714541643     
          18 :   -9.81746210070185     
          19 :    12.6660544049069     
          20 :   -12.2765297454307     
          21 :    9.67374526150752     
          22 :   -7.18617025114725     
          23 :    6.63385331191989     
          24 :   -8.06727102644345     
          25 :    9.94559586046972     
          26 :   -10.4834964321852     
          27 :    9.04400889512783     
          28 :   -6.52873677639604     
          29 :    4.56335035773645     
          30 :   -4.20357266828375     
          31 :   -36.5886009797841     
          32 :   -24.9379568878597     

     Forces acting on atoms (Ry/au):


     negative rho (up, down):  1.053E-03 0.000E+00
     atom    1 type  1   force =    -0.00000303    0.00000074   -0.00558975
     atom    2 type  1   force =     0.00000133   -0.00091026   -0.00924705
     atom    3 type  1   force =    -0.00078786    0.00045704   -0.00924559
     atom    4 type  1   force =     0.00079092    0.00045421   -0.00924819
     atom    5 type  1   force =     0.00405281   -0.00233912    0.00566169
     atom    6 type  1   force =    -0.00405212   -0.00233910    0.00566208
     atom    7 type  1   force =     0.00000314    0.00000160   -0.00548938
     atom    8 type  1   force =    -0.00000603    0.00467365    0.00565916
     atom    9 type  1   force =    -0.04214070   -0.02432587   -0.01063209
     atom   10 type  1   force =     0.04214181   -0.02432914   -0.01063616
     atom   11 type  1   force =    -0.00000044    0.04865615   -0.01063341
     atom   12 type  1   force =    -0.00000044   -0.00000080   -0.00156152
     atom   13 type  2   force =     0.00000037    0.00000052   -0.00288424
     atom   14 type  3   force =     0.00000023    0.00000037    0.05818443

     Total force =     0.104107     Total SCF correction =     0.004050


     entering subroutine stress ...


     negative rho (up, down):  1.053E-03 0.000E+00
          total   stress  (Ry/bohr**3)                   (kbar)     P=   -5.57
  -0.00009058  -0.00000000  -0.00000000        -13.33     -0.00     -0.00
  -0.00000000  -0.00009059   0.00000000         -0.00    -13.33      0.00
  -0.00000000   0.00000000   0.00006751         -0.00      0.00      9.93


     BFGS Geometry Optimization

     number of scf cycles    =   1
     number of bfgs steps    =   0

     energy   new            =   -5587.0528713875 Ry

     new trust radius        =       0.0581844310 bohr
     new conv_thr            =       0.0000099958 Ry


ATOMIC_POSITIONS (crystal)
Zn1      0.166666667   0.166666667   0.406869400    0   0   0
Zn1      0.666666667   0.166666667   0.406869400    0   0   0
Zn1      0.166666667   0.666666667   0.406869400    0   0   0
Zn1      0.666666667   0.666666667   0.406869400    0   0   0
Zn1      0.833333333   0.333333333   0.500000000    0   0   0
Zn1      0.333333333   0.333333333   0.500000000    0   0   0
Zn1      0.833333333   0.833333333   0.500000000    0   0   0
Zn1      0.333333333   0.833333333   0.500000000    0   0   0
Zn1     -0.002651765  -0.002651098   0.592901685
Zn1      0.505303146  -0.002651455   0.592901597
Zn1     -0.002651381   0.505302678   0.592901657
Zn1      0.500000002   0.499999913   0.593096980
O1       0.166666673   0.166666724   0.642787942
H1       0.166666669   0.166666707   0.682755380



     Writing output data file calc.save
     Check: negative starting charge=   -0.000825
     NEW-OLD atomic charge density approx. for the potential
     Check: negative starting charge=   -0.000820

     negative rho (up, down):  1.052E-03 0.000E+00
 
     Adding external electric field

     Computed dipole along edir(3) : 
        Dipole                0.3372 Ry au,          0.8570 Debye
        Dipole field          0.0009 Ry au
 
        Potential amp.       -0.0850 Ry
        Total length         45.2844 bohr
 

     total cpu time spent up to now is      364.8 secs

     per-process dynamical memory:   116.0 Mb

     Self-consistent Calculation

     iteration #  1     ecut=    36.75 Ry     beta=0.30
     Davidson diagonalization with overlap
     ethr =  1.00E-06,  avg # of iterations =  4.3

     negative rho (up, down):  1.049E-03 0.000E+00
 
     Adding external electric field

     Computed dipole along edir(3) : 
        Dipole                0.3092 Ry au,          0.7860 Debye
        Dipole field          0.0009 Ry au
 
        Potential amp.       -0.0779 Ry
        Total length         45.2844 bohr
 

     total cpu time spent up to now is      399.8 secs

     total energy              =   -5587.06063160 Ry
     Harris-Foulkes estimate   =   -5587.06099990 Ry
     estimated scf accuracy    <       0.00095070 Ry

     iteration #  2     ecut=    36.75 Ry     beta=0.30
     Davidson diagonalization with overlap
     ethr =  3.85E-07,  avg # of iterations =  3.8

     negative rho (up, down):  1.050E-03 0.000E+00
 
     Adding external electric field

     Computed dipole along edir(3) : 
        Dipole                0.3521 Ry au,          0.8948 Debye
        Dipole field          0.0010 Ry au
 
        Potential amp.       -0.0887 Ry
        Total length         45.2844 bohr
 

     total cpu time spent up to now is      423.4 secs

     total energy              =   -5587.06051964 Ry
     Harris-Foulkes estimate   =   -5587.06074964 Ry
     estimated scf accuracy    <       0.00151448 Ry

     iteration #  3     ecut=    36.75 Ry     beta=0.30
     Davidson diagonalization with overlap
     ethr =  3.85E-07,  avg # of iterations =  3.9

     negative rho (up, down):  1.051E-03 0.000E+00
 
     Adding external electric field

     Computed dipole along edir(3) : 
        Dipole                0.3259 Ry au,          0.8283 Debye
        Dipole field          0.0009 Ry au
 
        Potential amp.       -0.0821 Ry
        Total length         45.2844 bohr
 

     total cpu time spent up to now is      447.1 secs

     total energy              =   -5587.06059430 Ry
     Harris-Foulkes estimate   =   -5587.06094738 Ry
     estimated scf accuracy    <       0.00319183 Ry

     iteration #  4     ecut=    36.75 Ry     beta=0.30
     Davidson diagonalization with overlap
     ethr =  3.85E-07,  avg # of iterations =  3.1

     negative rho (up, down):  1.053E-03 0.000E+00
 
     Adding external electric field

     Computed dipole along edir(3) : 
        Dipole                0.3278 Ry au,          0.8331 Debye
        Dipole field          0.0009 Ry au
 
        Potential amp.       -0.0826 Ry
        Total length         45.2844 bohr
 

     total cpu time spent up to now is      469.6 secs

     total energy              =   -5587.06073357 Ry
     Harris-Foulkes estimate   =   -5587.06073896 Ry
     estimated scf accuracy    <       0.00005066 Ry

     iteration #  5     ecut=    36.75 Ry     beta=0.30
     Davidson diagonalization with overlap
     ethr =  2.05E-08,  avg # of iterations =  2.9

     negative rho (up, down):  1.054E-03 0.000E+00
 
     Adding external electric field

     Computed dipole along edir(3) : 
        Dipole                0.3284 Ry au,          0.8347 Debye
        Dipole field          0.0009 Ry au
 
        Potential amp.       -0.0828 Ry
        Total length         45.2844 bohr
 

     total cpu time spent up to now is      492.4 secs

     total energy              =   -5587.06073678 Ry
     Harris-Foulkes estimate   =   -5587.06073794 Ry
     estimated scf accuracy    <       0.00001506 Ry

     iteration #  6     ecut=    36.75 Ry     beta=0.30
     Davidson diagonalization with overlap
     ethr =  6.10E-09,  avg # of iterations =  2.7

     negative rho (up, down):  1.056E-03 0.000E+00

     negative rho (up, down):  1.056E-03 0.000E+00

     negative rho (up, down):  1.056E-03 0.000E+00

     negative rho (up, down):  1.056E-03 0.000E+00

     negative rho (up, down):  1.056E-03 0.000E+00

     negative rho (up, down):  1.056E-03 0.000E+00

     negative rho (up, down):  1.056E-03 0.000E+00

     negative rho (up, down):  1.056E-03 0.000E+00

     negative rho (up, down):  1.056E-03 0.000E+00

     negative rho (up, down):  1.056E-03 0.000E+00

     negative rho (up, down):  1.056E-03 0.000E+00

     negative rho (up, down):  1.056E-03 0.000E+00

     negative rho (up, down):  1.056E-03 0.000E+00

     negative rho (up, down):  1.056E-03 0.000E+00

     negative rho (up, down):  1.056E-03 0.000E+00

     negative rho (up, down):  1.056E-03 0.000E+00

     negative rho (up, down):  1.056E-03 0.000E+00

     negative rho (up, down):  1.056E-03 0.000E+00

     negative rho (up, down):  1.056E-03 0.000E+00

     negative rho (up, down):  1.056E-03 0.000E+00

     negative rho (up, down):  1.056E-03 0.000E+00

     negative rho (up, down):  1.056E-03 0.000E+00

     negative rho (up, down):  1.056E-03 0.000E+00

     negative rho (up, down):  1.056E-03 0.000E+00

     negative rho (up, down):  1.056E-03 0.000E+00

     negative rho (up, down):  1.056E-03 0.000E+00

     negative rho (up, down):  1.056E-03 0.000E+00

     negative rho (up, down):  1.056E-03 0.000E+00

     negative rho (up, down):  1.056E-03 0.000E+00

     negative rho (up, down):  1.056E-03 0.000E+00

     negative rho (up, down):  1.056E-03 0.000E+00

     negative rho (up, down):  1.056E-03 0.000E+00

     negative rho (up, down):  1.056E-03 0.000E+00

     negative rho (up, down):  1.056E-03 0.000E+00

     negative rho (up, down):  1.056E-03 0.000E+00
 
     Adding external electric field

     Computed dipole along edir(3) : 
        Dipole                0.3307 Ry au,          0.8405 Debye
        Dipole field          0.0009 Ry au
 
        Potential amp.       -0.0834 Ry
        Total length         45.2844 bohr
 

     total cpu time spent up to now is      572.9 secs

     End of self-consistent calculation

          k = 0.0000 0.0000 0.0000 ( 16931 PWs)   bands (ev):

  -125.7850-125.7512-125.7503-125.7503-125.6215-125.6205-125.6205-125.5518
  -125.5509-125.5509-125.5373-125.4805 -79.9698 -79.9611 -79.9611 -79.9328
   -79.9307 -79.9307 -79.9261 -79.9254 -79.9245 -79.9245 -79.9202 -79.9202
   -79.8325 -79.8256 -79.8256 -79.8127 -79.8127 -79.8080 -79.7841 -79.7787
   -79.7787 -79.7409 -79.7399 -79.7399 -79.7309 -79.7291 -79.7291 -79.7210
   -79.7189 -79.7186 -79.7186 -79.7102 -79.7102 -79.6636 -79.6518 -79.6518
   -20.0992  -9.1160  -8.3177  -7.3221  -7.3221  -7.3168  -7.3003  -7.2985
    -7.2985  -7.2536  -7.2166  -7.1537  -7.1537  -7.0657  -7.0565  -7.0565
    -6.8911  -6.8911  -6.8693  -6.7795  -6.7749  -6.7749  -6.7503  -6.7503
    -6.7274  -6.7039  -6.7039  -6.6659  -6.6519  -6.6519  -6.5655  -6.5655
    -6.4803  -6.4655  -6.4655  -6.3985  -6.3985  -6.3672  -6.3672  -6.3506
    -6.3054  -6.2737  -6.2737  -6.2336  -6.2336  -6.1945  -6.1936  -6.1936
    -6.1912  -6.1679  -6.1679  -6.1523  -6.1290  -6.1290  -6.1184  -6.1184
    -6.0768  -6.0752  -6.0143  -6.0143  -5.9684  -5.9645  -5.9645  -5.5315
    -3.9257  -3.9257  -2.9758  -1.5987  -1.5987  -1.4803  -1.0820  -1.0820
    -1.0480  -0.3499   0.0601   0.0601   0.1217   0.9732   0.9732   1.5922
     2.7328   2.8762   2.8762   3.1087   3.5139

          k = 0.0000 0.0343 0.0000 ( 16966 PWs)   bands (ev):

  -125.7850-125.7511-125.7503-125.7503-125.6214-125.6206-125.6205-125.5518
  -125.5510-125.5509-125.5373-125.4805 -79.9699 -79.9610 -79.9608 -79.9322
   -79.9308 -79.9305 -79.9266 -79.9255 -79.9246 -79.9246 -79.9210 -79.9204
   -79.8321 -79.8259 -79.8255 -79.8126 -79.8125 -79.8084 -79.7840 -79.7791
   -79.7787 -79.7410 -79.7400 -79.7400 -79.7303 -79.7285 -79.7285 -79.7215
   -79.7194 -79.7190 -79.7188 -79.7107 -79.7104 -79.6637 -79.6519 -79.6519
   -20.0986  -9.0539  -8.1813  -7.2984  -7.2789  -7.2717  -7.2635  -7.2603
    -7.2418  -7.2002  -7.1657  -7.1355  -7.1230  -7.0537  -7.0159  -7.0131
    -6.9028  -6.8680  -6.8474  -6.7941  -6.7589  -6.7559  -6.7424  -6.7391
    -6.7250  -6.7056  -6.7008  -6.6710  -6.6550  -6.6340  -6.5927  -6.5414
    -6.5184  -6.4886  -6.4638  -6.4435  -6.4130  -6.3901  -6.3878  -6.3637
    -6.3357  -6.2996  -6.2940  -6.2605  -6.2462  -6.2412  -6.2250  -6.2139
    -6.2097  -6.1823  -6.1808  -6.1650  -6.1556  -6.1455  -6.1269  -6.1225
    -6.1152  -6.0814  -6.0522  -6.0175  -6.0175  -6.0036  -5.9980  -5.4032
    -4.1180  -3.9855  -3.2626  -2.7472  -2.2016  -2.1797  -1.4183  -0.4605
    -0.4221  -0.1055   0.0663   0.2024   0.8795   1.4593   1.5925   2.0647
     2.6853   2.7188   2.9878   3.2651   3.9820

          k = 0.0000 0.0686 0.0000 ( 16996 PWs)   bands (ev):

  -125.7850-125.7510-125.7505-125.7503-125.6213-125.6207-125.6205-125.5517
  -125.5511-125.5509-125.5373-125.4805 -79.9699 -79.9608 -79.9603 -79.9319
   -79.9298 -79.9297 -79.9274 -79.9254 -79.9250 -79.9246 -79.9230 -79.9207
   -79.8310 -79.8268 -79.8254 -79.8127 -79.8119 -79.8092 -79.7833 -79.7801
   -79.7788 -79.7409 -79.7402 -79.7400 -79.7291 -79.7271 -79.7268 -79.7226
   -79.7213 -79.7190 -79.7189 -79.7120 -79.7107 -79.6637 -79.6521 -79.6520
   -20.0975  -8.9353  -7.7813  -7.2660  -7.2178  -7.1782  -7.1363  -7.1269
    -7.1240  -7.1171  -7.0967  -7.0561  -7.0433  -6.9745  -6.9385  -6.9281
    -6.8652  -6.8332  -6.8182  -6.8166  -6.7812  -6.7784  -6.7377  -6.7237
    -6.6783  -6.6667  -6.6601  -6.6529  -6.6316  -6.6306  -6.5915  -6.5785
    -6.5404  -6.5352  -6.5131  -6.5088  -6.4665  -6.4374  -6.3927  -6.3907
    -6.3679  -6.3460  -6.3454  -6.3287  -6.3209  -6.2974  -6.2964  -6.2688
    -6.2666  -6.2635  -6.2401  -6.2391  -6.2190  -6.2083  -6.1808  -6.1636
    -6.1375  -6.1254  -6.1113  -6.0963  -6.0752  -6.0732  -5.8904  -5.3470
    -4.8023  -4.1197  -4.0965  -2.9724  -2.6400  -2.6050  -2.0946  -0.9202
    -0.7377  -0.0120   0.7005   1.5089   1.5170   1.9864   2.1757   3.1367
     3.4326   3.5052   3.7031   4.0213   4.5727

          k = 0.0000-0.1030 0.0000 ( 17028 PWs)   bands (ev):

  -125.7849-125.7509-125.7506-125.7503-125.6212-125.6208-125.6205-125.5515
  -125.5512-125.5509-125.5373-125.4805 -79.9699 -79.9607 -79.9601 -79.9322
   -79.9286 -79.9286 -79.9280 -79.9258 -79.9253 -79.9246 -79.9245 -79.9208
   -79.8303 -79.8275 -79.8253 -79.8128 -79.8115 -79.8097 -79.7827 -79.7808
   -79.7788 -79.7408 -79.7404 -79.7399 -79.7286 -79.7260 -79.7245 -79.7239
   -79.7237 -79.7190 -79.7189 -79.7128 -79.7108 -79.6637 -79.6523 -79.6520
   -20.0970  -8.8786  -7.4077  -7.3017  -7.1774  -7.1215  -7.0855  -7.0761
    -7.0524  -7.0038  -6.9984  -6.9882  -6.9824  -6.9756  -6.9103  -6.8924
    -6.8717  -6.8387  -6.8320  -6.8073  -6.7629  -6.7545  -6.7382  -6.7286
    -6.6853  -6.6841  -6.6796  -6.6283  -6.6165  -6.5901  -6.5558  -6.5539
    -6.5403  -6.5066  -6.5006  -6.4900  -6.4855  -6.4625  -6.4491  -6.4076
    -6.4069  -6.3985  -6.3940  -6.3802  -6.3760  -6.3487  -6.3268  -6.3246
    -6.3128  -6.2680  -6.2673  -6.2585  -6.2430  -6.2380  -6.2375  -6.2149
    -6.1660  -6.1429  -6.1386  -6.1166  -6.0917  -6.0825  -6.0794  -5.6117
    -4.9918  -4.1474  -4.0654  -3.5437  -2.8558  -2.7756  -1.5722  -1.3173
    -0.8503  -0.5569   1.3687   1.6991   1.8050   2.3694   3.4854   3.5811
     3.6192   3.7508   4.1860   4.2842   4.8057

          k = 0.0297-0.0172 0.0000 ( 16966 PWs)   bands (ev):

  -125.7850-125.7511-125.7503-125.7503-125.6214-125.6206-125.6205-125.5518
  -125.5510-125.5509-125.5373-125.4805 -79.9699 -79.9610 -79.9608 -79.9322
   -79.9308 -79.9305 -79.9266 -79.9255 -79.9246 -79.9246 -79.9210 -79.9204
   -79.8321 -79.8259 -79.8255 -79.8126 -79.8125 -79.8084 -79.7840 -79.7791
   -79.7787 -79.7410 -79.7400 -79.7400 -79.7303 -79.7285 -79.7285 -79.7215
   -79.7194 -79.7190 -79.7188 -79.7107 -79.7104 -79.6637 -79.6519 -79.6519
   -20.0986  -9.0539  -8.1813  -7.2984  -7.2789  -7.2717  -7.2635  -7.2603
    -7.2418  -7.2002  -7.1657  -7.1355  -7.1230  -7.0537  -7.0159  -7.0131
    -6.9028  -6.8680  -6.8474  -6.7941  -6.7589  -6.7559  -6.7424  -6.7391
    -6.7250  -6.7056  -6.7008  -6.6710  -6.6550  -6.6340  -6.5927  -6.5414
    -6.5184  -6.4886  -6.4638  -6.4435  -6.4130  -6.3901  -6.3878  -6.3637
    -6.3357  -6.2996  -6.2940  -6.2605  -6.2462  -6.2412  -6.2250  -6.2139
    -6.2097  -6.1823  -6.1808  -6.1650  -6.1556  -6.1455  -6.1269  -6.1225
    -6.1152  -6.0814  -6.0522  -6.0175  -6.0175  -6.0036  -5.9980  -5.4032
    -4.1180  -3.9855  -3.2626  -2.7472  -2.2016  -2.1797  -1.4183  -0.4605
    -0.4221  -0.1055   0.0663   0.2024   0.8795   1.4593   1.5925   2.0647
     2.6853   2.7188   2.9878   3.2651   3.9820

          k = 0.0297 0.0172 0.0000 ( 16966 PWs)   bands (ev):

  -125.7850-125.7511-125.7503-125.7503-125.6214-125.6206-125.6205-125.5518
  -125.5510-125.5509-125.5373-125.4805 -79.9699 -79.9610 -79.9608 -79.9322
   -79.9308 -79.9305 -79.9266 -79.9255 -79.9246 -79.9246 -79.9210 -79.9204
   -79.8321 -79.8259 -79.8255 -79.8126 -79.8125 -79.8084 -79.7840 -79.7791
   -79.7787 -79.7410 -79.7400 -79.7400 -79.7303 -79.7285 -79.7285 -79.7215
   -79.7194 -79.7190 -79.7188 -79.7107 -79.7104 -79.6637 -79.6519 -79.6519
   -20.0986  -9.0539  -8.1813  -7.2984  -7.2789  -7.2717  -7.2635  -7.2603
    -7.2418  -7.2002  -7.1657  -7.1355  -7.1230  -7.0537  -7.0159  -7.0131
    -6.9028  -6.8680  -6.8474  -6.7941  -6.7589  -6.7559  -6.7424  -6.7391
    -6.7250  -6.7056  -6.7008  -6.6710  -6.6550  -6.6340  -6.5927  -6.5414
    -6.5184  -6.4886  -6.4638  -6.4435  -6.4130  -6.3901  -6.3878  -6.3637
    -6.3357  -6.2996  -6.2940  -6.2605  -6.2462  -6.2412  -6.2250  -6.2139
    -6.2097  -6.1823  -6.1808  -6.1650  -6.1556  -6.1455  -6.1269  -6.1225
    -6.1152  -6.0814  -6.0522  -6.0175  -6.0175  -6.0036  -5.9980  -5.4032
    -4.1180  -3.9855  -3.2626  -2.7472  -2.2016  -2.1797  -1.4183  -0.4605
    -0.4221  -0.1055   0.0663   0.2024   0.8795   1.4593   1.5925   2.0647
     2.6853   2.7188   2.9878   3.2651   3.9820

          k = 0.0297 0.0515 0.0000 ( 16978 PWs)   bands (ev):

  -125.7850-125.7510-125.7504-125.7503-125.6213-125.6207-125.6205-125.5517
  -125.5511-125.5509-125.5373-125.4805 -79.9699 -79.9608 -79.9605 -79.9313
   -79.9311 -79.9296 -79.9272 -79.9253 -79.9248 -79.9246 -79.9223 -79.9207
   -79.8313 -79.8265 -79.8254 -79.8126 -79.8120 -79.8090 -79.7834 -79.7797
   -79.7788 -79.7408 -79.7401 -79.7400 -79.7294 -79.7277 -79.7274 -79.7224
   -79.7203 -79.7191 -79.7190 -79.7115 -79.7107 -79.6637 -79.6520 -79.6519
   -20.0978  -8.9647  -7.9078  -7.2486  -7.2282  -7.2146  -7.1971  -7.1598
    -7.1473  -7.1399  -7.1040  -7.0956  -7.0545  -6.9988  -6.9580  -6.9508
    -6.8822  -6.8364  -6.8228  -6.8193  -6.7790  -6.7564  -6.7381  -6.7276
    -6.6930  -6.6797  -6.6716  -6.6633  -6.6493  -6.6232  -6.6029  -6.5765
    -6.5496  -6.5194  -6.5003  -6.4821  -6.4667  -6.4344  -6.3906  -6.3768
    -6.3628  -6.3372  -6.3227  -6.3064  -6.2967  -6.2831  -6.2717  -6.2495
    -6.2438  -6.2332  -6.2120  -6.2050  -6.1922  -6.1846  -6.1800  -6.1472
    -6.1350  -6.1235  -6.1052  -6.0924  -6.0689  -6.0632  -5.9105  -5.2595
    -4.4180  -4.2095  -3.8109  -3.7503  -2.3803  -2.1815  -1.7554  -0.8434
    -0.5681   0.2560   0.4108   0.7712   1.1436   1.7317   2.5112   2.6629
     3.2451   3.5960   3.7032   4.0143   4.1626

          k = 0.0297-0.1201 0.0000 ( 16986 PWs)   bands (ev):

  -125.7849-125.7509-125.7506-125.7503-125.6212-125.6208-125.6205-125.5515
  -125.5512-125.5509-125.5373-125.4805 -79.9699 -79.9606 -79.9602 -79.9316
   -79.9299 -79.9283 -79.9278 -79.9254 -79.9252 -79.9246 -79.9242 -79.9210
   -79.8302 -79.8275 -79.8253 -79.8128 -79.8114 -79.8097 -79.7827 -79.7807
   -79.7789 -79.7407 -79.7403 -79.7400 -79.7282 -79.7264 -79.7252 -79.7242
   -79.7221 -79.7193 -79.7190 -79.7124 -79.7111 -79.6637 -79.6522 -79.6520
   -20.0970  -8.8802  -7.4608  -7.2300  -7.1552  -7.1176  -7.0770  -7.0643
    -7.0561  -7.0456  -7.0356  -6.9964  -6.9811  -6.9313  -6.9146  -6.9033
    -6.8948  -6.8734  -6.8087  -6.7915  -6.7693  -6.7358  -6.7244  -6.7111
    -6.7041  -6.6953  -6.6664  -6.6443  -6.6305  -6.6170  -6.5947  -6.5782
    -6.5586  -6.5422  -6.5341  -6.5154  -6.4920  -6.4623  -6.4418  -6.4167
    -6.4078  -6.4010  -6.3837  -6.3701  -6.3543  -6.3296  -6.3227  -6.3100
    -6.2954  -6.2766  -6.2599  -6.2556  -6.2393  -6.2177  -6.2103  -6.1763
    -6.1704  -6.1608  -6.1302  -6.1238  -6.1191  -6.0929  -5.8589  -5.4570
    -4.9360  -4.5579  -4.0250  -3.8704  -3.1883  -2.2885  -1.6033  -1.0636
    -0.6184   0.4435   0.7982   1.0829   1.5237   2.5325   2.9201   3.2947
     3.5885   3.7320   4.0290   4.4527   4.8216

          k = 0.0297-0.0858 0.0000 ( 16986 PWs)   bands (ev):

  -125.7849-125.7509-125.7506-125.7503-125.6212-125.6208-125.6205-125.5515
  -125.5512-125.5509-125.5373-125.4805 -79.9699 -79.9606 -79.9602 -79.9316
   -79.9299 -79.9283 -79.9278 -79.9254 -79.9252 -79.9246 -79.9242 -79.9210
   -79.8302 -79.8275 -79.8253 -79.8128 -79.8114 -79.8097 -79.7827 -79.7807
   -79.7789 -79.7407 -79.7403 -79.7400 -79.7282 -79.7264 -79.7252 -79.7242
   -79.7221 -79.7193 -79.7190 -79.7124 -79.7111 -79.6637 -79.6522 -79.6520
   -20.0970  -8.8802  -7.4608  -7.2300  -7.1552  -7.1176  -7.0770  -7.0643
    -7.0561  -7.0456  -7.0356  -6.9964  -6.9811  -6.9313  -6.9146  -6.9033
    -6.8948  -6.8734  -6.8087  -6.7915  -6.7693  -6.7358  -6.7244  -6.7111
    -6.7041  -6.6953  -6.6664  -6.6443  -6.6305  -6.6170  -6.5947  -6.5782
    -6.5586  -6.5422  -6.5341  -6.5154  -6.4920  -6.4623  -6.4418  -6.4167
    -6.4078  -6.4010  -6.3837  -6.3701  -6.3543  -6.3296  -6.3227  -6.3100
    -6.2954  -6.2766  -6.2599  -6.2556  -6.2393  -6.2177  -6.2103  -6.1763
    -6.1704  -6.1608  -6.1302  -6.1238  -6.1191  -6.0929  -5.8589  -5.4570
    -4.9360  -4.5579  -4.0250  -3.8704  -3.1883  -2.2885  -1.6033  -1.0636
    -0.6184   0.4435   0.7982   1.0829   1.5237   2.5325   2.9201   3.2947
     3.5885   3.7320   4.0290   4.4527   4.8216

          k = 0.0297-0.0515 0.0000 ( 16978 PWs)   bands (ev):

  -125.7850-125.7510-125.7504-125.7503-125.6213-125.6207-125.6205-125.5517
  -125.5511-125.5509-125.5373-125.4805 -79.9699 -79.9608 -79.9605 -79.9313
   -79.9311 -79.9296 -79.9272 -79.9253 -79.9248 -79.9246 -79.9223 -79.9207
   -79.8313 -79.8265 -79.8254 -79.8126 -79.8120 -79.8090 -79.7834 -79.7797
   -79.7788 -79.7408 -79.7401 -79.7400 -79.7294 -79.7277 -79.7274 -79.7224
   -79.7203 -79.7191 -79.7190 -79.7115 -79.7107 -79.6637 -79.6520 -79.6519
   -20.0978  -8.9647  -7.9078  -7.2486  -7.2282  -7.2146  -7.1971  -7.1598
    -7.1473  -7.1399  -7.1040  -7.0956  -7.0545  -6.9988  -6.9580  -6.9508
    -6.8822  -6.8364  -6.8228  -6.8193  -6.7790  -6.7564  -6.7381  -6.7276
    -6.6930  -6.6797  -6.6716  -6.6633  -6.6493  -6.6232  -6.6029  -6.5765
    -6.5496  -6.5194  -6.5003  -6.4821  -6.4667  -6.4344  -6.3906  -6.3768
    -6.3628  -6.3372  -6.3227  -6.3064  -6.2967  -6.2831  -6.2717  -6.2495
    -6.2438  -6.2332  -6.2120  -6.2050  -6.1922  -6.1846  -6.1800  -6.1472
    -6.1350  -6.1235  -6.1052  -6.0924  -6.0689  -6.0632  -5.9105  -5.2595
    -4.4180  -4.2095  -3.8109  -3.7503  -2.3803  -2.1815  -1.7554  -0.8434
    -0.5681   0.2560   0.4108   0.7712   1.1436   1.7317   2.5112   2.6629
     3.2451   3.5960   3.7032   4.0143   4.1626

          k = 0.0595-0.0343 0.0000 ( 16996 PWs)   bands (ev):

  -125.7850-125.7510-125.7505-125.7503-125.6213-125.6207-125.6205-125.5517
  -125.5511-125.5509-125.5373-125.4805 -79.9699 -79.9608 -79.9603 -79.9319
   -79.9298 -79.9297 -79.9274 -79.9254 -79.9250 -79.9246 -79.9230 -79.9207
   -79.8310 -79.8268 -79.8254 -79.8127 -79.8119 -79.8092 -79.7833 -79.7801
   -79.7788 -79.7409 -79.7402 -79.7400 -79.7291 -79.7271 -79.7268 -79.7226
   -79.7213 -79.7190 -79.7189 -79.7120 -79.7107 -79.6637 -79.6521 -79.6520
   -20.0975  -8.9353  -7.7813  -7.2660  -7.2178  -7.1782  -7.1363  -7.1269
    -7.1240  -7.1171  -7.0967  -7.0561  -7.0433  -6.9745  -6.9385  -6.9281
    -6.8652  -6.8332  -6.8182  -6.8166  -6.7812  -6.7784  -6.7377  -6.7237
    -6.6783  -6.6667  -6.6601  -6.6529  -6.6316  -6.6306  -6.5915  -6.5785
    -6.5404  -6.5352  -6.5131  -6.5088  -6.4665  -6.4374  -6.3927  -6.3907
    -6.3679  -6.3460  -6.3454  -6.3287  -6.3210  -6.2974  -6.2964  -6.2688
    -6.2666  -6.2635  -6.2401  -6.2391  -6.2190  -6.2083  -6.1808  -6.1636
    -6.1375  -6.1254  -6.1113  -6.0963  -6.0752  -6.0732  -5.8904  -5.3470
    -4.8023  -4.1197  -4.0965  -2.9724  -2.6400  -2.6050  -2.0946  -0.9202
    -0.7377  -0.0120   0.7005   1.5089   1.5170   1.9864   2.1757   3.1367
     3.4326   3.5052   3.7031   4.0213   4.5727

          k = 0.0595 0.0000 0.0000 ( 16978 PWs)   bands (ev):

  -125.7850-125.7510-125.7504-125.7503-125.6213-125.6207-125.6205-125.5517
  -125.5511-125.5509-125.5373-125.4805 -79.9699 -79.9608 -79.9605 -79.9313
   -79.9311 -79.9296 -79.9272 -79.9253 -79.9248 -79.9246 -79.9223 -79.9207
   -79.8313 -79.8265 -79.8254 -79.8126 -79.8120 -79.8090 -79.7834 -79.7797
   -79.7788 -79.7408 -79.7401 -79.7400 -79.7294 -79.7277 -79.7274 -79.7224
   -79.7203 -79.7191 -79.7190 -79.7115 -79.7107 -79.6637 -79.6520 -79.6519
   -20.0978  -8.9647  -7.9078  -7.2486  -7.2282  -7.2146  -7.1971  -7.1598
    -7.1473  -7.1399  -7.1040  -7.0956  -7.0545  -6.9988  -6.9580  -6.9508
    -6.8822  -6.8364  -6.8228  -6.8193  -6.7790  -6.7564  -6.7381  -6.7276
    -6.6930  -6.6797  -6.6716  -6.6633  -6.6493  -6.6232  -6.6029  -6.5765
    -6.5496  -6.5194  -6.5003  -6.4821  -6.4667  -6.4344  -6.3906  -6.3768
    -6.3628  -6.3372  -6.3227  -6.3064  -6.2967  -6.2831  -6.2717  -6.2495
    -6.2438  -6.2332  -6.2120  -6.2050  -6.1922  -6.1846  -6.1800  -6.1472
    -6.1350  -6.1235  -6.1052  -6.0924  -6.0689  -6.0632  -5.9105  -5.2595
    -4.4180  -4.2095  -3.8109  -3.7503  -2.3803  -2.1815  -1.7554  -0.8434
    -0.5681   0.2560   0.4108   0.7712   1.1436   1.7317   2.5112   2.6629
     3.2451   3.5960   3.7032   4.0143   4.1626

          k = 0.0595 0.0343 0.0000 ( 16996 PWs)   bands (ev):

  -125.7850-125.7510-125.7505-125.7503-125.6213-125.6207-125.6205-125.5517
  -125.5511-125.5509-125.5373-125.4805 -79.9699 -79.9608 -79.9603 -79.9319
   -79.9298 -79.9297 -79.9274 -79.9254 -79.9250 -79.9246 -79.9230 -79.9207
   -79.8310 -79.8268 -79.8254 -79.8127 -79.8119 -79.8092 -79.7833 -79.7801
   -79.7788 -79.7409 -79.7402 -79.7400 -79.7291 -79.7271 -79.7268 -79.7226
   -79.7213 -79.7190 -79.7189 -79.7120 -79.7107 -79.6637 -79.6521 -79.6520
   -20.0975  -8.9353  -7.7813  -7.2660  -7.2178  -7.1782  -7.1363  -7.1269
    -7.1240  -7.1171  -7.0967  -7.0561  -7.0433  -6.9745  -6.9385  -6.9281
    -6.8652  -6.8332  -6.8182  -6.8166  -6.7812  -6.7784  -6.7377  -6.7237
    -6.6783  -6.6667  -6.6601  -6.6529  -6.6316  -6.6306  -6.5915  -6.5785
    -6.5404  -6.5352  -6.5131  -6.5088  -6.4665  -6.4374  -6.3927  -6.3907
    -6.3679  -6.3460  -6.3454  -6.3287  -6.3209  -6.2974  -6.2964  -6.2688
    -6.2666  -6.2635  -6.2401  -6.2391  -6.2190  -6.2083  -6.1808  -6.1636
    -6.1375  -6.1254  -6.1113  -6.0963  -6.0752  -6.0732  -5.8904  -5.3470
    -4.8023  -4.1197  -4.0965  -2.9724  -2.6400  -2.6050  -2.0946  -0.9202
    -0.7377  -0.0120   0.7005   1.5089   1.5170   1.9864   2.1757   3.1367
     3.4326   3.5052   3.7031   4.0213   4.5727

          k = 0.0595-0.1373 0.0000 ( 16986 PWs)   bands (ev):

  -125.7849-125.7509-125.7506-125.7503-125.6212-125.6208-125.6205-125.5515
  -125.5512-125.5509-125.5373-125.4805 -79.9699 -79.9606 -79.9602 -79.9316
   -79.9299 -79.9283 -79.9278 -79.9254 -79.9252 -79.9246 -79.9242 -79.9210
   -79.8302 -79.8275 -79.8253 -79.8128 -79.8114 -79.8097 -79.7827 -79.7807
   -79.7789 -79.7407 -79.7403 -79.7400 -79.7282 -79.7264 -79.7252 -79.7242
   -79.7221 -79.7193 -79.7190 -79.7124 -79.7111 -79.6637 -79.6522 -79.6520
   -20.0970  -8.8802  -7.4608  -7.2300  -7.1552  -7.1176  -7.0770  -7.0643
    -7.0561  -7.0456  -7.0356  -6.9964  -6.9811  -6.9313  -6.9146  -6.9033
    -6.8948  -6.8734  -6.8087  -6.7915  -6.7693  -6.7358  -6.7244  -6.7111
    -6.7041  -6.6953  -6.6664  -6.6443  -6.6305  -6.6170  -6.5947  -6.5782
    -6.5586  -6.5422  -6.5341  -6.5154  -6.4920  -6.4623  -6.4418  -6.4167
    -6.4078  -6.4010  -6.3837  -6.3701  -6.3543  -6.3296  -6.3227  -6.3100
    -6.2954  -6.2766  -6.2599  -6.2556  -6.2393  -6.2177  -6.2103  -6.1763
    -6.1704  -6.1608  -6.1302  -6.1238  -6.1191  -6.0929  -5.8589  -5.4570
    -4.9360  -4.5579  -4.0250  -3.8704  -3.1883  -2.2885  -1.6033  -1.0636
    -0.6184   0.4435   0.7982   1.0829   1.5237   2.5325   2.9201   3.2947
     3.5885   3.7320   4.0290   4.4527   4.8216

          k = 0.0595-0.1030 0.0000 ( 17004 PWs)   bands (ev):

  -125.7849-125.7507-125.7507-125.7503-125.6211-125.6209-125.6205-125.5514
  -125.5514-125.5509-125.5373-125.4805 -79.9699 -79.9603 -79.9603 -79.9310
   -79.9297 -79.9297 -79.9262 -79.9262 -79.9248 -79.9248 -79.9246 -79.9215
   -79.8295 -79.8282 -79.8252 -79.8129 -79.8111 -79.8102 -79.7821 -79.7813
   -79.7790 -79.7405 -79.7405 -79.7400 -79.7267 -79.7267 -79.7258 -79.7233
   -79.7232 -79.7200 -79.7190 -79.7119 -79.7119 -79.6637 -79.6522 -79.6522
   -20.0967  -8.8544  -7.3075  -7.0973  -7.0807  -7.0465  -7.0180  -6.9989
    -6.9965  -6.9927  -6.9853  -6.9849  -6.9620  -6.9609  -6.9519  -6.9389
    -6.9332  -6.8938  -6.8352  -6.8280  -6.8224  -6.7141  -6.7125  -6.7054
    -6.6629  -6.6627  -6.6561  -6.6257  -6.6170  -6.6063  -6.6013  -6.5950
    -6.5877  -6.5755  -6.5481  -6.5384  -6.5295  -6.5064  -6.4916  -6.4625
    -6.4598  -6.4516  -6.3969  -6.3607  -6.3460  -6.3433  -6.3432  -6.3373
    -6.2978  -6.2798  -6.2708  -6.2454  -6.2121  -6.1855  -6.1809  -6.1783
    -6.1764  -6.1659  -6.1647  -6.1631  -6.1359  -5.9817  -5.7151  -5.6378
    -5.2242  -4.5979  -4.5812  -3.4185  -3.2260  -3.1798  -0.9755  -0.9538
    -0.3603   0.9225   0.9599   0.9604   2.0709   2.1706   2.4720   2.6790
     3.1325   3.4441   4.4868   4.7495   4.8020

          k = 0.0595-0.0686 0.0000 ( 16986 PWs)   bands (ev):

  -125.7849-125.7509-125.7506-125.7503-125.6212-125.6208-125.6205-125.5515
  -125.5512-125.5509-125.5373-125.4805 -79.9699 -79.9606 -79.9602 -79.9316
   -79.9299 -79.9283 -79.9278 -79.9254 -79.9252 -79.9246 -79.9242 -79.9210
   -79.8302 -79.8275 -79.8253 -79.8128 -79.8114 -79.8097 -79.7827 -79.7807
   -79.7789 -79.7407 -79.7403 -79.7400 -79.7282 -79.7264 -79.7252 -79.7242
   -79.7221 -79.7193 -79.7190 -79.7124 -79.7111 -79.6637 -79.6522 -79.6520
   -20.0970  -8.8802  -7.4608  -7.2300  -7.1552  -7.1176  -7.0770  -7.0643
    -7.0561  -7.0456  -7.0356  -6.9964  -6.9811  -6.9313  -6.9146  -6.9033
    -6.8948  -6.8734  -6.8087  -6.7915  -6.7693  -6.7358  -6.7244  -6.7111
    -6.7041  -6.6953  -6.6664  -6.6443  -6.6305  -6.6170  -6.5947  -6.5782
    -6.5586  -6.5422  -6.5341  -6.5154  -6.4920  -6.4623  -6.4418  -6.4167
    -6.4078  -6.4010  -6.3837  -6.3701  -6.3543  -6.3296  -6.3227  -6.3100
    -6.2954  -6.2766  -6.2599  -6.2556  -6.2393  -6.2177  -6.2103  -6.1763
    -6.1704  -6.1608  -6.1302  -6.1238  -6.1191  -6.0929  -5.8589  -5.4570
    -4.9360  -4.5579  -4.0250  -3.8704  -3.1883  -2.2885  -1.6033  -1.0636
    -0.6184   0.4435   0.7982   1.0829   1.5237   2.5325   2.9201   3.2947
     3.5885   3.7320   4.0290   4.4527   4.8216

          k =-0.0892 0.0515 0.0000 ( 17028 PWs)   bands (ev):

  -125.7849-125.7509-125.7506-125.7503-125.6212-125.6208-125.6205-125.5515
  -125.5512-125.5509-125.5373-125.4805 -79.9699 -79.9607 -79.9601 -79.9322
   -79.9286 -79.9286 -79.9280 -79.9258 -79.9253 -79.9246 -79.9245 -79.9208
   -79.8303 -79.8275 -79.8253 -79.8128 -79.8115 -79.8097 -79.7827 -79.7808
   -79.7788 -79.7408 -79.7404 -79.7399 -79.7286 -79.7260 -79.7245 -79.7239
   -79.7237 -79.7190 -79.7189 -79.7128 -79.7108 -79.6637 -79.6523 -79.6520
   -20.0970  -8.8786  -7.4077  -7.3017  -7.1774  -7.1215  -7.0855  -7.0761
    -7.0524  -7.0038  -6.9984  -6.9882  -6.9824  -6.9756  -6.9103  -6.8924
    -6.8717  -6.8387  -6.8320  -6.8073  -6.7629  -6.7545  -6.7382  -6.7286
    -6.6853  -6.6841  -6.6796  -6.6283  -6.6165  -6.5901  -6.5558  -6.5539
    -6.5403  -6.5066  -6.5006  -6.4900  -6.4855  -6.4625  -6.4491  -6.4076
    -6.4069  -6.3985  -6.3940  -6.3802  -6.3760  -6.3487  -6.3268  -6.3246
    -6.3128  -6.2680  -6.2673  -6.2585  -6.2430  -6.2380  -6.2375  -6.2149
    -6.1660  -6.1429  -6.1386  -6.1166  -6.0917  -6.0825  -6.0794  -5.6117
    -4.9918  -4.1474  -4.0654  -3.5437  -2.8558  -2.7756  -1.5722  -1.3173
    -0.8503  -0.5569   1.3687   1.6991   1.8050   2.3694   3.4854   3.5811
     3.6192   3.7508   4.1860   4.2842   4.8057

          k =-0.0892 0.0858 0.0000 ( 16986 PWs)   bands (ev):

  -125.7849-125.7509-125.7506-125.7503-125.6212-125.6208-125.6205-125.5515
  -125.5512-125.5509-125.5373-125.4805 -79.9699 -79.9606 -79.9602 -79.9316
   -79.9299 -79.9283 -79.9278 -79.9254 -79.9252 -79.9246 -79.9242 -79.9210
   -79.8302 -79.8275 -79.8253 -79.8128 -79.8114 -79.8097 -79.7827 -79.7807
   -79.7789 -79.7407 -79.7403 -79.7400 -79.7282 -79.7264 -79.7252 -79.7242
   -79.7221 -79.7193 -79.7190 -79.7124 -79.7111 -79.6637 -79.6522 -79.6520
   -20.0970  -8.8802  -7.4608  -7.2300  -7.1552  -7.1176  -7.0770  -7.0643
    -7.0561  -7.0456  -7.0356  -6.9964  -6.9811  -6.9313  -6.9146  -6.9033
[...]
    -7.1169  -7.1013  -7.0874  -7.0409  -7.0181  -6.9724  -6.9423  -6.8876
    -6.8757  -6.8411  -6.8233  -6.8058  -6.7805  -6.7574  -6.7501  -6.7224
    -6.7183  -6.7012  -6.6813  -6.6682  -6.6542  -6.6291  -6.5886  -6.5856
    -6.5694  -6.5406  -6.5399  -6.5074  -6.4648  -6.4609  -6.4270  -6.4138
    -6.3903  -6.3866  -6.3768  -6.3736  -6.3493  -6.3431  -6.3170  -6.3156
    -6.3091  -6.2973  -6.2846  -6.2817  -6.2498  -6.2484  -6.2287  -6.1898
    -6.1726  -6.1571  -6.1531  -6.1335  -6.1230  -6.1110  -5.9044  -5.3443
    -4.8054  -3.9311  -3.7311  -3.0133  -2.5847  -2.5418  -2.2624  -0.9766
    -0.7222  -0.1470   0.5747   1.4907   1.5338   1.8636   2.0456   3.0462
     3.3958   3.4882   3.6301   4.0895   4.4626

          k = 0.0595-0.1373 0.0000 ( 16986 PWs)   bands (ev):

  -125.7939-125.7717-125.7713-125.7710-125.6221-125.6218-125.6215-125.5966
  -125.5949-125.5937-125.5936-125.5374 -79.9806 -79.9690 -79.9683 -79.9528
   -79.9510 -79.9492 -79.9486 -79.9474 -79.9463 -79.9460 -79.9450 -79.9427
   -79.8119 -79.8115 -79.8112 -79.8058 -79.7984 -79.7980 -79.7971 -79.7968
   -79.7950 -79.7947 -79.7918 -79.7885 -79.7839 -79.7832 -79.7786 -79.7786
   -79.7719 -79.7712 -79.7582 -79.7525 -79.7514 -79.7228 -79.7073 -79.7070
   -19.5737  -8.2234  -7.3560  -7.1730  -7.1122  -7.0784  -7.0717  -7.0539
    -7.0500  -7.0333  -7.0086  -6.9895  -6.9680  -6.9201  -6.9074  -6.8915
    -6.8761  -6.8559  -6.8122  -6.7876  -6.7598  -6.7511  -6.7418  -6.7286
    -6.7194  -6.7091  -6.6859  -6.6644  -6.6405  -6.6294  -6.6172  -6.6060
    -6.5869  -6.5767  -6.5365  -6.5180  -6.5038  -6.4755  -6.4707  -6.4629
    -6.4458  -6.4384  -6.4187  -6.3921  -6.3776  -6.3587  -6.3542  -6.3398
    -6.3256  -6.3074  -6.3017  -6.2868  -6.2781  -6.2602  -6.2406  -6.2192
    -6.2084  -6.1959  -6.1788  -6.1571  -6.1460  -6.1445  -5.8553  -5.4622
    -4.9207  -4.4700  -3.9150  -3.6594  -3.0993  -2.2677  -1.7702  -1.0627
    -0.7913   0.2258   0.8022   1.1315   1.4456   2.3953   2.9397   3.3439
     3.4357   3.6995   3.9133   4.5196   4.7699

          k = 0.0595-0.1030 0.0000 ( 17004 PWs)   bands (ev):

  -125.7939-125.7715-125.7715-125.7710-125.6219-125.6219-125.6215-125.5966
  -125.5949-125.5938-125.5936-125.5374 -79.9806 -79.9685 -79.9685 -79.9512
   -79.9512 -79.9512 -79.9477 -79.9477 -79.9466 -79.9456 -79.9455 -79.9431
   -79.8117 -79.8117 -79.8112 -79.8056 -79.7986 -79.7971 -79.7969 -79.7965
   -79.7965 -79.7932 -79.7931 -79.7890 -79.7840 -79.7832 -79.7788 -79.7786
   -79.7717 -79.7717 -79.7580 -79.7526 -79.7515 -79.7228 -79.7073 -79.7072
   -19.5734  -8.1801  -7.1774  -7.0516  -7.0502  -7.0170  -7.0082  -6.9994
    -6.9925  -6.9860  -6.9756  -6.9686  -6.9476  -6.9437  -6.9432  -6.9330
    -6.8813  -6.8567  -6.8254  -6.8213  -6.8049  -6.7446  -6.7217  -6.7215
    -6.7060  -6.6970  -6.6883  -6.6609  -6.6577  -6.6441  -6.6341  -6.6177
    -6.5986  -6.5779  -6.5483  -6.5454  -6.5262  -6.5226  -6.5136  -6.5121
    -6.4855  -6.4617  -6.4543  -6.4033  -6.3667  -6.3661  -6.3619  -6.3422
    -6.3354  -6.3290  -6.3022  -6.2892  -6.2374  -6.2341  -6.2326  -6.2324
    -6.2233  -6.2026  -6.1959  -6.1909  -6.1630  -5.9674  -5.6849  -5.6364
    -5.2748  -4.5583  -4.4670  -3.2315  -3.1480  -3.0712  -1.2868  -1.0855
    -0.5660   0.9571   0.9916   1.1023   1.8730   2.1413   2.4763   2.6910
     3.0386   3.4266   4.5235   4.6384   4.7845

          k = 0.0595-0.0686 0.0000 ( 16986 PWs)   bands (ev):

  -125.7939-125.7717-125.7713-125.7710-125.6221-125.6218-125.6215-125.5966
  -125.5949-125.5937-125.5936-125.5374 -79.9806 -79.9690 -79.9683 -79.9528
   -79.9510 -79.9492 -79.9486 -79.9474 -79.9463 -79.9460 -79.9450 -79.9427
   -79.8119 -79.8115 -79.8112 -79.8058 -79.7984 -79.7980 -79.7971 -79.7968
   -79.7950 -79.7947 -79.7918 -79.7885 -79.7839 -79.7832 -79.7786 -79.7786
   -79.7719 -79.7712 -79.7582 -79.7525 -79.7514 -79.7228 -79.7073 -79.7070
   -19.5737  -8.2234  -7.3560  -7.1730  -7.1122  -7.0784  -7.0717  -7.0539
    -7.0500  -7.0333  -7.0086  -6.9895  -6.9680  -6.9201  -6.9074  -6.8915
    -6.8761  -6.8559  -6.8122  -6.7876  -6.7598  -6.7511  -6.7418  -6.7286
    -6.7194  -6.7091  -6.6859  -6.6644  -6.6405  -6.6294  -6.6172  -6.6060
    -6.5869  -6.5767  -6.5365  -6.5180  -6.5038  -6.4755  -6.4707  -6.4629
    -6.4458  -6.4384  -6.4187  -6.3921  -6.3776  -6.3587  -6.3542  -6.3398
    -6.3256  -6.3074  -6.3017  -6.2868  -6.2781  -6.2602  -6.2406  -6.2192
    -6.2084  -6.1959  -6.1788  -6.1571  -6.1460  -6.1445  -5.8553  -5.4622
    -4.9207  -4.4700  -3.9150  -3.6594  -3.0993  -2.2677  -1.7702  -1.0627
    -0.7913   0.2258   0.8022   1.1315   1.4456   2.3953   2.9397   3.3439
     3.4357   3.6995   3.9133   4.5196   4.7699

          k =-0.0892 0.0515 0.0000 ( 17028 PWs)   bands (ev):

  -125.7939-125.7717-125.7713-125.7710-125.6221-125.6218-125.6215-125.5966
  -125.5949-125.5937-125.5936-125.5374 -79.9806 -79.9692 -79.9681 -79.9534
   -79.9497 -79.9492 -79.9486 -79.9484 -79.9462 -79.9461 -79.9452 -79.9424
   -79.8120 -79.8116 -79.8112 -79.8058 -79.7985 -79.7984 -79.7971 -79.7963
   -79.7947 -79.7947 -79.7928 -79.7882 -79.7839 -79.7833 -79.7786 -79.7786
   -79.7721 -79.7710 -79.7582 -79.7526 -79.7513 -79.7229 -79.7074 -79.7069
   -19.5737  -8.2206  -7.3015  -7.2614  -7.1234  -7.0828  -7.0790  -7.0703
    -7.0196  -7.0024  -6.9991  -6.9738  -6.9733  -6.9461  -6.9271  -6.8699
    -6.8524  -6.8455  -6.7968  -6.7863  -6.7631  -6.7564  -6.7405  -6.7293
    -6.7260  -6.6943  -6.6757  -6.6539  -6.6222  -6.6172  -6.6032  -6.5864
    -6.5760  -6.5250  -6.5119  -6.5100  -6.4911  -6.4729  -6.4721  -6.4680
    -6.4575  -6.4353  -6.4171  -6.4052  -6.3966  -6.3742  -6.3701  -6.3342
    -6.3192  -6.3151  -6.3083  -6.3002  -6.3001  -6.2608  -6.2474  -6.2330
    -6.2131  -6.1648  -6.1604  -6.1574  -6.1364  -6.1302  -6.1218  -5.6569
    -4.9710  -4.0722  -3.7902  -3.3818  -2.8153  -2.7231  -1.7997  -1.4719
    -0.8316  -0.5805   1.1599   1.5877   1.6009   2.2422   3.5882   3.5898
     3.7404   3.8157   4.1391   4.2791   4.7631

          k =-0.0892 0.0858 0.0000 ( 16986 PWs)   bands (ev):

  -125.7939-125.7717-125.7713-125.7710-125.6221-125.6218-125.6215-125.5966
  -125.5949-125.5937-125.5936-125.5374 -79.9806 -79.9690 -79.9683 -79.9528
   -79.9510 -79.9492 -79.9486 -79.9474 -79.9463 -79.9460 -79.9450 -79.9427
   -79.8119 -79.8115 -79.8112 -79.8058 -79.7984 -79.7980 -79.7971 -79.7968
   -79.7950 -79.7947 -79.7918 -79.7885 -79.7839 -79.7832 -79.7786 -79.7786
   -79.7719 -79.7712 -79.7582 -79.7525 -79.7514 -79.7228 -79.7073 -79.7070
   -19.5737  -8.2234  -7.3560  -7.1730  -7.1122  -7.0784  -7.0717  -7.0539
    -7.0500  -7.0333  -7.0086  -6.9895  -6.9680  -6.9201  -6.9074  -6.8915
    -6.8761  -6.8559  -6.8122  -6.7876  -6.7598  -6.7511  -6.7418  -6.7286
    -6.7194  -6.7091  -6.6859  -6.6644  -6.6405  -6.6294  -6.6172  -6.6060
    -6.5869  -6.5767  -6.5365  -6.5180  -6.5038  -6.4755  -6.4707  -6.4629
    -6.4458  -6.4384  -6.4187  -6.3921  -6.3776  -6.3587  -6.3542  -6.3398
    -6.3256  -6.3074  -6.3017  -6.2868  -6.2781  -6.2602  -6.2406  -6.2192
    -6.2084  -6.1959  -6.1788  -6.1571  -6.1460  -6.1445  -5.8553  -5.4622
    -4.9207  -4.4700  -3.9150  -3.6594  -3.0993  -2.2677  -1.7702  -1.0627
    -0.7913   0.2258   0.8022   1.1315   1.4456   2.3953   2.9397   3.3439
     3.4357   3.6995   3.9133   4.5196   4.7699

          k =-0.0892 0.1201 0.0000 ( 16986 PWs)   bands (ev):

  -125.7939-125.7717-125.7713-125.7710-125.6221-125.6218-125.6215-125.5966
  -125.5949-125.5937-125.5936-125.5374 -79.9806 -79.9690 -79.9683 -79.9528
   -79.9510 -79.9492 -79.9486 -79.9474 -79.9463 -79.9460 -79.9450 -79.9427
   -79.8119 -79.8115 -79.8112 -79.8058 -79.7984 -79.7980 -79.7971 -79.7968
   -79.7950 -79.7947 -79.7918 -79.7885 -79.7839 -79.7832 -79.7786 -79.7786
   -79.7719 -79.7712 -79.7582 -79.7525 -79.7514 -79.7228 -79.7073 -79.7070
   -19.5737  -8.2234  -7.3560  -7.1730  -7.1122  -7.0784  -7.0717  -7.0539
    -7.0500  -7.0333  -7.0086  -6.9895  -6.9680  -6.9201  -6.9074  -6.8915
    -6.8761  -6.8559  -6.8122  -6.7876  -6.7598  -6.7511  -6.7418  -6.7286
    -6.7194  -6.7091  -6.6859  -6.6644  -6.6405  -6.6294  -6.6172  -6.6060
    -6.5869  -6.5767  -6.5365  -6.5180  -6.5038  -6.4755  -6.4707  -6.4629
    -6.4458  -6.4384  -6.4187  -6.3921  -6.3776  -6.3587  -6.3542  -6.3398
    -6.3256  -6.3074  -6.3017  -6.2868  -6.2781  -6.2602  -6.2406  -6.2192
    -6.2084  -6.1959  -6.1788  -6.1571  -6.1460  -6.1445  -5.8553  -5.4622
    -4.9207  -4.4700  -3.9150  -3.6594  -3.0993  -2.2677  -1.7702  -1.0627
    -0.7913   0.2258   0.8022   1.1315   1.4456   2.3953   2.9397   3.3439
     3.4357   3.6995   3.9133   4.5196   4.7699

          k =-0.0892-0.0515 0.0000 ( 17028 PWs)   bands (ev):

  -125.7939-125.7717-125.7713-125.7710-125.6221-125.6218-125.6215-125.5966
  -125.5949-125.5937-125.5936-125.5374 -79.9806 -79.9692 -79.9681 -79.9534
   -79.9497 -79.9492 -79.9486 -79.9484 -79.9462 -79.9461 -79.9452 -79.9424
   -79.8120 -79.8116 -79.8112 -79.8058 -79.7985 -79.7984 -79.7971 -79.7963
   -79.7947 -79.7947 -79.7928 -79.7882 -79.7839 -79.7833 -79.7786 -79.7786
   -79.7721 -79.7710 -79.7582 -79.7526 -79.7513 -79.7229 -79.7074 -79.7069
   -19.5737  -8.2206  -7.3015  -7.2614  -7.1234  -7.0828  -7.0790  -7.0703
    -7.0196  -7.0024  -6.9991  -6.9738  -6.9733  -6.9461  -6.9271  -6.8699
    -6.8524  -6.8455  -6.7968  -6.7863  -6.7631  -6.7564  -6.7405  -6.7292
    -6.7260  -6.6943  -6.6757  -6.6539  -6.6222  -6.6172  -6.6032  -6.5864
    -6.5760  -6.5250  -6.5119  -6.5100  -6.4911  -6.4729  -6.4721  -6.4680
    -6.4575  -6.4353  -6.4171  -6.4052  -6.3966  -6.3742  -6.3701  -6.3342
    -6.3192  -6.3151  -6.3083  -6.3002  -6.3001  -6.2608  -6.2474  -6.2330
    -6.2131  -6.1648  -6.1604  -6.1574  -6.1364  -6.1302  -6.1218  -5.6569
    -4.9710  -4.0722  -3.7902  -3.3818  -2.8153  -2.7231  -1.7997  -1.4719
    -0.8316  -0.5805   1.1599   1.5877   1.6009   2.2422   3.5882   3.5898
     3.7404   3.8157   4.1391   4.2791   4.7631

     the Fermi energy is     0.9764 ev

!    total energy              =   -5587.07607737 Ry
     Harris-Foulkes estimate   =   -5587.07607793 Ry
     estimated scf accuracy    <       0.00000002 Ry

     The total energy is the sum of the following terms:

     one-electron contribution =  -35636.44426537 Ry
     hartree contribution      =   17803.85390452 Ry
     xc contribution           =    -529.26612265 Ry
     ewald contribution        =   12774.80451233 Ry
     electric field correction =       0.00023058 Ry
     smearing contrib. (-TS)   =      -0.02433678 Ry

     convergence has been achieved in   6 iterations
 
 BEEF-vdW xc energy contributions
           1 :   -469.957271818451     
           2 :    425.585840594201     
           3 :   -351.292279149162     
           4 :    268.753034044706     
           5 :   -197.000467482680     
           6 :    145.318199148102     
           7 :   -112.104321802636     
           8 :    89.2894657160973     
           9 :   -68.9156985092150     
          10 :    47.7519439403026     
          11 :   -27.6812295676731     
          12 :    12.5835580399893     
          13 :   -4.53827548712547     
          14 :    2.09371462510501     
          15 :   -1.46489829122584     
          16 :  -0.672895526913123     
          17 :    5.06250084030592     
          18 :   -9.88339475623843     
          19 :    12.6171297305347     
          20 :   -12.1578325345164     
          21 :    9.58799334573604     
          22 :   -7.21069333168646     
          23 :    6.75498113942473     
          24 :   -8.18733870619434     
          25 :    9.95946568638203     
          26 :   -10.3643080459782     
          27 :    8.86872010666860     
          28 :   -6.42103902750989     
          29 :    4.59890129334718     
          30 :   -4.35297732296192     
          31 :   -36.5755701866622     
          32 :   -24.9027254558902     

     Forces acting on atoms (Ry/au):


     negative rho (up, down):  1.005E-03 0.000E+00
     atom    1 type  1   force =    -0.00000000   -0.00000000   -0.00707420
     atom    2 type  1   force =    -0.00000000   -0.00127244   -0.01050935
     atom    3 type  1   force =    -0.00110201    0.00063623   -0.01050936
     atom    4 type  1   force =     0.00110202    0.00063624   -0.01050937
     atom    5 type  1   force =     0.00628499   -0.00362861    0.01294830
     atom    6 type  1   force =    -0.00628497   -0.00362858    0.01294833
     atom    7 type  1   force =     0.00000002   -0.00000004   -0.00083214
     atom    8 type  1   force =     0.00000001    0.00725717    0.01294844
     atom    9 type  1   force =     0.00011115    0.00006347   -0.00015440
     atom   10 type  1   force =    -0.00011164    0.00006405   -0.00015420
     atom   11 type  1   force =     0.00000026   -0.00012721   -0.00015464
     atom   12 type  1   force =    -0.00000023    0.00000045    0.00120266
     atom   13 type  2   force =     0.00000056   -0.00000095   -0.00051936
     atom   14 type  3   force =    -0.00000016    0.00000024    0.00036928

     Total force =     0.001405     Total SCF correction =     0.000685
     SCF correction compared to forces is large: reduce conv_thr to get better values


     entering subroutine stress ...


     negative rho (up, down):  1.005E-03 0.000E+00
          total   stress  (Ry/bohr**3)                   (kbar)     P=  -15.29
  -0.00014695   0.00000000   0.00000000        -21.62      0.00      0.00
   0.00000000  -0.00014695  -0.00000000          0.00    -21.62     -0.00
   0.00000000  -0.00000000  -0.00001792          0.00     -0.00     -2.64


     bfgs converged in  19 scf cycles and  18 bfgs steps
     (criteria: energy <  1.0E+00, force <  1.9E-03)

     End of BFGS Geometry Optimization

     Final energy   =   -5587.0760773730 Ry
Begin final coordinates

ATOMIC_POSITIONS (crystal)
Zn1      0.166666667   0.166666667   0.406869400    0   0   0
Zn1      0.666666667   0.166666667   0.406869400    0   0   0
Zn1      0.166666667   0.666666667   0.406869400    0   0   0
Zn1      0.666666667   0.666666667   0.406869400    0   0   0
Zn1      0.833333333   0.333333333   0.500000000    0   0   0
Zn1      0.333333333   0.333333333   0.500000000    0   0   0
Zn1      0.833333333   0.833333333   0.500000000    0   0   0
Zn1      0.333333333   0.833333333   0.500000000    0   0   0
Zn1     -0.011302816  -0.011301757   0.601363329
Zn1      0.522605213  -0.011302446   0.601363323
Zn1     -0.011302051   0.522604020   0.601363391
Zn1      0.500000414   0.499999552   0.591632795
O1       0.166665876   0.166667508   0.652939205
H1       0.166666884   0.166666689   0.692674749
End final coordinates



     Writing output data file calc.save
 
     init_run     :     11.38s CPU     11.81s WALL (       1 calls)
     electrons    :   5067.14s CPU   5650.42s WALL (      19 calls)
     update_pot   :     50.02s CPU     53.79s WALL (      18 calls)
     forces       :    324.56s CPU    370.62s WALL (      19 calls)
     stress       :   1089.57s CPU   1247.09s WALL (      19 calls)

     Called by init_run:
     wfcinit      :      5.03s CPU      5.12s WALL (       1 calls)
     potinit      :      1.91s CPU      2.13s WALL (       1 calls)

     Called by electrons:
     c_bands      :   2118.73s CPU   2274.06s WALL (     148 calls)
     sum_band     :   1008.88s CPU   1160.83s WALL (     148 calls)
     v_of_rho     :    385.42s CPU    485.13s WALL (     156 calls)
     newd         :    602.07s CPU    614.67s WALL (     156 calls)
     mix_rho      :      7.31s CPU      7.49s WALL (     148 calls)
     vdW_energy   :    163.94s CPU    183.27s WALL (     840 calls)
     vdW_ffts     :    440.15s CPU    463.99s WALL (    1718 calls)
     vdW_v        :    167.50s CPU    175.92s WALL (     840 calls)

     Called by c_bands:
     init_us_2    :      8.31s CPU      8.37s WALL (    1675 calls)
     cegterg      :   1799.83s CPU   1837.17s WALL (     740 calls)

     Called by *egterg:
     h_psi        :   1120.41s CPU   1148.80s WALL (    2928 calls)
     s_psi        :     93.74s CPU     93.88s WALL (    2928 calls)
     g_psi        :      5.75s CPU      5.77s WALL (    2183 calls)
     cdiaghg      :    208.99s CPU    210.60s WALL (    2778 calls)

     Called by h_psi:
     add_vuspsi   :     95.65s CPU     95.87s WALL (    2928 calls)

     General routines
     calbec       :    160.23s CPU    164.78s WALL (    3858 calls)
     fft          :    685.78s CPU    744.27s WALL (   50315 calls)
     ffts         :      0.55s CPU      0.59s WALL (     304 calls)
     fftw         :    729.27s CPU    759.33s WALL (  553128 calls)
     interpolate  :      5.19s CPU      5.33s WALL (     304 calls)
     davcio       :      0.00s CPU      0.03s WALL (       5 calls)
 
     Parallel routines
     fft_scatter  :    826.24s CPU    915.04s WALL (  603747 calls)
 
     PWSCF        :     1h50m CPU        2h 3m WALL

 
   This run was terminated on:   4:45:36  25Apr2018            

=------------------------------------------------------------------------------=
   JOB DONE.
=------------------------------------------------------------------------------=
Job  /afs/slac/g/suncat/bin/suncat-tsmpirun -x LD_LIBRARY_PATH -wdir /scratch/qe304834_iLdfv pw.x -npool 4 -in pw.inp

TID   HOST_NAME   COMMAND_LINE            STATUS            TERMINATION_TIME
===== ========== ================  =======================  ===================
00000 suncat0276 pw.x -npool 4 -i  Done                     04/25/2018 04:45:36
00001 suncat0276 pw.x -npool 4 -i  Done                     04/25/2018 04:45:36
00002 suncat0276 pw.x -npool 4 -i  Done                     04/25/2018 04:45:36
00003 suncat0276 pw.x -npool 4 -i  Done                     04/25/2018 04:45:36
00004 suncat0276 pw.x -npool 4 -i  Done                     04/25/2018 04:45:36
00005 suncat0276 pw.x -npool 4 -i  Done                     04/25/2018 04:45:36
00006 suncat0276 pw.x -npool 4 -i  Done                     04/25/2018 04:45:36
00007 suncat0276 pw.x -npool 4 -i  Done                     04/25/2018 04:45:36
00008 suncat0272 pw.x -npool 4 -i  Done                     04/25/2018 04:45:36
00009 suncat0272 pw.x -npool 4 -i  Done                     04/25/2018 04:45:36
00010 suncat0272 pw.x -npool 4 -i  Done                     04/25/2018 04:45:36
00011 suncat0272 pw.x -npool 4 -i  Done                     04/25/2018 04:45:36
00012 suncat0272 pw.x -npool 4 -i  Done                     04/25/2018 04:45:36
00013 suncat0272 pw.x -npool 4 -i  Done                     04/25/2018 04:45:36
00014 suncat0272 pw.x -npool 4 -i  Done                     04/25/2018 04:45:36
00015 suncat0272 pw.x -npool 4 -i  Done                     04/25/2018 04:45:36
00016 suncat0266 pw.x -npool 4 -i  Done                     04/25/2018 04:45:36
00017 suncat0266 pw.x -npool 4 -i  Done                     04/25/2018 04:45:36
00018 suncat0266 pw.x -npool 4 -i  Done                     04/25/2018 04:45:36
00019 suncat0266 pw.x -npool 4 -i  Done                     04/25/2018 04:45:36
00020 suncat0266 pw.x -npool 4 -i  Done                     04/25/2018 04:45:36
00021 suncat0266 pw.x -npool 4 -i  Done                     04/25/2018 04:45:36
00022 suncat0266 pw.x -npool 4 -i  Done                     04/25/2018 04:45:36
00023 suncat0266 pw.x -npool 4 -i  Done                     04/25/2018 04:45:36
00024 suncat0248 pw.x -npool 4 -i  Done                     04/25/2018 04:45:36
00025 suncat0248 pw.x -npool 4 -i  Done                     04/25/2018 04:45:36
00026 suncat0248 pw.x -npool 4 -i  Done                     04/25/2018 04:45:36
00027 suncat0248 pw.x -npool 4 -i  Done                     04/25/2018 04:45:36
00028 suncat0248 pw.x -npool 4 -i  Done                     04/25/2018 04:45:36
00029 suncat0248 pw.x -npool 4 -i  Done                     04/25/2018 04:45:36
00030 suncat0248 pw.x -npool 4 -i  Done                     04/25/2018 04:45:36
00031 suncat0248 pw.x -npool 4 -i  Done                     04/25/2018 04:45:36
