  python dir          : /u/if/mamunm/src/espresso
  espresso dir        : /nfs/slac/g/suncatfs/sw/espv18/espresso-dynpy-beef/bin
  pseudo dir          : /u/if/mamunm/psp/gbrv1.5pbe
  ase-espresso py git : GITVERSION



     Program PWSCF v.5.1rc2 (svn rev. 11289) starts on 25Apr2018 at  9:41:13 

     This program is part of the open-source Quantum ESPRESSO suite
     for quantum simulation of materials; please cite
         "P. Giannozzi et al., J. Phys.:Condens. Matter 21 395502 (2009);
          URL http://www.quantum-espresso.org", 
     in publications or presentations arising from this work. More details at
     http://www.quantum-espresso.org/quote

     Parallel version (MPI), running on    32 processors
     K-points division:     npool     =       4
     R & G space division:  proc/nbgrp/npool/nimage =       8
     Reading input from pw.inp
     Message from routine read_cards :
     DEPRECATED: no units specified in CELL_PARAMETERS card

     Current dimensions of program PWSCF are:
     Max number of different atomic species (ntypx) = 10
     Max number of k-points (npk) =  40000
     Max angular momentum in pseudopotentials (lmaxx) =  3
     Presently stress not available with electric field


     **************************************************************************
     Initializing libbeef V0.1.1 with the BEEF-vdW functional.
     Citation: Wellendorff et al., PRB 85, 235149 (2012).
     **************************************************************************


     IMPORTANT: XC functional enforced from input :
     Exchange-correlation      = BEEF-VDW ( 1  4 27 13 2)
     Any further DFT definition will be discarded
     Please, verify this is what you really want


     Subspace diagonalization in iterative solution of the eigenvalue problem:
     a serial algorithm will be used

 
     Parallelization info
     --------------------
     sticks:   dense  smooth     PW     G-vecs:    dense   smooth      PW
     Min         465     186     53                90387    22883    3523
     Max         466     187     55                90396    22907    3532
     Sum        3721    1495    433               723123   183131   28227
 


     bravais-lattice index     =            0
     lattice parameter (alat)  =       1.8897  a.u.
     unit-cell volume          =    6082.7792 (a.u.)^3
     number of atoms/cell      =           14
     number of atomic types    =            3
     number of electrons       =       150.00
     number of Kohn-Sham states=           85
     kinetic-energy cutoff     =      36.7493  Ry
     charge density cutoff     =     367.4932  Ry
     convergence threshold     =      1.0E-05
     mixing beta               =       0.3000
     number of iterations used =           10  plain     mixing
     Exchange-correlation      = BEEF-VDW ( 1  4 27 13 2)
     nstep                     =           50


     celldm(1)=   1.889726  celldm(2)=   0.000000  celldm(3)=   0.000000
     celldm(4)=   0.000000  celldm(5)=   0.000000  celldm(6)=   0.000000

     crystal axes: (cart. coord. in units of alat)
               a(1) = (   6.421223   0.000000   0.000000 )  
               a(2) = (   3.210611   5.560942   0.000000 )  
               a(3) = (   0.000000   0.000000  25.242906 )  

     reciprocal axes: (cart. coord. in units 2 pi/alat)
               b(1) = (  0.155734 -0.089913  0.000000 )  
               b(2) = (  0.000000  0.179826  0.000000 )  
               b(3) = (  0.000000  0.000000  0.039615 )  


     PseudoPot. # 1 for Zr read from file:
     /u/if/mamunm/psp/gbrv1.5pbe/Zr.UPF
     MD5 check sum: 5db81b1e868ab7776c4564c113de050b
     Pseudo is Ultrasoft + core correction, Zval = 12.0
     Generated by new atomic code, or converted to UPF format
     Using radial grid of  887 points,  6 beta functions with: 
                l(1) =   0
                l(2) =   0
                l(3) =   1
                l(4) =   1
                l(5) =   2
                l(6) =   2
     Q(r) pseudized with  6 coefficients,  rinner =    1.200   1.200   1.200
                                                       1.200   1.200

     PseudoPot. # 2 for N  read from file:
     /u/if/mamunm/psp/gbrv1.5pbe/N.UPF
     MD5 check sum: 95339753478d7afb44899504a8723017
     Pseudo is Ultrasoft + core correction, Zval =  5.0
     Generated by new atomic code, or converted to UPF format
     Using radial grid of  729 points,  4 beta functions with: 
                l(1) =   0
                l(2) =   0
                l(3) =   1
                l(4) =   1
     Q(r) pseudized with  8 coefficients,  rinner =    0.900   0.900   0.900


     PseudoPot. # 3 for H  read from file:
     /u/if/mamunm/psp/gbrv1.5pbe/H.UPF
     MD5 check sum: 761ae9a214b05c3daf00ab9f6b793d6f
     Pseudo is Ultrasoft, Zval =  1.0
     Generated by new atomic code, or converted to UPF format
     Using radial grid of  615 points,  2 beta functions with: 
                l(1) =   0
                l(2) =   0
     Q(r) pseudized with  8 coefficients,  rinner =    0.700

     vdW kernel table read from file vdW_kernel_table
     MD5 check sum: 095c7af220d748ca6e76c0b4c6cfb241

     atomic species   valence    mass     pseudopotential
        Zr1           12.00    91.22400     Zr( 1.00)
        N1             5.00    14.00700     N ( 1.00)
        H1             1.00     1.00800     H ( 1.00)

     No symmetry found



   Cartesian axes

     site n.     atom                  positions (alat units)
         1           Zr1 tau(   1) = (   1.6053057   0.9268237  10.0000000  )
         2           Zr1 tau(   2) = (   4.8159170   0.9268237  10.0000000  )
         3           Zr1 tau(   3) = (   3.2106113   3.7072946  10.0000000  )
         4           Zr1 tau(   4) = (   6.4212227   3.7072946  10.0000000  )
         5           Zr1 tau(   5) = (   6.4212227   1.8536473  12.6214532  )
         6           Zr1 tau(   6) = (   3.2106113   1.8536473  12.6214532  )
         7           Zr1 tau(   7) = (   8.0265283   4.6341183  12.6214532  )
         8           Zr1 tau(   8) = (   4.8159170   4.6341183  12.6214532  )
         9           Zr1 tau(   9) = (   0.0000000   0.0000000  15.2429064  )
        10           Zr1 tau(  10) = (   3.2106113   0.0000000  15.2429064  )
        11           Zr1 tau(  11) = (   1.6053057   2.7804710  15.2429064  )
        12           Zr1 tau(  12) = (   4.8159170   2.7804710  15.2429064  )
        13           N1  tau(  13) = (   0.0000000   0.0000000  17.3339064  )
        14           H1  tau(  14) = (   0.0000000   0.0000000  18.3839064  )

     number of k points=    20  Fermi-Dirac smearing, width (Ry)=  0.0110
                       cart. coord. in units 2pi/alat
        k(    1) = (   0.0000000   0.0000000   0.0000000), wk =   0.0555556
        k(    2) = (   0.0000000   0.0299709   0.0000000), wk =   0.1111111
        k(    3) = (   0.0000000   0.0599419   0.0000000), wk =   0.1111111
        k(    4) = (   0.0000000  -0.0899128   0.0000000), wk =   0.0555556
        k(    5) = (   0.0259556  -0.0149855   0.0000000), wk =   0.1111111
        k(    6) = (   0.0259556   0.0149855   0.0000000), wk =   0.1111111
        k(    7) = (   0.0259556   0.0449564   0.0000000), wk =   0.1111111
        k(    8) = (   0.0259556  -0.1048983   0.0000000), wk =   0.1111111
        k(    9) = (   0.0259556  -0.0749274   0.0000000), wk =   0.1111111
        k(   10) = (   0.0259556  -0.0449564   0.0000000), wk =   0.1111111
        k(   11) = (   0.0519112  -0.0299709   0.0000000), wk =   0.1111111
        k(   12) = (   0.0519112   0.0000000   0.0000000), wk =   0.1111111
        k(   13) = (   0.0519112   0.0299709   0.0000000), wk =   0.1111111
        k(   14) = (   0.0519112  -0.1198838   0.0000000), wk =   0.1111111
        k(   15) = (   0.0519112  -0.0899128   0.0000000), wk =   0.1111111
        k(   16) = (   0.0519112  -0.0599419   0.0000000), wk =   0.1111111
        k(   17) = (  -0.0778668   0.0449564   0.0000000), wk =   0.0555556
        k(   18) = (  -0.0778668   0.0749274   0.0000000), wk =   0.1111111
        k(   19) = (  -0.0778668   0.1048983   0.0000000), wk =   0.1111111
        k(   20) = (  -0.0778668  -0.0449564   0.0000000), wk =   0.0555556

     Dense  grid:   723123 G-vectors     FFT dimensions: (  75,  75, 300)

     Smooth grid:   183131 G-vectors     FFT dimensions: (  48,  48, 192)

     Largest allocated arrays     est. size (Mb)     dimensions
        Kohn-Sham Wavefunctions         3.76 Mb     (    2896,   85)
        NL pseudopotentials             9.99 Mb     (    2896,  226)
        Each V/rho on FFT grid          3.26 Mb     (  213750)
        Each G-vector array             0.69 Mb     (   90391)
        G-vector shells                 0.18 Mb     (   23541)
     Largest temporary arrays     est. size (Mb)     dimensions
        Auxiliary wavefunctions        15.02 Mb     (    2896,  340)
        Each subspace H/S matrix        1.76 Mb     (     340,  340)
        Each <psi_i|beta_j> matrix      0.29 Mb     (     226,   85)
        Arrays for rho mixing          32.62 Mb     (  213750,   10)

     Initial potential from superposition of free atoms
     Check: negative starting charge=   -0.729071

     starting charge  149.97419, renormalised to  150.00000

     negative rho (up, down):  7.292E-01 0.000E+00


     ************************************************************************
     *
     * You are using vdW-DF for exchange-correlation in this calculation.
     * Please cite the following three references that made this development
     * possible:
     *
     *   M. Dion, H. Rydberg, E. Schroder, D. C. Langreth, and
     *   B. I. Lundqvist, Phys. Rev. Lett. 92, 246401 (2004).
     *
     *   T. Thonhauser, V. R. Cooper, S. Li, A. Puzder, P. Hyldgaard, and
     *   D. C. Langreth, Phys. Rev. B 76, 125112 (2007).
     *
     *   G. Roman-Perez and J. M. Soler, Phys. Rev. Lett. 103, 096102 (2009).
     *
     *
     * If you are using vdW-DF2, please also cite:
     *
     *   K. Lee, E. D. Murray, L. Kong, B. I. Lundqvist, and
     *   D. C. Langreth, Phys. Rev. B 82, 081101(R) (2010).
     *
     *
     * If you are calculating the stress with vdW-DF, please also cite:
     *
     *   R. Sabatini, E. Kucukbenli, B. Kolb, T. Thonhauser, and
     *   S. de Gironcoli, J. Phys.: Condens. Matter 24, 424209 (2012).
     *
     ************************************************************************

     Carrying out vdW-DF run using the following parameters:

     Nqs =      20    Nr_points =    1024   r_max =   100.000
     q_mesh =
               0.00001000     0.04494208     0.09755937     0.15916263
               0.23128650     0.31572767     0.41458969     0.53033537
               0.66584808     0.82450364     1.01025438     1.22772762
               1.48234092     1.78043706     2.12944203     2.53805004
               3.01644009     3.57652955     4.23227104     5.00000000

     Gradients computed in reciprocal space

     ************************************************************************


 
     Adding external electric field

     Computed dipole along edir(3) : 
        Dipole               -0.0094 Ry au,         -0.0238 Debye
        Dipole field         -0.0000 Ry au
 
        Potential amp.        0.0018 Ry
        Total length         46.5096 bohr
 
     Starting wfc are  161 randomized atomic wfcs

     total cpu time spent up to now is       15.5 secs

     per-process dynamical memory:   100.4 Mb

     Self-consistent Calculation

     iteration #  1     ecut=    36.75 Ry     beta=0.30
     Davidson diagonalization with overlap
     ethr =  1.00E-02,  avg # of iterations =  2.0

     negative rho (up, down):  7.335E-01 0.000E+00
 
     Adding external electric field

     Computed dipole along edir(3) : 
        Dipole               -3.8712 Ry au,         -9.8397 Debye
        Dipole field         -0.0080 Ry au
 
        Potential amp.        0.7439 Ry
        Total length         46.5096 bohr
 

     total cpu time spent up to now is       36.1 secs

     total energy              =   -1215.48725070 Ry
     Harris-Foulkes estimate   =   -1219.13115936 Ry
     estimated scf accuracy    <       7.76817391 Ry

     iteration #  2     ecut=    36.75 Ry     beta=0.30
     Davidson diagonalization with overlap
     ethr =  5.18E-03,  avg # of iterations =  9.6

     negative rho (up, down):  7.334E-01 0.000E+00
 
     Adding external electric field

     Computed dipole along edir(3) : 
        Dipole                2.5549 Ry au,          6.4939 Debye
        Dipole field          0.0053 Ry au
 
        Potential amp.       -0.4910 Ry
        Total length         46.5096 bohr
 

     total cpu time spent up to now is       67.4 secs

     total energy              =   -1203.80909279 Ry
     Harris-Foulkes estimate   =   -1230.21704400 Ry
     estimated scf accuracy    <     675.90142062 Ry

     iteration #  3     ecut=    36.75 Ry     beta=0.30
     Davidson diagonalization with overlap
     ethr =  5.18E-03,  avg # of iterations =  8.1

     negative rho (up, down):  7.326E-01 0.000E+00
 
     Adding external electric field

     Computed dipole along edir(3) : 
        Dipole                0.4739 Ry au,          1.2045 Debye
        Dipole field          0.0010 Ry au
 
        Potential amp.       -0.0911 Ry
        Total length         46.5096 bohr
 

     total cpu time spent up to now is       97.6 secs

     total energy              =   -1212.62006628 Ry
     Harris-Foulkes estimate   =   -1225.26973610 Ry
     estimated scf accuracy    <     366.74642912 Ry

     iteration #  4     ecut=    36.75 Ry     beta=0.30
     Davidson diagonalization with overlap
     ethr =  5.18E-03,  avg # of iterations =  4.6

     negative rho (up, down):  7.340E-01 0.000E+00
 
     Adding external electric field

     Computed dipole along edir(3) : 
        Dipole                0.7509 Ry au,          1.9087 Debye
        Dipole field          0.0016 Ry au
 
        Potential amp.       -0.1443 Ry
        Total length         46.5096 bohr
 

     total cpu time spent up to now is      122.6 secs

     total energy              =   -1218.31380708 Ry
     Harris-Foulkes estimate   =   -1218.57128455 Ry
     estimated scf accuracy    <       1.99136071 Ry

     iteration #  5     ecut=    36.75 Ry     beta=0.30
     Davidson diagonalization with overlap
     ethr =  1.33E-03,  avg # of iterations =  5.3

     negative rho (up, down):  7.359E-01 0.000E+00
 
     Adding external electric field

     Computed dipole along edir(3) : 
        Dipole                0.5211 Ry au,          1.3246 Debye
        Dipole field          0.0011 Ry au
 
        Potential amp.       -0.1001 Ry
        Total length         46.5096 bohr
 

     total cpu time spent up to now is      145.6 secs

     total energy              =   -1218.42285763 Ry
     Harris-Foulkes estimate   =   -1218.48622442 Ry
     estimated scf accuracy    <       0.44287385 Ry

     iteration #  6     ecut=    36.75 Ry     beta=0.30
     Davidson diagonalization with overlap
     ethr =  2.95E-04,  avg # of iterations =  5.3

     negative rho (up, down):  7.396E-01 0.000E+00
 
     Adding external electric field

     Computed dipole along edir(3) : 
        Dipole                0.4420 Ry au,          1.1236 Debye
        Dipole field          0.0009 Ry au
 
        Potential amp.       -0.0849 Ry
        Total length         46.5096 bohr
 

     total cpu time spent up to now is      168.7 secs

     total energy              =   -1218.41665945 Ry
     Harris-Foulkes estimate   =   -1218.44599923 Ry
     estimated scf accuracy    <       0.21076917 Ry

     iteration #  7     ecut=    36.75 Ry     beta=0.30
     Davidson diagonalization with overlap
     ethr =  1.41E-04,  avg # of iterations =  2.8

     negative rho (up, down):  7.437E-01 0.000E+00
 
     Adding external electric field

     Computed dipole along edir(3) : 
        Dipole                0.2239 Ry au,          0.5692 Debye
        Dipole field          0.0005 Ry au
 
        Potential amp.       -0.0430 Ry
        Total length         46.5096 bohr
 

     total cpu time spent up to now is      189.6 secs

     total energy              =   -1218.41925749 Ry
     Harris-Foulkes estimate   =   -1218.42702033 Ry
     estimated scf accuracy    <       0.05061871 Ry

     iteration #  8     ecut=    36.75 Ry     beta=0.30
     Davidson diagonalization with overlap
     ethr =  3.37E-05,  avg # of iterations =  6.2

     negative rho (up, down):  7.460E-01 0.000E+00
 
     Adding external electric field

     Computed dipole along edir(3) : 
        Dipole                0.1321 Ry au,          0.3358 Debye
        Dipole field          0.0003 Ry au
 
        Potential amp.       -0.0254 Ry
        Total length         46.5096 bohr
 

     total cpu time spent up to now is      214.2 secs

     total energy              =   -1218.42042789 Ry
     Harris-Foulkes estimate   =   -1218.42553780 Ry
     estimated scf accuracy    <       0.02666940 Ry

     iteration #  9     ecut=    36.75 Ry     beta=0.30
     Davidson diagonalization with overlap
     ethr =  1.78E-05,  avg # of iterations =  2.7

     negative rho (up, down):  7.475E-01 0.000E+00
 
     Adding external electric field

     Computed dipole along edir(3) : 
        Dipole                0.0972 Ry au,          0.2469 Debye
        Dipole field          0.0002 Ry au
 
        Potential amp.       -0.0187 Ry
        Total length         46.5096 bohr
 

     total cpu time spent up to now is      235.7 secs

     total energy              =   -1218.42036174 Ry
     Harris-Foulkes estimate   =   -1218.42208404 Ry
     estimated scf accuracy    <       0.00994093 Ry

     iteration # 10     ecut=    36.75 Ry     beta=0.30
     Davidson diagonalization with overlap
     ethr =  6.63E-06,  avg # of iterations =  5.3

     negative rho (up, down):  7.485E-01 0.000E+00
 
     Adding external electric field

     Computed dipole along edir(3) : 
        Dipole                0.0956 Ry au,          0.2430 Debye
        Dipole field          0.0002 Ry au
 
        Potential amp.       -0.0184 Ry
        Total length         46.5096 bohr
 

     total cpu time spent up to now is      259.7 secs

     total energy              =   -1218.42121362 Ry
     Harris-Foulkes estimate   =   -1218.42147613 Ry
     estimated scf accuracy    <       0.00260171 Ry

     iteration # 11     ecut=    36.75 Ry     beta=0.30
     Davidson diagonalization with overlap
     ethr =  1.73E-06,  avg # of iterations =  4.5

     negative rho (up, down):  7.488E-01 0.000E+00
 
     Adding external electric field

     Computed dipole along edir(3) : 
        Dipole                0.0923 Ry au,          0.2345 Debye
        Dipole field          0.0002 Ry au
 
        Potential amp.       -0.0177 Ry
        Total length         46.5096 bohr
 

     total cpu time spent up to now is      283.2 secs

     total energy              =   -1218.42140978 Ry
     Harris-Foulkes estimate   =   -1218.42154267 Ry
     estimated scf accuracy    <       0.00152862 Ry

     iteration # 12     ecut=    36.75 Ry     beta=0.30
     Davidson diagonalization with overlap
     ethr =  1.02E-06,  avg # of iterations =  3.4

     negative rho (up, down):  7.492E-01 0.000E+00
 
     Adding external electric field

     Computed dipole along edir(3) : 
        Dipole                0.0709 Ry au,          0.1803 Debye
        Dipole field          0.0001 Ry au
 
        Potential amp.       -0.0136 Ry
        Total length         46.5096 bohr
 

     total cpu time spent up to now is      305.1 secs

     total energy              =   -1218.42155785 Ry
     Harris-Foulkes estimate   =   -1218.42156270 Ry
     estimated scf accuracy    <       0.00064483 Ry

     iteration # 13     ecut=    36.75 Ry     beta=0.30
     Davidson diagonalization with overlap
     ethr =  4.30E-07,  avg # of iterations =  2.5

     negative rho (up, down):  7.495E-01 0.000E+00
 
     Adding external electric field

     Computed dipole along edir(3) : 
        Dipole                0.0566 Ry au,          0.1438 Debye
        Dipole field          0.0001 Ry au
 
        Potential amp.       -0.0109 Ry
        Total length         46.5096 bohr
 

     total cpu time spent up to now is      326.1 secs

     total energy              =   -1218.42160095 Ry
     Harris-Foulkes estimate   =   -1218.42159286 Ry
     estimated scf accuracy    <       0.00012302 Ry

     iteration # 14     ecut=    36.75 Ry     beta=0.30
     Davidson diagonalization with overlap
     ethr =  8.20E-08,  avg # of iterations =  4.5

     negative rho (up, down):  7.495E-01 0.000E+00
 
     Adding external electric field

     Computed dipole along edir(3) : 
        Dipole                0.0567 Ry au,          0.1440 Debye
        Dipole field          0.0001 Ry au
 
        Potential amp.       -0.0109 Ry
        Total length         46.5096 bohr
 

     total cpu time spent up to now is      350.4 secs

     total energy              =   -1218.42162536 Ry
     Harris-Foulkes estimate   =   -1218.42162741 Ry
     estimated scf accuracy    <       0.00003452 Ry

     iteration # 15     ecut=    36.75 Ry     beta=0.30
     Davidson diagonalization with overlap
     ethr =  2.30E-08,  avg # of iterations =  3.8

     negative rho (up, down):  7.495E-01 0.000E+00
 
     Adding external electric field

     Computed dipole along edir(3) : 
        Dipole                0.0560 Ry au,          0.1424 Debye
        Dipole field          0.0001 Ry au
 
        Potential amp.       -0.0108 Ry
        Total length         46.5096 bohr
 

     total cpu time spent up to now is      373.1 secs

     total energy              =   -1218.42163061 Ry
     Harris-Foulkes estimate   =   -1218.42162991 Ry
     estimated scf accuracy    <       0.00001001 Ry

     iteration # 16     ecut=    36.75 Ry     beta=0.30
     Davidson diagonalization with overlap
     ethr =  6.67E-09,  avg # of iterations =  4.3

     negative rho (up, down):  7.495E-01 0.000E+00
 
     Adding external electric field

     Computed dipole along edir(3) : 
        Dipole                0.0542 Ry au,          0.1377 Debye
        Dipole field          0.0001 Ry au
 
        Potential amp.       -0.0104 Ry
        Total length         46.5096 bohr
 

     total cpu time spent up to now is      396.2 secs

     total energy              =   -1218.42163244 Ry
     Harris-Foulkes estimate   =   -1218.42163238 Ry
     estimated scf accuracy    <       0.00001189 Ry

     iteration # 17     ecut=    36.75 Ry     beta=0.30
     Davidson diagonalization with overlap
     ethr =  6.67E-09,  avg # of iterations =  5.1

     negative rho (up, down):  7.496E-01 0.000E+00
 
     Adding external electric field

     Computed dipole along edir(3) : 
        Dipole                0.0539 Ry au,          0.1371 Debye
        Dipole field          0.0001 Ry au
 
        Potential amp.       -0.0104 Ry
        Total length         46.5096 bohr
 

     total cpu time spent up to now is      419.3 secs

     total energy              =   -1218.42163352 Ry
     Harris-Foulkes estimate   =   -1218.42163420 Ry
     estimated scf accuracy    <       0.00008753 Ry

     iteration # 18     ecut=    36.75 Ry     beta=0.30
     Davidson diagonalization with overlap
     ethr =  6.67E-09,  avg # of iterations =  4.2

     negative rho (up, down):  7.495E-01 0.000E+00

     negative rho (up, down):  7.495E-01 0.000E+00

     negative rho (up, down):  7.495E-01 0.000E+00

     negative rho (up, down):  7.495E-01 0.000E+00

     negative rho (up, down):  7.495E-01 0.000E+00

     negative rho (up, down):  7.495E-01 0.000E+00

     negative rho (up, down):  7.495E-01 0.000E+00

     negative rho (up, down):  7.495E-01 0.000E+00

     negative rho (up, down):  7.495E-01 0.000E+00

     negative rho (up, down):  7.495E-01 0.000E+00

     negative rho (up, down):  7.495E-01 0.000E+00

     negative rho (up, down):  7.495E-01 0.000E+00

     negative rho (up, down):  7.495E-01 0.000E+00

     negative rho (up, down):  7.495E-01 0.000E+00

     negative rho (up, down):  7.495E-01 0.000E+00

     negative rho (up, down):  7.495E-01 0.000E+00

     negative rho (up, down):  7.495E-01 0.000E+00

     negative rho (up, down):  7.495E-01 0.000E+00

     negative rho (up, down):  7.495E-01 0.000E+00

     negative rho (up, down):  7.495E-01 0.000E+00

     negative rho (up, down):  7.495E-01 0.000E+00

     negative rho (up, down):  7.495E-01 0.000E+00

     negative rho (up, down):  7.495E-01 0.000E+00

     negative rho (up, down):  7.495E-01 0.000E+00

     negative rho (up, down):  7.495E-01 0.000E+00

     negative rho (up, down):  7.495E-01 0.000E+00

     negative rho (up, down):  7.495E-01 0.000E+00

     negative rho (up, down):  7.495E-01 0.000E+00

     negative rho (up, down):  7.495E-01 0.000E+00

     negative rho (up, down):  7.495E-01 0.000E+00

     negative rho (up, down):  7.495E-01 0.000E+00

     negative rho (up, down):  7.495E-01 0.000E+00

     negative rho (up, down):  7.495E-01 0.000E+00

     negative rho (up, down):  7.495E-01 0.000E+00

     negative rho (up, down):  7.495E-01 0.000E+00
 
     Adding external electric field

     Computed dipole along edir(3) : 
        Dipole                0.0561 Ry au,          0.1426 Debye
        Dipole field          0.0001 Ry au
 
        Potential amp.       -0.0108 Ry
        Total length         46.5096 bohr
 

     total cpu time spent up to now is      505.0 secs

     End of self-consistent calculation

          k = 0.0000 0.0000 0.0000 ( 22923 PWs)   bands (ev):

   -47.8159 -47.7459 -47.7457 -47.7124 -47.6282 -47.6193 -47.6185 -47.4175
   -47.3856 -47.3273 -47.3270 -47.3231 -26.0522 -26.0359 -26.0357 -25.9852
   -25.9751 -25.9748 -25.9748 -25.8941 -25.8939 -25.8339 -25.7655 -25.6998
   -25.6994 -25.5801 -25.5652 -25.5130 -25.5126 -25.4546 -25.4544 -25.4430
   -25.4402 -25.4400 -25.4006 -25.2815 -25.2815 -25.2757 -25.2756 -25.2416
   -25.2255 -25.2253 -25.1992 -25.1423 -25.1388 -25.1387 -24.9915 -24.9915
   -12.5195  -3.8766  -3.2656  -2.2303  -1.4610  -1.0593  -1.0593  -0.9956
    -0.9012  -0.9011  -0.8538  -0.4588  -0.4587  -0.4492  -0.4131  -0.4131
    -0.2384  -0.0842  -0.0842   0.5677   0.9629   0.9630   1.4882   1.7172
     1.8707   1.9169   1.9169   2.1135   2.2804   2.2805   2.3300   2.4530
     2.4530   2.6708   2.7012   2.7013   2.7616

          k = 0.0000 0.0300 0.0000 ( 22902 PWs)   bands (ev):

   -47.8115 -47.7498 -47.7458 -47.7065 -47.6311 -47.6223 -47.6187 -47.4138
   -47.3847 -47.3316 -47.3273 -47.3239 -26.0259 -26.0098 -25.9998 -25.9732
   -25.9508 -25.9505 -25.9326 -25.8823 -25.8821 -25.8178 -25.7573 -25.7045
   -25.6998 -25.5970 -25.5683 -25.5035 -25.5018 -25.4815 -25.4733 -25.4730
   -25.4521 -25.4333 -25.3982 -25.3336 -25.3068 -25.2926 -25.2803 -25.2363
   -25.2290 -25.2255 -25.1909 -25.1662 -25.1629 -25.1303 -25.0365 -25.0016
   -12.5193  -3.8423  -3.1071  -2.0485  -1.2707  -1.0344  -0.9402  -0.8962
    -0.8748  -0.7613  -0.7341  -0.4367  -0.3832  -0.2900  -0.2544  -0.2260
    -0.1230  -0.0162  -0.0115   0.6160   0.9333   0.9701   1.4540   1.7075
     1.7726   1.8977   1.9327   2.0369   2.0630   2.0944   2.1942   2.3301
     2.4702   2.5402   2.5824   2.5932   2.6197

          k = 0.0000 0.0599 0.0000 ( 22852 PWs)   bands (ev):

   -47.7999 -47.7604 -47.7458 -47.6904 -47.6454 -47.6244 -47.6187 -47.4067
   -47.3791 -47.3454 -47.3273 -47.3242 -25.9744 -25.9438 -25.9431 -25.9028
   -25.8910 -25.8895 -25.8637 -25.8582 -25.8126 -25.7872 -25.7383 -25.7122
   -25.7057 -25.6475 -25.5838 -25.5680 -25.5458 -25.5302 -25.4707 -25.4679
   -25.4514 -25.4485 -25.4050 -25.3847 -25.3748 -25.3232 -25.2969 -25.2372
   -25.2297 -25.2252 -25.2191 -25.2141 -25.1837 -25.1537 -25.1038 -25.0292
   -12.5188  -3.7972  -2.6258  -1.5685  -1.3052  -0.8368  -0.7629  -0.6735
    -0.5703  -0.4105  -0.4093  -0.3288  -0.2501  -0.0709   0.1994   0.2120
     0.2327   0.2676   0.3196   0.7179   0.9450   0.9504   1.1917   1.4132
     1.4498   1.5597   1.6365   1.7053   1.8308   1.9741   2.0050   2.0092
     2.0602   2.1213   2.1433   2.2073   2.3960

          k = 0.0000-0.0899 0.0000 ( 22880 PWs)   bands (ev):

   -47.7903 -47.7695 -47.7458 -47.6716 -47.6640 -47.6247 -47.6187 -47.4039
   -47.3671 -47.3609 -47.3273 -47.3243 -25.9447 -25.9171 -25.8956 -25.8895
   -25.8519 -25.8514 -25.8388 -25.7856 -25.7676 -25.7307 -25.7268 -25.7218
   -25.6728 -25.6662 -25.6488 -25.6364 -25.6093 -25.5901 -25.5358 -25.4492
   -25.4441 -25.4396 -25.3828 -25.3670 -25.3620 -25.3129 -25.3087 -25.2905
   -25.2706 -25.2624 -25.2226 -25.2212 -25.2157 -25.1813 -25.0685 -25.0650
   -12.5186  -3.7819  -1.9682  -1.9024  -1.0919  -0.9449  -0.5171  -0.4750
    -0.3104  -0.2257  -0.2091  -0.1816  -0.1357  -0.0211   0.5444   0.5579
     0.5901   0.6053   0.6299   0.6845   0.9994   1.0614   1.0771   1.1187
     1.1721   1.1931   1.3672   1.4713   1.5335   1.5677   1.6343   1.7439
     1.8424   1.8661   1.8929   2.0995   2.2703

          k = 0.0260-0.0150 0.0000 ( 22902 PWs)   bands (ev):

   -47.8115 -47.7497 -47.7459 -47.7065 -47.6313 -47.6215 -47.6193 -47.4138
   -47.3847 -47.3317 -47.3270 -47.3241 -26.0260 -26.0097 -25.9999 -25.9732
   -25.9510 -25.9502 -25.9326 -25.8823 -25.8821 -25.8178 -25.7573 -25.7042
   -25.7001 -25.5970 -25.5683 -25.5038 -25.5016 -25.4813 -25.4736 -25.4728
   -25.4522 -25.4332 -25.3982 -25.3336 -25.3069 -25.2926 -25.2802 -25.2364
   -25.2291 -25.2254 -25.1909 -25.1661 -25.1630 -25.1303 -25.0365 -25.0016
   -12.5193  -3.8423  -3.1071  -2.0485  -1.2707  -1.0344  -0.9402  -0.8961
    -0.8748  -0.7613  -0.7341  -0.4367  -0.3832  -0.2900  -0.2545  -0.2260
    -0.1230  -0.0162  -0.0115   0.6160   0.9332   0.9701   1.4540   1.7075
     1.7726   1.8977   1.9327   2.0369   2.0630   2.0943   2.1943   2.3301
     2.4702   2.5402   2.5824   2.5931   2.6196

          k = 0.0260 0.0150 0.0000 ( 22902 PWs)   bands (ev):

   -47.8114 -47.7499 -47.7458 -47.7065 -47.6311 -47.6222 -47.6187 -47.4138
   -47.3847 -47.3316 -47.3272 -47.3239 -26.0259 -26.0098 -25.9998 -25.9732
   -25.9508 -25.9504 -25.9326 -25.8823 -25.8821 -25.8178 -25.7573 -25.7045
   -25.6998 -25.5970 -25.5683 -25.5035 -25.5018 -25.4815 -25.4733 -25.4730
   -25.4521 -25.4333 -25.3982 -25.3336 -25.3068 -25.2926 -25.2803 -25.2364
   -25.2290 -25.2255 -25.1909 -25.1662 -25.1629 -25.1303 -25.0365 -25.0016
   -12.5193  -3.8423  -3.1071  -2.0485  -1.2707  -1.0344  -0.9402  -0.8962
    -0.8748  -0.7613  -0.7341  -0.4367  -0.3832  -0.2900  -0.2544  -0.2260
    -0.1230  -0.0162  -0.0115   0.6160   0.9333   0.9701   1.4540   1.7075
     1.7726   1.8977   1.9327   2.0369   2.0630   2.0944   2.1942   2.3301
     2.4702   2.5402   2.5824   2.5932   2.6196

          k = 0.0260 0.0450 0.0000 ( 22896 PWs)   bands (ev):

   -47.8033 -47.7571 -47.7460 -47.6955 -47.6369 -47.6307 -47.6157 -47.4084
   -47.3814 -47.3368 -47.3347 -47.3209 -25.9880 -25.9539 -25.9501 -25.9396
   -25.9189 -25.8789 -25.8773 -25.8625 -25.8618 -25.7949 -25.7429 -25.7105
   -25.7027 -25.6404 -25.5777 -25.5546 -25.5255 -25.4818 -25.4761 -25.4643
   -25.4473 -25.4442 -25.4283 -25.3818 -25.3561 -25.3164 -25.2957 -25.2403
   -25.2320 -25.2264 -25.2208 -25.1862 -25.1438 -25.1429 -25.1144 -25.0235
   -12.5189  -3.8065  -2.7816  -1.7112  -0.9988  -0.9796  -0.9224  -0.7467
    -0.7012  -0.6394  -0.4054  -0.3471  -0.2611  -0.0493  -0.0235   0.0993
     0.1201   0.1585   0.1986   0.6969   0.9010   0.9758   1.3317   1.5041
     1.5710   1.6540   1.7028   1.7933   1.8819   1.9977   2.0620   2.1155
     2.1714   2.2422   2.2673   2.3682   2.4141

          k = 0.0260-0.1049 0.0000 ( 22856 PWs)   bands (ev):

   -47.7908 -47.7685 -47.7464 -47.6766 -47.6532 -47.6362 -47.6130 -47.4041
   -47.3705 -47.3522 -47.3382 -47.3184 -25.9315 -25.9200 -25.8913 -25.8849
   -25.8596 -25.8419 -25.8180 -25.8053 -25.7711 -25.7501 -25.7410 -25.7224
   -25.7086 -25.6840 -25.6619 -25.6201 -25.5784 -25.5532 -25.4934 -25.4711
   -25.4379 -25.4280 -25.4082 -25.3751 -25.3634 -25.3527 -25.3251 -25.3080
   -25.2407 -25.2294 -25.2243 -25.2140 -25.1905 -25.1710 -25.1065 -25.0625
   -12.5186  -3.7824  -2.1748  -1.4724  -1.1646  -0.8666  -0.7345  -0.4863
    -0.4610  -0.3546  -0.1750  -0.1093   0.0610   0.1290   0.4217   0.4615
     0.4865   0.5466   0.5609   0.8587   0.9356   0.9680   1.0312   1.1688
     1.2071   1.2621   1.3757   1.4184   1.4752   1.6116   1.6852   1.7300
     1.7837   1.8319   1.8651   2.0457   2.2758

          k = 0.0260-0.0749 0.0000 ( 22856 PWs)   bands (ev):

   -47.7908 -47.7685 -47.7464 -47.6766 -47.6533 -47.6361 -47.6131 -47.4041
   -47.3705 -47.3522 -47.3382 -47.3184 -25.9315 -25.9200 -25.8913 -25.8849
   -25.8596 -25.8420 -25.8179 -25.8053 -25.7711 -25.7501 -25.7409 -25.7226
   -25.7083 -25.6840 -25.6620 -25.6201 -25.5782 -25.5533 -25.4933 -25.4711
   -25.4379 -25.4280 -25.4082 -25.3751 -25.3634 -25.3527 -25.3251 -25.3079
   -25.2407 -25.2295 -25.2243 -25.2140 -25.1905 -25.1709 -25.1065 -25.0625
   -12.5186  -3.7824  -2.1748  -1.4724  -1.1646  -0.8666  -0.7345  -0.4863
    -0.4609  -0.3546  -0.1750  -0.1093   0.0610   0.1290   0.4217   0.4614
     0.4865   0.5467   0.5609   0.8587   0.9355   0.9680   1.0313   1.1688
     1.2071   1.2620   1.3757   1.4184   1.4752   1.6116   1.6852   1.7300
     1.7838   1.8319   1.8651   2.0457   2.2757

          k = 0.0260-0.0450 0.0000 ( 22896 PWs)   bands (ev):

   -47.8033 -47.7569 -47.7461 -47.6955 -47.6373 -47.6301 -47.6158 -47.4084
   -47.3814 -47.3370 -47.3345 -47.3210 -25.9880 -25.9539 -25.9502 -25.9395
   -25.9189 -25.8789 -25.8774 -25.8625 -25.8618 -25.7949 -25.7430 -25.7102
   -25.7030 -25.6404 -25.5777 -25.5546 -25.5254 -25.4820 -25.4760 -25.4644
   -25.4474 -25.4442 -25.4283 -25.3818 -25.3562 -25.3164 -25.2956 -25.2403
   -25.2320 -25.2264 -25.2208 -25.1862 -25.1438 -25.1429 -25.1144 -25.0235
   -12.5189  -3.8065  -2.7816  -1.7112  -0.9988  -0.9796  -0.9224  -0.7467
    -0.7012  -0.6394  -0.4054  -0.3471  -0.2611  -0.0493  -0.0236   0.0993
     0.1201   0.1585   0.1986   0.6968   0.9009   0.9759   1.3317   1.5041
     1.5711   1.6540   1.7028   1.7933   1.8819   1.9977   2.0620   2.1155
     2.1713   2.2422   2.2673   2.3683   2.4140

          k = 0.0519-0.0300 0.0000 ( 22852 PWs)   bands (ev):

   -47.7999 -47.7603 -47.7459 -47.6904 -47.6456 -47.6236 -47.6193 -47.4067
   -47.3791 -47.3454 -47.3270 -47.3245 -25.9745 -25.9437 -25.9431 -25.9028
   -25.8914 -25.8892 -25.8636 -25.8584 -25.8126 -25.7872 -25.7384 -25.7117
   -25.7060 -25.6476 -25.5837 -25.5679 -25.5462 -25.5299 -25.4707 -25.4682
   -25.4513 -25.4486 -25.4050 -25.3847 -25.3747 -25.3232 -25.2969 -25.2373
   -25.2295 -25.2253 -25.2190 -25.2142 -25.1837 -25.1537 -25.1038 -25.0293
   -12.5188  -3.7972  -2.6258  -1.5685  -1.3052  -0.8369  -0.7628  -0.6735
    -0.5704  -0.4105  -0.4093  -0.3288  -0.2501  -0.0709   0.1994   0.2120
     0.2327   0.2676   0.3197   0.7177   0.9450   0.9505   1.1917   1.4133
     1.4498   1.5597   1.6365   1.7052   1.8307   1.9741   2.0050   2.0092
     2.0602   2.1213   2.1433   2.2073   2.3959

          k = 0.0519 0.0000 0.0000 ( 22896 PWs)   bands (ev):

   -47.8033 -47.7570 -47.7461 -47.6955 -47.6374 -47.6301 -47.6159 -47.4084
   -47.3814 -47.3370 -47.3345 -47.3210 -25.9880 -25.9539 -25.9502 -25.9395
   -25.9189 -25.8789 -25.8774 -25.8625 -25.8618 -25.7949 -25.7430 -25.7102
   -25.7030 -25.6404 -25.5777 -25.5546 -25.5254 -25.4820 -25.4760 -25.4644
   -25.4474 -25.4442 -25.4283 -25.3818 -25.3562 -25.3164 -25.2956 -25.2403
   -25.2320 -25.2264 -25.2208 -25.1862 -25.1438 -25.1429 -25.1144 -25.0235
   -12.5189  -3.8065  -2.7816  -1.7112  -0.9988  -0.9796  -0.9224  -0.7467
    -0.7012  -0.6394  -0.4054  -0.3471  -0.2611  -0.0493  -0.0236   0.0993
     0.1201   0.1585   0.1986   0.6968   0.9009   0.9759   1.3317   1.5041
     1.5711   1.6540   1.7028   1.7933   1.8819   1.9977   2.0620   2.1155
     2.1713   2.2422   2.2673   2.3683   2.4140

          k = 0.0519 0.0300 0.0000 ( 22852 PWs)   bands (ev):

   -47.7999 -47.7605 -47.7458 -47.6904 -47.6454 -47.6243 -47.6188 -47.4067
   -47.3791 -47.3454 -47.3272 -47.3242 -25.9744 -25.9438 -25.9431 -25.9028
   -25.8910 -25.8895 -25.8638 -25.8582 -25.8126 -25.7872 -25.7383 -25.7121
   -25.7057 -25.6475 -25.5838 -25.5681 -25.5458 -25.5301 -25.4707 -25.4679
   -25.4514 -25.4485 -25.4050 -25.3847 -25.3747 -25.3232 -25.2970 -25.2372
   -25.2297 -25.2253 -25.2191 -25.2141 -25.1837 -25.1537 -25.1038 -25.0292
   -12.5188  -3.7972  -2.6258  -1.5685  -1.3052  -0.8368  -0.7629  -0.6736
    -0.5703  -0.4105  -0.4093  -0.3288  -0.2501  -0.0709   0.1994   0.2120
     0.2327   0.2676   0.3196   0.7179   0.9450   0.9504   1.1917   1.4132
     1.4498   1.5597   1.6365   1.7053   1.8307   1.9741   2.0050   2.0092
     2.0602   2.1213   2.1433   2.2073   2.3960

          k = 0.0519-0.1199 0.0000 ( 22856 PWs)   bands (ev):

   -47.7908 -47.7686 -47.7463 -47.6766 -47.6532 -47.6362 -47.6131 -47.4041
   -47.3705 -47.3522 -47.3382 -47.3184 -25.9315 -25.9200 -25.8913 -25.8850
   -25.8596 -25.8419 -25.8180 -25.8053 -25.7711 -25.7501 -25.7409 -25.7224
   -25.7086 -25.6840 -25.6619 -25.6201 -25.5784 -25.5532 -25.4934 -25.4710
   -25.4379 -25.4280 -25.4082 -25.3751 -25.3634 -25.3527 -25.3252 -25.3080
   -25.2407 -25.2294 -25.2243 -25.2140 -25.1905 -25.1710 -25.1064 -25.0625
   -12.5186  -3.7824  -2.1748  -1.4724  -1.1646  -0.8666  -0.7345  -0.4863
    -0.4610  -0.3546  -0.1750  -0.1093   0.0610   0.1290   0.4217   0.4615
     0.4865   0.5466   0.5609   0.8587   0.9356   0.9680   1.0312   1.1688
     1.2071   1.2621   1.3757   1.4184   1.4752   1.6116   1.6852   1.7300
     1.7837   1.8319   1.8651   2.0457   2.2757

          k = 0.0519-0.0899 0.0000 ( 22914 PWs)   bands (ev):

   -47.7793 -47.7792 -47.7470 -47.6631 -47.6533 -47.6526 -47.6102 -47.4033
   -47.3582 -47.3553 -47.3512 -47.3157 -25.8989 -25.8962 -25.8635 -25.8598
   -25.8383 -25.8278 -25.7793 -25.7665 -25.7659 -25.7635 -25.7426 -25.7005
   -25.6895 -25.6862 -25.6847 -25.6839 -25.6772 -25.5588 -25.4867 -25.4337
   -25.4302 -25.4287 -25.4069 -25.3859 -25.3755 -25.3695 -25.3240 -25.3227
   -25.3034 -25.2332 -25.2211 -25.2104 -25.1860 -25.1219 -25.1194 -25.1163
   -12.5185  -3.7764  -1.5348  -1.5334  -1.4695  -0.7282  -0.7173  -0.5277
    -0.3562  -0.3486   0.2209   0.2302   0.2770   0.3163   0.3684   0.3897
     0.7722   0.7754   0.7993   0.8633   0.8635   0.8746   0.8813   0.9105
     1.0794   1.0808   1.0811   1.3548   1.3728   1.4240   1.5051   1.5168
     1.5499   1.6025   1.7328   1.8220   2.1593

          k = 0.0519-0.0599 0.0000 ( 22856 PWs)   bands (ev):

   -47.7909 -47.7684 -47.7465 -47.6766 -47.6535 -47.6358 -47.6131 -47.4041
   -47.3705 -47.3522 -47.3382 -47.3184 -25.9316 -25.9201 -25.8911 -25.8848
   -25.8596 -25.8420 -25.8180 -25.8053 -25.7710 -25.7502 -25.7410 -25.7225
   -25.7084 -25.6841 -25.6619 -25.6200 -25.5784 -25.5532 -25.4933 -25.4711
   -25.4380 -25.4280 -25.4082 -25.3750 -25.3633 -25.3527 -25.3251 -25.3079
   -25.2407 -25.2294 -25.2243 -25.2141 -25.1904 -25.1710 -25.1064 -25.0625
   -12.5186  -3.7824  -2.1748  -1.4724  -1.1646  -0.8666  -0.7345  -0.4863
    -0.4609  -0.3546  -0.1750  -0.1093   0.0610   0.1290   0.4217   0.4615
     0.4864   0.5467   0.5609   0.8587   0.9355   0.9681   1.0313   1.1688
     1.2071   1.2620   1.3757   1.4184   1.4752   1.6116   1.6852   1.7300
     1.7837   1.8319   1.8651   2.0457   2.2757

          k =-0.0779 0.0450 0.0000 ( 22880 PWs)   bands (ev):

   -47.7904 -47.7693 -47.7459 -47.6712 -47.6645 -47.6240 -47.6193 -47.4039
   -47.3672 -47.3608 -47.3270 -47.3245 -25.9448 -25.9172 -25.8954 -25.8893
   -25.8523 -25.8512 -25.8387 -25.7857 -25.7675 -25.7309 -25.7265 -25.7220
   -25.6731 -25.6658 -25.6486 -25.6369 -25.6086 -25.5906 -25.5356 -25.4492
   -25.4442 -25.4399 -25.3826 -25.3665 -25.3625 -25.3127 -25.3086 -25.2905
   -25.2709 -25.2622 -25.2226 -25.2210 -25.2159 -25.1813 -25.0683 -25.0652
   -12.5186  -3.7819  -1.9682  -1.9023  -1.0919  -0.9449  -0.5170  -0.4749
    -0.3105  -0.2257  -0.2092  -0.1815  -0.1357  -0.0211   0.5445   0.5578
     0.5900   0.6054   0.6299   0.6845   0.9994   1.0613   1.0773   1.1187
     1.1722   1.1930   1.3672   1.4712   1.5335   1.5677   1.6343   1.7439
     1.8425   1.8661   1.8929   2.0995   2.2706

          k =-0.0779 0.0749 0.0000 ( 22856 PWs)   bands (ev):

   -47.7908 -47.7684 -47.7464 -47.6766 -47.6535 -47.6358 -47.6131 -47.4041
   -47.3705 -47.3522 -47.3382 -47.3184 -25.9316 -25.9200 -25.8912 -25.8848
   -25.8596 -25.8420 -25.8180 -25.8053 -25.7710 -25.7501 -25.7410 -25.7225
   -25.7083 -25.6841 -25.6620 -25.6200 -25.5783 -25.5532 -25.4933 -25.4711
   -25.4380 -25.4280 -25.4082 -25.3750 -25.3633 -25.3527 -25.3251 -25.3079
   -25.2407 -25.2294 -25.2243 -25.2141 -25.1904 -25.1710 -25.1064 -25.0625
   -12.5186  -3.7824  -2.1748  -1.4724  -1.1646  -0.8666  -0.7345  -0.4863
    -0.4609  -0.3546  -0.1750  -0.1093   0.0610   0.1290   0.4217   0.4615
     0.4864   0.5467   0.5609   0.8587   0.9355   0.9681   1.0313   1.1688
     1.2071   1.2620   1.3757   1.4184   1.4752   1.6116   1.6852   1.7300
     1.7837   1.8319   1.8651   2.0457   2.2757

          k =-0.0779 0.1049 0.0000 ( 22856 PWs)   bands (ev):

   -47.7908 -47.7685 -47.7464 -47.6766 -47.6533 -47.6360 -47.6131 -47.4041
   -47.3705 -47.3522 -47.3382 -47.3184 -25.9315 -25.9200 -25.8913 -25.8850
   -25.8595 -25.8420 -25.8179 -25.8053 -25.7711 -25.7501 -25.7409 -25.7226
   -25.7083 -25.6840 -25.6620 -25.6201 -25.5782 -25.5534 -25.4933 -25.4711
   -25.4379 -25.4280 -25.4082 -25.3751 -25.3634 -25.3527 -25.3251 -25.3079
   -25.2407 -25.2295 -25.2243 -25.2140 -25.1905 -25.1709 -25.1065 -25.0625
   -12.5186  -3.7824  -2.1748  -1.4724  -1.1646  -0.8666  -0.7345  -0.4863
    -0.4609  -0.3546  -0.1750  -0.1093   0.0610   0.1290   0.4217   0.4614
     0.4865   0.5467   0.5609   0.8587   0.9355   0.9680   1.0313   1.1688
     1.2071   1.2620   1.3757   1.4184   1.4752   1.6116   1.6852   1.7300
     1.7838   1.8319   1.8651   2.0457   2.2757

          k =-0.0779-0.0450 0.0000 ( 22880 PWs)   bands (ev):

   -47.7902 -47.7696 -47.7458 -47.6715 -47.6640 -47.6247 -47.6188 -47.4039
   -47.3671 -47.3609 -47.3273 -47.3243 -25.9446 -25.9171 -25.8957 -25.8895
   -25.8519 -25.8514 -25.8388 -25.7856 -25.7676 -25.7307 -25.7268 -25.7218
   -25.6728 -25.6663 -25.6488 -25.6365 -25.6092 -25.5901 -25.5357 -25.4492
   -25.4440 -25.4396 -25.3827 -25.3670 -25.3620 -25.3129 -25.3087 -25.2905
   -25.2707 -25.2624 -25.2226 -25.2212 -25.2157 -25.1813 -25.0685 -25.0650
   -12.5186  -3.7819  -1.9682  -1.9024  -1.0919  -0.9449  -0.5171  -0.4750
    -0.3104  -0.2257  -0.2091  -0.1816  -0.1357  -0.0211   0.5444   0.5579
     0.5901   0.6053   0.6299   0.6845   0.9994   1.0614   1.0771   1.1186
     1.1721   1.1931   1.3672   1.4713   1.5335   1.5677   1.6343   1.7439
     1.8424   1.8661   1.8929   2.0995   2.2703

     the Fermi energy is     1.5667 ev

!    total energy              =   -1218.42163434 Ry
     Harris-Foulkes estimate   =   -1218.42163410 Ry
     estimated scf accuracy    <       0.00000093 Ry

     The total energy is the sum of the following terms:

     one-electron contribution =   -8375.54923352 Ry
     hartree contribution      =    4181.41184004 Ry
     xc contribution           =    -226.68651640 Ry
     ewald contribution        =    3202.51802196 Ry
     electric field correction =       0.00000650 Ry
     smearing contrib. (-TS)   =      -0.11575292 Ry

     convergence has been achieved in  18 iterations
 
 BEEF-vdW xc energy contributions
           1 :   -194.080346926690     
           2 :    175.461852454127     
           3 :   -144.179473984021     
           4 :    109.109920394388     
           5 :   -78.1607475296833     
           6 :    55.5544995565185     
           7 :   -41.2485451101909     
           8 :    32.3082781844950     
           9 :   -25.1811845104597     
          10 :    17.6071990750460     
          11 :   -9.35400519290823     
          12 :    1.69805504900148     
          13 :    3.78924596450048     
          14 :   -6.35461936132182     
          15 :    6.48213844292835     
          16 :   -5.49896966270251     
          17 :    4.72659182792040     
          18 :   -4.76566928926417     
          19 :    5.33254641145334     
          20 :   -5.66113335374007     
          21 :    5.13396958027124     
          22 :   -3.71694901067610     
          23 :    1.95284028779832     
          24 :  -0.577416374880215     
          25 :   4.902424172320252E-002
          26 :  -0.301881072550543     
          27 :   0.852869808457683     
          28 :   -1.15487663861717     
          29 :   0.947070250541515     
          30 :  -0.379649271193102     
          31 :   -22.5357500871160     
          32 :   -16.7519075908803     

     Forces acting on atoms (Ry/au):


     negative rho (up, down):  7.495E-01 0.000E+00
     atom    1 type  1   force =     0.00081910    0.00044728    0.01535998
     atom    2 type  1   force =    -0.00081760    0.00046959    0.01531755
     atom    3 type  1   force =     0.00002178   -0.00093217    0.01536878
     atom    4 type  1   force =    -0.00002342    0.00001526    0.01589274
     atom    5 type  1   force =     0.00002353    0.00646998   -0.01067066
     atom    6 type  1   force =    -0.00002070    0.00002348    0.00358162
     atom    7 type  1   force =    -0.00558050   -0.00326175   -0.01068169
     atom    8 type  1   force =     0.00558046   -0.00323326   -0.01070882
     atom    9 type  1   force =     0.00001888   -0.00001215    0.10852137
     atom   10 type  1   force =    -0.00001900    0.00079409   -0.00748327
     atom   11 type  1   force =     0.00069785   -0.00040086   -0.00746969
     atom   12 type  1   force =    -0.00069871   -0.00038075   -0.00748489
     atom   13 type  2   force =    -0.00000134    0.00000099   -0.07467780
     atom   14 type  3   force =    -0.00000034    0.00000029   -0.04486522

     Total force =     0.139772     Total SCF correction =     0.000698


     entering subroutine stress ...


     negative rho (up, down):  7.495E-01 0.000E+00
          total   stress  (Ry/bohr**3)                   (kbar)     P=  -14.87
  -0.00006587  -0.00000000  -0.00000000         -9.69     -0.00     -0.00
  -0.00000000  -0.00006587  -0.00000000         -0.00     -9.69     -0.00
  -0.00000000  -0.00000000  -0.00017142         -0.00     -0.00    -25.22


     BFGS Geometry Optimization

     number of scf cycles    =   1
     number of bfgs steps    =   0

     energy   new            =   -1218.4216343356 Ry

     new trust radius        =       0.1085213752 bohr
     new conv_thr            =       0.0000099958 Ry


ATOMIC_POSITIONS (crystal)
Zr1      0.166666667   0.166666667   0.396150897    0   0   0
Zr1      0.666666667   0.166666667   0.396150897    0   0   0
Zr1      0.166666667   0.666666667   0.396150897    0   0   0
Zr1      0.666666667   0.666666667   0.396150897    0   0   0
Zr1      0.833333333   0.333333333   0.500000000    0   0   0
Zr1      0.333333333   0.333333333   0.500000000    0   0   0
Zr1      0.833333333   0.833333333   0.500000000    0   0   0
Zr1      0.333333333   0.833333333   0.500000000    0   0   0
Zr1      0.000002134  -0.000001156   0.606124080
Zr1      0.499960652   0.000075565   0.603692228
Zr1      0.000076583   0.499961854   0.603692513
Zr1      0.499960535   0.499963768   0.603692194
N1      -0.000000157   0.000000094   0.685118755
H1      -0.000000042   0.000000027   0.727339572



     Writing output data file calc.save
     Check: negative starting charge=   -0.729071
     NEW-OLD atomic charge density approx. for the potential
     Check: negative starting charge=   -0.729239

     negative rho (up, down):  7.495E-01 0.000E+00
 
     Adding external electric field

     Computed dipole along edir(3) : 
        Dipole                0.0563 Ry au,          0.1431 Debye
        Dipole field          0.0001 Ry au
 
        Potential amp.       -0.0108 Ry
        Total length         46.5096 bohr
 

     total cpu time spent up to now is      582.9 secs

     per-process dynamical memory:    96.8 Mb

     Self-consistent Calculation

     iteration #  1     ecut=    36.75 Ry     beta=0.30
     Davidson diagonalization with overlap
     ethr =  1.00E-06,  avg # of iterations = 11.1

     negative rho (up, down):  7.496E-01 0.000E+00
 
     Adding external electric field

     Computed dipole along edir(3) : 
        Dipole               -0.2308 Ry au,         -0.5866 Debye
        Dipole field         -0.0005 Ry au
 
        Potential amp.        0.0443 Ry
        Total length         46.5096 bohr
 

     total cpu time spent up to now is      618.5 secs

     total energy              =   -1218.43107853 Ry
     Harris-Foulkes estimate   =   -1218.43816368 Ry
     estimated scf accuracy    <       0.01537440 Ry

     iteration #  2     ecut=    36.75 Ry     beta=0.30
     Davidson diagonalization with overlap
     ethr =  1.02E-05,  avg # of iterations =  7.6

     negative rho (up, down):  7.495E-01 0.000E+00
 
     Adding external electric field

     Computed dipole along edir(3) : 
        Dipole                0.0924 Ry au,          0.2348 Debye
        Dipole field          0.0002 Ry au
 
        Potential amp.       -0.0177 Ry
        Total length         46.5096 bohr
 

     total cpu time spent up to now is      646.4 secs

     total energy              =   -1218.36784529 Ry
     Harris-Foulkes estimate   =   -1218.50777707 Ry
     estimated scf accuracy    <       6.53707647 Ry

     iteration #  3     ecut=    36.75 Ry     beta=0.30
     Davidson diagonalization with overlap
     ethr =  1.02E-05,  avg # of iterations =  7.2

     negative rho (up, down):  7.496E-01 0.000E+00
 
     Adding external electric field

     Computed dipole along edir(3) : 
        Dipole                0.0829 Ry au,          0.2106 Debye
        Dipole field          0.0002 Ry au
 
        Potential amp.       -0.0159 Ry
        Total length         46.5096 bohr
 

     total cpu time spent up to now is      674.5 secs

     total energy              =   -1218.43338176 Ry
     Harris-Foulkes estimate   =   -1218.43945937 Ry
     estimated scf accuracy    <       0.07534165 Ry

     iteration #  4     ecut=    36.75 Ry     beta=0.30
     Davidson diagonalization with overlap
     ethr =  1.02E-05,  avg # of iterations =  3.2

     negative rho (up, down):  7.496E-01 0.000E+00
 
     Adding external electric field

     Computed dipole along edir(3) : 
        Dipole                0.0929 Ry au,          0.2361 Debye
        Dipole field          0.0002 Ry au
 
        Potential amp.       -0.0179 Ry
        Total length         46.5096 bohr
 

     total cpu time spent up to now is      697.9 secs

     total energy              =   -1218.43647622 Ry
     Harris-Foulkes estimate   =   -1218.43717774 Ry
     estimated scf accuracy    <       0.00565445 Ry

     iteration #  5     ecut=    36.75 Ry     beta=0.30
     Davidson diagonalization with overlap
     ethr =  3.77E-06,  avg # of iterations =  3.0

     negative rho (up, down):  7.496E-01 0.000E+00
 
     Adding external electric field

     Computed dipole along edir(3) : 
        Dipole                0.0932 Ry au,          0.2368 Debye
        Dipole field          0.0002 Ry au
 
        Potential amp.       -0.0179 Ry
        Total length         46.5096 bohr
 

     total cpu time spent up to now is      719.9 secs

     total energy              =   -1218.43677325 Ry
     Harris-Foulkes estimate   =   -1218.43686971 Ry
     estimated scf accuracy    <       0.00038944 Ry

     iteration #  6     ecut=    36.75 Ry     beta=0.30
     Davidson diagonalization with overlap
     ethr =  2.60E-07,  avg # of iterations =  4.6

     negative rho (up, down):  7.496E-01 0.000E+00
 
     Adding external electric field

     Computed dipole along edir(3) : 
        Dipole                0.0916 Ry au,          0.2328 Debye
        Dipole field          0.0002 Ry au
 
        Potential amp.       -0.0176 Ry
        Total length         46.5096 bohr
 

     total cpu time spent up to now is      744.9 secs

     total energy              =   -1218.43682355 Ry
     Harris-Foulkes estimate   =   -1218.43685776 Ry
     estimated scf accuracy    <       0.00017797 Ry

     iteration #  7     ecut=    36.75 Ry     beta=0.30
     Davidson diagonalization with overlap
     ethr =  1.19E-07,  avg # of iterations =  3.6

     negative rho (up, down):  7.497E-01 0.000E+00
 
     Adding external electric field

     Computed dipole along edir(3) : 
        Dipole                0.0895 Ry au,          0.2275 Debye
        Dipole field          0.0002 Ry au
 
        Potential amp.       -0.0172 Ry
        Total length         46.5096 bohr
 

     total cpu time spent up to now is      768.7 secs

     total energy              =   -1218.43684126 Ry
     Harris-Foulkes estimate   =   -1218.43684668 Ry
     estimated scf accuracy    <       0.00005439 Ry

     iteration #  8     ecut=    36.75 Ry     beta=0.30
     Davidson diagonalization with overlap
     ethr =  3.63E-08,  avg # of iterations =  3.1

     negative rho (up, down):  7.497E-01 0.000E+00
 
     Adding external electric field

     Computed dipole along edir(3) : 
        Dipole                0.0886 Ry au,          0.2251 Debye
        Dipole field          0.0002 Ry au
 
        Potential amp.       -0.0170 Ry
        Total length         46.5096 bohr
 

     total cpu time spent up to now is      791.6 secs

     total energy              =   -1218.43684607 Ry
     Harris-Foulkes estimate   =   -1218.43684781 Ry
     estimated scf accuracy    <       0.00001485 Ry

     iteration #  9     ecut=    36.75 Ry     beta=0.30
     Davidson diagonalization with overlap
     ethr =  9.90E-09,  avg # of iterations =  3.2

     negative rho (up, down):  7.497E-01 0.000E+00

     negative rho (up, down):  7.497E-01 0.000E+00

     negative rho (up, down):  7.497E-01 0.000E+00

     negative rho (up, down):  7.497E-01 0.000E+00

     negative rho (up, down):  7.497E-01 0.000E+00

     negative rho (up, down):  7.497E-01 0.000E+00

     negative rho (up, down):  7.497E-01 0.000E+00

     negative rho (up, down):  7.497E-01 0.000E+00

     negative rho (up, down):  7.497E-01 0.000E+00

     negative rho (up, down):  7.497E-01 0.000E+00

     negative rho (up, down):  7.497E-01 0.000E+00

     negative rho (up, down):  7.497E-01 0.000E+00

     negative rho (up, down):  7.497E-01 0.000E+00

     negative rho (up, down):  7.497E-01 0.000E+00

     negative rho (up, down):  7.497E-01 0.000E+00

     negative rho (up, down):  7.497E-01 0.000E+00

     negative rho (up, down):  7.497E-01 0.000E+00

     negative rho (up, down):  7.497E-01 0.000E+00

     negative rho (up, down):  7.497E-01 0.000E+00

     negative rho (up, down):  7.497E-01 0.000E+00

     negative rho (up, down):  7.497E-01 0.000E+00

     negative rho (up, down):  7.497E-01 0.000E+00

     negative rho (up, down):  7.497E-01 0.000E+00

     negative rho (up, down):  7.497E-01 0.000E+00

     negative rho (up, down):  7.497E-01 0.000E+00

     negative rho (up, down):  7.497E-01 0.000E+00

     negative rho (up, down):  7.497E-01 0.000E+00

     negative rho (up, down):  7.497E-01 0.000E+00

     negative rho (up, down):  7.497E-01 0.000E+00

     negative rho (up, down):  7.497E-01 0.000E+00

     negative rho (up, down):  7.497E-01 0.000E+00

     negative rho (up, down):  7.497E-01 0.000E+00

     negative rho (up, down):  7.497E-01 0.000E+00

     negative rho (up, down):  7.497E-01 0.000E+00

     negative rho (up, down):  7.497E-01 0.000E+00
 
     Adding external electric field

     Computed dipole along edir(3) : 
        Dipole                0.0825 Ry au,          0.2098 Debye
        Dipole field          0.0002 Ry au
 
        Potential amp.       -0.0159 Ry
        Total length         46.5096 bohr
 

     total cpu time spent up to now is      877.5 secs

     End of self-consistent calculation

          k = 0.0000 0.0000 0.0000 ( 22923 PWs)   bands (ev):

   -47.7655 -47.6959 -47.6958 -47.6799 -47.5953 -47.5866 -47.5865 -47.3800
   -47.3007 -47.3007 -47.2846 -47.2525 -26.0070 -25.9813 -25.9813 -25.9434
   -25.9391 -25.9343 -25.9343 -25.8530 -25.8529 -25.7982 -25.7280 -25.6599
   -25.6599 -25.5303 -25.5261 -25.4779 -25.4779 -25.4167 -25.4166 -25.4109
   -25.3902 -25.3901 -25.3513 -25.2484 -25.2484 -25.2309 -25.2308 -25.1969
   -25.1744 -25.1464 -25.1464 -25.1129 -25.0976 -25.0976 -24.9590 -24.9590
   -12.4646  -3.9246  -3.2495  -2.2032  -1.4218  -1.0502  -1.0502  -0.9616
    -0.8622  -0.8622  -0.8182  -0.4782  -0.4782  -0.4109  -0.4084  -0.4084
    -0.1888  -0.0945  -0.0945   0.6051   1.0013   1.0013   1.5259   1.7477
     1.8950   1.9544   1.9545   2.1470   2.3185   2.3185   2.3463   2.5002
     2.5003   2.7131   2.7583   2.7583   2.7960

          k = 0.0000 0.0300 0.0000 ( 22902 PWs)   bands (ev):

   -47.7611 -47.6998 -47.6959 -47.6740 -47.5984 -47.5896 -47.5865 -47.3747
   -47.3052 -47.3007 -47.2858 -47.2528 -25.9795 -25.9555 -25.9468 -25.9304
   -25.9147 -25.9094 -25.8946 -25.8404 -25.8401 -25.7821 -25.7205 -25.6663
   -25.6612 -25.5471 -25.5268 -25.4683 -25.4658 -25.4437 -25.4408 -25.4256
   -25.4059 -25.3932 -25.3513 -25.2996 -25.2597 -25.2375 -25.2289 -25.1910
   -25.1820 -25.1550 -25.1525 -25.1319 -25.1226 -25.0939 -25.0041 -24.9691
   -12.4644  -3.8998  -3.0830  -2.0197  -1.2321  -1.0184  -0.9456  -0.8575
    -0.8421  -0.7196  -0.6987  -0.4884  -0.4361  -0.2770  -0.2166  -0.1947
    -0.0749  -0.0110  -0.0050   0.6528   0.9718   1.0116   1.4919   1.7378
     1.8028   1.9320   1.9695   2.0600   2.1057   2.1312   2.2302   2.3835
     2.5068   2.5754   2.6200   2.6330   2.6545

          k = 0.0000 0.0599 0.0000 ( 22852 PWs)   bands (ev):

   -47.7498 -47.7103 -47.6959 -47.6578 -47.6128 -47.5916 -47.5866 -47.3602
   -47.3188 -47.3007 -47.2871 -47.2536 -25.9267 -25.8990 -25.8909 -25.8579
   -25.8545 -25.8464 -25.8177 -25.8144 -25.7764 -25.7516 -25.7035 -25.6763
   -25.6680 -25.5988 -25.5408 -25.5207 -25.5130 -25.4907 -25.4370 -25.4322
   -25.4132 -25.3983 -25.3720 -25.3352 -25.2903 -25.2845 -25.2356 -25.2017
   -25.1906 -25.1835 -25.1702 -25.1570 -25.1566 -25.1217 -25.0704 -24.9963
   -12.4639  -3.8660  -2.5922  -1.5376  -1.2672  -0.8167  -0.7323  -0.7274
    -0.5711  -0.4128  -0.3651  -0.3344  -0.2917  -0.0598   0.2372   0.2520
     0.2675   0.3019   0.3559   0.7533   0.9804   0.9973   1.2305   1.4469
     1.4889   1.5962   1.6665   1.7434   1.8670   2.0081   2.0388   2.0424
     2.0993   2.1463   2.1714   2.2487   2.4376

          k = 0.0000-0.0899 0.0000 ( 22880 PWs)   bands (ev):

   -47.7405 -47.7192 -47.6959 -47.6387 -47.6318 -47.5919 -47.5866 -47.3445
   -47.3343 -47.3007 -47.2875 -47.2539 -25.8980 -25.8717 -25.8452 -25.8447
   -25.8182 -25.8081 -25.7896 -25.7464 -25.7312 -25.6901 -25.6895 -25.6800
   -25.6309 -25.6214 -25.6138 -25.6031 -25.5726 -25.5572 -25.4867 -25.4043
   -25.3944 -25.3742 -25.3340 -25.3294 -25.3076 -25.2778 -25.2599 -25.2550
   -25.2337 -25.2099 -25.1791 -25.1753 -25.1621 -25.1583 -25.0398 -25.0279
   -12.4637  -3.8542  -1.9309  -1.8642  -1.0713  -0.9066  -0.6305  -0.5469
    -0.2683  -0.1998  -0.1693  -0.1499  -0.1099  -0.0421   0.5800   0.5924
     0.6218   0.6654   0.6659   0.7240   1.0322   1.0938   1.1175   1.1491
     1.2081   1.2451   1.4072   1.4869   1.5703   1.6021   1.6802   1.7565
     1.8767   1.9136   1.9209   2.1070   2.3024

          k = 0.0260-0.0150 0.0000 ( 22902 PWs)   bands (ev):

   -47.7611 -47.6999 -47.6958 -47.6740 -47.5984 -47.5896 -47.5866 -47.3747
   -47.3051 -47.3007 -47.2858 -47.2528 -25.9795 -25.9555 -25.9467 -25.9304
   -25.9147 -25.9094 -25.8946 -25.8403 -25.8401 -25.7821 -25.7205 -25.6663
   -25.6612 -25.5471 -25.5268 -25.4683 -25.4658 -25.4437 -25.4408 -25.4256
   -25.4059 -25.3932 -25.3513 -25.2996 -25.2597 -25.2374 -25.2289 -25.1910
   -25.1820 -25.1550 -25.1525 -25.1319 -25.1225 -25.0939 -25.0041 -24.9691
   -12.4644  -3.8998  -3.0830  -2.0197  -1.2321  -1.0184  -0.9456  -0.8575
    -0.8421  -0.7196  -0.6987  -0.4884  -0.4361  -0.2770  -0.2166  -0.1947
    -0.0749  -0.0110  -0.0050   0.6528   0.9718   1.0116   1.4919   1.7378
     1.8028   1.9320   1.9695   2.0600   2.1056   2.1312   2.2302   2.3835
     2.5068   2.5754   2.6200   2.6330   2.6544

          k = 0.0260 0.0150 0.0000 ( 22902 PWs)   bands (ev):

   -47.7611 -47.6999 -47.6959 -47.6740 -47.5984 -47.5895 -47.5866 -47.3747
   -47.3052 -47.3007 -47.2858 -47.2528 -25.9795 -25.9555 -25.9467 -25.9304
   -25.9147 -25.9094 -25.8946 -25.8403 -25.8401 -25.7821 -25.7205 -25.6663
   -25.6612 -25.5471 -25.5268 -25.4683 -25.4658 -25.4437 -25.4409 -25.4256
   -25.4059 -25.3932 -25.3513 -25.2996 -25.2597 -25.2374 -25.2289 -25.1910
   -25.1820 -25.1550 -25.1525 -25.1319 -25.1226 -25.0939 -25.0041 -24.9691
   -12.4644  -3.8998  -3.0830  -2.0197  -1.2321  -1.0184  -0.9456  -0.8575
    -0.8421  -0.7196  -0.6987  -0.4884  -0.4361  -0.2770  -0.2166  -0.1947
    -0.0749  -0.0110  -0.0049   0.6528   0.9718   1.0116   1.4919   1.7378
     1.8028   1.9320   1.9695   2.0601   2.1057   2.1312   2.2302   2.3835
     2.5068   2.5754   2.6200   2.6330   2.6545

          k = 0.0260 0.0450 0.0000 ( 22896 PWs)   bands (ev):

   -47.7531 -47.7070 -47.6961 -47.6629 -47.6045 -47.5979 -47.5834 -47.3647
   -47.3121 -47.3042 -47.2856 -47.2534 -25.9388 -25.9088 -25.8983 -25.8946
   -25.8767 -25.8403 -25.8371 -25.8213 -25.8195 -25.7593 -25.7076 -25.6745
   -25.6651 -25.5901 -25.5387 -25.5146 -25.4774 -25.4459 -25.4404 -25.4170
   -25.4126 -25.4072 -25.3947 -25.3380 -25.2837 -25.2656 -25.2308 -25.2074
   -25.1865 -25.1812 -25.1615 -25.1538 -25.1119 -25.1066 -25.0811 -24.9909
   -12.4640  -3.8731  -2.7498  -1.6806  -0.9743  -0.9502  -0.8882  -0.7396
    -0.6805  -0.6354  -0.4628  -0.3833  -0.2560  -0.0156   0.0004   0.1364
     0.1531   0.1950   0.2285   0.7328   0.9392   1.0211   1.3697   1.5421
     1.6052   1.6773   1.7418   1.8318   1.9158   2.0344   2.1089   2.1505
     2.1994   2.2725   2.2952   2.4087   2.4507

          k = 0.0260-0.1049 0.0000 ( 22856 PWs)   bands (ev):

   -47.7409 -47.7184 -47.6964 -47.6440 -47.6208 -47.6036 -47.5806 -47.3481
   -47.3263 -47.3084 -47.2842 -47.2540 -25.8832 -25.8752 -25.8435 -25.8382
   -25.8209 -25.7960 -25.7799 -25.7598 -25.7356 -25.7105 -25.6957 -25.6882
   -25.6738 -25.6455 -25.6284 -25.5713 -25.5396 -25.5075 -25.4575 -25.4198
   -25.3989 -25.3864 -25.3652 -25.3308 -25.3184 -25.2945 -25.2778 -25.2376
   -25.2080 -25.1865 -25.1790 -25.1663 -25.1579 -25.1409 -25.0740 -25.0294
   -12.4637  -3.8545  -2.1381  -1.4335  -1.1377  -0.8342  -0.7244  -0.5781
    -0.5245  -0.3245  -0.1925  -0.0787   0.1020   0.1509   0.4589   0.5022
     0.5226   0.5879   0.6004   0.8949   0.9662   1.0133   1.0677   1.2098
     1.2446   1.2961   1.3981   1.4613   1.5076   1.6510   1.6964   1.7650
     1.8257   1.8634   1.9030   2.0790   2.2992

          k = 0.0260-0.0749 0.0000 ( 22856 PWs)   bands (ev):

   -47.7409 -47.7185 -47.6964 -47.6440 -47.6208 -47.6036 -47.5806 -47.3481
   -47.3263 -47.3084 -47.2842 -47.2540 -25.8832 -25.8752 -25.8435 -25.8382
   -25.8209 -25.7960 -25.7799 -25.7598 -25.7356 -25.7105 -25.6957 -25.6882
   -25.6738 -25.6455 -25.6284 -25.5713 -25.5396 -25.5075 -25.4575 -25.4197
   -25.3989 -25.3864 -25.3652 -25.3308 -25.3184 -25.2945 -25.2778 -25.2376
   -25.2080 -25.1865 -25.1790 -25.1662 -25.1579 -25.1409 -25.0740 -25.0294
   -12.4637  -3.8545  -2.1381  -1.4335  -1.1377  -0.8342  -0.7244  -0.5781
    -0.5245  -0.3245  -0.1926  -0.0787   0.1020   0.1509   0.4589   0.5022
     0.5226   0.5879   0.6004   0.8949   0.9662   1.0132   1.0677   1.2098
     1.2446   1.2961   1.3981   1.4613   1.5076   1.6510   1.6964   1.7650
     1.8257   1.8634   1.9030   2.0790   2.2992

          k = 0.0260-0.0450 0.0000 ( 22896 PWs)   bands (ev):

   -47.7531 -47.7071 -47.6961 -47.6629 -47.6045 -47.5980 -47.5834 -47.3647
   -47.3120 -47.3042 -47.2856 -47.2534 -25.9388 -25.9088 -25.8983 -25.8946
   -25.8767 -25.8403 -25.8371 -25.8213 -25.8195 -25.7593 -25.7076 -25.6745
   -25.6651 -25.5901 -25.5387 -25.5146 -25.4774 -25.4459 -25.4404 -25.4170
   -25.4126 -25.4072 -25.3947 -25.3380 -25.2837 -25.2656 -25.2308 -25.2074
   -25.1865 -25.1812 -25.1615 -25.1538 -25.1118 -25.1067 -25.0811 -24.9909
   -12.4640  -3.8731  -2.7498  -1.6806  -0.9743  -0.9502  -0.8882  -0.7396
    -0.6805  -0.6354  -0.4628  -0.3833  -0.2560  -0.0156   0.0004   0.1364
     0.1531   0.1950   0.2285   0.7328   0.9392   1.0211   1.3697   1.5421
     1.6052   1.6773   1.7418   1.8318   1.9158   2.0344   2.1089   2.1505
     2.1994   2.2725   2.2952   2.4087   2.4507

          k = 0.0519-0.0300 0.0000 ( 22852 PWs)   bands (ev):

   -47.7498 -47.7104 -47.6959 -47.6578 -47.6129 -47.5916 -47.5866 -47.3602
   -47.3188 -47.3007 -47.2871 -47.2536 -25.9267 -25.8990 -25.8909 -25.8579
   -25.8545 -25.8464 -25.8177 -25.8144 -25.7764 -25.7516 -25.7035 -25.6763
   -25.6680 -25.5988 -25.5408 -25.5208 -25.5130 -25.4907 -25.4370 -25.4322
   -25.4132 -25.3983 -25.3720 -25.3352 -25.2903 -25.2845 -25.2356 -25.2017
   -25.1906 -25.1835 -25.1702 -25.1570 -25.1566 -25.1217 -25.0704 -24.9963
   -12.4639  -3.8660  -2.5922  -1.5376  -1.2672  -0.8167  -0.7323  -0.7274
    -0.5711  -0.4128  -0.3651  -0.3344  -0.2917  -0.0598   0.2372   0.2520
     0.2675   0.3019   0.3559   0.7533   0.9804   0.9973   1.2305   1.4469
     1.4889   1.5962   1.6665   1.7434   1.8670   2.0082   2.0388   2.0424
     2.0993   2.1463   2.1714   2.2487   2.4376

          k = 0.0519 0.0000 0.0000 ( 22896 PWs)   bands (ev):

   -47.7531 -47.7071 -47.6960 -47.6629 -47.6045 -47.5979 -47.5834 -47.3647
   -47.3120 -47.3042 -47.2856 -47.2534 -25.9388 -25.9088 -25.8983 -25.8946
   -25.8767 -25.8403 -25.8371 -25.8213 -25.8195 -25.7593 -25.7076 -25.6745
   -25.6651 -25.5901 -25.5387 -25.5146 -25.4774 -25.4459 -25.4404 -25.4170
   -25.4126 -25.4072 -25.3947 -25.3380 -25.2837 -25.2656 -25.2308 -25.2074
   -25.1865 -25.1812 -25.1615 -25.1538 -25.1118 -25.1067 -25.0811 -24.9909
   -12.4640  -3.8731  -2.7498  -1.6806  -0.9743  -0.9502  -0.8882  -0.7396
    -0.6805  -0.6354  -0.4628  -0.3833  -0.2560  -0.0156   0.0004   0.1364
     0.1531   0.1950   0.2285   0.7328   0.9392   1.0211   1.3697   1.5421
     1.6052   1.6773   1.7418   1.8318   1.9158   2.0344   2.1089   2.1505
     2.1994   2.2725   2.2952   2.4087   2.4507

          k = 0.0519 0.0300 0.0000 ( 22852 PWs)   bands (ev):

   -47.7498 -47.7104 -47.6959 -47.6578 -47.6129 -47.5915 -47.5866 -47.3602
   -47.3188 -47.3007 -47.2871 -47.2536 -25.9267 -25.8990 -25.8909 -25.8579
   -25.8545 -25.8464 -25.8177 -25.8144 -25.7764 -25.7516 -25.7035 -25.6763
   -25.6681 -25.5988 -25.5408 -25.5208 -25.5131 -25.4906 -25.4370 -25.4322
   -25.4132 -25.3983 -25.3720 -25.3352 -25.2903 -25.2845 -25.2356 -25.2017
   -25.1906 -25.1835 -25.1702 -25.1570 -25.1566 -25.1217 -25.0704 -24.9963
   -12.4639  -3.8660  -2.5922  -1.5376  -1.2672  -0.8167  -0.7323  -0.7274
    -0.5711  -0.4128  -0.3651  -0.3344  -0.2917  -0.0598   0.2372   0.2520
     0.2675   0.3019   0.3559   0.7533   0.9804   0.9973   1.2305   1.4469
     1.4889   1.5962   1.6665   1.7434   1.8670   2.0081   2.0388   2.0424
     2.0993   2.1463   2.1714   2.2487   2.4376

          k = 0.0519-0.1199 0.0000 ( 22856 PWs)   bands (ev):

   -47.7409 -47.7185 -47.6963 -47.6440 -47.6208 -47.6035 -47.5806 -47.3481
   -47.3263 -47.3084 -47.2842 -47.2540 -25.8832 -25.8752 -25.8435 -25.8382
   -25.8209 -25.7960 -25.7799 -25.7598 -25.7356 -25.7105 -25.6957 -25.6881
   -25.6738 -25.6455 -25.6284 -25.5713 -25.5396 -25.5075 -25.4575 -25.4197
   -25.3989 -25.3864 -25.3652 -25.3308 -25.3184 -25.2945 -25.2778 -25.2376
   -25.2080 -25.1865 -25.1790 -25.1663 -25.1579 -25.1409 -25.0740 -25.0294
   -12.4637  -3.8545  -2.1381  -1.4335  -1.1377  -0.8342  -0.7244  -0.5781
    -0.5245  -0.3245  -0.1926  -0.0787   0.1020   0.1509   0.4589   0.5022
     0.5226   0.5879   0.6004   0.8949   0.9662   1.0133   1.0677   1.2098
     1.2446   1.2961   1.3981   1.4613   1.5076   1.6510   1.6963   1.7650
     1.8257   1.8634   1.9030   2.0790   2.2992

          k = 0.0519-0.0899 0.0000 ( 22914 PWs)   bands (ev):

   -47.7295 -47.7293 -47.6968 -47.6302 -47.6206 -47.6205 -47.5777 -47.3357
   -47.3316 -47.3177 -47.2818 -47.2543 -25.8523 -25.8513 -25.8194 -25.8112
   -25.7879 -25.7818 -25.7437 -25.7312 -25.7293 -25.7250 -25.7066 -25.6551
   -25.6526 -25.6520 -25.6488 -25.6372 -25.6366 -25.5018 -25.4395 -25.4006
   -25.3967 -25.3946 -25.3677 -25.3451 -25.3169 -25.3148 -25.2703 -25.2565
   -25.2564 -25.1883 -25.1780 -25.1639 -25.1616 -25.0942 -25.0840 -25.0824
   -12.4636  -3.8498  -1.4972  -1.4943  -1.4294  -0.7497  -0.7304  -0.4877
    -0.4423  -0.4266   0.2573   0.2642   0.3166   0.3585   0.3993   0.4252
     0.8039   0.8211   0.8414   0.8979   0.9026   0.9107   0.9180   0.9404
     1.1064   1.1085   1.1124   1.3835   1.4205   1.4563   1.5328   1.5515
     1.5941   1.6441   1.7678   1.8557   2.1832

          k = 0.0519-0.0599 0.0000 ( 22856 PWs)   bands (ev):

   -47.7408 -47.7185 -47.6963 -47.6440 -47.6208 -47.6036 -47.5806 -47.3481
   -47.3263 -47.3084 -47.2842 -47.2540 -25.8832 -25.8752 -25.8435 -25.8382
   -25.8209 -25.7960 -25.7799 -25.7598 -25.7356 -25.7105 -25.6957 -25.6881
   -25.6738 -25.6455 -25.6284 -25.5713 -25.5396 -25.5075 -25.4575 -25.4197
   -25.3989 -25.3864 -25.3652 -25.3308 -25.3184 -25.2945 -25.2778 -25.2376
   -25.2080 -25.1865 -25.1790 -25.1663 -25.1579 -25.1409 -25.0740 -25.0294
   -12.4637  -3.8545  -2.1381  -1.4335  -1.1377  -0.8342  -0.7244  -0.5781
    -0.5245  -0.3245  -0.1926  -0.0787   0.1020   0.1509   0.4589   0.5022
     0.5226   0.5879   0.6004   0.8948   0.9662   1.0133   1.0677   1.2098
     1.2446   1.2961   1.3981   1.4613   1.5076   1.6510   1.6963   1.7650
     1.8256   1.8634   1.9030   2.0790   2.2992

          k =-0.0779 0.0450 0.0000 ( 22880 PWs)   bands (ev):

   -47.7404 -47.7194 -47.6959 -47.6387 -47.6318 -47.5919 -47.5866 -47.3445
   -47.3343 -47.3007 -47.2875 -47.2539 -25.8979 -25.8716 -25.8453 -25.8447
   -25.8182 -25.8081 -25.7896 -25.7464 -25.7312 -25.6901 -25.6895 -25.6800
   -25.6308 -25.6215 -25.6138 -25.6032 -25.5726 -25.5572 -25.4867 -25.4043
   -25.3944 -25.3742 -25.3340 -25.3294 -25.3076 -25.2778 -25.2600 -25.2550
   -25.2337 -25.2100 -25.1791 -25.1753 -25.1621 -25.1583 -25.0398 -25.0279
   -12.4637  -3.8542  -1.9309  -1.8642  -1.0713  -0.9066  -0.6305  -0.5469
    -0.2683  -0.1998  -0.1693  -0.1499  -0.1099  -0.0421   0.5800   0.5924
     0.6218   0.6654   0.6659   0.7240   1.0322   1.0938   1.1175   1.1491
     1.2081   1.2451   1.4072   1.4869   1.5703   1.6021   1.6802   1.7565
     1.8766   1.9136   1.9209   2.1070   2.3023

          k =-0.0779 0.0749 0.0000 ( 22856 PWs)   bands (ev):

   -47.7408 -47.7186 -47.6963 -47.6440 -47.6208 -47.6035 -47.5806 -47.3481
   -47.3263 -47.3084 -47.2842 -47.2540 -25.8832 -25.8752 -25.8435 -25.8382
   -25.8209 -25.7960 -25.7799 -25.7598 -25.7356 -25.7105 -25.6957 -25.6882
   -25.6737 -25.6455 -25.6284 -25.5713 -25.5396 -25.5075 -25.4575 -25.4197
   -25.3989 -25.3864 -25.3652 -25.3308 -25.3184 -25.2945 -25.2778 -25.2376
   -25.2080 -25.1865 -25.1790 -25.1663 -25.1579 -25.1409 -25.0740 -25.0294
   -12.4637  -3.8545  -2.1381  -1.4335  -1.1377  -0.8342  -0.7244  -0.5781
    -0.5245  -0.3245  -0.1926  -0.0787   0.1020   0.1509   0.4589   0.5022
     0.5226   0.5879   0.6004   0.8948   0.9662   1.0133   1.0677   1.2098
     1.2446   1.2961   1.3981   1.4613   1.5076   1.6510   1.6964   1.7650
     1.8256   1.8634   1.9030   2.0790   2.2992

          k =-0.0779 0.1049 0.0000 ( 22856 PWs)   bands (ev):

   -47.7408 -47.7185 -47.6963 -47.6440 -47.6208 -47.6035 -47.5807 -47.3481
   -47.3263 -47.3084 -47.2842 -47.2540 -25.8832 -25.8752 -25.8435 -25.8382
   -25.8209 -25.7960 -25.7799 -25.7598 -25.7356 -25.7105 -25.6957 -25.6882
   -25.6737 -25.6455 -25.6284 -25.5713 -25.5396 -25.5075 -25.4575 -25.4197
   -25.3989 -25.3864 -25.3652 -25.3308 -25.3184 -25.2945 -25.2778 -25.2376
   -25.2080 -25.1865 -25.1790 -25.1663 -25.1579 -25.1409 -25.0740 -25.0294
   -12.4637  -3.8545  -2.1381  -1.4335  -1.1377  -0.8342  -0.7244  -0.5781
    -0.5245  -0.3245  -0.1926  -0.0787   0.1020   0.1509   0.4589   0.5022
     0.5226   0.5879   0.6004   0.8949   0.9662   1.0132   1.0677   1.2098
     1.2446   1.2961   1.3981   1.4613   1.5076   1.6510   1.6964   1.7650
     1.8257   1.8634   1.9030   2.0790   2.2992

          k =-0.0779-0.0450 0.0000 ( 22880 PWs)   bands (ev):

   -47.7404 -47.7193 -47.6959 -47.6386 -47.6318 -47.5918 -47.5866 -47.3445
   -47.3343 -47.3007 -47.2875 -47.2539 -25.8979 -25.8717 -25.8453 -25.8447
   -25.8183 -25.8081 -25.7896 -25.7464 -25.7312 -25.6901 -25.6895 -25.6800
   -25.6309 -25.6215 -25.6138 -25.6032 -25.5725 -25.5573 -25.4867 -25.4043
   -25.3944 -25.3742 -25.3340 -25.3294 -25.3076 -25.2778 -25.2600 -25.2550
   -25.2337 -25.2099 -25.1791 -25.1753 -25.1621 -25.1583 -25.0398 -25.0279
   -12.4637  -3.8542  -1.9308  -1.8642  -1.0713  -0.9067  -0.6305  -0.5469
    -0.2683  -0.1998  -0.1693  -0.1499  -0.1099  -0.0421   0.5800   0.5924
     0.6218   0.6654   0.6659   0.7240   1.0322   1.0938   1.1175   1.1491
     1.2081   1.2451   1.4072   1.4869   1.5703   1.6021   1.6802   1.7565
     1.8766   1.9136   1.9209   2.1070   2.3024

     the Fermi energy is     1.6007 ev

!    total energy              =   -1218.43684567 Ry
     Harris-Foulkes estimate   =   -1218.43685001 Ry
     estimated scf accuracy    <       0.00000588 Ry

     The total energy is the sum of the following terms:

     one-electron contribution =   -8371.89368063 Ry
     hartree contribution      =    4179.72147475 Ry
     xc contribution           =    -226.72116649 Ry
     ewald contribution        =    3200.57262582 Ry
     electric field correction =       0.00001408 Ry
     smearing contrib. (-TS)   =      -0.11611320 Ry

     convergence has been achieved in   9 iterations
 
 BEEF-vdW xc energy contributions
           1 :   -194.116601369020     
           2 :    175.508786578568     
           3 :   -144.238325981500     
           4 :    109.170810678227     
           5 :   -78.2093161066728     
           6 :    55.5798891546598     
           7 :   -41.2466506155041     
           8 :    32.2808524064472     
           9 :   -25.1343914288763     
          10 :    17.5510349626623     
          11 :   -9.30119710776080     
          12 :    1.66048712381377     
          13 :    3.80600526109401     
          14 :   -6.35450906455134     
          15 :    6.47655524833209     
          16 :   -5.50058673988741     
          17 :    4.74257894210530     
          18 :   -4.79408508627114     
          19 :    5.36396892472050     
          20 :   -5.68484856528465     
          21 :    5.14500505003517     
          22 :   -3.71949266212681     
          23 :    1.95753412375399     
          24 :  -0.594316789930076     
          25 :   8.103549123035236E-002
          26 :  -0.342817780921109     
          27 :   0.891233237684958     
          28 :   -1.18071163511755     
          29 :   0.957241877647846     
          30 :  -0.378601129501277     
          31 :   -22.5379120110402     
          32 :   -16.7561665150021     

     Forces acting on atoms (Ry/au):


     negative rho (up, down):  7.497E-01 0.000E+00
     atom    1 type  1   force =     0.00068440    0.00039532    0.01513380
     atom    2 type  1   force =    -0.00069103    0.00039917    0.01514060
     atom    3 type  1   force =     0.00000004   -0.00078864    0.01513606
     atom    4 type  1   force =     0.00000956   -0.00000610    0.01584881
     atom    5 type  1   force =    -0.00001449    0.00597405   -0.00916042
     atom    6 type  1   force =     0.00001142    0.00000799    0.00271700
     atom    7 type  1   force =    -0.00516861   -0.00298167   -0.00917164
     atom    8 type  1   force =     0.00516238   -0.00299298   -0.00916823
     atom    9 type  1   force =    -0.00000133   -0.00000045    0.05988296
     atom   10 type  1   force =     0.00000701    0.00134632   -0.00764778
     atom   11 type  1   force =     0.00116334   -0.00067028   -0.00764294
     atom   12 type  1   force =    -0.00116618   -0.00067995   -0.00765530
     atom   13 type  2   force =     0.00000207   -0.00000165   -0.00656272
     atom   14 type  3   force =     0.00000144   -0.00000114   -0.06685021

     Total force =     0.090989     Total SCF correction =     0.005280


     entering subroutine stress ...


     negative rho (up, down):  7.497E-01 0.000E+00
          total   stress  (Ry/bohr**3)                   (kbar)     P=  -13.80
  -0.00006519   0.00000000  -0.00000000         -9.59      0.00     -0.00
   0.00000000  -0.00006519   0.00000000          0.00     -9.59      0.00
  -0.00000000   0.00000000  -0.00015096         -0.00      0.00    -22.21


     number of scf cycles    =   2
     number of bfgs steps    =   1

     energy   old            =   -1218.4216343356 Ry
     energy   new            =   -1218.4368456725 Ry

     CASE: energy  _new < energy  _old

     new trust radius        =       0.1193735127 bohr
     new conv_thr            =       0.0000001000 Ry


ATOMIC_POSITIONS (crystal)
Zr1      0.166666667   0.166666667   0.396150897    0   0   0
Zr1      0.666666667   0.166666667   0.396150897    0   0   0
Zr1      0.166666667   0.666666667   0.396150897    0   0   0
Zr1      0.666666667   0.666666667   0.396150897    0   0   0
Zr1      0.833333333   0.333333333   0.500000000    0   0   0
Zr1      0.333333333   0.333333333   0.500000000    0   0   0
Zr1      0.833333333   0.833333333   0.500000000    0   0   0
Zr1      0.333333333   0.833333333   0.500000000    0   0   0
Zr1      0.000002883  -0.000001677   0.608626555
Zr1      0.499864622   0.000267821   0.603426518
Zr1      0.000268805   0.499865926   0.603427046
Zr1      0.499864112   0.499867449   0.603426272
N1       0.000000094  -0.000000066   0.684313897
H1       0.000000160  -0.000000099   0.725190616



     Writing output data file calc.save
     Check: negative starting charge=   -0.729239
     NEW-OLD atomic charge density approx. for the potential
     Check: negative starting charge=   -0.728348

     negative rho (up, down):  7.485E-01 0.000E+00
 
     Adding external electric field

     Computed dipole along edir(3) : 
        Dipole                0.0827 Ry au,          0.2102 Debye
        Dipole field          0.0002 Ry au
 
        Potential amp.       -0.0159 Ry
        Total length         46.5096 bohr
 

     total cpu time spent up to now is      961.5 secs

     per-process dynamical memory:    96.8 Mb

     Self-consistent Calculation

     iteration #  1     ecut=    36.75 Ry     beta=0.30
     Davidson diagonalization with overlap
     ethr =  1.00E-06,  avg # of iterations = 10.8

     negative rho (up, down):  7.486E-01 0.000E+00
 
     Adding external electric field

     Computed dipole along edir(3) : 
        Dipole               -0.0638 Ry au,         -0.1621 Debye
        Dipole field         -0.0001 Ry au
 
        Potential amp.        0.0123 Ry
        Total length         46.5096 bohr
 

     total cpu time spent up to now is      998.3 secs

     total energy              =   -1218.44123508 Ry
     Harris-Foulkes estimate   =   -1218.44777734 Ry
     estimated scf accuracy    <       0.01491469 Ry

     iteration #  2     ecut=    36.75 Ry     beta=0.30
     Davidson diagonalization with overlap
     ethr =  9.94E-06,  avg # of iterations =  6.0

     negative rho (up, down):  7.486E-01 0.000E+00
 
     Adding external electric field

     Computed dipole along edir(3) : 
        Dipole                0.1303 Ry au,          0.3312 Debye
        Dipole field          0.0003 Ry au
 
        Potential amp.       -0.0250 Ry
        Total length         46.5096 bohr
 

     total cpu time spent up to now is     1025.5 secs

     total energy              =   -1218.42449405 Ry
     Harris-Foulkes estimate   =   -1218.45807607 Ry
[...]
   -25.1266 -25.0945 -25.0842 -25.0692 -25.0463 -25.0322 -24.9844 -24.9461
   -12.7500  -4.0450  -2.1097  -1.4061  -1.1343  -0.8860  -0.8185  -0.7077
    -0.5822  -0.3100  -0.2022  -0.0830   0.1032   0.1610   0.4648   0.5041
     0.5282   0.5991   0.6179   0.9142   0.9866   1.0301   1.0861   1.2311
     1.2704   1.3276   1.4181   1.4919   1.5330   1.6872   1.7167   1.8252
     1.8526   1.9076   1.9456   2.1131   2.3292

          k = 0.0260-0.0450 0.0000 ( 22896 PWs)   bands (ev):

   -47.6713 -47.6239 -47.6233 -47.6123 -47.5662 -47.5581 -47.5439 -47.2870
   -47.2371 -47.2277 -47.1905 -47.0806 -25.8907 -25.8686 -25.8503 -25.8449
   -25.8221 -25.7878 -25.7802 -25.7733 -25.7712 -25.7141 -25.6556 -25.6180
   -25.6052 -25.5211 -25.5012 -25.4764 -25.4111 -25.3811 -25.3783 -25.3602
   -25.3525 -25.3471 -25.3386 -25.2834 -25.2442 -25.1779 -25.1555 -25.1274
   -25.0998 -25.0855 -25.0558 -25.0512 -25.0153 -25.0049 -24.9855 -24.9092
   -12.7503  -4.0596  -2.7255  -1.6456  -1.0259  -0.9975  -0.8699  -0.8403
    -0.7153  -0.6370  -0.5663  -0.4111  -0.2581   0.0032   0.0208   0.1419
     0.1685   0.2021   0.2500   0.7727   0.9719   1.0416   1.4382   1.5422
     1.6297   1.6895   1.7634   1.8659   1.9700   2.0882   2.1709   2.1786
     2.2394   2.3435   2.3602   2.4700   2.5013

          k = 0.0519-0.0300 0.0000 ( 22852 PWs)   bands (ev):

   -47.6680 -47.6268 -47.6186 -47.6121 -47.5739 -47.5526 -47.5468 -47.2828
   -47.2423 -47.2262 -47.1913 -47.0807 -25.8779 -25.8570 -25.8439 -25.8111
   -25.8082 -25.7831 -25.7646 -25.7634 -25.7271 -25.7061 -25.6534 -25.6212
   -25.6107 -25.5303 -25.5039 -25.4695 -25.4569 -25.4511 -25.3936 -25.3511
   -25.3361 -25.3347 -25.3230 -25.2769 -25.2509 -25.1874 -25.1617 -25.1205
   -25.1132 -25.0910 -25.0803 -25.0443 -25.0336 -25.0324 -24.9756 -24.9136
   -12.7502  -4.0541  -2.5662  -1.5057  -1.2494  -0.9168  -0.8915  -0.7179
    -0.6252  -0.4423  -0.3603  -0.3337  -0.3252  -0.0473   0.2439   0.2559
     0.2745   0.3303   0.3774   0.7919   1.0094   1.0224   1.2778   1.4502
     1.5194   1.6034   1.6898   1.7791   1.8906   2.0326   2.0741   2.0900
     2.1379   2.2103   2.2398   2.3127   2.5181

          k = 0.0519 0.0000 0.0000 ( 22896 PWs)   bands (ev):

   -47.6713 -47.6239 -47.6233 -47.6122 -47.5662 -47.5581 -47.5439 -47.2870
   -47.2371 -47.2277 -47.1905 -47.0806 -25.8907 -25.8686 -25.8503 -25.8449
   -25.8221 -25.7878 -25.7802 -25.7733 -25.7712 -25.7141 -25.6556 -25.6180
   -25.6052 -25.5211 -25.5012 -25.4764 -25.4111 -25.3811 -25.3783 -25.3602
   -25.3525 -25.3471 -25.3386 -25.2834 -25.2442 -25.1779 -25.1555 -25.1274
   -25.0998 -25.0855 -25.0558 -25.0512 -25.0153 -25.0049 -24.9855 -24.9092
   -12.7503  -4.0596  -2.7255  -1.6456  -1.0259  -0.9975  -0.8699  -0.8403
    -0.7153  -0.6370  -0.5663  -0.4111  -0.2581   0.0032   0.0208   0.1419
     0.1685   0.2021   0.2500   0.7727   0.9719   1.0416   1.4382   1.5422
     1.6297   1.6895   1.7634   1.8659   1.9700   2.0882   2.1709   2.1786
     2.2394   2.3435   2.3602   2.4700   2.5013

          k = 0.0519 0.0300 0.0000 ( 22852 PWs)   bands (ev):

   -47.6680 -47.6268 -47.6186 -47.6121 -47.5739 -47.5526 -47.5468 -47.2828
   -47.2423 -47.2262 -47.1913 -47.0807 -25.8779 -25.8570 -25.8439 -25.8111
   -25.8082 -25.7831 -25.7646 -25.7634 -25.7271 -25.7061 -25.6534 -25.6212
   -25.6107 -25.5303 -25.5039 -25.4695 -25.4569 -25.4511 -25.3936 -25.3511
   -25.3361 -25.3347 -25.3230 -25.2769 -25.2509 -25.1874 -25.1617 -25.1205
   -25.1132 -25.0910 -25.0803 -25.0443 -25.0336 -25.0324 -24.9756 -24.9136
   -12.7502  -4.0541  -2.5662  -1.5057  -1.2494  -0.9168  -0.8915  -0.7179
    -0.6252  -0.4423  -0.3603  -0.3337  -0.3252  -0.0473   0.2439   0.2559
     0.2745   0.3303   0.3774   0.7919   1.0094   1.0224   1.2778   1.4502
     1.5194   1.6034   1.6898   1.7791   1.8906   2.0326   2.0741   2.0900
     2.1379   2.2103   2.2398   2.3127   2.5181

          k = 0.0519-0.1199 0.0000 ( 22856 PWs)   bands (ev):

   -47.6592 -47.6348 -47.6125 -47.6051 -47.5816 -47.5642 -47.5413 -47.2716
   -47.2498 -47.2300 -47.1913 -47.0811 -25.8389 -25.8267 -25.7974 -25.7909
   -25.7702 -25.7406 -25.7304 -25.7042 -25.6891 -25.6583 -25.6451 -25.6374
   -25.6202 -25.5905 -25.5800 -25.5110 -25.4911 -25.4717 -25.4145 -25.3519
   -25.3388 -25.3178 -25.3020 -25.2874 -25.2488 -25.2104 -25.1827 -25.1560
   -25.1266 -25.0945 -25.0842 -25.0692 -25.0463 -25.0322 -24.9844 -24.9461
   -12.7500  -4.0450  -2.1097  -1.4061  -1.1343  -0.8860  -0.8185  -0.7077
    -0.5822  -0.3100  -0.2022  -0.0830   0.1032   0.1610   0.4648   0.5041
     0.5282   0.5991   0.6179   0.9142   0.9866   1.0301   1.0861   1.2311
     1.2704   1.3276   1.4181   1.4919   1.5330   1.6872   1.7167   1.8252
     1.8526   1.9076   1.9456   2.1131   2.3292

          k = 0.0519-0.0899 0.0000 ( 22914 PWs)   bands (ev):

   -47.6509 -47.6426 -47.6129 -47.5926 -47.5807 -47.5806 -47.5385 -47.2605
   -47.2567 -47.2350 -47.1907 -47.0812 -25.8153 -25.7987 -25.7735 -25.7611
   -25.7276 -25.7253 -25.6975 -25.6845 -25.6833 -25.6747 -25.6543 -25.6129
   -25.6124 -25.6120 -25.5955 -25.5734 -25.5562 -25.4721 -25.3744 -25.3558
   -25.3505 -25.3487 -25.3032 -25.2602 -25.2417 -25.2362 -25.1976 -25.1705
   -25.1542 -25.0895 -25.0824 -25.0647 -25.0363 -25.0072 -25.0001 -24.9979
   -12.7498  -4.0411  -1.4690  -1.4682  -1.3968  -0.8945  -0.8679  -0.4914
    -0.4750  -0.4491   0.2150   0.3029   0.3123   0.3703   0.3855   0.4207
     0.7960   0.8045   0.8637   0.8805   0.9045   0.9083   0.9490   0.9976
     1.1289   1.1339   1.1538   1.4404   1.4626   1.5214   1.5568   1.5920
     1.6420   1.6627   1.8045   1.8974   2.1858

          k = 0.0519-0.0599 0.0000 ( 22856 PWs)   bands (ev):

   -47.6592 -47.6348 -47.6125 -47.6051 -47.5816 -47.5642 -47.5413 -47.2716
   -47.2498 -47.2301 -47.1913 -47.0811 -25.8389 -25.8268 -25.7974 -25.7909
   -25.7702 -25.7406 -25.7304 -25.7042 -25.6891 -25.6583 -25.6451 -25.6374
   -25.6202 -25.5904 -25.5800 -25.5110 -25.4911 -25.4717 -25.4145 -25.3519
   -25.3388 -25.3178 -25.3020 -25.2874 -25.2488 -25.2104 -25.1827 -25.1560
   -25.1266 -25.0945 -25.0842 -25.0692 -25.0463 -25.0322 -24.9844 -24.9461
   -12.7500  -4.0450  -2.1097  -1.4061  -1.1343  -0.8860  -0.8185  -0.7077
    -0.5822  -0.3100  -0.2022  -0.0830   0.1032   0.1610   0.4648   0.5041
     0.5282   0.5991   0.6179   0.9142   0.9866   1.0301   1.0861   1.2311
     1.2705   1.3276   1.4181   1.4920   1.5330   1.6872   1.7167   1.8252
     1.8526   1.9076   1.9456   2.1131   2.3292

          k =-0.0779 0.0450 0.0000 ( 22880 PWs)   bands (ev):

   -47.6589 -47.6355 -47.6121 -47.6005 -47.5918 -47.5531 -47.5469 -47.2693
   -47.2551 -47.2262 -47.1922 -47.0811 -25.8487 -25.8266 -25.8000 -25.7991
   -25.7731 -25.7571 -25.7187 -25.6994 -25.6848 -25.6449 -25.6381 -25.6186
   -25.5746 -25.5667 -25.5662 -25.5464 -25.5302 -25.5125 -25.4552 -25.3258
   -25.3180 -25.3109 -25.2952 -25.2886 -25.2131 -25.1960 -25.1885 -25.1704
   -25.1406 -25.1297 -25.0870 -25.0785 -25.0543 -25.0342 -24.9547 -24.9413
   -12.7500  -4.0447  -1.9049  -1.8328  -1.0960  -0.8737  -0.8501  -0.6784
    -0.2587  -0.1892  -0.1560  -0.1355  -0.1201  -0.0562   0.5820   0.5990
     0.6129   0.6672   0.6851   0.7518   1.0369   1.1185   1.1536   1.1718
     1.2290   1.2721   1.4414   1.5184   1.6099   1.6324   1.7118   1.8031
     1.9043   1.9330   1.9823   2.0959   2.3553

          k =-0.0779 0.0749 0.0000 ( 22856 PWs)   bands (ev):

   -47.6592 -47.6348 -47.6125 -47.6051 -47.5816 -47.5642 -47.5413 -47.2716
   -47.2498 -47.2301 -47.1913 -47.0811 -25.8389 -25.8268 -25.7974 -25.7909
   -25.7702 -25.7406 -25.7304 -25.7042 -25.6891 -25.6583 -25.6451 -25.6374
   -25.6202 -25.5904 -25.5800 -25.5110 -25.4911 -25.4717 -25.4145 -25.3519
   -25.3388 -25.3178 -25.3020 -25.2874 -25.2488 -25.2104 -25.1827 -25.1560
   -25.1266 -25.0945 -25.0842 -25.0692 -25.0463 -25.0322 -24.9844 -24.9461
   -12.7500  -4.0450  -2.1097  -1.4061  -1.1343  -0.8860  -0.8185  -0.7077
    -0.5822  -0.3100  -0.2022  -0.0830   0.1032   0.1610   0.4648   0.5041
     0.5282   0.5991   0.6179   0.9142   0.9866   1.0301   1.0861   1.2311
     1.2705   1.3276   1.4181   1.4920   1.5330   1.6872   1.7167   1.8252
     1.8526   1.9076   1.9456   2.1131   2.3292

          k =-0.0779 0.1049 0.0000 ( 22856 PWs)   bands (ev):

   -47.6592 -47.6348 -47.6125 -47.6051 -47.5816 -47.5642 -47.5413 -47.2716
   -47.2498 -47.2300 -47.1913 -47.0811 -25.8389 -25.8267 -25.7974 -25.7909
   -25.7702 -25.7406 -25.7304 -25.7042 -25.6891 -25.6583 -25.6451 -25.6374
   -25.6202 -25.5904 -25.5800 -25.5110 -25.4911 -25.4717 -25.4145 -25.3519
   -25.3388 -25.3178 -25.3020 -25.2874 -25.2488 -25.2104 -25.1827 -25.1560
   -25.1266 -25.0945 -25.0842 -25.0692 -25.0463 -25.0322 -24.9844 -24.9461
   -12.7500  -4.0450  -2.1097  -1.4061  -1.1343  -0.8860  -0.8185  -0.7077
    -0.5822  -0.3100  -0.2022  -0.0830   0.1032   0.1610   0.4648   0.5041
     0.5282   0.5991   0.6179   0.9142   0.9866   1.0301   1.0861   1.2311
     1.2704   1.3276   1.4181   1.4919   1.5330   1.6872   1.7167   1.8252
     1.8526   1.9076   1.9456   2.1131   2.3292

          k =-0.0779-0.0450 0.0000 ( 22880 PWs)   bands (ev):

   -47.6589 -47.6355 -47.6121 -47.6005 -47.5918 -47.5531 -47.5469 -47.2693
   -47.2551 -47.2262 -47.1922 -47.0811 -25.8487 -25.8266 -25.8000 -25.7991
   -25.7731 -25.7571 -25.7187 -25.6994 -25.6848 -25.6449 -25.6381 -25.6186
   -25.5746 -25.5667 -25.5662 -25.5464 -25.5302 -25.5125 -25.4552 -25.3258
   -25.3180 -25.3109 -25.2952 -25.2886 -25.2131 -25.1960 -25.1885 -25.1704
   -25.1406 -25.1297 -25.0870 -25.0785 -25.0543 -25.0342 -24.9547 -24.9413
   -12.7500  -4.0447  -1.9049  -1.8328  -1.0960  -0.8737  -0.8501  -0.6784
    -0.2587  -0.1892  -0.1560  -0.1355  -0.1201  -0.0562   0.5820   0.5989
     0.6129   0.6672   0.6851   0.7518   1.0369   1.1185   1.1536   1.1718
     1.2290   1.2721   1.4414   1.5184   1.6099   1.6324   1.7118   1.8030
     1.9044   1.9330   1.9823   2.0959   2.3553

     the Fermi energy is     1.6336 ev

!    total energy              =   -1218.44982794 Ry
     Harris-Foulkes estimate   =   -1218.44982805 Ry
     estimated scf accuracy    <       0.00000003 Ry

     The total energy is the sum of the following terms:

     one-electron contribution =   -8497.39221256 Ry
     hartree contribution      =    4242.83399080 Ry
     xc contribution           =    -226.95435003 Ry
     ewald contribution        =    3263.17669077 Ry
     electric field correction =       0.00003421 Ry
     smearing contrib. (-TS)   =      -0.11398113 Ry

     convergence has been achieved in   9 iterations
 
 BEEF-vdW xc energy contributions
           1 :   -194.344867390662     
           2 :    175.786190854377     
           3 :   -144.565180210630     
           4 :    109.490529045064     
           5 :   -78.4448141859097     
           6 :    55.6844212599607     
           7 :   -41.2325703371024     
           8 :    32.2100584872455     
           9 :   -25.0814641613323     
          10 :    17.5618901308755     
          11 :   -9.36899711716873     
          12 :    1.73329051258588     
          13 :    3.78774131448415     
          14 :   -6.41487670068798     
          15 :    6.58590264028288     
          16 :   -5.59469635119885     
          17 :    4.76687143152546     
          18 :   -4.74144962287494     
          19 :    5.27819261895885     
          20 :   -5.62876319055027     
          21 :    5.15788394426338     
          22 :   -3.79279465362825     
          23 :    2.04287711936141     
          24 :  -0.636536861855149     
          25 :   5.483163787474155E-002
          26 :  -0.269131115462528     
          27 :   0.821878163565373     
          28 :   -1.16267039362256     
          29 :    1.00130408423260     
          30 :  -0.452701523019300     
          31 :   -22.5538689656301     
          32 :   -16.7818616794532     

     Forces acting on atoms (Ry/au):


     negative rho (up, down):  7.492E-01 0.000E+00
     atom    1 type  1   force =     0.00070276    0.00040612    0.01335140
     atom    2 type  1   force =    -0.00070277    0.00040575    0.01335170
     atom    3 type  1   force =    -0.00000032   -0.00081168    0.01335131
     atom    4 type  1   force =     0.00000020   -0.00000015    0.01451809
     atom    5 type  1   force =    -0.00000116    0.00760719   -0.01620869
     atom    6 type  1   force =     0.00000097   -0.00000036   -0.00604914
     atom    7 type  1   force =    -0.00658825   -0.00380269   -0.01620954
     atom    8 type  1   force =     0.00658839   -0.00380414   -0.01621014
     atom    9 type  1   force =    -0.00000373    0.00000259    0.00053956
     atom   10 type  1   force =     0.00000303   -0.00062743   -0.00010795
     atom   11 type  1   force =    -0.00054436    0.00031370   -0.00010610
     atom   12 type  1   force =     0.00054544    0.00031094   -0.00010888
     atom   13 type  2   force =    -0.00000008    0.00000015    0.00028081
     atom   14 type  3   force =    -0.00000012   -0.00000002   -0.00039244

     Total force =     0.001320     Total SCF correction =     0.000422
     SCF correction compared to forces is large: reduce conv_thr to get better values


     entering subroutine stress ...


     negative rho (up, down):  7.492E-01 0.000E+00
          total   stress  (Ry/bohr**3)                   (kbar)     P=   -6.72
  -0.00004561   0.00000000  -0.00000000         -6.71      0.00     -0.00
   0.00000000  -0.00004561   0.00000000          0.00     -6.71      0.00
  -0.00000000   0.00000000  -0.00004573         -0.00      0.00     -6.73


     bfgs converged in  17 scf cycles and  16 bfgs steps
     (criteria: energy <  1.0E+00, force <  1.9E-03)

     End of BFGS Geometry Optimization

     Final energy   =   -1218.4498279368 Ry
Begin final coordinates

ATOMIC_POSITIONS (crystal)
Zr1      0.166666667   0.166666667   0.396150897    0   0   0
Zr1      0.666666667   0.166666667   0.396150897    0   0   0
Zr1      0.166666667   0.666666667   0.396150897    0   0   0
Zr1      0.666666667   0.666666667   0.396150897    0   0   0
Zr1      0.833333333   0.333333333   0.500000000    0   0   0
Zr1      0.333333333   0.333333333   0.500000000    0   0   0
Zr1      0.833333333   0.833333333   0.500000000    0   0   0
Zr1      0.333333333   0.833333333   0.500000000    0   0   0
Zr1      0.000003089  -0.000001736   0.603410287
Zr1      0.498234464   0.003527557   0.600222489
Zr1      0.003528609   0.498236069   0.600221965
Zr1      0.498233932   0.498238031   0.600222832
N1      -0.000000058  -0.000000170   0.678751550
H1      -0.000000191   0.000000131   0.719162170
End final coordinates



     Writing output data file calc.save
 
     init_run     :     14.73s CPU     15.13s WALL (       1 calls)
     electrons    :   5778.31s CPU   6235.77s WALL (      17 calls)
     update_pot   :     58.60s CPU     61.01s WALL (      16 calls)
     forces       :    315.68s CPU    335.05s WALL (      17 calls)
     stress       :    966.97s CPU   1030.89s WALL (      17 calls)

     Called by init_run:
     wfcinit      :      6.09s CPU      6.21s WALL (       1 calls)
     potinit      :      2.44s CPU      2.61s WALL (       1 calls)

     Called by electrons:
     c_bands      :   2141.70s CPU   2281.83s WALL (     192 calls)
     sum_band     :   1159.31s CPU   1255.38s WALL (     192 calls)
     v_of_rho     :    405.32s CPU    449.22s WALL (     208 calls)
     newd         :   1017.78s CPU   1050.19s WALL (     208 calls)
     mix_rho      :     13.69s CPU     14.12s WALL (     192 calls)
     vdW_energy   :    216.52s CPU    238.63s WALL (     820 calls)
     vdW_ffts     :    556.96s CPU    575.33s WALL (    1674 calls)
     vdW_v        :    225.06s CPU    230.69s WALL (     820 calls)

     Called by c_bands:
     init_us_2    :     14.28s CPU     14.35s WALL (    2095 calls)
     cegterg      :   1937.87s CPU   1999.77s WALL (     960 calls)

     Called by *egterg:
     h_psi        :   1301.20s CPU   1336.91s WALL (    5185 calls)
     s_psi        :    121.64s CPU    121.88s WALL (    5185 calls)
     g_psi        :      7.89s CPU      7.89s WALL (    4220 calls)
     cdiaghg      :    154.08s CPU    155.27s WALL (    5095 calls)

     Called by h_psi:
     add_vuspsi   :    124.63s CPU    124.87s WALL (    5185 calls)

     General routines
     calbec       :    188.11s CPU    192.62s WALL (    6315 calls)
     fft          :    916.86s CPU    998.27s WALL (   49499 calls)
     ffts         :      0.91s CPU      0.97s WALL (     400 calls)
     fftw         :    796.63s CPU    832.55s WALL (  507384 calls)
     interpolate  :      8.84s CPU      9.24s WALL (     400 calls)
     davcio       :      0.00s CPU      0.03s WALL (       5 calls)
 
     Parallel routines
     fft_scatter  :   1068.18s CPU   1179.62s WALL (  557283 calls)
 
     PWSCF        :     2h 0m CPU        2h 9m WALL

 
   This run was terminated on:  11:50:56  25Apr2018            

=------------------------------------------------------------------------------=
   JOB DONE.
=------------------------------------------------------------------------------=
Job  /afs/slac/g/suncat/bin/suncat-tsmpirun -x LD_LIBRARY_PATH -wdir /scratch/qe404802_ToCV9 pw.x -npool 4 -in pw.inp

TID   HOST_NAME   COMMAND_LINE            STATUS            TERMINATION_TIME
===== ========== ================  =======================  ===================
00000 suncat0152 pw.x -npool 4 -i  Done                     04/25/2018 11:50:56
00001 suncat0152 pw.x -npool 4 -i  Done                     04/25/2018 11:50:56
00002 suncat0152 pw.x -npool 4 -i  Done                     04/25/2018 11:50:56
00003 suncat0152 pw.x -npool 4 -i  Done                     04/25/2018 11:50:56
00004 suncat0152 pw.x -npool 4 -i  Done                     04/25/2018 11:50:56
00005 suncat0152 pw.x -npool 4 -i  Done                     04/25/2018 11:50:56
00006 suncat0152 pw.x -npool 4 -i  Done                     04/25/2018 11:50:56
00007 suncat0152 pw.x -npool 4 -i  Done                     04/25/2018 11:50:56
00008 suncat0134 pw.x -npool 4 -i  Done                     04/25/2018 11:50:56
00009 suncat0134 pw.x -npool 4 -i  Done                     04/25/2018 11:50:56
00010 suncat0134 pw.x -npool 4 -i  Done                     04/25/2018 11:50:56
00011 suncat0134 pw.x -npool 4 -i  Done                     04/25/2018 11:50:56
00012 suncat0134 pw.x -npool 4 -i  Done                     04/25/2018 11:50:56
00013 suncat0134 pw.x -npool 4 -i  Done                     04/25/2018 11:50:56
00014 suncat0134 pw.x -npool 4 -i  Done                     04/25/2018 11:50:56
00015 suncat0134 pw.x -npool 4 -i  Done                     04/25/2018 11:50:56
00016 suncat0116 pw.x -npool 4 -i  Done                     04/25/2018 11:50:56
00017 suncat0116 pw.x -npool 4 -i  Done                     04/25/2018 11:50:56
00018 suncat0116 pw.x -npool 4 -i  Done                     04/25/2018 11:50:56
00019 suncat0116 pw.x -npool 4 -i  Done                     04/25/2018 11:50:56
00020 suncat0116 pw.x -npool 4 -i  Done                     04/25/2018 11:50:56
00021 suncat0116 pw.x -npool 4 -i  Done                     04/25/2018 11:50:56
00022 suncat0116 pw.x -npool 4 -i  Done                     04/25/2018 11:50:56
00023 suncat0116 pw.x -npool 4 -i  Done                     04/25/2018 11:50:56
00024 suncat0258 pw.x -npool 4 -i  Done                     04/25/2018 11:50:56
00025 suncat0258 pw.x -npool 4 -i  Done                     04/25/2018 11:50:56
00026 suncat0258 pw.x -npool 4 -i  Done                     04/25/2018 11:50:56
00027 suncat0258 pw.x -npool 4 -i  Done                     04/25/2018 11:50:56
00028 suncat0258 pw.x -npool 4 -i  Done                     04/25/2018 11:50:56
00029 suncat0258 pw.x -npool 4 -i  Done                     04/25/2018 11:50:56
00030 suncat0258 pw.x -npool 4 -i  Done                     04/25/2018 11:50:56
00031 suncat0258 pw.x -npool 4 -i  Done                     04/25/2018 11:50:56
