  python dir          : /u/if/mamunm/src/espresso
  espresso dir        : /nfs/slac/g/suncatfs/sw/espv18/espresso-dynpy-beef/bin
  pseudo dir          : /u/if/mamunm/psp/gbrv1.5pbe
  ase-espresso py git : GITVERSION



     Program PWSCF v.5.1rc2 (svn rev. 11289) starts on 16Apr2018 at 11:53:32 

     This program is part of the open-source Quantum ESPRESSO suite
     for quantum simulation of materials; please cite
         "P. Giannozzi et al., J. Phys.:Condens. Matter 21 395502 (2009);
          URL http://www.quantum-espresso.org", 
     in publications or presentations arising from this work. More details at
     http://www.quantum-espresso.org/quote

     Parallel version (MPI), running on    32 processors
     K-points division:     npool     =       4
     R & G space division:  proc/nbgrp/npool/nimage =       8
     Reading input from pw.inp
     Message from routine read_cards :
     DEPRECATED: no units specified in CELL_PARAMETERS card

     Current dimensions of program PWSCF are:
     Max number of different atomic species (ntypx) = 10
     Max number of k-points (npk) =  40000
     Max angular momentum in pseudopotentials (lmaxx) =  3
     Presently stress not available with electric field


     **************************************************************************
     Initializing libbeef V0.1.1 with the BEEF-vdW functional.
     Citation: Wellendorff et al., PRB 85, 235149 (2012).
     **************************************************************************


     IMPORTANT: XC functional enforced from input :
     Exchange-correlation      = BEEF-VDW ( 1  4 27 13 2)
     Any further DFT definition will be discarded
     Please, verify this is what you really want


     Subspace diagonalization in iterative solution of the eigenvalue problem:
     a serial algorithm will be used

 
     Parallelization info
     --------------------
     sticks:   dense  smooth     PW     G-vecs:    dense   smooth      PW
     Min         400     160     45                76520    19367    3017
     Max         401     161     46                76543    19393    3034
     Sum        3205    1285    367               612275   155017   24235
 


     bravais-lattice index     =            0
     lattice parameter (alat)  =       1.8897  a.u.
     unit-cell volume          =    5144.9564 (a.u.)^3
     number of atoms/cell      =           14
     number of atomic types    =            3
     number of electrons       =       138.00
     number of Kohn-Sham states=           79
     kinetic-energy cutoff     =      36.7493  Ry
     charge density cutoff     =     367.4932  Ry
     convergence threshold     =      1.0E-05
     mixing beta               =       0.3000
     number of iterations used =           10  plain     mixing
     Exchange-correlation      = BEEF-VDW ( 1  4 27 13 2)
     nstep                     =           50


     celldm(1)=   1.889726  celldm(2)=   0.000000  celldm(3)=   0.000000
     celldm(4)=   0.000000  celldm(5)=   0.000000  celldm(6)=   0.000000

     crystal axes: (cart. coord. in units of alat)
               a(1) = (   5.950946   0.000000   0.000000 )  
               a(2) = (   2.975473   5.153671   0.000000 )  
               a(3) = (   0.000000   0.000000  24.858927 )  

     reciprocal axes: (cart. coord. in units 2 pi/alat)
               b(1) = (  0.168040 -0.097018  0.000000 )  
               b(2) = (  0.000000  0.194036  0.000000 )  
               b(3) = (  0.000000  0.000000  0.040227 )  


     PseudoPot. # 1 for Au read from file:
     /u/if/mamunm/psp/gbrv1.5pbe/Au.UPF
     MD5 check sum: 9d7f43293ad2c663164586bc4b293ffc
     Pseudo is Ultrasoft + core correction, Zval = 11.0
     Generated by new atomic code, or converted to UPF format
     Using radial grid of  985 points,  7 beta functions with: 
                l(1) =   0
                l(2) =   0
                l(3) =   1
                l(4) =   1
                l(5) =   2
                l(6) =   2
                l(7) =   3
     Q(r) pseudized with  6 coefficients,  rinner =    1.900   1.900   1.900
                                                       1.900   1.900   1.900
                                                       1.900

     PseudoPot. # 2 for N  read from file:
     /u/if/mamunm/psp/gbrv1.5pbe/N.UPF
     MD5 check sum: 95339753478d7afb44899504a8723017
     Pseudo is Ultrasoft + core correction, Zval =  5.0
     Generated by new atomic code, or converted to UPF format
     Using radial grid of  729 points,  4 beta functions with: 
                l(1) =   0
                l(2) =   0
                l(3) =   1
                l(4) =   1
     Q(r) pseudized with  8 coefficients,  rinner =    0.900   0.900   0.900


     PseudoPot. # 3 for H  read from file:
     /u/if/mamunm/psp/gbrv1.5pbe/H.UPF
     MD5 check sum: 761ae9a214b05c3daf00ab9f6b793d6f
     Pseudo is Ultrasoft, Zval =  1.0
     Generated by new atomic code, or converted to UPF format
     Using radial grid of  615 points,  2 beta functions with: 
                l(1) =   0
                l(2) =   0
     Q(r) pseudized with  8 coefficients,  rinner =    0.700

     vdW kernel table read from file vdW_kernel_table
     MD5 check sum: 095c7af220d748ca6e76c0b4c6cfb241

     atomic species   valence    mass     pseudopotential
        Au1           11.00   196.96657     Au( 1.00)
        N1             5.00    14.00700     N ( 1.00)
        H1             1.00     1.00800     H ( 1.00)

     No symmetry found



   Cartesian axes

     site n.     atom                  positions (alat units)
         1           Au1 tau(   1) = (   1.4877366   0.8589451  10.0000000  )
         2           Au1 tau(   2) = (   4.4632098   0.8589451  10.0000000  )
         3           Au1 tau(   3) = (   2.9754732   3.4357805  10.0000000  )
         4           Au1 tau(   4) = (   5.9509464   3.4357805  10.0000000  )
         5           Au1 tau(   5) = (   5.9509464   1.7178903  12.4294637  )
         6           Au1 tau(   6) = (   2.9754732   1.7178903  12.4294637  )
         7           Au1 tau(   7) = (   7.4386830   4.2947256  12.4294637  )
         8           Au1 tau(   8) = (   4.4632098   4.2947256  12.4294637  )
         9           Au1 tau(   9) = (   0.0000000   0.0000000  14.8589274  )
        10           Au1 tau(  10) = (   2.9754732   0.0000000  14.8589274  )
        11           Au1 tau(  11) = (   1.4877366   2.5768354  14.8589274  )
        12           Au1 tau(  12) = (   4.4632098   2.5768354  14.8589274  )
        13           N1  tau(  13) = (   0.0000000   0.0000000  16.6184274  )
        14           H1  tau(  14) = (   0.0000000   0.0000000  17.6684274  )

     number of k points=    20  Fermi-Dirac smearing, width (Ry)=  0.0110
                       cart. coord. in units 2pi/alat
        k(    1) = (   0.0000000   0.0000000   0.0000000), wk =   0.0555556
        k(    2) = (   0.0000000   0.0323394   0.0000000), wk =   0.1111111
        k(    3) = (   0.0000000   0.0646788   0.0000000), wk =   0.1111111
        k(    4) = (   0.0000000  -0.0970182   0.0000000), wk =   0.0555556
        k(    5) = (   0.0280067  -0.0161697   0.0000000), wk =   0.1111111
        k(    6) = (   0.0280067   0.0161697   0.0000000), wk =   0.1111111
        k(    7) = (   0.0280067   0.0485091   0.0000000), wk =   0.1111111
        k(    8) = (   0.0280067  -0.1131879   0.0000000), wk =   0.1111111
        k(    9) = (   0.0280067  -0.0808485   0.0000000), wk =   0.1111111
        k(   10) = (   0.0280067  -0.0485091   0.0000000), wk =   0.1111111
        k(   11) = (   0.0560135  -0.0323394   0.0000000), wk =   0.1111111
        k(   12) = (   0.0560135   0.0000000   0.0000000), wk =   0.1111111
        k(   13) = (   0.0560135   0.0323394   0.0000000), wk =   0.1111111
        k(   14) = (   0.0560135  -0.1293576   0.0000000), wk =   0.1111111
        k(   15) = (   0.0560135  -0.0970182   0.0000000), wk =   0.1111111
        k(   16) = (   0.0560135  -0.0646788   0.0000000), wk =   0.1111111
        k(   17) = (  -0.0840202   0.0485091   0.0000000), wk =   0.0555556
        k(   18) = (  -0.0840202   0.0808485   0.0000000), wk =   0.1111111
        k(   19) = (  -0.0840202   0.1131879   0.0000000), wk =   0.1111111
        k(   20) = (  -0.0840202  -0.0485091   0.0000000), wk =   0.0555556

     Dense  grid:   612275 G-vectors     FFT dimensions: (  72,  72, 288)

     Smooth grid:   155017 G-vectors     FFT dimensions: (  45,  45, 192)

     Largest allocated arrays     est. size (Mb)     dimensions
        Kohn-Sham Wavefunctions         2.95 Mb     (    2444,   79)
        NL pseudopotentials            11.56 Mb     (    2444,  310)
        Each V/rho on FFT grid          2.85 Mb     (  186624)
        Each G-vector array             0.58 Mb     (   76543)
        G-vector shells                 0.16 Mb     (   20517)
     Largest temporary arrays     est. size (Mb)     dimensions
        Auxiliary wavefunctions        11.78 Mb     (    2444,  316)
        Each subspace H/S matrix        1.52 Mb     (     316,  316)
        Each <psi_i|beta_j> matrix      0.37 Mb     (     310,   79)
        Arrays for rho mixing          28.48 Mb     (  186624,   10)

     Check: negative/imaginary core charge=   -0.000002    0.000000

     Initial potential from superposition of free atoms

     starting charge  137.99852, renormalised to  138.00000

     negative rho (up, down):  7.168E-05 0.000E+00


     ************************************************************************
     *
     * You are using vdW-DF for exchange-correlation in this calculation.
     * Please cite the following three references that made this development
     * possible:
     *
     *   M. Dion, H. Rydberg, E. Schroder, D. C. Langreth, and
     *   B. I. Lundqvist, Phys. Rev. Lett. 92, 246401 (2004).
     *
     *   T. Thonhauser, V. R. Cooper, S. Li, A. Puzder, P. Hyldgaard, and
     *   D. C. Langreth, Phys. Rev. B 76, 125112 (2007).
     *
     *   G. Roman-Perez and J. M. Soler, Phys. Rev. Lett. 103, 096102 (2009).
     *
     *
     * If you are using vdW-DF2, please also cite:
     *
     *   K. Lee, E. D. Murray, L. Kong, B. I. Lundqvist, and
     *   D. C. Langreth, Phys. Rev. B 82, 081101(R) (2010).
     *
     *
     * If you are calculating the stress with vdW-DF, please also cite:
     *
     *   R. Sabatini, E. Kucukbenli, B. Kolb, T. Thonhauser, and
     *   S. de Gironcoli, J. Phys.: Condens. Matter 24, 424209 (2012).
     *
     ************************************************************************

     Carrying out vdW-DF run using the following parameters:

     Nqs =      20    Nr_points =    1024   r_max =   100.000
     q_mesh =
               0.00001000     0.04494208     0.09755937     0.15916263
               0.23128650     0.31572767     0.41458969     0.53033537
               0.66584808     0.82450364     1.01025438     1.22772762
               1.48234092     1.78043706     2.12944203     2.53805004
               3.01644009     3.57652955     4.23227104     5.00000000

     Gradients computed in reciprocal space

     ************************************************************************


 
     Adding external electric field

     Computed dipole along edir(3) : 
        Dipole               -0.0004 Ry au,         -0.0010 Debye
        Dipole field         -0.0000 Ry au
 
        Potential amp.        0.0001 Ry
        Total length         45.8022 bohr
 
     Starting wfc are  113 randomized atomic wfcs

     total cpu time spent up to now is       15.2 secs

     per-process dynamical memory:    87.8 Mb

     Self-consistent Calculation

     iteration #  1     ecut=    36.75 Ry     beta=0.30
     Davidson diagonalization with overlap
     ethr =  1.00E-02,  avg # of iterations =  2.5

     negative rho (up, down):  1.757E-04 0.000E+00
 
     Adding external electric field

     Computed dipole along edir(3) : 
        Dipole               -2.7034 Ry au,         -6.8713 Debye
        Dipole field         -0.0066 Ry au
 
        Potential amp.        0.6049 Ry
        Total length         45.8022 bohr
 

     total cpu time spent up to now is       38.6 secs

     total energy              =   -1420.85809087 Ry
     Harris-Foulkes estimate   =   -1422.06600771 Ry
     estimated scf accuracy    <       2.67674401 Ry

     iteration #  2     ecut=    36.75 Ry     beta=0.30
     Davidson diagonalization with overlap
     ethr =  1.94E-03,  avg # of iterations =  6.3

     negative rho (up, down):  2.382E-04 0.000E+00
 
     Adding external electric field

     Computed dipole along edir(3) : 
        Dipole                0.7479 Ry au,          1.9009 Debye
        Dipole field          0.0018 Ry au
 
        Potential amp.       -0.1673 Ry
        Total length         45.8022 bohr
 

     total cpu time spent up to now is       64.6 secs

     total energy              =   -1419.47780464 Ry
     Harris-Foulkes estimate   =   -1424.07015979 Ry
     estimated scf accuracy    <      52.55723571 Ry

     iteration #  3     ecut=    36.75 Ry     beta=0.30
     Davidson diagonalization with overlap
     ethr =  1.94E-03,  avg # of iterations =  5.0

     negative rho (up, down):  2.940E-04 0.000E+00
 
     Adding external electric field

     Computed dipole along edir(3) : 
        Dipole                0.0234 Ry au,          0.0594 Debye
        Dipole field          0.0001 Ry au
 
        Potential amp.       -0.0052 Ry
        Total length         45.8022 bohr
 

     total cpu time spent up to now is       91.6 secs

     total energy              =   -1421.43609839 Ry
     Harris-Foulkes estimate   =   -1421.96862136 Ry
     estimated scf accuracy    <       4.72387867 Ry

     iteration #  4     ecut=    36.75 Ry     beta=0.30
     Davidson diagonalization with overlap
     ethr =  1.94E-03,  avg # of iterations =  2.4

     negative rho (up, down):  3.587E-04 0.000E+00
 
     Adding external electric field

     Computed dipole along edir(3) : 
        Dipole                0.0629 Ry au,          0.1598 Debye
        Dipole field          0.0002 Ry au
 
        Potential amp.       -0.0141 Ry
        Total length         45.8022 bohr
 

     total cpu time spent up to now is      115.4 secs

     total energy              =   -1421.69486636 Ry
     Harris-Foulkes estimate   =   -1421.73349113 Ry
     estimated scf accuracy    <       0.20726213 Ry

     iteration #  5     ecut=    36.75 Ry     beta=0.30
     Davidson diagonalization with overlap
     ethr =  1.50E-04,  avg # of iterations =  4.1

     negative rho (up, down):  4.129E-04 0.000E+00
 
     Adding external electric field

     Computed dipole along edir(3) : 
        Dipole                0.1695 Ry au,          0.4309 Debye
        Dipole field          0.0004 Ry au
 
        Potential amp.       -0.0379 Ry
        Total length         45.8022 bohr
 

     total cpu time spent up to now is      139.8 secs

     total energy              =   -1421.70789889 Ry
     Harris-Foulkes estimate   =   -1421.72185228 Ry
     estimated scf accuracy    <       0.09882628 Ry

     iteration #  6     ecut=    36.75 Ry     beta=0.30
     Davidson diagonalization with overlap
     ethr =  7.16E-05,  avg # of iterations =  4.0

     negative rho (up, down):  4.773E-04 0.000E+00
 
     Adding external electric field

     Computed dipole along edir(3) : 
        Dipole                0.1287 Ry au,          0.3272 Debye
        Dipole field          0.0003 Ry au
 
        Potential amp.       -0.0288 Ry
        Total length         45.8022 bohr
 

     total cpu time spent up to now is      164.1 secs

     total energy              =   -1421.70922229 Ry
     Harris-Foulkes estimate   =   -1421.72666230 Ry
     estimated scf accuracy    <       0.23250788 Ry

     iteration #  7     ecut=    36.75 Ry     beta=0.30
     Davidson diagonalization with overlap
     ethr =  7.16E-05,  avg # of iterations =  1.5

     negative rho (up, down):  5.307E-04 0.000E+00
 
     Adding external electric field

     Computed dipole along edir(3) : 
        Dipole                0.1855 Ry au,          0.4714 Debye
        Dipole field          0.0005 Ry au
 
        Potential amp.       -0.0415 Ry
        Total length         45.8022 bohr
 

     total cpu time spent up to now is      187.4 secs

     total energy              =   -1421.71790995 Ry
     Harris-Foulkes estimate   =   -1421.71879380 Ry
     estimated scf accuracy    <       0.00979419 Ry

     iteration #  8     ecut=    36.75 Ry     beta=0.30
     Davidson diagonalization with overlap
     ethr =  7.10E-06,  avg # of iterations =  6.1

     negative rho (up, down):  5.606E-04 0.000E+00
 
     Adding external electric field

     Computed dipole along edir(3) : 
        Dipole                0.1799 Ry au,          0.4574 Debye
        Dipole field          0.0004 Ry au
 
        Potential amp.       -0.0403 Ry
        Total length         45.8022 bohr
 

     total cpu time spent up to now is      213.4 secs

     total energy              =   -1421.71848749 Ry
     Harris-Foulkes estimate   =   -1421.71853157 Ry
     estimated scf accuracy    <       0.00058737 Ry

     iteration #  9     ecut=    36.75 Ry     beta=0.30
     Davidson diagonalization with overlap
     ethr =  4.26E-07,  avg # of iterations =  3.5

     negative rho (up, down):  5.717E-04 0.000E+00
 
     Adding external electric field

     Computed dipole along edir(3) : 
        Dipole                0.1860 Ry au,          0.4729 Debye
        Dipole field          0.0005 Ry au
 
        Potential amp.       -0.0416 Ry
        Total length         45.8022 bohr
 

     total cpu time spent up to now is      239.7 secs

     total energy              =   -1421.71848824 Ry
     Harris-Foulkes estimate   =   -1421.71867942 Ry
     estimated scf accuracy    <       0.00192495 Ry

     iteration # 10     ecut=    36.75 Ry     beta=0.30
     Davidson diagonalization with overlap
     ethr =  4.26E-07,  avg # of iterations =  2.0

     negative rho (up, down):  5.826E-04 0.000E+00
 
     Adding external electric field

     Computed dipole along edir(3) : 
        Dipole                0.1796 Ry au,          0.4566 Debye
        Dipole field          0.0004 Ry au
 
        Potential amp.       -0.0402 Ry
        Total length         45.8022 bohr
 

     total cpu time spent up to now is      263.2 secs

     total energy              =   -1421.71855289 Ry
     Harris-Foulkes estimate   =   -1421.71863747 Ry
     estimated scf accuracy    <       0.00071569 Ry

     iteration # 11     ecut=    36.75 Ry     beta=0.30
     Davidson diagonalization with overlap
     ethr =  4.26E-07,  avg # of iterations =  1.8

     negative rho (up, down):  5.874E-04 0.000E+00
 
     Adding external electric field

     Computed dipole along edir(3) : 
        Dipole                0.1839 Ry au,          0.4675 Debye
        Dipole field          0.0004 Ry au
 
        Potential amp.       -0.0412 Ry
        Total length         45.8022 bohr
 

     total cpu time spent up to now is      287.1 secs

     total energy              =   -1421.71858756 Ry
     Harris-Foulkes estimate   =   -1421.71862296 Ry
     estimated scf accuracy    <       0.00048121 Ry

     iteration # 12     ecut=    36.75 Ry     beta=0.30
     Davidson diagonalization with overlap
     ethr =  3.49E-07,  avg # of iterations =  1.0

     negative rho (up, down):  5.916E-04 0.000E+00
 
     Adding external electric field

     Computed dipole along edir(3) : 
        Dipole                0.1826 Ry au,          0.4640 Debye
        Dipole field          0.0004 Ry au
 
        Potential amp.       -0.0408 Ry
        Total length         45.8022 bohr
 

     total cpu time spent up to now is      310.2 secs

     total energy              =   -1421.71861393 Ry
     Harris-Foulkes estimate   =   -1421.71861905 Ry
     estimated scf accuracy    <       0.00010253 Ry

     iteration # 13     ecut=    36.75 Ry     beta=0.30
     Davidson diagonalization with overlap
     ethr =  7.43E-08,  avg # of iterations =  1.0

     negative rho (up, down):  5.945E-04 0.000E+00
 
     Adding external electric field

     Computed dipole along edir(3) : 
        Dipole                0.1820 Ry au,          0.4626 Debye
        Dipole field          0.0004 Ry au
 
        Potential amp.       -0.0407 Ry
        Total length         45.8022 bohr
 

     total cpu time spent up to now is      333.3 secs

     total energy              =   -1421.71861553 Ry
     Harris-Foulkes estimate   =   -1421.71861659 Ry
     estimated scf accuracy    <       0.00001379 Ry

     iteration # 14     ecut=    36.75 Ry     beta=0.30
     Davidson diagonalization with overlap
     ethr =  9.99E-09,  avg # of iterations =  1.0

     negative rho (up, down):  6.008E-04 0.000E+00

     negative rho (up, down):  6.008E-04 0.000E+00

     negative rho (up, down):  6.008E-04 0.000E+00

     negative rho (up, down):  6.008E-04 0.000E+00

     negative rho (up, down):  6.008E-04 0.000E+00

     negative rho (up, down):  6.008E-04 0.000E+00

     negative rho (up, down):  6.008E-04 0.000E+00

     negative rho (up, down):  6.008E-04 0.000E+00

     negative rho (up, down):  6.008E-04 0.000E+00

     negative rho (up, down):  6.008E-04 0.000E+00

     negative rho (up, down):  6.008E-04 0.000E+00

     negative rho (up, down):  6.008E-04 0.000E+00

     negative rho (up, down):  6.008E-04 0.000E+00

     negative rho (up, down):  6.008E-04 0.000E+00

     negative rho (up, down):  6.008E-04 0.000E+00

     negative rho (up, down):  6.008E-04 0.000E+00

     negative rho (up, down):  6.008E-04 0.000E+00

     negative rho (up, down):  6.008E-04 0.000E+00

     negative rho (up, down):  6.008E-04 0.000E+00

     negative rho (up, down):  6.008E-04 0.000E+00

     negative rho (up, down):  6.008E-04 0.000E+00

     negative rho (up, down):  6.008E-04 0.000E+00

     negative rho (up, down):  6.008E-04 0.000E+00

     negative rho (up, down):  6.008E-04 0.000E+00

     negative rho (up, down):  6.008E-04 0.000E+00

     negative rho (up, down):  6.008E-04 0.000E+00

     negative rho (up, down):  6.008E-04 0.000E+00

     negative rho (up, down):  6.008E-04 0.000E+00

     negative rho (up, down):  6.008E-04 0.000E+00

     negative rho (up, down):  6.008E-04 0.000E+00

     negative rho (up, down):  6.008E-04 0.000E+00

     negative rho (up, down):  6.008E-04 0.000E+00

     negative rho (up, down):  6.008E-04 0.000E+00

     negative rho (up, down):  6.008E-04 0.000E+00

     negative rho (up, down):  6.008E-04 0.000E+00
 
     Adding external electric field

     Computed dipole along edir(3) : 
        Dipole                0.1814 Ry au,          0.4611 Debye
        Dipole field          0.0004 Ry au
 
        Potential amp.       -0.0406 Ry
        Total length         45.8022 bohr
 

     total cpu time spent up to now is      407.3 secs

     End of self-consistent calculation

          k = 0.0000 0.0000 0.0000 ( 19315 PWs)   bands (ev):

   -14.7136  -8.0801  -7.5087  -6.2272  -5.8427  -5.7175  -5.7175  -5.5225
    -5.4821  -5.4821  -5.3616  -5.3419  -5.3419  -5.0457  -5.0350  -5.0350
    -4.9549  -4.6987  -4.6987  -3.9533  -3.8774  -3.8774  -3.8034  -3.7130
    -3.7130  -3.7073  -3.5941  -3.5941  -3.4862  -3.4862  -3.3865  -3.3556
    -3.3556  -3.1740  -2.9871  -2.9871  -2.7826  -2.7826  -2.4658  -2.4658
    -2.3844  -2.3812  -2.2939  -2.2939  -2.0943  -2.0762  -2.0762  -1.7989
    -1.7989  -1.6969  -1.6430  -1.6430  -1.6071  -1.6071  -1.5072  -1.5072
    -1.4764  -1.4129  -1.4129  -1.3138  -1.2049  -1.2047  -1.2047  -1.1692
    -0.3303  -0.3303   0.0408   0.9754   1.2108   1.2108   1.5810   1.7248
     1.8890   1.8890   2.0039   2.4652   2.4652   3.6799   3.6799

          k = 0.0000 0.0323 0.0000 ( 19351 PWs)   bands (ev):

   -14.7130  -8.0548  -7.3393  -6.0383  -5.6900  -5.6628  -5.6382  -5.4399
    -5.3998  -5.3640  -5.2781  -5.2418  -5.2381  -5.0074  -4.9413  -4.8957
    -4.8191  -4.6639  -4.6637  -3.9548  -3.8476  -3.8330  -3.8067  -3.7645
    -3.7365  -3.6398  -3.6137  -3.5613  -3.5291  -3.4693  -3.4131  -3.3958
    -3.2475  -3.1993  -3.1416  -3.0256  -2.8882  -2.8425  -2.5917  -2.5192
    -2.4676  -2.4522  -2.4099  -2.3359  -2.2447  -2.1604  -2.1055  -1.8957
    -1.8851  -1.8227  -1.8171  -1.7763  -1.7754  -1.7096  -1.6729  -1.6283
    -1.6056  -1.6007  -1.5354  -1.4452  -1.4307  -1.3580  -1.3379  -1.1721
    -0.8288  -0.2810  -0.2614   0.3163   0.5733   0.8308   0.8834   1.6919
     2.0105   2.0127   2.8720   3.0531   3.1333   3.9839   4.1281

          k = 0.0000 0.0647 0.0000 ( 19389 PWs)   bands (ev):

   -14.7117  -8.0241  -6.8297  -5.7194  -5.5444  -5.4941  -5.3023  -5.2409
    -5.1965  -5.0697  -5.0396  -4.9336  -4.8965  -4.8746  -4.7650  -4.6420
    -4.5832  -4.4575  -4.3967  -4.0469  -4.0076  -3.9585  -3.8385  -3.7659
    -3.7312  -3.6578  -3.6121  -3.5813  -3.4934  -3.4586  -3.4066  -3.2864
    -3.2830  -3.2657  -3.2251  -3.1716  -3.0410  -2.9735  -2.8999  -2.7467
    -2.6730  -2.6615  -2.5806  -2.5741  -2.5352  -2.5203  -2.4733  -2.4492
    -2.3353  -2.2241  -2.1728  -2.1579  -2.0483  -2.0373  -1.9822  -1.9233
    -1.9216  -1.8166  -1.8139  -1.6647  -1.6076  -1.5560  -1.5202  -1.3949
    -1.3250  -0.6816  -0.1958   0.1790   0.4610   0.5964   0.6702   1.4348
     1.8439   2.0654   2.8513   3.5832   4.0717   4.4654   4.5673

          k = 0.0000-0.0970 0.0000 ( 19380 PWs)   bands (ev):

   -14.7111  -8.0142  -6.1650  -6.1186  -5.4285  -5.2635  -5.1766  -5.0912
    -4.8992  -4.8649  -4.8591  -4.8345  -4.7296  -4.6312  -4.4943  -4.4159
    -4.3769  -4.2975  -4.2893  -4.1606  -4.0328  -4.0006  -3.9767  -3.8598
    -3.8349  -3.8103  -3.6961  -3.6024  -3.5683  -3.4287  -3.3321  -3.2907
    -3.2507  -3.2361  -3.1922  -3.1807  -3.1318  -3.0770  -3.0676  -3.0648
    -3.0265  -2.9809  -2.8496  -2.8019  -2.7322  -2.6180  -2.5977  -2.5601
    -2.5069  -2.4717  -2.4310  -2.3651  -2.3363  -2.3171  -2.2111  -2.0586
    -2.0436  -1.9613  -1.7209  -1.6827  -1.6605  -1.6102  -1.5705  -1.4457
    -1.3897  -0.5971  -0.1742   0.1505   0.3505   0.6482   0.7548   1.1128
     1.7922   2.0146   3.4677   3.5871   3.8564   4.5895   5.5153

          k = 0.0280-0.0162 0.0000 ( 19351 PWs)   bands (ev):

   -14.7130  -8.0548  -7.3393  -6.0383  -5.6900  -5.6628  -5.6382  -5.4399
    -5.3998  -5.3640  -5.2781  -5.2418  -5.2381  -5.0074  -4.9413  -4.8957
    -4.8191  -4.6639  -4.6637  -3.9548  -3.8476  -3.8330  -3.8067  -3.7645
    -3.7365  -3.6398  -3.6137  -3.5613  -3.5291  -3.4693  -3.4131  -3.3958
    -3.2475  -3.1993  -3.1416  -3.0256  -2.8882  -2.8425  -2.5917  -2.5192
    -2.4676  -2.4522  -2.4099  -2.3359  -2.2447  -2.1604  -2.1055  -1.8957
    -1.8851  -1.8227  -1.8171  -1.7763  -1.7754  -1.7096  -1.6729  -1.6283
    -1.6056  -1.6007  -1.5354  -1.4452  -1.4307  -1.3580  -1.3379  -1.1721
    -0.8288  -0.2810  -0.2614   0.3163   0.5733   0.8308   0.8834   1.6919
     2.0105   2.0127   2.8720   3.0531   3.1333   3.9839   4.1281

          k = 0.0280 0.0162 0.0000 ( 19351 PWs)   bands (ev):

   -14.7130  -8.0548  -7.3393  -6.0383  -5.6900  -5.6628  -5.6382  -5.4399
    -5.3998  -5.3640  -5.2781  -5.2418  -5.2381  -5.0074  -4.9413  -4.8957
    -4.8191  -4.6639  -4.6637  -3.9548  -3.8476  -3.8330  -3.8067  -3.7645
    -3.7365  -3.6398  -3.6137  -3.5613  -3.5291  -3.4693  -3.4131  -3.3958
    -3.2475  -3.1993  -3.1416  -3.0256  -2.8882  -2.8425  -2.5917  -2.5192
    -2.4676  -2.4522  -2.4099  -2.3359  -2.2447  -2.1604  -2.1055  -1.8957
    -1.8851  -1.8227  -1.8171  -1.7763  -1.7754  -1.7096  -1.6729  -1.6283
    -1.6056  -1.6007  -1.5354  -1.4452  -1.4307  -1.3580  -1.3379  -1.1721
    -0.8288  -0.2810  -0.2614   0.3163   0.5733   0.8308   0.8834   1.6919
     2.0105   2.0127   2.8720   3.0531   3.1333   3.9839   4.1281

          k = 0.0280 0.0485 0.0000 ( 19345 PWs)   bands (ev):

   -14.7120  -8.0302  -6.9935  -5.6986  -5.5878  -5.5660  -5.3750  -5.3139
    -5.2674  -5.1738  -5.1325  -5.0548  -4.9745  -4.8763  -4.7918  -4.7597
    -4.6217  -4.5837  -4.4819  -3.9901  -3.9814  -3.8993  -3.8052  -3.7743
    -3.7587  -3.6618  -3.6193  -3.5302  -3.4661  -3.4584  -3.4154  -3.3689
    -3.3122  -3.2512  -3.1942  -3.0755  -3.0379  -2.9252  -2.8845  -2.6526
    -2.6379  -2.5852  -2.5397  -2.4683  -2.4276  -2.3506  -2.3202  -2.2876
    -2.2701  -2.2183  -2.0788  -2.0468  -2.0189  -1.9582  -1.8695  -1.8068
    -1.7352  -1.6966  -1.6797  -1.6363  -1.5814  -1.5261  -1.4809  -1.1077
    -0.9659  -0.9320  -0.4021  -0.3370   0.4004   0.5446   0.7963   2.1033
     2.2152   2.3341   2.4759   3.0442   3.4232   4.0444   4.6993

          k = 0.0280-0.1132 0.0000 ( 19376 PWs)   bands (ev):

   -14.7111  -8.0145  -6.3623  -5.7499  -5.4549  -5.2305  -5.1658  -5.0670
    -5.0025  -4.9106  -4.8441  -4.7679  -4.7278  -4.6716  -4.5790  -4.4887
    -4.4407  -4.3159  -4.2312  -4.1752  -4.1032  -4.0007  -3.9642  -3.8953
    -3.8283  -3.7899  -3.7198  -3.6390  -3.5757  -3.5333  -3.4476  -3.4080
    -3.3506  -3.2947  -3.2605  -3.1830  -3.1457  -3.0809  -3.0250  -2.9570
    -2.9397  -2.8784  -2.8520  -2.7313  -2.6724  -2.6218  -2.5679  -2.5240
    -2.4656  -2.4058  -2.3454  -2.3027  -2.2130  -2.1322  -2.0453  -1.9402
    -1.8904  -1.8011  -1.7429  -1.7012  -1.6771  -1.6416  -1.5752  -1.5137
    -1.3997  -0.9177  -0.6675  -0.2171   0.2321   0.4991   0.7921   1.5165
     2.0177   2.5354   3.2027   3.6746   3.9009   4.7262   4.9183

          k = 0.0280-0.0808 0.0000 ( 19376 PWs)   bands (ev):

   -14.7111  -8.0145  -6.3623  -5.7499  -5.4549  -5.2305  -5.1658  -5.0670
    -5.0025  -4.9106  -4.8441  -4.7679  -4.7278  -4.6716  -4.5790  -4.4887
    -4.4407  -4.3159  -4.2312  -4.1752  -4.1032  -4.0007  -3.9642  -3.8953
    -3.8283  -3.7899  -3.7198  -3.6390  -3.5757  -3.5333  -3.4476  -3.4080
    -3.3506  -3.2947  -3.2605  -3.1830  -3.1457  -3.0809  -3.0250  -2.9570
    -2.9397  -2.8784  -2.8520  -2.7313  -2.6724  -2.6218  -2.5679  -2.5240
    -2.4656  -2.4058  -2.3454  -2.3027  -2.2130  -2.1322  -2.0453  -1.9402
    -1.8904  -1.8011  -1.7429  -1.7012  -1.6771  -1.6416  -1.5752  -1.5137
    -1.3997  -0.9177  -0.6675  -0.2171   0.2321   0.4991   0.7921   1.5165
     2.0177   2.5354   3.2027   3.6746   3.9009   4.7262   4.9182

          k = 0.0280-0.0485 0.0000 ( 19345 PWs)   bands (ev):

   -14.7120  -8.0302  -6.9935  -5.6986  -5.5878  -5.5660  -5.3750  -5.3139
    -5.2674  -5.1738  -5.1325  -5.0548  -4.9745  -4.8763  -4.7918  -4.7597
    -4.6217  -4.5837  -4.4819  -3.9901  -3.9814  -3.8993  -3.8052  -3.7743
    -3.7587  -3.6618  -3.6193  -3.5302  -3.4661  -3.4584  -3.4154  -3.3689
    -3.3122  -3.2512  -3.1942  -3.0755  -3.0379  -2.9252  -2.8845  -2.6526
    -2.6379  -2.5852  -2.5397  -2.4683  -2.4276  -2.3506  -2.3202  -2.2876
    -2.2701  -2.2183  -2.0788  -2.0468  -2.0189  -1.9582  -1.8695  -1.8068
    -1.7352  -1.6966  -1.6797  -1.6363  -1.5814  -1.5261  -1.4809  -1.1077
    -0.9659  -0.9320  -0.4021  -0.3370   0.4004   0.5446   0.7963   2.1033
     2.2152   2.3341   2.4759   3.0442   3.4232   4.0444   4.6993

          k = 0.0560-0.0323 0.0000 ( 19389 PWs)   bands (ev):

   -14.7117  -8.0241  -6.8297  -5.7194  -5.5444  -5.4941  -5.3023  -5.2409
    -5.1965  -5.0697  -5.0396  -4.9336  -4.8965  -4.8746  -4.7650  -4.6420
    -4.5832  -4.4575  -4.3967  -4.0469  -4.0076  -3.9585  -3.8385  -3.7659
    -3.7312  -3.6578  -3.6121  -3.5813  -3.4934  -3.4586  -3.4066  -3.2864
    -3.2830  -3.2657  -3.2251  -3.1716  -3.0410  -2.9735  -2.8999  -2.7467
    -2.6730  -2.6615  -2.5806  -2.5741  -2.5352  -2.5203  -2.4733  -2.4492
    -2.3353  -2.2241  -2.1728  -2.1579  -2.0483  -2.0373  -1.9822  -1.9233
    -1.9216  -1.8166  -1.8139  -1.6647  -1.6076  -1.5560  -1.5202  -1.3949
    -1.3250  -0.6816  -0.1958   0.1790   0.4610   0.5964   0.6702   1.4348
     1.8439   2.0654   2.8513   3.5832   4.0717   4.4654   4.5672

          k = 0.0560 0.0000 0.0000 ( 19345 PWs)   bands (ev):

   -14.7120  -8.0302  -6.9935  -5.6986  -5.5878  -5.5660  -5.3750  -5.3139
    -5.2674  -5.1738  -5.1325  -5.0548  -4.9745  -4.8763  -4.7918  -4.7597
    -4.6217  -4.5837  -4.4819  -3.9901  -3.9814  -3.8993  -3.8052  -3.7743
    -3.7587  -3.6618  -3.6193  -3.5302  -3.4661  -3.4584  -3.4153  -3.3689
    -3.3122  -3.2512  -3.1942  -3.0755  -3.0379  -2.9252  -2.8845  -2.6526
    -2.6379  -2.5852  -2.5397  -2.4683  -2.4276  -2.3506  -2.3202  -2.2876
    -2.2701  -2.2183  -2.0788  -2.0468  -2.0189  -1.9582  -1.8695  -1.8068
    -1.7352  -1.6966  -1.6797  -1.6363  -1.5814  -1.5261  -1.4809  -1.1077
    -0.9659  -0.9320  -0.4021  -0.3370   0.4004   0.5446   0.7963   2.1033
     2.2152   2.3341   2.4759   3.0442   3.4232   4.0444   4.6993

          k = 0.0560 0.0323 0.0000 ( 19389 PWs)   bands (ev):

   -14.7117  -8.0241  -6.8297  -5.7194  -5.5444  -5.4941  -5.3023  -5.2409
    -5.1965  -5.0697  -5.0396  -4.9336  -4.8965  -4.8746  -4.7650  -4.6420
    -4.5832  -4.4575  -4.3967  -4.0469  -4.0076  -3.9585  -3.8385  -3.7659
    -3.7312  -3.6578  -3.6121  -3.5813  -3.4934  -3.4586  -3.4066  -3.2864
    -3.2830  -3.2657  -3.2251  -3.1716  -3.0410  -2.9735  -2.8999  -2.7467
    -2.6730  -2.6615  -2.5806  -2.5741  -2.5352  -2.5203  -2.4733  -2.4492
    -2.3353  -2.2241  -2.1728  -2.1579  -2.0483  -2.0373  -1.9822  -1.9233
    -1.9216  -1.8166  -1.8139  -1.6647  -1.6076  -1.5560  -1.5202  -1.3949
    -1.3250  -0.6816  -0.1958   0.1790   0.4610   0.5964   0.6702   1.4348
     1.8439   2.0654   2.8513   3.5832   4.0717   4.4654   4.5672

          k = 0.0560-0.1294 0.0000 ( 19376 PWs)   bands (ev):

   -14.7111  -8.0145  -6.3623  -5.7499  -5.4549  -5.2305  -5.1658  -5.0670
    -5.0025  -4.9106  -4.8441  -4.7679  -4.7278  -4.6716  -4.5790  -4.4887
    -4.4407  -4.3159  -4.2312  -4.1752  -4.1032  -4.0007  -3.9642  -3.8953
    -3.8283  -3.7899  -3.7198  -3.6390  -3.5757  -3.5333  -3.4476  -3.4080
    -3.3506  -3.2947  -3.2605  -3.1830  -3.1457  -3.0809  -3.0250  -2.9570
    -2.9397  -2.8784  -2.8520  -2.7313  -2.6724  -2.6218  -2.5679  -2.5240
    -2.4656  -2.4058  -2.3454  -2.3027  -2.2130  -2.1322  -2.0453  -1.9402
    -1.8904  -1.8011  -1.7429  -1.7012  -1.6771  -1.6416  -1.5752  -1.5137
    -1.3997  -0.9177  -0.6675  -0.2171   0.2321   0.4991   0.7921   1.5165
     2.0177   2.5354   3.2027   3.6746   3.9009   4.7262   4.9182

          k = 0.0560-0.0970 0.0000 ( 19365 PWs)   bands (ev):

   -14.7108  -8.0106  -5.7856  -5.7411  -5.6686  -5.2098  -5.1692  -4.8411
    -4.8186  -4.7794  -4.6267  -4.5576  -4.5349  -4.5146  -4.4869  -4.4517
    -4.3882  -4.3524  -4.3512  -4.2138  -4.1349  -4.0662  -4.0602  -4.0231
    -3.9430  -3.8443  -3.8388  -3.6839  -3.6654  -3.6649  -3.5727  -3.5323
    -3.5321  -3.4869  -3.3044  -3.1686  -3.1677  -3.1631  -3.1228  -3.1209
    -3.0943  -3.0454  -2.8119  -2.6993  -2.6309  -2.5796  -2.5731  -2.4917
    -2.4179  -2.2843  -2.2744  -2.2736  -2.1353  -1.9888  -1.9542  -1.8497
    -1.8384  -1.8188  -1.7439  -1.7423  -1.7395  -1.7312  -1.6769  -1.6622
    -1.5566  -1.3318  -1.2449  -0.2792   0.2437   0.2934   1.0760   1.0836
     2.2293   3.2513   3.4361   3.5085   4.4653   4.5292   5.0019

          k = 0.0560-0.0647 0.0000 ( 19376 PWs)   bands (ev):

   -14.7111  -8.0145  -6.3623  -5.7499  -5.4549  -5.2305  -5.1658  -5.0670
    -5.0025  -4.9106  -4.8441  -4.7679  -4.7278  -4.6716  -4.5790  -4.4887
    -4.4407  -4.3159  -4.2312  -4.1752  -4.1032  -4.0007  -3.9642  -3.8953
    -3.8283  -3.7899  -3.7198  -3.6390  -3.5757  -3.5333  -3.4476  -3.4080
    -3.3506  -3.2947  -3.2605  -3.1830  -3.1457  -3.0809  -3.0250  -2.9570
    -2.9397  -2.8784  -2.8520  -2.7313  -2.6724  -2.6218  -2.5679  -2.5240
    -2.4656  -2.4058  -2.3454  -2.3027  -2.2130  -2.1322  -2.0453  -1.9402
    -1.8904  -1.8011  -1.7429  -1.7012  -1.6771  -1.6416  -1.5752  -1.5137
    -1.3997  -0.9177  -0.6675  -0.2171   0.2321   0.4991   0.7921   1.5165
     2.0177   2.5354   3.2027   3.6746   3.9009   4.7262   4.9183

          k =-0.0840 0.0485 0.0000 ( 19380 PWs)   bands (ev):

   -14.7111  -8.0142  -6.1650  -6.1186  -5.4285  -5.2635  -5.1766  -5.0912
    -4.8992  -4.8649  -4.8591  -4.8345  -4.7296  -4.6312  -4.4943  -4.4159
    -4.3769  -4.2975  -4.2893  -4.1606  -4.0328  -4.0006  -3.9767  -3.8598
    -3.8349  -3.8103  -3.6961  -3.6024  -3.5683  -3.4287  -3.3321  -3.2907
    -3.2507  -3.2361  -3.1922  -3.1807  -3.1318  -3.0770  -3.0676  -3.0648
    -3.0265  -2.9809  -2.8496  -2.8019  -2.7322  -2.6180  -2.5977  -2.5601
    -2.5069  -2.4717  -2.4310  -2.3651  -2.3363  -2.3171  -2.2111  -2.0586
    -2.0436  -1.9613  -1.7209  -1.6827  -1.6605  -1.6102  -1.5705  -1.4457
    -1.3897  -0.5971  -0.1742   0.1505   0.3505   0.6482   0.7548   1.1128
     1.7922   2.0146   3.4677   3.5871   3.8564   4.5894   5.5156

          k =-0.0840 0.0808 0.0000 ( 19376 PWs)   bands (ev):

   -14.7111  -8.0145  -6.3623  -5.7499  -5.4549  -5.2305  -5.1658  -5.0670
    -5.0025  -4.9106  -4.8441  -4.7679  -4.7278  -4.6716  -4.5790  -4.4887
    -4.4407  -4.3159  -4.2312  -4.1752  -4.1032  -4.0007  -3.9642  -3.8953
    -3.8283  -3.7899  -3.7198  -3.6390  -3.5757  -3.5333  -3.4476  -3.4080
    -3.3506  -3.2947  -3.2605  -3.1830  -3.1457  -3.0809  -3.0250  -2.9570
    -2.9397  -2.8784  -2.8520  -2.7313  -2.6724  -2.6218  -2.5679  -2.5240
    -2.4656  -2.4058  -2.3454  -2.3027  -2.2130  -2.1322  -2.0453  -1.9402
    -1.8904  -1.8011  -1.7429  -1.7012  -1.6771  -1.6416  -1.5752  -1.5137
    -1.3997  -0.9177  -0.6675  -0.2171   0.2321   0.4991   0.7921   1.5165
     2.0177   2.5354   3.2027   3.6746   3.9009   4.7262   4.9183

          k =-0.0840 0.1132 0.0000 ( 19376 PWs)   bands (ev):

   -14.7111  -8.0145  -6.3623  -5.7499  -5.4549  -5.2305  -5.1658  -5.0670
    -5.0025  -4.9106  -4.8441  -4.7679  -4.7278  -4.6716  -4.5790  -4.4887
    -4.4407  -4.3159  -4.2312  -4.1752  -4.1032  -4.0007  -3.9642  -3.8953
    -3.8283  -3.7899  -3.7198  -3.6390  -3.5757  -3.5333  -3.4476  -3.4080
    -3.3506  -3.2947  -3.2605  -3.1830  -3.1457  -3.0809  -3.0250  -2.9570
    -2.9397  -2.8784  -2.8520  -2.7313  -2.6724  -2.6218  -2.5679  -2.5240
    -2.4656  -2.4058  -2.3454  -2.3027  -2.2130  -2.1322  -2.0453  -1.9402
    -1.8904  -1.8011  -1.7429  -1.7012  -1.6771  -1.6416  -1.5752  -1.5137
    -1.3997  -0.9177  -0.6675  -0.2171   0.2321   0.4991   0.7921   1.5165
     2.0177   2.5354   3.2027   3.6746   3.9009   4.7262   4.9183

          k =-0.0840-0.0485 0.0000 ( 19380 PWs)   bands (ev):

   -14.7111  -8.0142  -6.1650  -6.1186  -5.4285  -5.2635  -5.1766  -5.0912
    -4.8992  -4.8649  -4.8591  -4.8345  -4.7296  -4.6312  -4.4943  -4.4159
    -4.3769  -4.2975  -4.2893  -4.1606  -4.0328  -4.0006  -3.9767  -3.8598
    -3.8349  -3.8103  -3.6961  -3.6024  -3.5683  -3.4287  -3.3321  -3.2907
    -3.2507  -3.2361  -3.1922  -3.1807  -3.1318  -3.0770  -3.0676  -3.0648
    -3.0265  -2.9809  -2.8496  -2.8019  -2.7322  -2.6180  -2.5977  -2.5601
    -2.5069  -2.4717  -2.4310  -2.3651  -2.3363  -2.3171  -2.2111  -2.0586
    -2.0436  -1.9613  -1.7209  -1.6827  -1.6605  -1.6102  -1.5705  -1.4457
    -1.3897  -0.5971  -0.1742   0.1505   0.3505   0.6482   0.7548   1.1128
     1.7922   2.0146   3.4677   3.5871   3.8564   4.5894   5.5153

     the Fermi energy is     0.4805 ev

!    total energy              =   -1421.71861626 Ry
     Harris-Foulkes estimate   =   -1421.71861682 Ry
     estimated scf accuracy    <       0.00000023 Ry

     The total energy is the sum of the following terms:

     one-electron contribution =   -8264.10249276 Ry
     hartree contribution      =    4231.32926360 Ry
     xc contribution           =    -774.34670655 Ry
     ewald contribution        =    3385.43961493 Ry
     electric field correction =       0.00008037 Ry
     smearing contrib. (-TS)   =      -0.03837585 Ry

     convergence has been achieved in  14 iterations
 
 BEEF-vdW xc energy contributions
           1 :   -691.966786390995     
           2 :    643.021813036203     
           3 :   -555.597748795918     
           4 :    446.740284930579     
           5 :   -334.743734057973     
           6 :    234.455795334992     
           7 :   -154.526003975501     
           8 :    96.9997286143440     
           9 :   -58.9388135841873     
          10 :    35.0682375274539     
          11 :   -20.2689192516849     
          12 :    11.0065778768337     
          13 :   -5.47351893639473     
          14 :    2.83070500974964     
          15 :   -2.27139784569636     
          16 :    2.51649203567820     
          17 :   -1.98018829864202     
          18 :  -0.605232179678183     
          19 :    5.54120534437686     
          20 :   -11.9181837677579     
          21 :    17.9537219766926     
          22 :   -21.7793312569449     
          23 :    22.2789914009282     
          24 :   -19.5646226356091     
          25 :    14.8674706280715     
          26 :   -9.93319540392622     
          27 :    6.24283588299500     
          28 :   -4.45123094581027     
          29 :    4.28598632649675     
          30 :   -4.90044506657205     
          31 :   -54.8557689494012     
          32 :   -39.9481193395827     

     Forces acting on atoms (Ry/au):


     negative rho (up, down):  6.008E-04 0.000E+00
     atom    1 type  1   force =    -0.00068814   -0.00039640   -0.00453239
     atom    2 type  1   force =     0.00069001   -0.00039620   -0.00453554
     atom    3 type  1   force =     0.00000150    0.00079370   -0.00453320
     atom    4 type  1   force =    -0.00000105   -0.00000129    0.00124640
     atom    5 type  1   force =     0.00000082   -0.00401832    0.00498335
     atom    6 type  1   force =     0.00000061    0.00000134    0.00243891
     atom    7 type  1   force =     0.00347804    0.00200832    0.00498753
     atom    8 type  1   force =    -0.00348036    0.00200862    0.00498960
     atom    9 type  1   force =     0.00000092   -0.00000085   -0.21634903
     atom   10 type  1   force =    -0.00000210    0.00112330   -0.00548592
     atom   11 type  1   force =     0.00097246   -0.00056224   -0.00548624
     atom   12 type  1   force =    -0.00097346   -0.00055988   -0.00548967
     atom   13 type  2   force =     0.00000046   -0.00000015    0.27592934
     atom   14 type  3   force =     0.00000029    0.00000007   -0.04816313

     Total force =     0.354059     Total SCF correction =     0.000726


     entering subroutine stress ...


     negative rho (up, down):  6.008E-04 0.000E+00
          total   stress  (Ry/bohr**3)                   (kbar)     P=   -2.22
  -0.00008917   0.00000000   0.00000000        -13.12      0.00      0.00
   0.00000000  -0.00008917  -0.00000000          0.00    -13.12     -0.00
   0.00000000  -0.00000000   0.00013299          0.00     -0.00     19.56


     BFGS Geometry Optimization

     number of scf cycles    =   1
     number of bfgs steps    =   0

     energy   new            =   -1421.7186162594 Ry

     new trust radius        =       0.2759293435 bohr
     new conv_thr            =       0.0000099958 Ry


ATOMIC_POSITIONS (crystal)
Au1      0.166666667   0.166666667   0.402269971    0   0   0
Au1      0.666666667   0.166666667   0.402269971    0   0   0
Au1      0.166666667   0.666666667   0.402269971    0   0   0
Au1      0.666666667   0.666666667   0.402269971    0   0   0
Au1      0.833333333   0.333333333   0.500000000    0   0   0
Au1      0.333333333   0.333333333   0.500000000    0   0   0
Au1      0.833333333   0.833333333   0.500000000    0   0   0
Au1      0.333333333   0.833333333   0.500000000    0   0   0
Au1      0.000000125  -0.000000088   0.593124562
Au1      0.499942144   0.000115340   0.597613249
Au1      0.000115340   0.499942269   0.597613242
Au1      0.499942181   0.499942511   0.597613169
N1       0.000000049  -0.000000015   0.674383196
H1       0.000000023   0.000000007   0.709722519



     Writing output data file calc.save
     NEW-OLD atomic charge density approx. for the potential

     Check: negative/imaginary core charge=   -0.000002    0.000000

     negative rho (up, down):  5.496E-04 0.000E+00
 
     Adding external electric field

     Computed dipole along edir(3) : 
        Dipole                0.1814 Ry au,          0.4610 Debye
        Dipole field          0.0004 Ry au
 
        Potential amp.       -0.0406 Ry
        Total length         45.8022 bohr
 

     total cpu time spent up to now is      513.5 secs

     per-process dynamical memory:    87.6 Mb

     Self-consistent Calculation

     iteration #  1     ecut=    36.75 Ry     beta=0.30
     Davidson diagonalization with overlap
     c_bands:  1 eigenvalues not converged
     c_bands:  1 eigenvalues not converged
     ethr =  1.00E-06,  avg # of iterations = 11.9

     negative rho (up, down):  4.048E-04 0.000E+00
 
     Adding external electric field

     Computed dipole along edir(3) : 
        Dipole               -2.4827 Ry au,         -6.3104 Debye
        Dipole field         -0.0061 Ry au
 
        Potential amp.        0.5555 Ry
        Total length         45.8022 bohr
 

     total cpu time spent up to now is      554.7 secs

     total energy              =   -1421.25128036 Ry
     Harris-Foulkes estimate   =   -1421.73920261 Ry
     estimated scf accuracy    <       1.02258936 Ry

     iteration #  2     ecut=    36.75 Ry     beta=0.30
     Davidson diagonalization with overlap
     ethr =  7.41E-04,  avg # of iterations =  7.7

     negative rho (up, down):  3.775E-04 0.000E+00
 
     Adding external electric field

     Computed dipole along edir(3) : 
        Dipole                0.1361 Ry au,          0.3460 Debye
        Dipole field          0.0003 Ry au
 
        Potential amp.       -0.0305 Ry
        Total length         45.8022 bohr
 

     total cpu time spent up to now is      583.7 secs

     total energy              =   -1420.45538929 Ry
     Harris-Foulkes estimate   =   -1423.81550765 Ry
     estimated scf accuracy    <      49.14301552 Ry

     iteration #  3     ecut=    36.75 Ry     beta=0.30
     Davidson diagonalization with overlap
     ethr =  7.41E-04,  avg # of iterations =  6.1

     negative rho (up, down):  4.569E-04 0.000E+00
 
     Adding external electric field

     Computed dipole along edir(3) : 
        Dipole                0.0234 Ry au,          0.0595 Debye
        Dipole field          0.0001 Ry au
 
        Potential amp.       -0.0052 Ry
        Total length         45.8022 bohr
 

     total cpu time spent up to now is      613.7 secs

     total energy              =   -1421.61771632 Ry
     Harris-Foulkes estimate   =   -1421.83170677 Ry
     estimated scf accuracy    <       2.55241190 Ry

     iteration #  4     ecut=    36.75 Ry     beta=0.30
     Davidson diagonalization with overlap
     ethr =  7.41E-04,  avg # of iterations =  2.0

     negative rho (up, down):  4.429E-04 0.000E+00
 
     Adding external electric field

     Computed dipole along edir(3) : 
        Dipole                0.0244 Ry au,          0.0620 Debye
        Dipole field          0.0001 Ry au
 
        Potential amp.       -0.0055 Ry
        Total length         45.8022 bohr
 

     total cpu time spent up to now is      638.2 secs

     total energy              =   -1421.70759770 Ry
     Harris-Foulkes estimate   =   -1421.71104119 Ry
     estimated scf accuracy    <       0.02813215 Ry

     iteration #  5     ecut=    36.75 Ry     beta=0.30
     Davidson diagonalization with overlap
     ethr =  2.04E-05,  avg # of iterations =  6.8

     negative rho (up, down):  4.596E-04 0.000E+00
 
     Adding external electric field

     Computed dipole along edir(3) : 
        Dipole                0.0005 Ry au,          0.0014 Debye
        Dipole field          0.0000 Ry au
 
        Potential amp.       -0.0001 Ry
        Total length         45.8022 bohr
 

     total cpu time spent up to now is      665.5 secs

     total energy              =   -1421.70971465 Ry
     Harris-Foulkes estimate   =   -1421.71041560 Ry
     estimated scf accuracy    <       0.00250984 Ry

     iteration #  6     ecut=    36.75 Ry     beta=0.30
     Davidson diagonalization with overlap
     ethr =  1.82E-06,  avg # of iterations =  6.1

     negative rho (up, down):  4.983E-04 0.000E+00
 
     Adding external electric field

     Computed dipole along edir(3) : 
        Dipole                0.0106 Ry au,          0.0269 Debye
        Dipole field          0.0000 Ry au
 
        Potential amp.       -0.0024 Ry
        Total length         45.8022 bohr
 

     total cpu time spent up to now is      693.9 secs

     total energy              =   -1421.71005261 Ry
     Harris-Foulkes estimate   =   -1421.71023124 Ry
     estimated scf accuracy    <       0.00078253 Ry

     iteration #  7     ecut=    36.75 Ry     beta=0.30
     Davidson diagonalization with overlap
     ethr =  5.67E-07,  avg # of iterations =  2.0

     negative rho (up, down):  5.356E-04 0.000E+00
 
     Adding external electric field

     Computed dipole along edir(3) : 
        Dipole                0.0136 Ry au,          0.0345 Debye
        Dipole field          0.0000 Ry au
 
        Potential amp.       -0.0030 Ry
        Total length         45.8022 bohr
 

     total cpu time spent up to now is      718.5 secs

     total energy              =   -1421.71010023 Ry
     Harris-Foulkes estimate   =   -1421.71014391 Ry
     estimated scf accuracy    <       0.00019867 Ry

     iteration #  8     ecut=    36.75 Ry     beta=0.30
     Davidson diagonalization with overlap
     ethr =  1.44E-07,  avg # of iterations =  2.0

     negative rho (up, down):  5.648E-04 0.000E+00
 
     Adding external electric field

     Computed dipole along edir(3) : 
        Dipole                0.0172 Ry au,          0.0436 Debye
        Dipole field          0.0000 Ry au
 
        Potential amp.       -0.0038 Ry
        Total length         45.8022 bohr
 

     total cpu time spent up to now is      743.3 secs

     total energy              =   -1421.71011696 Ry
     Harris-Foulkes estimate   =   -1421.71012253 Ry
     estimated scf accuracy    <       0.00007513 Ry

     iteration #  9     ecut=    36.75 Ry     beta=0.30
     Davidson diagonalization with overlap
     ethr =  5.44E-08,  avg # of iterations =  2.0

     negative rho (up, down):  6.401E-04 0.000E+00

     negative rho (up, down):  6.401E-04 0.000E+00

     negative rho (up, down):  6.401E-04 0.000E+00

     negative rho (up, down):  6.401E-04 0.000E+00

     negative rho (up, down):  6.401E-04 0.000E+00

     negative rho (up, down):  6.401E-04 0.000E+00

     negative rho (up, down):  6.401E-04 0.000E+00

     negative rho (up, down):  6.401E-04 0.000E+00

     negative rho (up, down):  6.401E-04 0.000E+00

     negative rho (up, down):  6.401E-04 0.000E+00

     negative rho (up, down):  6.401E-04 0.000E+00

     negative rho (up, down):  6.401E-04 0.000E+00

     negative rho (up, down):  6.401E-04 0.000E+00

     negative rho (up, down):  6.401E-04 0.000E+00

     negative rho (up, down):  6.401E-04 0.000E+00

     negative rho (up, down):  6.401E-04 0.000E+00

     negative rho (up, down):  6.401E-04 0.000E+00

     negative rho (up, down):  6.401E-04 0.000E+00

     negative rho (up, down):  6.401E-04 0.000E+00

     negative rho (up, down):  6.401E-04 0.000E+00

     negative rho (up, down):  6.401E-04 0.000E+00

     negative rho (up, down):  6.401E-04 0.000E+00

     negative rho (up, down):  6.401E-04 0.000E+00

     negative rho (up, down):  6.401E-04 0.000E+00

     negative rho (up, down):  6.401E-04 0.000E+00

     negative rho (up, down):  6.401E-04 0.000E+00

     negative rho (up, down):  6.401E-04 0.000E+00

     negative rho (up, down):  6.401E-04 0.000E+00

     negative rho (up, down):  6.401E-04 0.000E+00

     negative rho (up, down):  6.401E-04 0.000E+00

     negative rho (up, down):  6.401E-04 0.000E+00

     negative rho (up, down):  6.401E-04 0.000E+00

     negative rho (up, down):  6.401E-04 0.000E+00

     negative rho (up, down):  6.401E-04 0.000E+00

     negative rho (up, down):  6.401E-04 0.000E+00
 
     Adding external electric field

     Computed dipole along edir(3) : 
        Dipole               -0.0017 Ry au,         -0.0044 Debye
        Dipole field         -0.0000 Ry au
 
        Potential amp.        0.0004 Ry
        Total length         45.8022 bohr
 

     total cpu time spent up to now is      818.4 secs

     End of self-consistent calculation

          k = 0.0000 0.0000 0.0000 ( 19315 PWs)   bands (ev):

   -14.8528  -7.9249  -6.8896  -6.3388  -6.0618  -5.8248  -5.8248  -5.7280
    -5.6368  -5.6368  -5.5392  -5.3850  -5.3850  -5.2692  -5.1847  -5.1847
    -5.1391  -4.4333  -4.4333  -4.1553  -4.0555  -4.0555  -4.0206  -3.9455
    -3.9455  -3.9190  -3.7448  -3.7448  -3.6767  -3.6767  -3.6121  -3.5452
    -3.5452  -3.3724  -3.0009  -3.0009  -2.8831  -2.8831  -2.6702  -2.6666
    -2.6666  -2.5842  -2.4679  -2.4679  -2.3145  -2.2672  -2.2672  -1.9762
    -1.9762  -1.9093  -1.8336  -1.8336  -1.7851  -1.7851  -1.7143  -1.7143
    -1.6993  -1.5249  -1.5249  -1.5025  -1.4281  -1.4281  -1.4224  -1.3546
    -0.3610  -0.3610  -0.3394   0.7939   0.9801   0.9801   1.3526   1.5200
     1.6456   1.6456   1.8164   2.1464   2.1464   3.4980   3.4980

          k = 0.0000 0.0323 0.0000 ( 19351 PWs)   bands (ev):

   -14.8524  -7.7469  -6.8566  -6.1620  -5.8969  -5.7928  -5.6975  -5.6193
    -5.5647  -5.5229  -5.4453  -5.3192  -5.3121  -5.2161  -5.1014  -5.0336
    -4.9922  -4.4323  -4.4036  -4.1513  -4.0525  -3.9922  -3.9897  -3.9639
    -3.9439  -3.8423  -3.8326  -3.7419  -3.7364  -3.6449  -3.6070  -3.5804
    -3.4309  -3.4006  -3.1432  -3.1055  -3.0400  -2.9143  -2.8349  -2.7124
    -2.6792  -2.6407  -2.5839  -2.5192  -2.4424  -2.3727  -2.2838  -2.0760
    -2.0691  -1.9993  -1.9980  -1.9569  -1.9510  -1.8976  -1.8580  -1.8310
    -1.8065  -1.7864  -1.7059  -1.6287  -1.6248  -1.5758  -1.5348  -1.3909
    -0.9649  -0.4581  -0.3253   0.0059   0.3859   0.5898   0.6159   1.4909
     1.7220   1.8206   2.6726   2.8172   2.9132   3.8341   3.9517

          k = 0.0000 0.0647 0.0000 ( 19389 PWs)   bands (ev):

   -14.8516  -7.3079  -6.7419  -5.8758  -5.6860  -5.4802  -5.4077  -5.3897
    -5.2954  -5.2600  -5.2204  -5.1270  -5.0681  -5.0248  -4.9045  -4.6356
    -4.5709  -4.4445  -4.3935  -4.2612  -4.1791  -4.1287  -3.9762  -3.9441
    -3.8985  -3.8296  -3.7871  -3.7807  -3.6287  -3.6253  -3.5395  -3.5073
    -3.4649  -3.4480  -3.4107  -3.3731  -3.2097  -3.1113  -3.0110  -2.8984
    -2.8578  -2.8126  -2.7510  -2.7500  -2.7303  -2.7186  -2.6731  -2.6357
    -2.5356  -2.3941  -2.3632  -2.3333  -2.2479  -2.2306  -2.1703  -2.1353
    -2.0880  -2.0256  -1.9961  -1.8386  -1.8080  -1.7603  -1.7043  -1.6040
    -1.5105  -0.9281  -0.2899  -0.0349   0.2392   0.3393   0.4238   1.2631
     1.5650   1.8373   2.6955   3.4464   3.9303   4.2565   4.3417

          k = 0.0000-0.0970 0.0000 ( 19380 PWs)   bands (ev):

   -14.8512  -7.0770  -6.3773  -6.2280  -5.3869  -5.3020  -5.2174  -5.1252
    -5.0917  -5.0871  -5.0768  -5.0313  -4.7670  -4.7138  -4.6434  -4.5850
    -4.5025  -4.4098  -4.3123  -4.3029  -4.2449  -4.1945  -4.1660  -4.0364
    -3.9640  -3.8158  -3.7928  -3.7610  -3.6153  -3.5580  -3.5331  -3.4720
    -3.4627  -3.4402  -3.4067  -3.3311  -3.3183  -3.2817  -3.2724  -3.2517
    -3.2357  -3.1583  -3.0595  -3.0251  -2.8637  -2.7793  -2.7654  -2.7054
    -2.6978  -2.6379  -2.5902  -2.5717  -2.5465  -2.5236  -2.3638  -2.2639
    -2.2469  -2.1810  -1.9075  -1.8470  -1.8241  -1.8105  -1.7801  -1.6382
    -1.5995  -0.9127  -0.2773  -0.0679   0.1685   0.4006   0.6094   0.8824
     1.5184   1.7240   3.3343   3.3988   3.7620   4.5785   5.5353

          k = 0.0280-0.0162 0.0000 ( 19351 PWs)   bands (ev):

   -14.8524  -7.7469  -6.8566  -6.1620  -5.8969  -5.7928  -5.6975  -5.6193
    -5.5647  -5.5229  -5.4453  -5.3192  -5.3121  -5.2161  -5.1014  -5.0336
    -4.9922  -4.4323  -4.4036  -4.1513  -4.0525  -3.9922  -3.9897  -3.9639
    -3.9439  -3.8423  -3.8326  -3.7419  -3.7364  -3.6449  -3.6070  -3.5804
    -3.4309  -3.4006  -3.1432  -3.1055  -3.0400  -2.9143  -2.8349  -2.7124
    -2.6792  -2.6407  -2.5839  -2.5192  -2.4424  -2.3727  -2.2838  -2.0760
    -2.0691  -1.9993  -1.9980  -1.9569  -1.9510  -1.8976  -1.8580  -1.8310
    -1.8065  -1.7864  -1.7059  -1.6287  -1.6248  -1.5758  -1.5348  -1.3909
    -0.9649  -0.4581  -0.3253   0.0059   0.3859   0.5898   0.6159   1.4909
     1.7220   1.8206   2.6726   2.8172   2.9132   3.8341   3.9517

          k = 0.0280 0.0162 0.0000 ( 19351 PWs)   bands (ev):

   -14.8524  -7.7469  -6.8566  -6.1620  -5.8969  -5.7928  -5.6975  -5.6193
    -5.5647  -5.5229  -5.4453  -5.3192  -5.3121  -5.2161  -5.1014  -5.0336
    -4.9922  -4.4323  -4.4036  -4.1513  -4.0525  -3.9922  -3.9897  -3.9639
    -3.9439  -3.8423  -3.8326  -3.7419  -3.7364  -3.6449  -3.6070  -3.5804
    -3.4309  -3.4006  -3.1432  -3.1055  -3.0400  -2.9143  -2.8349  -2.7124
    -2.6792  -2.6407  -2.5839  -2.5192  -2.4424  -2.3727  -2.2838  -2.0760
    -2.0691  -1.9993  -1.9980  -1.9569  -1.9510  -1.8976  -1.8580  -1.8310
    -1.8065  -1.7864  -1.7059  -1.6287  -1.6248  -1.5758  -1.5348  -1.3909
    -0.9649  -0.4581  -0.3253   0.0059   0.3859   0.5898   0.6159   1.4909
     1.7220   1.8206   2.6726   2.8172   2.9132   3.8341   3.9517

          k = 0.0280 0.0485 0.0000 ( 19345 PWs)   bands (ev):

   -14.8518  -7.4318  -6.7870  -5.8281  -5.7015  -5.6458  -5.5911  -5.4076
    -5.3725  -5.3495  -5.2675  -5.1999  -5.1450  -5.0810  -4.8981  -4.8806
    -4.6577  -4.4516  -4.3804  -4.2048  -4.1591  -4.0589  -3.9746  -3.9309
    -3.9117  -3.8463  -3.8276  -3.7346  -3.6730  -3.6507  -3.5998  -3.5303
    -3.4529  -3.4209  -3.3322  -3.2684  -3.1913  -3.0899  -2.9833  -2.8151
    -2.8084  -2.7594  -2.7187  -2.6484  -2.6340  -2.5238  -2.5114  -2.4761
    -2.4587  -2.3944  -2.2891  -2.2515  -2.2027  -2.1159  -2.0708  -1.9921
    -1.9444  -1.8783  -1.8656  -1.8275  -1.7633  -1.7295  -1.6890  -1.3190
    -1.1548  -1.1259  -0.5560  -0.4704   0.1890   0.2703   0.4682   1.9005
     2.0498   2.2093   2.2309   2.8247   3.1898   3.8931   4.8180

          k = 0.0280-0.1132 0.0000 ( 19376 PWs)   bands (ev):

   -14.8512  -7.0930  -6.4848  -5.9190  -5.4529  -5.3355  -5.2276  -5.1380
    -5.1114  -5.0905  -5.0157  -4.9785  -4.8990  -4.7208  -4.6773  -4.5958
    -4.4973  -4.4461  -4.3634  -4.3073  -4.2555  -4.1493  -4.1316  -4.0197
    -4.0063  -3.9285  -3.8592  -3.7583  -3.7324  -3.6615  -3.6133  -3.5815
    -3.5301  -3.4730  -3.4559  -3.3773  -3.3416  -3.2486  -3.1879  -3.1650
    -3.1284  -3.0668  -3.0421  -2.8904  -2.8215  -2.7966  -2.7347  -2.7027
    -2.6543  -2.6054  -2.5520  -2.4967  -2.3866  -2.3340  -2.2387  -2.1179
    -2.0837  -2.0018  -1.9255  -1.8843  -1.8640  -1.8353  -1.7685  -1.7247
    -1.5864  -1.0756  -0.9449  -0.3966   0.0046   0.2582   0.5993   1.3042
     1.7837   2.3131   3.0167   3.4879   3.7357   4.5653   4.8742

          k = 0.0280-0.0808 0.0000 ( 19376 PWs)   bands (ev):

   -14.8512  -7.0930  -6.4848  -5.9190  -5.4529  -5.3355  -5.2276  -5.1380
    -5.1114  -5.0905  -5.0157  -4.9785  -4.8990  -4.7208  -4.6773  -4.5958
    -4.4973  -4.4461  -4.3634  -4.3073  -4.2555  -4.1493  -4.1316  -4.0197
    -4.0063  -3.9285  -3.8592  -3.7583  -3.7324  -3.6615  -3.6133  -3.5815
    -3.5301  -3.4730  -3.4559  -3.3773  -3.3416  -3.2486  -3.1879  -3.1650
    -3.1284  -3.0668  -3.0421  -2.8904  -2.8215  -2.7966  -2.7347  -2.7027
    -2.6543  -2.6054  -2.5520  -2.4967  -2.3866  -2.3340  -2.2387  -2.1179
    -2.0837  -2.0018  -1.9255  -1.8843  -1.8640  -1.8353  -1.7685  -1.7247
    -1.5864  -1.0756  -0.9449  -0.3966   0.0046   0.2582   0.5993   1.3042
     1.7837   2.3131   3.0167   3.4879   3.7357   4.5653   4.8742

          k = 0.0280-0.0485 0.0000 ( 19345 PWs)   bands (ev):

   -14.8518  -7.4318  -6.7870  -5.8281  -5.7015  -5.6458  -5.5911  -5.4076
    -5.3725  -5.3495  -5.2675  -5.1999  -5.1450  -5.0810  -4.8981  -4.8806
    -4.6577  -4.4516  -4.3804  -4.2048  -4.1591  -4.0589  -3.9746  -3.9309
    -3.9117  -3.8463  -3.8276  -3.7346  -3.6730  -3.6507  -3.5998  -3.5303
    -3.4529  -3.4209  -3.3322  -3.2684  -3.1913  -3.0899  -2.9833  -2.8151
    -2.8084  -2.7594  -2.7187  -2.6484  -2.6340  -2.5238  -2.5114  -2.4761
    -2.4587  -2.3944  -2.2891  -2.2515  -2.2027  -2.1159  -2.0708  -1.9921
    -1.9444  -1.8783  -1.8656  -1.8275  -1.7633  -1.7295  -1.6890  -1.3190
    -1.1548  -1.1259  -0.5560  -0.4704   0.1890   0.2703   0.4682   1.9005
     2.0498   2.2093   2.2309   2.8247   3.1898   3.8931   4.8180

          k = 0.0560-0.0323 0.0000 ( 19389 PWs)   bands (ev):

   -14.8516  -7.3079  -6.7419  -5.8758  -5.6860  -5.4802  -5.4077  -5.3897
    -5.2954  -5.2600  -5.2204  -5.1270  -5.0681  -5.0248  -4.9045  -4.6356
    -4.5709  -4.4445  -4.3935  -4.2612  -4.1791  -4.1287  -3.9762  -3.9441
    -3.8985  -3.8296  -3.7871  -3.7807  -3.6287  -3.6253  -3.5395  -3.5073
    -3.4649  -3.4480  -3.4107  -3.3731  -3.2097  -3.1113  -3.0110  -2.8984
    -2.8578  -2.8126  -2.7510  -2.7500  -2.7303  -2.7186  -2.6731  -2.6357
    -2.5356  -2.3941  -2.3632  -2.3333  -2.2479  -2.2306  -2.1703  -2.1353
    -2.0880  -2.0256  -1.9961  -1.8386  -1.8080  -1.7603  -1.7043  -1.6040
    -1.5105  -0.9281  -0.2899  -0.0349   0.2392   0.3393   0.4238   1.2631
     1.5650   1.8373   2.6955   3.4464   3.9303   4.2565   4.3417

          k = 0.0560 0.0000 0.0000 ( 19345 PWs)   bands (ev):

   -14.8518  -7.4318  -6.7870  -5.8281  -5.7015  -5.6458  -5.5911  -5.4076
    -5.3725  -5.3495  -5.2675  -5.1999  -5.1450  -5.0810  -4.8981  -4.8806
    -4.6577  -4.4516  -4.3804  -4.2048  -4.1591  -4.0589  -3.9746  -3.9309
    -3.9117  -3.8463  -3.8276  -3.7346  -3.6730  -3.6507  -3.5998  -3.5303
    -3.4529  -3.4209  -3.3322  -3.2684  -3.1913  -3.0899  -2.9833  -2.8151
    -2.8084  -2.7594  -2.7187  -2.6484  -2.6340  -2.5238  -2.5114  -2.4761
    -2.4587  -2.3944  -2.2891  -2.2515  -2.2027  -2.1159  -2.0708  -1.9921
    -1.9444  -1.8783  -1.8656  -1.8275  -1.7633  -1.7295  -1.6890  -1.3190
    -1.1548  -1.1259  -0.5560  -0.4704   0.1890   0.2703   0.4682   1.9005
     2.0498   2.2093   2.2309   2.8247   3.1898   3.8931   4.8180

          k = 0.0560 0.0323 0.0000 ( 19389 PWs)   bands (ev):

   -14.8516  -7.3079  -6.7419  -5.8758  -5.6860  -5.4802  -5.4077  -5.3897
    -5.2954  -5.2600  -5.2204  -5.1270  -5.0681  -5.0248  -4.9045  -4.6356
    -4.5709  -4.4445  -4.3935  -4.2612  -4.1791  -4.1287  -3.9762  -3.9441
    -3.8985  -3.8296  -3.7871  -3.7807  -3.6287  -3.6253  -3.5395  -3.5073
    -3.4649  -3.4480  -3.4107  -3.3731  -3.2097  -3.1113  -3.0110  -2.8984
    -2.8578  -2.8126  -2.7510  -2.7500  -2.7303  -2.7186  -2.6731  -2.6357
    -2.5356  -2.3941  -2.3632  -2.3333  -2.2479  -2.2306  -2.1703  -2.1353
    -2.0880  -2.0256  -1.9961  -1.8386  -1.8080  -1.7603  -1.7043  -1.6040
    -1.5105  -0.9281  -0.2899  -0.0349   0.2392   0.3393   0.4238   1.2631
     1.5650   1.8373   2.6955   3.4464   3.9303   4.2565   4.3417

          k = 0.0560-0.1294 0.0000 ( 19376 PWs)   bands (ev):

   -14.8512  -7.0930  -6.4848  -5.9190  -5.4529  -5.3355  -5.2276  -5.1380
    -5.1114  -5.0905  -5.0157  -4.9785  -4.8990  -4.7208  -4.6773  -4.5958
    -4.4973  -4.4461  -4.3634  -4.3073  -4.2555  -4.1493  -4.1316  -4.0197
    -4.0063  -3.9285  -3.8592  -3.7583  -3.7324  -3.6615  -3.6133  -3.5815
    -3.5301  -3.4730  -3.4559  -3.3773  -3.3416  -3.2486  -3.1879  -3.1650
    -3.1284  -3.0668  -3.0421  -2.8904  -2.8215  -2.7966  -2.7347  -2.7027
    -2.6543  -2.6054  -2.5520  -2.4967  -2.3866  -2.3340  -2.2387  -2.1179
    -2.0837  -2.0018  -1.9255  -1.8843  -1.8640  -1.8353  -1.7685  -1.7247
    -1.5864  -1.0756  -0.9449  -0.3966   0.0046   0.2582   0.5993   1.3042
     1.7837   2.3131   3.0167   3.4879   3.7357   4.5653   4.8742

          k = 0.0560-0.0970 0.0000 ( 19365 PWs)   bands (ev):

   -14.8510  -7.0284  -5.9653  -5.9340  -5.8310  -5.0450  -5.0149  -5.0001
    -4.9500  -4.9254  -4.7839  -4.7806  -4.7393  -4.7243  -4.6788  -4.6598
    -4.5988  -4.3954  -4.3287  -4.2833  -4.2580  -4.2171  -4.2164  -4.1181
    -4.0782  -4.0263  -4.0192  -3.8629  -3.8514  -3.8442  -3.7715  -3.6867
    -3.6660  -3.5595  -3.3933  -3.3927  -3.3699  -3.3631  -3.3258  -3.3111
    -3.2790  -3.2510  -2.9649  -2.8965  -2.7965  -2.7446  -2.7187  -2.7084
    -2.6247  -2.5000  -2.4804  -2.4565  -2.3319  -2.1510  -2.1031  -2.0526
    -2.0224  -2.0094  -1.9431  -1.9399  -1.9140  -1.9096  -1.8889  -1.8658
    -1.7660  -1.4980  -1.4118  -0.6154   0.0210   0.0620   0.9369   0.9431
     1.8968   3.0298   3.2109   3.3290   4.3749   4.4143   4.9523

          k = 0.0560-0.0647 0.0000 ( 19376 PWs)   bands (ev):

   -14.8512  -7.0930  -6.4848  -5.9190  -5.4529  -5.3355  -5.2276  -5.1380
    -5.1114  -5.0905  -5.0157  -4.9785  -4.8990  -4.7208  -4.6773  -4.5958
    -4.4973  -4.4461  -4.3634  -4.3073  -4.2555  -4.1493  -4.1316  -4.0197
    -4.0063  -3.9285  -3.8592  -3.7583  -3.7324  -3.6615  -3.6133  -3.5815
    -3.5301  -3.4730  -3.4559  -3.3773  -3.3416  -3.2486  -3.1879  -3.1650
    -3.1284  -3.0668  -3.0421  -2.8904  -2.8215  -2.7966  -2.7347  -2.7027
    -2.6543  -2.6054  -2.5520  -2.4967  -2.3866  -2.3340  -2.2387  -2.1179
    -2.0837  -2.0018  -1.9255  -1.8843  -1.8640  -1.8353  -1.7685  -1.7247
    -1.5864  -1.0756  -0.9449  -0.3966   0.0046   0.2582   0.5993   1.3042
     1.7837   2.3131   3.0167   3.4879   3.7357   4.5653   4.8742

          k =-0.0840 0.0485 0.0000 ( 19380 PWs)   bands (ev):

   -14.8512  -7.0770  -6.3773  -6.2280  -5.3869  -5.3020  -5.2174  -5.1252
    -5.0917  -5.0871  -5.0768  -5.0313  -4.7670  -4.7138  -4.6434  -4.5850
    -4.5025  -4.4098  -4.3123  -4.3029  -4.2449  -4.1945  -4.1660  -4.0364
    -3.9640  -3.8158  -3.7928  -3.7610  -3.6153  -3.5580  -3.5331  -3.4720
    -3.4627  -3.4402  -3.4067  -3.3311  -3.3183  -3.2817  -3.2724  -3.2517
    -3.2357  -3.1583  -3.0595  -3.0251  -2.8637  -2.7793  -2.7654  -2.7054
    -2.6978  -2.6379  -2.5902  -2.5717  -2.5465  -2.5236  -2.3638  -2.2639
    -2.2469  -2.1810  -1.9075  -1.8470  -1.8241  -1.8105  -1.7801  -1.6382
    -1.5995  -0.9127  -0.2773  -0.0679   0.1685   0.4006   0.6094   0.8824
     1.5184   1.7240   3.3343   3.3988   3.7620   4.5785   5.5353

          k =-0.0840 0.0808 0.0000 ( 19376 PWs)   bands (ev):

   -14.8512  -7.0930  -6.4848  -5.9190  -5.4529  -5.3355  -5.2276  -5.1380
    -5.1114  -5.0905  -5.0157  -4.9785  -4.8990  -4.7208  -4.6773  -4.5958
    -4.4973  -4.4461  -4.3634  -4.3073  -4.2555  -4.1493  -4.1316  -4.0197
    -4.0063  -3.9285  -3.8592  -3.7583  -3.7324  -3.6615  -3.6133  -3.5815
    -3.5301  -3.4730  -3.4559  -3.3773  -3.3416  -3.2486  -3.1879  -3.1650
    -3.1284  -3.0668  -3.0421  -2.8904  -2.8215  -2.7966  -2.7347  -2.7027
    -2.6543  -2.6054  -2.5520  -2.4967  -2.3866  -2.3340  -2.2387  -2.1179
    -2.0837  -2.0018  -1.9255  -1.8843  -1.8640  -1.8353  -1.7685  -1.7247
    -1.5864  -1.0756  -0.9449  -0.3966   0.0046   0.2582   0.5993   1.3042
     1.7837   2.3131   3.0167   3.4879   3.7357   4.5653   4.8742

          k =-0.0840 0.1132 0.0000 ( 19376 PWs)   bands (ev):

   -14.8512  -7.0930  -6.4848  -5.9190  -5.4529  -5.3355  -5.2276  -5.1380
    -5.1114  -5.0905  -5.0157  -4.9785  -4.8990  -4.7208  -4.6773  -4.5958
    -4.4973  -4.4461  -4.3634  -4.3073  -4.2555  -4.1493  -4.1316  -4.0197
    -4.0063  -3.9285  -3.8592  -3.7583  -3.7324  -3.6615  -3.6133  -3.5815
    -3.5301  -3.4730  -3.4559  -3.3773  -3.3416  -3.2486  -3.1879  -3.1650
    -3.1284  -3.0668  -3.0421  -2.8904  -2.8215  -2.7966  -2.7347  -2.7027
    -2.6543  -2.6054  -2.5520  -2.4967  -2.3866  -2.3340  -2.2387  -2.1179
    -2.0837  -2.0018  -1.9255  -1.8843  -1.8640  -1.8353  -1.7685  -1.7247
    -1.5864  -1.0756  -0.9449  -0.3966   0.0046   0.2582   0.5993   1.3042
     1.7838   2.3131   3.0167   3.4879   3.7357   4.5653   4.8742

          k =-0.0840-0.0485 0.0000 ( 19380 PWs)   bands (ev):

   -14.8512  -7.0770  -6.3773  -6.2280  -5.3869  -5.3020  -5.2174  -5.1252
    -5.0917  -5.0871  -5.0768  -5.0313  -4.7670  -4.7138  -4.6434  -4.5850
    -4.5025  -4.4098  -4.3123  -4.3029  -4.2449  -4.1945  -4.1660  -4.0364
    -3.9640  -3.8158  -3.7928  -3.7610  -3.6153  -3.5580  -3.5331  -3.4720
    -3.4627  -3.4402  -3.4067  -3.3311  -3.3183  -3.2817  -3.2724  -3.2517
    -3.2357  -3.1583  -3.0595  -3.0251  -2.8637  -2.7793  -2.7654  -2.7054
    -2.6978  -2.6379  -2.5902  -2.5717  -2.5465  -2.5236  -2.3638  -2.2639
    -2.2469  -2.1810  -1.9075  -1.8470  -1.8241  -1.8105  -1.7801  -1.6382
    -1.5995  -0.9127  -0.2773  -0.0679   0.1685   0.4006   0.6094   0.8824
     1.5184   1.7240   3.3343   3.3988   3.7620   4.5785   5.5353

     the Fermi energy is     0.2470 ev

!    total energy              =   -1421.71011949 Ry
     Harris-Foulkes estimate   =   -1421.71012481 Ry
     estimated scf accuracy    <       0.00000996 Ry

     The total energy is the sum of the following terms:

     one-electron contribution =   -8268.28306057 Ry
     hartree contribution      =    4232.85227791 Ry
     xc contribution           =    -774.40924771 Ry
     ewald contribution        =    3388.16915777 Ry
     electric field correction =       0.00000001 Ry
     smearing contrib. (-TS)   =      -0.03924691 Ry

     convergence has been achieved in   9 iterations
 
 BEEF-vdW xc energy contributions
           1 :   -692.001541830976     
           2 :    642.988165544232     
           3 :   -555.479964087504     
           4 :    446.578455179303     
           5 :   -334.599501393554     
           6 :    234.376635698108     
           7 :   -154.527327566531     
           8 :    97.0678063559525     
           9 :   -59.0445724821586     
          10 :    35.1808333802878     
          11 :   -20.3650514620365     
          12 :    11.0770460569587     
          13 :   -5.52254811596538     
          14 :    2.86652979014400     
          15 :   -2.30058151799153     
          16 :    2.54687445101922     
          17 :   -2.02088897477529     
          18 :  -0.549206853047508     
          19 :    5.47345989456335     
          20 :   -11.8519965167495     
          21 :    17.9100367322876     
          22 :   -21.7796890138002     
          23 :    22.3357241283776     
          24 :   -19.6731521026564     
          25 :    15.0031727233638     
          26 :   -10.0562386137740     
          27 :    6.31340046785090     
          28 :   -4.44837095344860     
          29 :    4.21859086936138     
          30 :   -4.80434775795231     
          31 :   -54.8573024054632     
          32 :   -39.9352283032209     

     Forces acting on atoms (Ry/au):


     negative rho (up, down):  6.401E-04 0.000E+00
     atom    1 type  1   force =    -0.00056353   -0.00032364   -0.00416560
     atom    2 type  1   force =     0.00056048   -0.00032395   -0.00416415
     atom    3 type  1   force =    -0.00000178    0.00064901   -0.00416545
     atom    4 type  1   force =    -0.00000106    0.00000045    0.00295411
     atom    5 type  1   force =     0.00000034    0.00069040    0.00039558
     atom    6 type  1   force =     0.00000008    0.00000015    0.00253812
     atom    7 type  1   force =    -0.00059821   -0.00034588    0.00039515
     atom    8 type  1   force =     0.00060372   -0.00034750    0.00038360
     atom    9 type  1   force =     0.00000007    0.00000058    0.03037260
     atom   10 type  1   force =     0.00000196    0.00102142   -0.00205698
     atom   11 type  1   force =     0.00088397   -0.00050925   -0.00206245
     atom   12 type  1   force =    -0.00088415   -0.00051167   -0.00205961
     atom   13 type  2   force =    -0.00000092   -0.00000021   -0.42097046
     atom   14 type  3   force =    -0.00000096    0.00000011    0.40260553

     Total force =     0.583306     Total SCF correction =     0.008832


     entering subroutine stress ...


     negative rho (up, down):  6.401E-04 0.000E+00
          total   stress  (Ry/bohr**3)                   (kbar)     P=   -4.25
  -0.00010219   0.00000000  -0.00000000        -15.03      0.00     -0.00
   0.00000000  -0.00010219   0.00000000          0.00    -15.03      0.00
  -0.00000000   0.00000000   0.00011761         -0.00      0.00     17.30


     number of scf cycles    =   2
     number of bfgs steps    =   1

     energy   old            =   -1421.7186162594 Ry
     energy   new            =   -1421.7101194923 Ry

     CASE: energy  _new > energy  _old

     new trust radius        =       0.1292069991 bohr
     new conv_thr            =       0.0000099958 Ry


ATOMIC_POSITIONS (crystal)
Au1      0.166666667   0.166666667   0.402269971    0   0   0
Au1      0.666666667   0.166666667   0.402269971    0   0   0
Au1      0.166666667   0.666666667   0.402269971    0   0   0
Au1      0.666666667   0.666666667   0.402269971    0   0   0
Au1      0.833333333   0.333333333   0.500000000    0   0   0
Au1      0.333333333   0.333333333   0.500000000    0   0   0
Au1      0.833333333   0.833333333   0.500000000    0   0   0
Au1      0.333333333   0.833333333   0.500000000    0   0   0
Au1      0.000000059  -0.000000041   0.595573468
Au1      0.499972908   0.000054009   0.597675346
Au1      0.000054009   0.499972967   0.597675342
Au1      0.499972926   0.499973080   0.597675308
N1       0.000000023  -0.000000007   0.671259887
H1       0.000000011   0.000000003   0.710267689



     Writing output data file calc.save
     NEW-OLD atomic charge density approx. for the potential

     Check: negative/imaginary core charge=   -0.000002    0.000000

     negative rho (up, down):  5.834E-04 0.000E+00
 
     Adding external electric field

     Computed dipole along edir(3) : 
        Dipole               -0.0017 Ry au,         -0.0044 Debye
        Dipole field         -0.0000 Ry au
 
        Potential amp.        0.0004 Ry
        Total length         45.8022 bohr
 

     total cpu time spent up to now is      930.3 secs

     per-process dynamical memory:    87.2 Mb

     Self-consistent Calculation

     iteration #  1     ecut=    36.75 Ry     beta=0.30
     Davidson diagonalization with overlap
     ethr =  1.00E-06,  avg # of iterations =  6.0

     negative rho (up, down):  4.187E-04 0.000E+00
 
     Adding external electric field

     Computed dipole along edir(3) : 
        Dipole                2.0307 Ry au,          5.1616 Debye
        Dipole field          0.0050 Ry au
 
        Potential amp.       -0.4544 Ry
        Total length         45.8022 bohr
 

     total cpu time spent up to now is      966.5 secs

     total energy              =   -1421.48710264 Ry
     Harris-Foulkes estimate   =   -1421.75145773 Ry
     estimated scf accuracy    <       0.55605295 Ry

     iteration #  2     ecut=    36.75 Ry     beta=0.30
     Davidson diagonalization with overlap
     ethr =  4.03E-04,  avg # of iterations =  9.2

     negative rho (up, down):  3.426E-04 0.000E+00
 
     Adding external electric field

     Computed dipole along edir(3) : 
        Dipole                0.1186 Ry au,          0.3015 Debye
        Dipole field          0.0003 Ry au
 
        Potential amp.       -0.0265 Ry
        Total length         45.8022 bohr
 

     total cpu time spent up to now is      998.4 secs

     total energy              =   -1420.94679050 Ry
     Harris-Foulkes estimate   =   -1422.76153410 Ry
     estimated scf accuracy    <      27.07110999 Ry

     iteration #  3     ecut=    36.75 Ry     beta=0.30
     Davidson diagonalization with overlap
     ethr =  4.03E-04,  avg # of iterations =  5.2

     negative rho (up, down):  4.685E-04 0.000E+00
 
     Adding external electric field

     Computed dipole along edir(3) : 
        Dipole                0.1721 Ry au,          0.4374 Debye
        Dipole field          0.0004 Ry au
 
        Potential amp.       -0.0385 Ry
        Total length         45.8022 bohr
 

     total cpu time spent up to now is     1026.7 secs

     total energy              =   -1421.71624063 Ry
     Harris-Foulkes estimate   =   -1421.83867695 Ry
     estimated scf accuracy    <       1.13833168 Ry

     iteration #  4     ecut=    36.75 Ry     beta=0.30
     Davidson diagonalization with overlap
     ethr =  4.03E-04,  avg # of iterations =  2.0

     negative rho (up, down):  5.485E-04 0.000E+00
 
     Adding external electric field

     Computed dipole along edir(3) : 
        Dipole                0.1191 Ry au,          0.3028 Debye
        Dipole field          0.0003 Ry au
 
        Potential amp.       -0.0267 Ry
        Total length         45.8022 bohr
 

     total cpu time spent up to now is     1051.2 secs

     total energy              =   -1421.74293391 Ry
     Harris-Foulkes estimate   =   -1421.75384400 Ry
     estimated scf accuracy    <       0.23730362 Ry

     iteration #  5     ecut=    36.75 Ry     beta=0.30
     Davidson diagonalization with overlap
     ethr =  1.72E-04,  avg # of iterations =  3.1

     negative rho (up, down):  5.989E-04 0.000E+00
 
     Adding external electric field

     Computed dipole along edir(3) : 
        Dipole                0.0882 Ry au,          0.2241 Debye
        Dipole field          0.0002 Ry au
 
        Potential amp.       -0.0197 Ry
        Total length         45.8022 bohr
 

     total cpu time spent up to now is     1076.2 secs

     total energy              =   -1421.74495720 Ry
     Harris-Foulkes estimate   =   -1421.74739601 Ry
     estimated scf accuracy    <       0.01994650 Ry

     iteration #  6     ecut=    36.75 Ry     beta=0.30
     Davidson diagonalization with overlap
     ethr =  1.45E-05,  avg # of iterations =  6.8

     negative rho (up, down):  5.682E-04 0.000E+00
 
     Adding external electric field

     Computed dipole along edir(3) : 
        Dipole                0.1109 Ry au,          0.2818 Debye
        Dipole field          0.0003 Ry au
 
        Potential amp.       -0.0248 Ry
        Total length         45.8022 bohr
 

     total cpu time spent up to now is     1103.4 secs

     total energy              =   -1421.74599452 Ry
     Harris-Foulkes estimate   =   -1421.74772743 Ry
     estimated scf accuracy    <       0.02790592 Ry

     iteration #  7     ecut=    36.75 Ry     beta=0.30
     Davidson diagonalization with overlap
     ethr =  1.45E-05,  avg # of iterations =  1.0

     negative rho (up, down):  5.834E-04 0.000E+00
 
     Adding external electric field

     Computed dipole along edir(3) : 
        Dipole                0.1059 Ry au,          0.2692 Debye
        Dipole field          0.0003 Ry au
 
        Potential amp.       -0.0237 Ry
        Total length         45.8022 bohr
 

     total cpu time spent up to now is     1127.7 secs

     total energy              =   -1421.74703713 Ry
     Harris-Foulkes estimate   =   -1421.74708325 Ry
     estimated scf accuracy    <       0.00085804 Ry

     iteration #  8     ecut=    36.75 Ry     beta=0.30
     Davidson diagonalization with overlap
     ethr =  6.22E-07,  avg # of iterations =  5.2

     negative rho (up, down):  5.923E-04 0.000E+00
 
     Adding external electric field

     Computed dipole along edir(3) : 
        Dipole                0.1047 Ry au,          0.2661 Debye
        Dipole field          0.0003 Ry au
 
        Potential amp.       -0.0234 Ry
        Total length         45.8022 bohr
 

     total cpu time spent up to now is     1154.4 secs

     total energy              =   -1421.74709056 Ry
     Harris-Foulkes estimate   =   -1421.74710836 Ry
     estimated scf accuracy    <       0.00027150 Ry

     iteration #  9     ecut=    36.75 Ry     beta=0.30
     Davidson diagonalization with overlap
     ethr =  1.97E-07,  avg # of iterations =  1.9

     negative rho (up, down):  6.102E-04 0.000E+00
 
     Adding external electric field

     Computed dipole along edir(3) : 
        Dipole                0.0997 Ry au,          0.2533 Debye
        Dipole field          0.0002 Ry au
 
        Potential amp.       -0.0223 Ry
        Total length         45.8022 bohr
 

     total cpu time spent up to now is     1179.3 secs

     total energy              =   -1421.74705957 Ry
     Harris-Foulkes estimate   =   -1421.74710844 Ry
     estimated scf accuracy    <       0.00046716 Ry

[...]
    -2.6095  -2.5553  -2.5027  -2.4509  -2.3485  -2.2865  -2.1872  -2.0728
    -2.0343  -1.9513  -1.8817  -1.8412  -1.8159  -1.7842  -1.7221  -1.6672
    -1.5331  -1.0307  -0.8970  -0.3452   0.0637   0.3147   0.6301   1.3391
     1.8348   2.3001   3.0728   3.5443   3.7403   4.6207   4.8586

          k = 0.0280-0.0808 0.0000 ( 19376 PWs)   bands (ev):

   -14.0339  -6.9150  -6.4283  -5.8567  -5.3831  -5.2734  -5.1670  -5.0786
    -5.0581  -5.0209  -4.9576  -4.9085  -4.8402  -4.6602  -4.6225  -4.5335
    -4.4483  -4.3961  -4.3012  -4.2568  -4.2098  -4.1009  -4.0816  -3.9736
    -3.9507  -3.8874  -3.8136  -3.7063  -3.6900  -3.6415  -3.5826  -3.5562
    -3.4948  -3.4404  -3.4065  -3.3316  -3.3000  -3.2069  -3.1474  -3.1173
    -3.0914  -3.0295  -3.0070  -2.8547  -2.7695  -2.7582  -2.7013  -2.6664
    -2.6095  -2.5553  -2.5027  -2.4509  -2.3485  -2.2865  -2.1872  -2.0728
    -2.0343  -1.9513  -1.8817  -1.8412  -1.8159  -1.7842  -1.7221  -1.6672
    -1.5331  -1.0307  -0.8970  -0.3452   0.0637   0.3147   0.6301   1.3391
     1.8348   2.3001   3.0728   3.5443   3.7403   4.6207   4.8586

          k = 0.0280-0.0485 0.0000 ( 19345 PWs)   bands (ev):

   -14.0348  -7.3079  -6.6766  -5.7789  -5.6369  -5.5892  -5.5292  -5.3411
    -5.3136  -5.2846  -5.2165  -5.1415  -5.0815  -5.0176  -4.8507  -4.8372
    -4.6118  -4.4050  -4.3317  -4.1601  -4.1250  -4.0064  -3.9298  -3.9031
    -3.8774  -3.8111  -3.7733  -3.6780  -3.6148  -3.6003  -3.5463  -3.4816
    -3.4116  -3.3804  -3.2905  -3.2119  -3.1490  -3.0329  -2.9459  -2.7829
    -2.7670  -2.7215  -2.6809  -2.6019  -2.5830  -2.4768  -2.4701  -2.4297
    -2.4198  -2.3607  -2.2353  -2.1965  -2.1599  -2.0937  -2.0164  -1.9448
    -1.8940  -1.8278  -1.8211  -1.7805  -1.7183  -1.6801  -1.6319  -1.2765
    -1.0982  -1.0851  -0.5006  -0.4207   0.2430   0.3149   0.5057   1.9651
     2.1081   2.2359   2.2806   2.8593   3.2146   3.8846   4.7592

          k = 0.0560-0.0323 0.0000 ( 19389 PWs)   bands (ev):

   -14.0345  -7.1689  -6.6470  -5.8129  -5.6378  -5.4159  -5.3514  -5.3162
    -5.2386  -5.2024  -5.1612  -5.0656  -5.0075  -4.9621  -4.8547  -4.5819
    -4.5298  -4.3994  -4.3300  -4.2190  -4.1286  -4.0952  -3.9359  -3.9028
    -3.8645  -3.7692  -3.7676  -3.7298  -3.5807  -3.5538  -3.4995  -3.4649
    -3.4208  -3.4042  -3.3687  -3.3201  -3.1456  -3.0698  -2.9724  -2.8688
    -2.8117  -2.7740  -2.7155  -2.7107  -2.6858  -2.6755  -2.6310  -2.5969
    -2.4871  -2.3462  -2.3189  -2.3130  -2.2016  -2.1881  -2.1238  -2.0734
    -2.0445  -1.9776  -1.9437  -1.7991  -1.7567  -1.7059  -1.6613  -1.5478
    -1.4610  -0.8918  -0.2311   0.0165   0.2958   0.3847   0.4738   1.3306
     1.6156   1.8275   2.7572   3.4687   3.8942   4.3140   4.3832

          k = 0.0560 0.0000 0.0000 ( 19345 PWs)   bands (ev):

   -14.0348  -7.3079  -6.6766  -5.7789  -5.6369  -5.5892  -5.5292  -5.3411
    -5.3136  -5.2846  -5.2165  -5.1415  -5.0815  -5.0176  -4.8507  -4.8372
    -4.6118  -4.4050  -4.3317  -4.1601  -4.1250  -4.0064  -3.9298  -3.9031
    -3.8774  -3.8111  -3.7733  -3.6780  -3.6148  -3.6003  -3.5463  -3.4816
    -3.4116  -3.3804  -3.2905  -3.2119  -3.1490  -3.0329  -2.9459  -2.7829
    -2.7670  -2.7215  -2.6809  -2.6019  -2.5830  -2.4768  -2.4701  -2.4297
    -2.4198  -2.3607  -2.2353  -2.1965  -2.1599  -2.0937  -2.0164  -1.9448
    -1.8940  -1.8278  -1.8211  -1.7805  -1.7183  -1.6801  -1.6319  -1.2765
    -1.0982  -1.0851  -0.5006  -0.4207   0.2430   0.3149   0.5057   1.9651
     2.1081   2.2359   2.2806   2.8593   3.2146   3.8846   4.7592

          k = 0.0560 0.0323 0.0000 ( 19389 PWs)   bands (ev):

   -14.0345  -7.1689  -6.6470  -5.8129  -5.6378  -5.4159  -5.3514  -5.3162
    -5.2386  -5.2024  -5.1612  -5.0656  -5.0075  -4.9621  -4.8547  -4.5819
    -4.5298  -4.3994  -4.3300  -4.2190  -4.1286  -4.0952  -3.9359  -3.9028
    -3.8645  -3.7692  -3.7676  -3.7298  -3.5807  -3.5538  -3.4995  -3.4649
    -3.4208  -3.4042  -3.3687  -3.3201  -3.1456  -3.0698  -2.9724  -2.8688
    -2.8117  -2.7740  -2.7155  -2.7107  -2.6858  -2.6755  -2.6310  -2.5969
    -2.4871  -2.3462  -2.3189  -2.3130  -2.2016  -2.1881  -2.1238  -2.0734
    -2.0445  -1.9776  -1.9437  -1.7991  -1.7567  -1.7059  -1.6613  -1.5478
    -1.4610  -0.8918  -0.2311   0.0165   0.2958   0.3847   0.4738   1.3306
     1.6156   1.8275   2.7572   3.4687   3.8942   4.3140   4.3832

          k = 0.0560-0.1294 0.0000 ( 19376 PWs)   bands (ev):

   -14.0339  -6.9150  -6.4283  -5.8567  -5.3831  -5.2734  -5.1670  -5.0786
    -5.0581  -5.0209  -4.9576  -4.9085  -4.8402  -4.6602  -4.6225  -4.5335
    -4.4483  -4.3961  -4.3012  -4.2568  -4.2098  -4.1009  -4.0816  -3.9736
    -3.9507  -3.8874  -3.8136  -3.7063  -3.6900  -3.6415  -3.5826  -3.5562
    -3.4948  -3.4404  -3.4065  -3.3316  -3.3000  -3.2069  -3.1474  -3.1173
    -3.0914  -3.0295  -3.0070  -2.8547  -2.7695  -2.7582  -2.7013  -2.6664
    -2.6095  -2.5553  -2.5027  -2.4509  -2.3485  -2.2865  -2.1872  -2.0728
    -2.0343  -1.9513  -1.8817  -1.8412  -1.8159  -1.7842  -1.7221  -1.6672
    -1.5331  -1.0307  -0.8970  -0.3452   0.0637   0.3147   0.6301   1.3391
     1.8348   2.3001   3.0728   3.5443   3.7403   4.6207   4.8586

          k = 0.0560-0.0970 0.0000 ( 19365 PWs)   bands (ev):

   -14.0336  -6.8474  -5.8958  -5.8949  -5.7539  -4.9827  -4.9525  -4.9263
    -4.8668  -4.8473  -4.7299  -4.7201  -4.7020  -4.6618  -4.6242  -4.6126
    -4.5219  -4.3277  -4.2393  -4.2236  -4.2155  -4.1807  -4.1730  -4.0621
    -4.0585  -3.9875  -3.9776  -3.8381  -3.8161  -3.7991  -3.7343  -3.6649
    -3.6046  -3.5490  -3.3867  -3.3391  -3.3385  -3.3177  -3.2818  -3.2795
    -3.2504  -3.2013  -2.9400  -2.8419  -2.7472  -2.7075  -2.7022  -2.6652
    -2.5610  -2.4482  -2.4217  -2.4085  -2.2821  -2.0912  -2.0746  -2.0019
    -1.9734  -1.9717  -1.9021  -1.8927  -1.8798  -1.8632  -1.8352  -1.8145
    -1.7041  -1.4382  -1.3660  -0.5787   0.0839   0.1211   0.9740   0.9803
     1.8672   3.0804   3.2651   3.3613   4.4324   4.4612   4.9498

          k = 0.0560-0.0647 0.0000 ( 19376 PWs)   bands (ev):

   -14.0339  -6.9150  -6.4283  -5.8567  -5.3831  -5.2734  -5.1670  -5.0786
    -5.0581  -5.0209  -4.9576  -4.9085  -4.8402  -4.6602  -4.6225  -4.5335
    -4.4483  -4.3961  -4.3012  -4.2568  -4.2098  -4.1009  -4.0816  -3.9736
    -3.9507  -3.8874  -3.8136  -3.7063  -3.6900  -3.6415  -3.5826  -3.5562
    -3.4948  -3.4404  -3.4065  -3.3316  -3.3000  -3.2069  -3.1474  -3.1173
    -3.0914  -3.0295  -3.0070  -2.8547  -2.7695  -2.7582  -2.7013  -2.6664
    -2.6095  -2.5553  -2.5027  -2.4509  -2.3485  -2.2865  -2.1872  -2.0728
    -2.0343  -1.9513  -1.8817  -1.8412  -1.8159  -1.7842  -1.7221  -1.6672
    -1.5331  -1.0307  -0.8970  -0.3452   0.0637   0.3147   0.6301   1.3391
     1.8348   2.3001   3.0728   3.5443   3.7403   4.6207   4.8586

          k =-0.0840 0.0485 0.0000 ( 19380 PWs)   bands (ev):

   -14.0339  -6.8938  -6.3279  -6.1659  -5.3144  -5.2573  -5.1398  -5.0628
    -5.0381  -5.0318  -5.0282  -4.9496  -4.7102  -4.6540  -4.5727  -4.5346
    -4.4307  -4.3749  -4.2575  -4.2530  -4.1969  -4.1213  -4.1212  -3.9880
    -3.9020  -3.7667  -3.7551  -3.7181  -3.6070  -3.5519  -3.4841  -3.4410
    -3.3966  -3.3958  -3.3669  -3.3286  -3.2678  -3.2339  -3.2247  -3.2209
    -3.1915  -3.1292  -2.9989  -2.9734  -2.8520  -2.7348  -2.7095  -2.6620
    -2.6570  -2.6048  -2.5529  -2.5069  -2.5045  -2.4815  -2.3474  -2.2141
    -2.1921  -2.1168  -1.8423  -1.8117  -1.7883  -1.7591  -1.7234  -1.5933
    -1.5429  -0.8781  -0.2176  -0.0077   0.2293   0.4505   0.6375   0.9512
     1.5691   1.7095   3.3530   3.4475   3.8031   4.4745   5.5681

          k =-0.0840 0.0808 0.0000 ( 19376 PWs)   bands (ev):

   -14.0339  -6.9150  -6.4283  -5.8567  -5.3831  -5.2734  -5.1670  -5.0786
    -5.0581  -5.0209  -4.9576  -4.9085  -4.8402  -4.6602  -4.6225  -4.5335
    -4.4483  -4.3961  -4.3012  -4.2568  -4.2098  -4.1009  -4.0816  -3.9736
    -3.9507  -3.8874  -3.8136  -3.7063  -3.6900  -3.6415  -3.5826  -3.5562
    -3.4948  -3.4404  -3.4065  -3.3316  -3.3000  -3.2069  -3.1474  -3.1173
    -3.0914  -3.0295  -3.0070  -2.8547  -2.7695  -2.7582  -2.7013  -2.6664
    -2.6095  -2.5553  -2.5027  -2.4509  -2.3485  -2.2865  -2.1872  -2.0728
    -2.0343  -1.9513  -1.8817  -1.8412  -1.8159  -1.7842  -1.7221  -1.6672
    -1.5331  -1.0307  -0.8970  -0.3452   0.0637   0.3147   0.6301   1.3391
     1.8348   2.3001   3.0728   3.5443   3.7403   4.6207   4.8586

          k =-0.0840 0.1132 0.0000 ( 19376 PWs)   bands (ev):

   -14.0339  -6.9150  -6.4283  -5.8567  -5.3831  -5.2734  -5.1670  -5.0786
    -5.0581  -5.0209  -4.9576  -4.9085  -4.8402  -4.6602  -4.6225  -4.5335
    -4.4483  -4.3961  -4.3012  -4.2568  -4.2098  -4.1009  -4.0816  -3.9736
    -3.9507  -3.8874  -3.8136  -3.7063  -3.6900  -3.6415  -3.5826  -3.5562
    -3.4948  -3.4404  -3.4065  -3.3316  -3.3000  -3.2069  -3.1474  -3.1173
    -3.0914  -3.0295  -3.0070  -2.8547  -2.7695  -2.7582  -2.7013  -2.6664
    -2.6095  -2.5553  -2.5027  -2.4509  -2.3485  -2.2865  -2.1872  -2.0728
    -2.0343  -1.9513  -1.8817  -1.8412  -1.8159  -1.7842  -1.7221  -1.6672
    -1.5331  -1.0307  -0.8970  -0.3452   0.0637   0.3147   0.6301   1.3391
     1.8348   2.3001   3.0728   3.5443   3.7403   4.6207   4.8586

          k =-0.0840-0.0485 0.0000 ( 19380 PWs)   bands (ev):

   -14.0339  -6.8938  -6.3279  -6.1659  -5.3144  -5.2573  -5.1397  -5.0628
    -5.0381  -5.0318  -5.0282  -4.9496  -4.7102  -4.6540  -4.5727  -4.5346
    -4.4307  -4.3749  -4.2575  -4.2530  -4.1969  -4.1213  -4.1212  -3.9880
    -3.9020  -3.7667  -3.7551  -3.7181  -3.6070  -3.5519  -3.4841  -3.4410
    -3.3966  -3.3958  -3.3669  -3.3286  -3.2678  -3.2339  -3.2247  -3.2209
    -3.1915  -3.1292  -2.9989  -2.9734  -2.8519  -2.7348  -2.7095  -2.6620
    -2.6570  -2.6048  -2.5529  -2.5069  -2.5045  -2.4815  -2.3474  -2.2141
    -2.1921  -2.1168  -1.8423  -1.8117  -1.7883  -1.7591  -1.7234  -1.5933
    -1.5429  -0.8781  -0.2176  -0.0077   0.2293   0.4505   0.6375   0.9512
     1.5691   1.7095   3.3530   3.4475   3.8031   4.4745   5.5681

     the Fermi energy is     0.2974 ev

!    total energy              =   -1421.75804589 Ry
     Harris-Foulkes estimate   =   -1421.75804580 Ry
     estimated scf accuracy    <       0.00000005 Ry

     The total energy is the sum of the following terms:

     one-electron contribution =   -8235.91372975 Ry
     hartree contribution      =    4216.86956919 Ry
     xc contribution           =    -774.26347369 Ry
     ewald contribution        =    3371.58933398 Ry
     electric field correction =       0.00001052 Ry
     smearing contrib. (-TS)   =      -0.03975614 Ry

     convergence has been achieved in   7 iterations
 
 BEEF-vdW xc energy contributions
           1 :   -691.871639691087     
           2 :    642.867571686267     
           3 :   -555.373261369726     
           4 :    446.485943673137     
           5 :   -334.521624409136     
           6 :    234.315713939789     
           7 :   -154.485493869710     
           8 :    97.0424073358946     
           9 :   -59.0254698188864     
          10 :    35.1538327410336     
          11 :   -20.3198848755558     
          12 :    11.0122857697962     
          13 :   -5.44718337038887     
          14 :    2.79921113092644     
          15 :   -2.26037163937940     
          16 :    2.53945078911829     
          17 :   -2.03472714351255     
          18 :  -0.534569632076000     
          19 :    5.47546748703257     
          20 :   -11.8756136667279     
          21 :    17.9443554649943     
          22 :   -21.8040361199348     
          23 :    22.3316326419383     
          24 :   -19.6346742355233     
          25 :    14.9414526864136     
          26 :   -9.99522377014432     
          27 :    6.27650245250197     
          28 :   -4.44487586817104     
          29 :    4.23866570716314     
          30 :   -4.82438849292521     
          31 :   -54.8496577233498     
          32 :   -39.9283815263484     

     Forces acting on atoms (Ry/au):


     negative rho (up, down):  5.972E-04 0.000E+00
     atom    1 type  1   force =    -0.00048451   -0.00027971   -0.00476003
     atom    2 type  1   force =     0.00048449   -0.00027973   -0.00475999
     atom    3 type  1   force =     0.00000001    0.00055946   -0.00476003
     atom    4 type  1   force =     0.00000001   -0.00000001    0.00138415
     atom    5 type  1   force =    -0.00000006   -0.00360366    0.00424418
     atom    6 type  1   force =     0.00000006   -0.00000004   -0.00002503
     atom    7 type  1   force =     0.00312086    0.00180187    0.00424413
     atom    8 type  1   force =    -0.00312083    0.00180180    0.00424445
     atom    9 type  1   force =    -0.00000011    0.00000039   -0.00024051
     atom   10 type  1   force =    -0.00000023   -0.00103657    0.00019723
     atom   11 type  1   force =    -0.00089774    0.00051815    0.00019740
     atom   12 type  1   force =     0.00089778    0.00051841    0.00019719
     atom   13 type  2   force =     0.00000077   -0.00000104   -0.00020913
     atom   14 type  3   force =    -0.00000048    0.00000068    0.00004598

     Total force =     0.001856     Total SCF correction =     0.000837
     SCF correction compared to forces is large: reduce conv_thr to get better values


     entering subroutine stress ...


     negative rho (up, down):  5.972E-04 0.000E+00
          total   stress  (Ry/bohr**3)                   (kbar)     P=   -8.67
  -0.00009302  -0.00000000   0.00000000        -13.68     -0.00      0.00
  -0.00000000  -0.00009302  -0.00000000         -0.00    -13.68     -0.00
   0.00000000  -0.00000000   0.00000915          0.00     -0.00      1.35


     bfgs converged in  14 scf cycles and  12 bfgs steps
     (criteria: energy <  1.0E+00, force <  1.9E-03)

     End of BFGS Geometry Optimization

     Final energy   =   -1421.7580458920 Ry
Begin final coordinates

ATOMIC_POSITIONS (crystal)
Au1      0.166666667   0.166666667   0.402269971    0   0   0
Au1      0.666666667   0.166666667   0.402269971    0   0   0
Au1      0.166666667   0.666666667   0.402269971    0   0   0
Au1      0.666666667   0.666666667   0.402269971    0   0   0
Au1      0.833333333   0.333333333   0.500000000    0   0   0
Au1      0.333333333   0.333333333   0.500000000    0   0   0
Au1      0.833333333   0.833333333   0.500000000    0   0   0
Au1      0.333333333   0.833333333   0.500000000    0   0   0
Au1     -0.000000354   0.000000244   0.597048749
Au1      0.499291523   0.001417113   0.597097717
Au1      0.001416998   0.499291548   0.597097644
Au1      0.499291261   0.499291328   0.597097728
N1       0.000000816  -0.000000652   0.676707156
H1      -0.000000379   0.000000517   0.717844496
End final coordinates



     Writing output data file calc.save
 
     init_run     :     14.52s CPU     14.85s WALL (       1 calls)
     electrons    :   4147.35s CPU   4382.44s WALL (      14 calls)
     update_pot   :     42.35s CPU     43.61s WALL (      13 calls)
     forces       :    361.01s CPU    382.13s WALL (      14 calls)
     stress       :   1142.42s CPU   1218.44s WALL (      14 calls)

     Called by init_run:
     wfcinit      :      3.87s CPU      3.94s WALL (       1 calls)
     potinit      :      2.00s CPU      2.12s WALL (       1 calls)

     Called by electrons:
     c_bands      :   1127.08s CPU   1165.52s WALL (     129 calls)
     sum_band     :    999.83s CPU   1058.79s WALL (     129 calls)
     v_of_rho     :    221.30s CPU    240.75s WALL (     141 calls)
     newd         :   1129.04s CPU   1144.58s WALL (     141 calls)
     mix_rho      :      7.38s CPU      7.59s WALL (     129 calls)
     vdW_energy   :    143.72s CPU    158.86s WALL (     645 calls)
     vdW_ffts     :    362.30s CPU    378.56s WALL (    1318 calls)
     vdW_v        :    132.52s CPU    137.51s WALL (     645 calls)

     Called by c_bands:
     init_us_2    :     10.93s CPU     10.99s WALL (    1435 calls)
     cegterg      :   1001.50s CPU   1020.23s WALL (     645 calls)

     Called by *egterg:
     h_psi        :    700.75s CPU    714.22s WALL (    2728 calls)
     s_psi        :     81.62s CPU     81.84s WALL (    2728 calls)
     g_psi        :      3.71s CPU      3.72s WALL (    2078 calls)
     cdiaghg      :     58.74s CPU     59.20s WALL (    2648 calls)

     Called by h_psi:
     add_vuspsi   :     83.16s CPU     83.36s WALL (    2728 calls)

     General routines
     calbec       :    130.54s CPU    132.63s WALL (    3513 calls)
     fft          :    543.71s CPU    577.91s WALL (   38769 calls)
     ffts         :      0.50s CPU      0.54s WALL (     270 calls)
     fftw         :    417.34s CPU    432.18s WALL (  299905 calls)
     interpolate  :      4.89s CPU      5.01s WALL (     270 calls)
     davcio       :      0.00s CPU      0.03s WALL (       5 calls)
 
     Parallel routines
     fft_scatter  :    570.48s CPU    615.39s WALL (  338944 calls)
 
     PWSCF        :     1h36m CPU        1h42m WALL

 
   This run was terminated on:  13:36:10  16Apr2018            

=------------------------------------------------------------------------------=
   JOB DONE.
=------------------------------------------------------------------------------=
Job  /afs/slac/g/suncat/bin/suncat-tsmpirun -x LD_LIBRARY_PATH -wdir /scratch/qe120824_SHiTK pw.x -npool 4 -in pw.inp

TID   HOST_NAME   COMMAND_LINE            STATUS            TERMINATION_TIME
===== ========== ================  =======================  ===================
00000 suncat0087 pw.x -npool 4 -i  Done                     04/16/2018 13:36:10
00001 suncat0087 pw.x -npool 4 -i  Done                     04/16/2018 13:36:10
00002 suncat0087 pw.x -npool 4 -i  Done                     04/16/2018 13:36:10
00003 suncat0087 pw.x -npool 4 -i  Done                     04/16/2018 13:36:10
00004 suncat0087 pw.x -npool 4 -i  Done                     04/16/2018 13:36:10
00005 suncat0087 pw.x -npool 4 -i  Done                     04/16/2018 13:36:10
00006 suncat0087 pw.x -npool 4 -i  Done                     04/16/2018 13:36:10
00007 suncat0087 pw.x -npool 4 -i  Done                     04/16/2018 13:36:10
00008 suncat0086 pw.x -npool 4 -i  Done                     04/16/2018 13:36:10
00009 suncat0086 pw.x -npool 4 -i  Done                     04/16/2018 13:36:10
00010 suncat0086 pw.x -npool 4 -i  Done                     04/16/2018 13:36:10
00011 suncat0086 pw.x -npool 4 -i  Done                     04/16/2018 13:36:10
00012 suncat0086 pw.x -npool 4 -i  Done                     04/16/2018 13:36:10
00013 suncat0086 pw.x -npool 4 -i  Done                     04/16/2018 13:36:10
00014 suncat0086 pw.x -npool 4 -i  Done                     04/16/2018 13:36:10
00015 suncat0086 pw.x -npool 4 -i  Done                     04/16/2018 13:36:10
00016 suncat0046 pw.x -npool 4 -i  Done                     04/16/2018 13:36:10
00017 suncat0046 pw.x -npool 4 -i  Done                     04/16/2018 13:36:10
00018 suncat0046 pw.x -npool 4 -i  Done                     04/16/2018 13:36:10
00019 suncat0046 pw.x -npool 4 -i  Done                     04/16/2018 13:36:10
00020 suncat0046 pw.x -npool 4 -i  Done                     04/16/2018 13:36:10
00021 suncat0046 pw.x -npool 4 -i  Done                     04/16/2018 13:36:10
00022 suncat0046 pw.x -npool 4 -i  Done                     04/16/2018 13:36:10
00023 suncat0046 pw.x -npool 4 -i  Done                     04/16/2018 13:36:10
00024 suncat0036 pw.x -npool 4 -i  Done                     04/16/2018 13:36:10
00025 suncat0036 pw.x -npool 4 -i  Done                     04/16/2018 13:36:10
00026 suncat0036 pw.x -npool 4 -i  Done                     04/16/2018 13:36:10
00027 suncat0036 pw.x -npool 4 -i  Done                     04/16/2018 13:36:10
00028 suncat0036 pw.x -npool 4 -i  Done                     04/16/2018 13:36:10
00029 suncat0036 pw.x -npool 4 -i  Done                     04/16/2018 13:36:10
00030 suncat0036 pw.x -npool 4 -i  Done                     04/16/2018 13:36:10
00031 suncat0036 pw.x -npool 4 -i  Done                     04/16/2018 13:36:10
