  python dir          : /home/users/mamunm/src/espresso
  espresso dir        : /home/users/vossj/suncat/s2/qe5/bin
  pseudo dir          : /home/users/mamunm/src/pseudo/gbrv1.5pbe
  ase-espresso py git : GITVERSION



     Program PWSCF v.5.1rc2 starts on 11Jul2018 at 20:46:47 

     This program is part of the open-source Quantum ESPRESSO suite
     for quantum simulation of materials; please cite
         "P. Giannozzi et al., J. Phys.:Condens. Matter 21 395502 (2009);
          URL http://www.quantum-espresso.org", 
     in publications or presentations arising from this work. More details at
     http://www.quantum-espresso.org/quote

     Parallel version (MPI), running on    20 processors
     R & G space division:  proc/nbgrp/npool/nimage =      20
     Reading input from pw.inp
     Message from routine read_cards :
     DEPRECATED: no units specified in CELL_PARAMETERS card

     Current dimensions of program PWSCF are:
     Max number of different atomic species (ntypx) = 10
     Max number of k-points (npk) =  40000
     Max angular momentum in pseudopotentials (lmaxx) =  3
     Presently stress not available with electric field


     **************************************************************************
     Initializing libbeef V0.1.2 with the BEEF-vdW functional.
     Citation: Wellendorff et al., PRB 85, 235149 (2012).
     **************************************************************************


     IMPORTANT: XC functional enforced from input :
     Exchange-correlation      = BEEF-VDW ( 1  4 27 13 2)
     Any further DFT definition will be discarded
     Please, verify this is what you really want


     Subspace diagonalization in iterative solution of the eigenvalue problem:
     scalapack distributed-memory algorithm (size of sub-group:  3*  3 procs)

 
     Parallelization info
     --------------------
     sticks:   dense  smooth     PW     G-vecs:    dense   smooth      PW
     Min         120      47     14                22568     5693     918
     Max         121      48     15                22597     5728     933
     Sum        2407     955    295               451581   114207   18427
 
     Generating pointlists ...
     new r_m :   0.4125 (alat units)  0.7795 (a.u.) for type    1
     new r_m :   0.4125 (alat units)  0.7795 (a.u.) for type    2
     new r_m :   0.4125 (alat units)  0.7795 (a.u.) for type    3


     bravais-lattice index     =            0
     lattice parameter (alat)  =       1.8897  a.u.
     unit-cell volume          =    3797.2497 (a.u.)^3
     number of atoms/cell      =           16
     number of atomic types    =            3
     number of electrons       =       199.00
     number of Kohn-Sham states=          109
     kinetic-energy cutoff     =      36.7493  Ry
     charge density cutoff     =     367.4932  Ry
     convergence threshold     =      1.0E-05
     mixing beta               =       0.3000
     number of iterations used =           10  plain     mixing
     Exchange-correlation      = BEEF-VDW ( 1  4 27 13 2)
     nstep                     =           50


     celldm(1)=   1.889726  celldm(2)=   0.000000  celldm(3)=   0.000000
     celldm(4)=   0.000000  celldm(5)=   0.000000  celldm(6)=   0.000000

     crystal axes: (cart. coord. in units of alat)
               a(1) = (   5.178568   0.000000   0.000000 )  
               a(2) = (   2.589284   4.484771   0.000000 )  
               a(3) = (   0.000000   0.000000  24.228283 )  

     reciprocal axes: (cart. coord. in units 2 pi/alat)
               b(1) = (  0.193104 -0.111488  0.000000 )  
               b(2) = (  0.000000  0.222977  0.000000 )  
               b(3) = (  0.000000  0.000000  0.041274 )  


     PseudoPot. # 1 for Fe read from file:
     /home/users/mamunm/src/pseudo/gbrv1.5pbe/Fe.UPF
     MD5 check sum: a130daea23fe5165f5d574ae7f82ed95
     Pseudo is Ultrasoft + core correction, Zval = 16.0
     Generated by new atomic code, or converted to UPF format
     Using radial grid of  861 points,  6 beta functions with: 
                l(1) =   0
                l(2) =   0
                l(3) =   1
                l(4) =   1
                l(5) =   2
                l(6) =   2
     Q(r) pseudized with  8 coefficients,  rinner =    1.000   1.000   1.000
                                                       1.000   1.000

     PseudoPot. # 2 for C  read from file:
     /home/users/mamunm/src/pseudo/gbrv1.5pbe/C.UPF
     MD5 check sum: d1aef80898a10debaa0f26306b886e00
     Pseudo is Ultrasoft + core correction, Zval =  4.0
     Generated by new atomic code, or converted to UPF format
     Using radial grid of  721 points,  4 beta functions with: 
                l(1) =   0
                l(2) =   0
                l(3) =   1
                l(4) =   1
     Q(r) pseudized with  8 coefficients,  rinner =    1.100   1.100   1.100


     PseudoPot. # 3 for H  read from file:
     /home/users/mamunm/src/pseudo/gbrv1.5pbe/H.UPF
     MD5 check sum: 761ae9a214b05c3daf00ab9f6b793d6f
     Pseudo is Ultrasoft, Zval =  1.0
     Generated by new atomic code, or converted to UPF format
     Using radial grid of  615 points,  2 beta functions with: 
                l(1) =   0
                l(2) =   0
     Q(r) pseudized with  8 coefficients,  rinner =    0.700

     vdW kernel table read from file vdW_kernel_table
     MD5 check sum: 095c7af220d748ca6e76c0b4c6cfb241

     atomic species   valence    mass     pseudopotential
        Fe1           16.00    55.84500     Fe( 1.00)
        C1             4.00    12.01100     C ( 1.00)
        H1             1.00     1.00800     H ( 1.00)

     Starting magnetic structure 
     atomic species   magnetization
        Fe1          0.125
        C1           0.000
        H1           0.000

     No symmetry found



   Cartesian axes

     site n.     atom                  positions (alat units)
         1           Fe1 tau(   1) = (   1.2946419   0.7474618  10.0000000  )
         2           Fe1 tau(   2) = (   3.8839257   0.7474618  10.0000000  )
         3           Fe1 tau(   3) = (   2.5892838   2.9898474  10.0000000  )
         4           Fe1 tau(   4) = (   5.1785676   2.9898474  10.0000000  )
         5           Fe1 tau(   5) = (   5.1785676   1.4949237  12.1141414  )
         6           Fe1 tau(   6) = (   2.5892838   1.4949237  12.1141414  )
         7           Fe1 tau(   7) = (   6.4732095   3.7373092  12.1141414  )
         8           Fe1 tau(   8) = (   3.8839257   3.7373092  12.1141414  )
         9           Fe1 tau(   9) = (   0.0000000   0.0000000  14.2282827  )
        10           Fe1 tau(  10) = (   2.5892838   0.0000000  14.2282827  )
        11           Fe1 tau(  11) = (   1.2946419   2.2423855  14.2282827  )
        12           Fe1 tau(  12) = (   3.8839257   2.2423855  14.2282827  )
        13           C1  tau(  13) = (   1.2946419   0.0000000  15.7882827  )
        14           H1  tau(  14) = (   2.3846419   0.0000000  16.4182827  )
        15           H1  tau(  15) = (   0.8446419   0.8895000  16.4182827  )
        16           H1  tau(  16) = (   3.4339257   3.5952711  16.4182827  )

     number of k points=    40  Fermi-Dirac smearing, width (Ry)=  0.0110
                       cart. coord. in units 2pi/alat
        k(    1) = (   0.0000000   0.0000000   0.0000000), wk =   0.0277778
        k(    2) = (   0.0000000   0.0371628   0.0000000), wk =   0.0555556
        k(    3) = (   0.0000000   0.0743256   0.0000000), wk =   0.0555556
        k(    4) = (   0.0000000  -0.1114884   0.0000000), wk =   0.0277778
        k(    5) = (   0.0321839  -0.0185814   0.0000000), wk =   0.0555556
        k(    6) = (   0.0321839   0.0185814   0.0000000), wk =   0.0555556
        k(    7) = (   0.0321839   0.0557442   0.0000000), wk =   0.0555556
        k(    8) = (   0.0321839  -0.1300698   0.0000000), wk =   0.0555556
        k(    9) = (   0.0321839  -0.0929070   0.0000000), wk =   0.0555556
        k(   10) = (   0.0321839  -0.0557442   0.0000000), wk =   0.0555556
        k(   11) = (   0.0643679  -0.0371628   0.0000000), wk =   0.0555556
        k(   12) = (   0.0643679  -0.0000000   0.0000000), wk =   0.0555556
        k(   13) = (   0.0643679   0.0371628   0.0000000), wk =   0.0555556
        k(   14) = (   0.0643679  -0.1486512   0.0000000), wk =   0.0555556
        k(   15) = (   0.0643679  -0.1114884   0.0000000), wk =   0.0555556
        k(   16) = (   0.0643679  -0.0743256   0.0000000), wk =   0.0555556
        k(   17) = (  -0.0965518   0.0557442   0.0000000), wk =   0.0277778
        k(   18) = (  -0.0965518   0.0929070   0.0000000), wk =   0.0555556
        k(   19) = (  -0.0965518   0.1300698   0.0000000), wk =   0.0555556
        k(   20) = (  -0.0965518  -0.0557442   0.0000000), wk =   0.0277778
        k(   21) = (   0.0000000   0.0000000   0.0000000), wk =   0.0277778
        k(   22) = (   0.0000000   0.0371628   0.0000000), wk =   0.0555556
        k(   23) = (   0.0000000   0.0743256   0.0000000), wk =   0.0555556
        k(   24) = (   0.0000000  -0.1114884   0.0000000), wk =   0.0277778
        k(   25) = (   0.0321839  -0.0185814   0.0000000), wk =   0.0555556
        k(   26) = (   0.0321839   0.0185814   0.0000000), wk =   0.0555556
        k(   27) = (   0.0321839   0.0557442   0.0000000), wk =   0.0555556
        k(   28) = (   0.0321839  -0.1300698   0.0000000), wk =   0.0555556
        k(   29) = (   0.0321839  -0.0929070   0.0000000), wk =   0.0555556
        k(   30) = (   0.0321839  -0.0557442   0.0000000), wk =   0.0555556
        k(   31) = (   0.0643679  -0.0371628   0.0000000), wk =   0.0555556
        k(   32) = (   0.0643679  -0.0000000   0.0000000), wk =   0.0555556
        k(   33) = (   0.0643679   0.0371628   0.0000000), wk =   0.0555556
        k(   34) = (   0.0643679  -0.1486512   0.0000000), wk =   0.0555556
        k(   35) = (   0.0643679  -0.1114884   0.0000000), wk =   0.0555556
        k(   36) = (   0.0643679  -0.0743256   0.0000000), wk =   0.0555556
        k(   37) = (  -0.0965518   0.0557442   0.0000000), wk =   0.0277778
        k(   38) = (  -0.0965518   0.0929070   0.0000000), wk =   0.0555556
        k(   39) = (  -0.0965518   0.1300698   0.0000000), wk =   0.0555556
        k(   40) = (  -0.0965518  -0.0557442   0.0000000), wk =   0.0277778

     Dense  grid:   451581 G-vectors     FFT dimensions: (  60,  60, 288)

     Smooth grid:   114207 G-vectors     FFT dimensions: (  40,  40, 180)

     Largest allocated arrays     est. size (Mb)     dimensions
        Kohn-Sham Wavefunctions         1.22 Mb     (     732,  109)
        NL pseudopotentials             2.57 Mb     (     732,  230)
        Each V/rho on FFT grid          1.65 Mb     (   54000,   2)
        Each G-vector array             0.17 Mb     (   22576)
        G-vector shells                 0.07 Mb     (    9468)
     Largest temporary arrays     est. size (Mb)     dimensions
        Auxiliary wavefunctions         4.87 Mb     (     732,  436)
        Each subspace H/S matrix        0.32 Mb     (     145,  145)
        Each <psi_i|beta_j> matrix      0.38 Mb     (     230,  109)
        Arrays for rho mixing           8.24 Mb     (   54000,   10)

     Check: negative/imaginary core charge=   -0.000008    0.000000

     Initial potential from superposition of free atoms
     Check: negative starting charge=(component1):   -0.000102

     starting charge  186.99986, renormalised to  199.00000

     negative rho (up, down):  1.082E-04 8.844E-05


     ************************************************************************
     *
     * You are using vdW-DF for exchange-correlation in this calculation.
     * Please cite the following three references that made this development
     * possible:
     *
     *   M. Dion, H. Rydberg, E. Schroder, D. C. Langreth, and
     *   B. I. Lundqvist, Phys. Rev. Lett. 92, 246401 (2004).
     *
     *   T. Thonhauser, V. R. Cooper, S. Li, A. Puzder, P. Hyldgaard, and
     *   D. C. Langreth, Phys. Rev. B 76, 125112 (2007).
     *
     *   G. Roman-Perez and J. M. Soler, Phys. Rev. Lett. 103, 096102 (2009).
     *
     *
     * If you are using vdW-DF2, please also cite:
     *
     *   K. Lee, E. D. Murray, L. Kong, B. I. Lundqvist, and
     *   D. C. Langreth, Phys. Rev. B 82, 081101(R) (2010).
     *
     *
     * If you are calculating the stress with vdW-DF, please also cite:
     *
     *   R. Sabatini, E. Kucukbenli, B. Kolb, T. Thonhauser, and
     *   S. de Gironcoli, J. Phys.: Condens. Matter 24, 424209 (2012).
     *
     ************************************************************************

     Carrying out vdW-DF run using the following parameters:

     Nqs =      20    Nr_points =    1024   r_max =   100.000
     q_mesh =
               0.00001000     0.04494208     0.09755937     0.15916263
               0.23128650     0.31572767     0.41458969     0.53033537
               0.66584808     0.82450364     1.01025438     1.22772762
               1.48234092     1.78043706     2.12944203     2.53805004
               3.01644009     3.57652955     4.23227104     5.00000000

     Gradients computed in reciprocal space

     ************************************************************************


 
     Adding external electric field

     Computed dipole along edir(3) : 
        Dipole               -3.3475 Ry au,         -8.5086 Debye
        Dipole field         -0.0111 Ry au
 
        Potential amp.        0.9891 Ry
        Total length         44.6402 bohr
 
 
     Adding external electric field

     Computed dipole along edir(3) : 
        Dipole               -3.3475 Ry au,         -8.5086 Debye
        Dipole field         -0.0111 Ry au
 
        Potential amp.        0.9891 Ry
        Total length         44.6402 bohr
 
     Starting wfc are  163 randomized atomic wfcs

     total cpu time spent up to now is        7.5 secs

     per-process dynamical memory:    49.4 Mb

     Self-consistent Calculation

     iteration #  1     ecut=    36.75 Ry     beta=0.30
     Davidson diagonalization with overlap
     ethr =  1.00E-02,  avg # of iterations =  6.9

     negative rho (up, down):  2.395E-05 2.267E-05
 
     Adding external electric field

     Computed dipole along edir(3) : 
        Dipole               66.8276 Ry au,        169.8587 Debye
        Dipole field          0.2212 Ry au
 
        Potential amp.      -19.7448 Ry
        Total length         44.6402 bohr
 
 
     Adding external electric field

     Computed dipole along edir(3) : 
        Dipole               66.8276 Ry au,        169.8587 Debye
        Dipole field          0.2212 Ry au
 
        Potential amp.      -19.7448 Ry
        Total length         44.6402 bohr
 
 
     Magnetic moment per site:
     atom:    1    charge:    7.4362    magn:    0.7380    constr:    0.0000
     atom:    2    charge:    7.4362    magn:    0.7381    constr:    0.0000
     atom:    3    charge:    7.4365    magn:    0.7376    constr:    0.0000
     atom:    4    charge:    7.4364    magn:    0.7375    constr:    0.0000
     atom:    5    charge:    7.1633    magn:    0.8392    constr:    0.0000
     atom:    6    charge:    7.1634    magn:    0.8393    constr:    0.0000
     atom:    7    charge:    7.1656    magn:    0.8368    constr:    0.0000
     atom:    8    charge:    7.1636    magn:    0.8352    constr:    0.0000
     atom:    9    charge:    6.5787    magn:    0.6733    constr:    0.0000
     atom:   10    charge:    6.5797    magn:    0.6736    constr:    0.0000
     atom:   11    charge:    6.5665    magn:    0.6730    constr:    0.0000
     atom:   12    charge:    6.5667    magn:    0.6731    constr:    0.0000
     atom:   13    charge:    0.6438    magn:   -0.0021    constr:    0.0000
     atom:   14    charge:    0.2873    magn:   -0.0010    constr:    0.0000
     atom:   15    charge:    0.3072    magn:   -0.0011    constr:    0.0000
     atom:   16    charge:    0.3067    magn:   -0.0011    constr:    0.0000

     total cpu time spent up to now is       34.4 secs

     total energy              =   -2705.59085478 Ry
     Harris-Foulkes estimate   =   -3029.37446913 Ry
     estimated scf accuracy    <     672.30698277 Ry

     total magnetization       =     7.34 Bohr mag/cell
     absolute magnetization    =    10.09 Bohr mag/cell

     iteration #  2     ecut=    36.75 Ry     beta=0.30
     Davidson diagonalization with overlap
     c_bands:  1 eigenvalues not converged
     c_bands:  2 eigenvalues not converged
     c_bands:  1 eigenvalues not converged
     c_bands:  4 eigenvalues not converged
     c_bands:  1 eigenvalues not converged
     c_bands:  2 eigenvalues not converged
     c_bands:  4 eigenvalues not converged
     c_bands:  1 eigenvalues not converged
     c_bands:  2 eigenvalues not converged
     c_bands:  1 eigenvalues not converged
     c_bands:  1 eigenvalues not converged
     c_bands:  1 eigenvalues not converged
     c_bands:  2 eigenvalues not converged
     c_bands:  2 eigenvalues not converged
     c_bands:  1 eigenvalues not converged
     c_bands:  3 eigenvalues not converged
     c_bands:  2 eigenvalues not converged
     c_bands:  1 eigenvalues not converged
     c_bands:  2 eigenvalues not converged
     c_bands:  1 eigenvalues not converged
     c_bands:  1 eigenvalues not converged
     c_bands:  3 eigenvalues not converged
     c_bands:  1 eigenvalues not converged
     c_bands:  1 eigenvalues not converged
     c_bands:  2 eigenvalues not converged
     c_bands:  1 eigenvalues not converged
     c_bands:  2 eigenvalues not converged
     ethr =  1.00E-02,  avg # of iterations = 19.9
 
     Adding external electric field

     Computed dipole along edir(3) : 
        Dipole                3.3582 Ry au,          8.5356 Debye
        Dipole field          0.0111 Ry au
 
        Potential amp.       -0.9922 Ry
        Total length         44.6402 bohr
 
 
     Adding external electric field

     Computed dipole along edir(3) : 
        Dipole                3.3582 Ry au,          8.5356 Debye
        Dipole field          0.0111 Ry au
 
        Potential amp.       -0.9922 Ry
        Total length         44.6402 bohr
 
 
     Magnetic moment per site:
     atom:    1    charge:    7.1886    magn:    0.7134    constr:    0.0000
     atom:    2    charge:    7.1887    magn:    0.7135    constr:    0.0000
     atom:    3    charge:    7.1889    magn:    0.7130    constr:    0.0000
     atom:    4    charge:    7.1889    magn:    0.7130    constr:    0.0000
     atom:    5    charge:    6.9249    magn:    0.8113    constr:    0.0000
     atom:    6    charge:    6.9250    magn:    0.8114    constr:    0.0000
     atom:    7    charge:    6.9272    magn:    0.8090    constr:    0.0000
     atom:    8    charge:    6.9252    magn:    0.8074    constr:    0.0000
     atom:    9    charge:    6.6991    magn:    0.6527    constr:    0.0000
     atom:   10    charge:    6.6999    magn:    0.6530    constr:    0.0000
     atom:   11    charge:    6.6888    magn:    0.6524    constr:    0.0000
     atom:   12    charge:    6.6890    magn:    0.6525    constr:    0.0000
     atom:   13    charge:    0.6834    magn:   -0.0020    constr:    0.0000
     atom:   14    charge:    0.3083    magn:   -0.0010    constr:    0.0000
     atom:   15    charge:    0.3277    magn:   -0.0010    constr:    0.0000
     atom:   16    charge:    0.3273    magn:   -0.0010    constr:    0.0000

     total cpu time spent up to now is      116.6 secs

     total energy              =   -2556.69017542 Ry
     Harris-Foulkes estimate   =   -4257.57753704 Ry
     estimated scf accuracy    <   26087.01939955 Ry

     total magnetization       =     0.65 Bohr mag/cell
     absolute magnetization    =     1.09 Bohr mag/cell

     iteration #  3     ecut=    36.75 Ry     beta=0.30
     Davidson diagonalization with overlap
     ethr =  1.00E-02,  avg # of iterations = 10.2

     negative rho (up, down):  4.712E-07 0.000E+00
 
     Adding external electric field

     Computed dipole along edir(3) : 
        Dipole                6.1895 Ry au,         15.7321 Debye
        Dipole field          0.0205 Ry au
 
        Potential amp.       -1.8287 Ry
        Total length         44.6402 bohr
 
 
     Adding external electric field

     Computed dipole along edir(3) : 
        Dipole                6.1895 Ry au,         15.7321 Debye
        Dipole field          0.0205 Ry au
 
        Potential amp.       -1.8287 Ry
        Total length         44.6402 bohr
 
 
     Magnetic moment per site:
     atom:    1    charge:    6.8678    magn:    0.6727    constr:    0.0000
     atom:    2    charge:    6.8679    magn:    0.6728    constr:    0.0000
     atom:    3    charge:    6.8681    magn:    0.6724    constr:    0.0000
     atom:    4    charge:    6.8681    magn:    0.6724    constr:    0.0000
     atom:    5    charge:    7.1194    magn:    0.8130    constr:    0.0000
     atom:    6    charge:    7.1191    magn:    0.8141    constr:    0.0000
     atom:    7    charge:    7.1158    magn:    0.8155    constr:    0.0000
     atom:    8    charge:    7.1128    magn:    0.8153    constr:    0.0000
     atom:    9    charge:    6.9395    magn:    0.6176    constr:    0.0000
     atom:   10    charge:    6.9403    magn:    0.6178    constr:    0.0000
     atom:   11    charge:    6.9324    magn:    0.6171    constr:    0.0000
     atom:   12    charge:    6.9326    magn:    0.6174    constr:    0.0000
     atom:   13    charge:    0.6561    magn:   -0.0012    constr:    0.0000
     atom:   14    charge:    0.2784    magn:   -0.0006    constr:    0.0000
     atom:   15    charge:    0.2982    magn:   -0.0002    constr:    0.0000
     atom:   16    charge:    0.2983    magn:   -0.0009    constr:    0.0000

     total cpu time spent up to now is      164.5 secs

     total energy              =   -2951.63869644 Ry
     Harris-Foulkes estimate   =   -3293.70860142 Ry
     estimated scf accuracy    <    3973.88402325 Ry

     total magnetization       =     5.47 Bohr mag/cell
     absolute magnetization    =     5.88 Bohr mag/cell

     iteration #  4     ecut=    36.75 Ry     beta=0.30
     Davidson diagonalization with overlap
     ethr =  1.00E-02,  avg # of iterations =  5.0

     negative rho (up, down):  3.235E-06 0.000E+00
 
     Adding external electric field

     Computed dipole along edir(3) : 
        Dipole                4.3365 Ry au,         11.0224 Debye
        Dipole field          0.0144 Ry au
 
        Potential amp.       -1.2813 Ry
        Total length         44.6402 bohr
 
 
     Adding external electric field

     Computed dipole along edir(3) : 
        Dipole                4.3365 Ry au,         11.0224 Debye
        Dipole field          0.0144 Ry au
 
        Potential amp.       -1.2813 Ry
        Total length         44.6402 bohr
 
 
     Magnetic moment per site:
     atom:    1    charge:    6.9183    magn:    0.5750    constr:    0.0000
     atom:    2    charge:    6.9185    magn:    0.5750    constr:    0.0000
     atom:    3    charge:    6.9187    magn:    0.5746    constr:    0.0000
     atom:    4    charge:    6.9187    magn:    0.5746    constr:    0.0000
     atom:    5    charge:    7.2694    magn:    0.7592    constr:    0.0000
     atom:    6    charge:    7.2716    magn:    0.7588    constr:    0.0000
     atom:    7    charge:    7.2903    magn:    0.7508    constr:    0.0000
     atom:    8    charge:    7.2971    magn:    0.7494    constr:    0.0000
     atom:    9    charge:    7.2058    magn:    0.5352    constr:    0.0000
     atom:   10    charge:    7.2055    magn:    0.5354    constr:    0.0000
     atom:   11    charge:    7.2019    magn:    0.5349    constr:    0.0000
     atom:   12    charge:    7.2021    magn:    0.5350    constr:    0.0000
     atom:   13    charge:    0.6915    magn:   -0.0020    constr:    0.0000
     atom:   14    charge:    0.2965    magn:   -0.0007    constr:    0.0000
     atom:   15    charge:    0.3242    magn:   -0.0012    constr:    0.0000
     atom:   16    charge:    0.3231    magn:   -0.0011    constr:    0.0000

     total cpu time spent up to now is      192.7 secs

     total energy              =   -2993.88990134 Ry
     Harris-Foulkes estimate   =   -3065.88975930 Ry
     estimated scf accuracy    <     953.97903691 Ry

     total magnetization       =     4.01 Bohr mag/cell
     absolute magnetization    =     4.67 Bohr mag/cell

     iteration #  5     ecut=    36.75 Ry     beta=0.30
     Davidson diagonalization with overlap
     ethr =  1.00E-02,  avg # of iterations =  6.1

     negative rho (up, down):  4.024E-06 0.000E+00
 
     Adding external electric field

     Computed dipole along edir(3) : 
        Dipole                5.4372 Ry au,         13.8199 Debye
        Dipole field          0.0180 Ry au
 
        Potential amp.       -1.6065 Ry
        Total length         44.6402 bohr
 
 
     Adding external electric field

     Computed dipole along edir(3) : 
        Dipole                5.4372 Ry au,         13.8199 Debye
        Dipole field          0.0180 Ry au
 
        Potential amp.       -1.6065 Ry
        Total length         44.6402 bohr
 
 
     Magnetic moment per site:
     atom:    1    charge:    6.9870    magn:    0.5554    constr:    0.0000
     atom:    2    charge:    6.9872    magn:    0.5554    constr:    0.0000
     atom:    3    charge:    6.9873    magn:    0.5550    constr:    0.0000
     atom:    4    charge:    6.9873    magn:    0.5550    constr:    0.0000
     atom:    5    charge:    7.1658    magn:    0.7323    constr:    0.0000
     atom:    6    charge:    7.1676    magn:    0.7320    constr:    0.0000
     atom:    7    charge:    7.1833    magn:    0.7249    constr:    0.0000
     atom:    8    charge:    7.1890    magn:    0.7238    constr:    0.0000
     atom:    9    charge:    7.2306    magn:    0.5306    constr:    0.0000
     atom:   10    charge:    7.2304    magn:    0.5309    constr:    0.0000
     atom:   11    charge:    7.2395    magn:    0.5253    constr:    0.0000
     atom:   12    charge:    7.2398    magn:    0.5255    constr:    0.0000
     atom:   13    charge:    0.6832    magn:   -0.0019    constr:    0.0000
     atom:   14    charge:    0.2951    magn:   -0.0002    constr:    0.0000
     atom:   15    charge:    0.3231    magn:   -0.0010    constr:    0.0000
     atom:   16    charge:    0.3222    magn:   -0.0010    constr:    0.0000

     total cpu time spent up to now is      221.0 secs

     total energy              =   -3038.95255101 Ry
     Harris-Foulkes estimate   =   -3057.04685881 Ry
     estimated scf accuracy    <     293.67831354 Ry

     total magnetization       =     3.23 Bohr mag/cell
     absolute magnetization    =     3.64 Bohr mag/cell

     iteration #  6     ecut=    36.75 Ry     beta=0.30
     Davidson diagonalization with overlap
     ethr =  1.00E-02,  avg # of iterations =  4.5

     negative rho (up, down):  1.785E-06 0.000E+00
 
     Adding external electric field

     Computed dipole along edir(3) : 
        Dipole                4.3989 Ry au,         11.1808 Debye
        Dipole field          0.0146 Ry au
 
        Potential amp.       -1.2997 Ry
        Total length         44.6402 bohr
 
 
     Adding external electric field

     Computed dipole along edir(3) : 
        Dipole                4.3989 Ry au,         11.1808 Debye
        Dipole field          0.0146 Ry au
 
        Potential amp.       -1.2997 Ry
        Total length         44.6402 bohr
 
 
     Magnetic moment per site:
     atom:    1    charge:    7.0289    magn:    0.5192    constr:    0.0000
     atom:    2    charge:    7.0291    magn:    0.5192    constr:    0.0000
     atom:    3    charge:    7.0290    magn:    0.5188    constr:    0.0000
     atom:    4    charge:    7.0290    magn:    0.5188    constr:    0.0000
     atom:    5    charge:    7.1406    magn:    0.7284    constr:    0.0000
     atom:    6    charge:    7.1374    magn:    0.7276    constr:    0.0000
     atom:    7    charge:    7.1179    magn:    0.7124    constr:    0.0000
     atom:    8    charge:    7.1104    magn:    0.7080    constr:    0.0000
     atom:    9    charge:    7.1635    magn:    0.5246    constr:    0.0000
     atom:   10    charge:    7.1696    magn:    0.5238    constr:    0.0000
     atom:   11    charge:    7.1463    magn:    0.5231    constr:    0.0000
     atom:   12    charge:    7.1469    magn:    0.5248    constr:    0.0000
     atom:   13    charge:    0.6754    magn:   -0.0019    constr:    0.0000
     atom:   14    charge:    0.2947    magn:   -0.0006    constr:    0.0000
     atom:   15    charge:    0.3225    magn:   -0.0003    constr:    0.0000
     atom:   16    charge:    0.3218    magn:   -0.0004    constr:    0.0000

     total cpu time spent up to now is      237.5 secs

     total energy              =   -3034.64489469 Ry
     Harris-Foulkes estimate   =   -3042.14917381 Ry
     estimated scf accuracy    <     228.52420005 Ry

     total magnetization       =     8.19 Bohr mag/cell
     absolute magnetization    =     8.70 Bohr mag/cell

     iteration #  7     ecut=    36.75 Ry     beta=0.30
     Davidson diagonalization with overlap
     ethr =  1.00E-02,  avg # of iterations =  2.7

     negative rho (up, down):  4.628E-06 0.000E+00
 
     Adding external electric field

     Computed dipole along edir(3) : 
        Dipole                4.1735 Ry au,         10.6080 Debye
        Dipole field          0.0138 Ry au
 
        Potential amp.       -1.2331 Ry
        Total length         44.6402 bohr
 
 
     Adding external electric field

     Computed dipole along edir(3) : 
        Dipole                4.1735 Ry au,         10.6080 Debye
        Dipole field          0.0138 Ry au
 
        Potential amp.       -1.2331 Ry
        Total length         44.6402 bohr
 
 
     Magnetic moment per site:
     atom:    1    charge:    7.0519    magn:    0.5127    constr:    0.0000
     atom:    2    charge:    7.0519    magn:    0.5126    constr:    0.0000
     atom:    3    charge:    7.0524    magn:    0.5125    constr:    0.0000
     atom:    4    charge:    7.0524    magn:    0.5125    constr:    0.0000
     atom:    5    charge:    7.1079    magn:    0.7311    constr:    0.0000
     atom:    6    charge:    7.1077    magn:    0.7318    constr:    0.0000
     atom:    7    charge:    7.1074    magn:    0.7279    constr:    0.0000
     atom:    8    charge:    7.1050    magn:    0.7248    constr:    0.0000
     atom:    9    charge:    7.1521    magn:    0.5196    constr:    0.0000
     atom:   10    charge:    7.1499    magn:    0.5210    constr:    0.0000
     atom:   11    charge:    7.1499    magn:    0.5152    constr:    0.0000
     atom:   12    charge:    7.1515    magn:    0.5167    constr:    0.0000
     atom:   13    charge:    0.6719    magn:   -0.0021    constr:    0.0000
     atom:   14    charge:    0.2944    magn:   -0.0009    constr:    0.0000
     atom:   15    charge:    0.3223    magn:   -0.0002    constr:    0.0000
     atom:   16    charge:    0.3217    magn:   -0.0004    constr:    0.0000

     total cpu time spent up to now is      250.2 secs

     total energy              =   -3034.30160280 Ry
     Harris-Foulkes estimate   =   -3036.59708880 Ry
     estimated scf accuracy    <     108.58619170 Ry

     total magnetization       =     7.42 Bohr mag/cell
     absolute magnetization    =     7.94 Bohr mag/cell

     iteration #  8     ecut=    36.75 Ry     beta=0.30
     Davidson diagonalization with overlap
     ethr =  1.00E-02,  avg # of iterations =  1.1

     negative rho (up, down):  6.131E-06 0.000E+00
 
     Adding external electric field

     Computed dipole along edir(3) : 
        Dipole                3.7969 Ry au,          9.6507 Debye
        Dipole field          0.0126 Ry au
 
        Potential amp.       -1.1218 Ry
        Total length         44.6402 bohr
 
 
     Adding external electric field

     Computed dipole along edir(3) : 
        Dipole                3.7969 Ry au,          9.6507 Debye
        Dipole field          0.0126 Ry au
 
        Potential amp.       -1.1218 Ry
        Total length         44.6402 bohr
 
 
     Magnetic moment per site:
     atom:    1    charge:    7.0887    magn:    0.5096    constr:    0.0000
     atom:    2    charge:    7.0890    magn:    0.5094    constr:    0.0000
     atom:    3    charge:    7.0888    magn:    0.5091    constr:    0.0000
     atom:    4    charge:    7.0887    magn:    0.5093    constr:    0.0000
     atom:    5    charge:    7.0814    magn:    0.7556    constr:    0.0000
     atom:    6    charge:    7.0806    magn:    0.7562    constr:    0.0000
     atom:    7    charge:    7.0686    magn:    0.7497    constr:    0.0000
     atom:    8    charge:    7.0643    magn:    0.7423    constr:    0.0000
     atom:    9    charge:    7.1485    magn:    0.5020    constr:    0.0000
     atom:   10    charge:    7.1617    magn:    0.4968    constr:    0.0000
     atom:   11    charge:    7.1460    magn:    0.5025    constr:    0.0000
     atom:   12    charge:    7.1473    magn:    0.5054    constr:    0.0000
     atom:   13    charge:    0.6640    magn:   -0.0023    constr:    0.0000
     atom:   14    charge:    0.2933    magn:   -0.0017    constr:    0.0000
     atom:   15    charge:    0.3218    magn:   -0.0004    constr:    0.0000
     atom:   16    charge:    0.3212    magn:   -0.0006    constr:    0.0000

     total cpu time spent up to now is      261.0 secs

     total energy              =   -3031.18343368 Ry
     Harris-Foulkes estimate   =   -3034.59123705 Ry
     estimated scf accuracy    <      82.50733900 Ry

     total magnetization       =     7.77 Bohr mag/cell
     absolute magnetization    =     8.34 Bohr mag/cell

     iteration #  9     ecut=    36.75 Ry     beta=0.30
     Davidson diagonalization with overlap
     ethr =  1.00E-02,  avg # of iterations =  2.1

     negative rho (up, down):  9.007E-06 0.000E+00
 
     Adding external electric field

     Computed dipole along edir(3) : 
        Dipole                3.2591 Ry au,          8.2837 Debye
        Dipole field          0.0108 Ry au
 
        Potential amp.       -0.9629 Ry
        Total length         44.6402 bohr
 
 
     Adding external electric field

     Computed dipole along edir(3) : 
        Dipole                3.2591 Ry au,          8.2837 Debye
        Dipole field          0.0108 Ry au
 
        Potential amp.       -0.9629 Ry
        Total length         44.6402 bohr
 
 
     Magnetic moment per site:
     atom:    1    charge:    7.0779    magn:    0.6151    constr:    0.0000
     atom:    2    charge:    7.0771    magn:    0.6132    constr:    0.0000
     atom:    3    charge:    7.0798    magn:    0.6163    constr:    0.0000
     atom:    4    charge:    7.0805    magn:    0.6157    constr:    0.0000
     atom:    5    charge:    7.0835    magn:    0.7498    constr:    0.0000
     atom:    6    charge:    7.0814    magn:    0.7501    constr:    0.0000
     atom:    7    charge:    7.0773    magn:    0.7314    constr:    0.0000
     atom:    8    charge:    7.0684    magn:    0.7298    constr:    0.0000
     atom:    9    charge:    7.1732    magn:    0.4751    constr:    0.0000
     atom:   10    charge:    7.1549    magn:    0.4790    constr:    0.0000
     atom:   11    charge:    7.1734    magn:    0.4802    constr:    0.0000
     atom:   12    charge:    7.1750    magn:    0.4815    constr:    0.0000
     atom:   13    charge:    0.6566    magn:   -0.0030    constr:    0.0000
     atom:   14    charge:    0.2972    magn:   -0.0022    constr:    0.0000
     atom:   15    charge:    0.3276    magn:   -0.0008    constr:    0.0000
     atom:   16    charge:    0.3269    magn:   -0.0010    constr:    0.0000

     total cpu time spent up to now is      273.0 secs

     total energy              =   -3031.24043741 Ry
     Harris-Foulkes estimate   =   -3032.20167474 Ry
     estimated scf accuracy    <      25.19343862 Ry

     total magnetization       =    12.65 Bohr mag/cell
     absolute magnetization    =    13.40 Bohr mag/cell

     iteration # 10     ecut=    36.75 Ry     beta=0.30
     Davidson diagonalization with overlap
     ethr =  1.00E-02,  avg # of iterations =  1.2

     negative rho (up, down):  7.657E-06 0.000E+00
 
     Adding external electric field

     Computed dipole along edir(3) : 
        Dipole                2.5225 Ry au,          6.4117 Debye
        Dipole field          0.0083 Ry au
 
        Potential amp.       -0.7453 Ry
        Total length         44.6402 bohr
 
 
     Adding external electric field

     Computed dipole along edir(3) : 
        Dipole                2.5225 Ry au,          6.4117 Debye
        Dipole field          0.0083 Ry au
 
        Potential amp.       -0.7453 Ry
        Total length         44.6402 bohr
 
 
     Magnetic moment per site:
     atom:    1    charge:    7.0937    magn:    0.6576    constr:    0.0000
     atom:    2    charge:    7.0955    magn:    0.6532    constr:    0.0000
     atom:    3    charge:    7.0902    magn:    0.6639    constr:    0.0000
     atom:    4    charge:    7.0881    magn:    0.6654    constr:    0.0000
     atom:    5    charge:    7.0765    magn:    0.7561    constr:    0.0000
     atom:    6    charge:    7.0806    magn:    0.7569    constr:    0.0000
     atom:    7    charge:    7.0938    magn:    0.7315    constr:    0.0000
     atom:    8    charge:    7.1104    magn:    0.7307    constr:    0.0000
     atom:    9    charge:    7.1285    magn:    0.5028    constr:    0.0000
     atom:   10    charge:    7.1861    magn:    0.4798    constr:    0.0000
     atom:   11    charge:    7.1525    magn:    0.5172    constr:    0.0000
     atom:   12    charge:    7.1454    magn:    0.5240    constr:    0.0000
     atom:   13    charge:    0.6522    magn:   -0.0031    constr:    0.0000
     atom:   14    charge:    0.2985    magn:   -0.0022    constr:    0.0000
     atom:   15    charge:    0.3303    magn:   -0.0006    constr:    0.0000
     atom:   16    charge:    0.3297    magn:   -0.0009    constr:    0.0000

     total cpu time spent up to now is      283.9 secs

     total energy              =   -3030.74144536 Ry
     Harris-Foulkes estimate   =   -3031.89184997 Ry
     estimated scf accuracy    <      40.43932679 Ry

     total magnetization       =    12.55 Bohr mag/cell
     absolute magnetization    =    13.15 Bohr mag/cell

     iteration # 11     ecut=    36.75 Ry     beta=0.30
     Davidson diagonalization with overlap
     ethr =  1.00E-02,  avg # of iterations =  1.1

     negative rho (up, down):  3.118E-06 0.000E+00
 
     Adding external electric field

     Computed dipole along edir(3) : 
        Dipole                1.5107 Ry au,          3.8398 Debye
        Dipole field          0.0050 Ry au
 
        Potential amp.       -0.4464 Ry
        Total length         44.6402 bohr
 
 
     Adding external electric field

     Computed dipole along edir(3) : 
        Dipole                1.5107 Ry au,          3.8398 Debye
        Dipole field          0.0050 Ry au
 
        Potential amp.       -0.4464 Ry
        Total length         44.6402 bohr
 
 
     Magnetic moment per site:
     atom:    1    charge:    7.1271    magn:    0.7078    constr:    0.0000
     atom:    2    charge:    7.1282    magn:    0.7056    constr:    0.0000
     atom:    3    charge:    7.1296    magn:    0.7098    constr:    0.0000
     atom:    4    charge:    7.1310    magn:    0.7091    constr:    0.0000
     atom:    5    charge:    7.0812    magn:    0.7687    constr:    0.0000
     atom:    6    charge:    7.0815    magn:    0.7705    constr:    0.0000
     atom:    7    charge:    7.0733    magn:    0.7408    constr:    0.0000
     atom:    8    charge:    7.0912    magn:    0.7390    constr:    0.0000
     atom:    9    charge:    7.1259    magn:    0.5026    constr:    0.0000
     atom:   10    charge:    7.1224    magn:    0.4961    constr:    0.0000
     atom:   11    charge:    7.1382    magn:    0.5447    constr:    0.0000
     atom:   12    charge:    7.1366    magn:    0.5506    constr:    0.0000
     atom:   13    charge:    0.6450    magn:   -0.0035    constr:    0.0000
     atom:   14    charge:    0.2992    magn:   -0.0026    constr:    0.0000
     atom:   15    charge:    0.3333    magn:   -0.0004    constr:    0.0000
     atom:   16    charge:    0.3327    magn:   -0.0008    constr:    0.0000

     total cpu time spent up to now is      294.7 secs

     total energy              =   -3030.04654860 Ry
     Harris-Foulkes estimate   =   -3031.38451012 Ry
     estimated scf accuracy    <      12.52704908 Ry

     total magnetization       =    14.36 Bohr mag/cell
     absolute magnetization    =    15.10 Bohr mag/cell

     iteration # 12     ecut=    36.75 Ry     beta=0.30
     Davidson diagonalization with overlap
     ethr =  6.29E-03,  avg # of iterations =  6.5

     negative rho (up, down):  4.386E-06 2.951E-07
 
     Adding external electric field

     Computed dipole along edir(3) : 
        Dipole               -1.0200 Ry au,         -2.5927 Debye
        Dipole field         -0.0034 Ry au
 
        Potential amp.        0.3014 Ry
        Total length         44.6402 bohr
 
 
     Adding external electric field

     Computed dipole along edir(3) : 
        Dipole               -1.0200 Ry au,         -2.5927 Debye
        Dipole field         -0.0034 Ry au
 
        Potential amp.        0.3014 Ry
        Total length         44.6402 bohr
 
 
     Magnetic moment per site:
     atom:    1    charge:    7.2014    magn:    0.7082    constr:    0.0000
     atom:    2    charge:    7.2004    magn:    0.7056    constr:    0.0000
     atom:    3    charge:    7.1927    magn:    0.7028    constr:    0.0000
     atom:    4    charge:    7.1868    magn:    0.6962    constr:    0.0000
     atom:    5    charge:    7.0870    magn:    0.6882    constr:    0.0000
     atom:    6    charge:    7.0866    magn:    0.6918    constr:    0.0000
     atom:    7    charge:    7.0972    magn:    0.6509    constr:    0.0000
     atom:    8    charge:    7.0759    magn:    0.6726    constr:    0.0000
     atom:    9    charge:    7.1391    magn:    0.4628    constr:    0.0000
     atom:   10    charge:    7.1208    magn:    0.4593    constr:    0.0000
     atom:   11    charge:    7.1497    magn:    0.5300    constr:    0.0000
     atom:   12    charge:    7.1524    magn:    0.5361    constr:    0.0000
     atom:   13    charge:    0.6220    magn:   -0.0037    constr:    0.0000
     atom:   14    charge:    0.3134    magn:   -0.0026    constr:    0.0000
     atom:   15    charge:    0.3514    magn:   -0.0000    constr:    0.0000
     atom:   16    charge:    0.3513    magn:   -0.0004    constr:    0.0000

     total cpu time spent up to now is      315.7 secs

     total energy              =   -3030.00023934 Ry
     Harris-Foulkes estimate   =   -3033.62795719 Ry
     estimated scf accuracy    <     269.41609267 Ry

     total magnetization       =     8.92 Bohr mag/cell
     absolute magnetization    =     9.79 Bohr mag/cell

     iteration # 13     ecut=    36.75 Ry     beta=0.30
     Davidson diagonalization with overlap
     ethr =  6.29E-03,  avg # of iterations =  5.3

     negative rho (up, down):  7.713E-06 0.000E+00
 
     Adding external electric field

     Computed dipole along edir(3) : 
        Dipole                0.7640 Ry au,          1.9420 Debye
        Dipole field          0.0025 Ry au
 
        Potential amp.       -0.2257 Ry
        Total length         44.6402 bohr
 
 
     Adding external electric field

     Computed dipole along edir(3) : 
        Dipole                0.7640 Ry au,          1.9420 Debye
        Dipole field          0.0025 Ry au
 
        Potential amp.       -0.2257 Ry
        Total length         44.6402 bohr
 
 
     Magnetic moment per site:
     atom:    1    charge:    7.1284    magn:    0.6312    constr:    0.0000
     atom:    2    charge:    7.1280    magn:    0.6316    constr:    0.0000
     atom:    3    charge:    7.1410    magn:    0.6264    constr:    0.0000
     atom:    4    charge:    7.1507    magn:    0.6229    constr:    0.0000
     atom:    5    charge:    7.1014    magn:    0.6327    constr:    0.0000
     atom:    6    charge:    7.1008    magn:    0.6370    constr:    0.0000
     atom:    7    charge:    7.1155    magn:    0.6236    constr:    0.0000
     atom:    8    charge:    7.1083    magn:    0.6379    constr:    0.0000
     atom:    9    charge:    7.1604    magn:    0.4425    constr:    0.0000
     atom:   10    charge:    7.1292    magn:    0.4575    constr:    0.0000
     atom:   11    charge:    7.1268    magn:    0.4700    constr:    0.0000
     atom:   12    charge:    7.1340    magn:    0.4713    constr:    0.0000
     atom:   13    charge:    0.6352    magn:   -0.0035    constr:    0.0000
     atom:   14    charge:    0.3123    magn:   -0.0017    constr:    0.0000
     atom:   15    charge:    0.3496    magn:    0.0002    constr:    0.0000
     atom:   16    charge:    0.3495    magn:   -0.0002    constr:    0.0000

     total cpu time spent up to now is      334.3 secs

     total energy              =   -3030.53320723 Ry
     Harris-Foulkes estimate   =   -3033.64796738 Ry
     estimated scf accuracy    <      72.25704386 Ry

     total magnetization       =    11.16 Bohr mag/cell
     absolute magnetization    =    12.07 Bohr mag/cell

     iteration # 14     ecut=    36.75 Ry     beta=0.30
     Davidson diagonalization with overlap
     ethr =  6.29E-03,  avg # of iterations =  2.5

     negative rho (up, down):  2.221E-05 3.557E-08
 
     Adding external electric field

     Computed dipole along edir(3) : 
        Dipole                1.0881 Ry au,          2.7658 Debye
        Dipole field          0.0036 Ry au
 
        Potential amp.       -0.3215 Ry
        Total length         44.6402 bohr
 
 
     Adding external electric field

     Computed dipole along edir(3) : 
        Dipole                1.0881 Ry au,          2.7658 Debye
        Dipole field          0.0036 Ry au
 
        Potential amp.       -0.3215 Ry
        Total length         44.6402 bohr
 
 
     Magnetic moment per site:
     atom:    1    charge:    7.1272    magn:    0.5945    constr:    0.0000
     atom:    2    charge:    7.1272    magn:    0.5966    constr:    0.0000
     atom:    3    charge:    7.1348    magn:    0.5955    constr:    0.0000
     atom:    4    charge:    7.1420    magn:    0.5970    constr:    0.0000
     atom:    5    charge:    7.0974    magn:    0.6214    constr:    0.0000
     atom:    6    charge:    7.0970    magn:    0.6266    constr:    0.0000
     atom:    7    charge:    7.0908    magn:    0.6324    constr:    0.0000
     atom:    8    charge:    7.0939    magn:    0.6399    constr:    0.0000
     atom:    9    charge:    7.1116    magn:    0.4202    constr:    0.0000
     atom:   10    charge:    7.1111    magn:    0.4519    constr:    0.0000
     atom:   11    charge:    7.1242    magn:    0.4353    constr:    0.0000
     atom:   12    charge:    7.1244    magn:    0.4382    constr:    0.0000
     atom:   13    charge:    0.6351    magn:   -0.0033    constr:    0.0000
     atom:   14    charge:    0.3117    magn:   -0.0017    constr:    0.0000
     atom:   15    charge:    0.3489    magn:    0.0003    constr:    0.0000
     atom:   16    charge:    0.3488    magn:   -0.0001    constr:    0.0000

     total cpu time spent up to now is      346.7 secs

     total energy              =   -3030.48937327 Ry
     Harris-Foulkes estimate   =   -3031.41596680 Ry
     estimated scf accuracy    <      53.72704820 Ry

     total magnetization       =    10.69 Bohr mag/cell
     absolute magnetization    =    11.52 Bohr mag/cell

     iteration # 15     ecut=    36.75 Ry     beta=0.30
     Davidson diagonalization with overlap
     ethr =  6.29E-03,  avg # of iterations =  1.9

     negative rho (up, down):  2.858E-05 1.120E-07
 
     Adding external electric field

     Computed dipole along edir(3) : 
        Dipole                1.2330 Ry au,          3.1341 Debye
        Dipole field          0.0041 Ry au
 
        Potential amp.       -0.3643 Ry
        Total length         44.6402 bohr
 
 
     Adding external electric field

     Computed dipole along edir(3) : 
        Dipole                1.2330 Ry au,          3.1341 Debye
        Dipole field          0.0041 Ry au
 
        Potential amp.       -0.3643 Ry
        Total length         44.6402 bohr
 
 
     Magnetic moment per site:
     atom:    1    charge:    7.1264    magn:    0.5639    constr:    0.0000
     atom:    2    charge:    7.1277    magn:    0.5687    constr:    0.0000
     atom:    3    charge:    7.1199    magn:    0.5694    constr:    0.0000
     atom:    4    charge:    7.1111    magn:    0.5693    constr:    0.0000
     atom:    5    charge:    7.0946    magn:    0.6066    constr:    0.0000
     atom:    6    charge:    7.0935    magn:    0.6140    constr:    0.0000
     atom:    7    charge:    7.0826    magn:    0.6389    constr:    0.0000
     atom:    8    charge:    7.0951    magn:    0.6421    constr:    0.0000
     atom:    9    charge:    7.1012    magn:    0.3979    constr:    0.0000
     atom:   10    charge:    7.0906    magn:    0.4570    constr:    0.0000
     atom:   11    charge:    7.0913    magn:    0.3886    constr:    0.0000
     atom:   12    charge:    7.0929    magn:    0.3908    constr:    0.0000
     atom:   13    charge:    0.6379    magn:   -0.0035    constr:    0.0000
     atom:   14    charge:    0.3128    magn:   -0.0010    constr:    0.0000
     atom:   15    charge:    0.3507    magn:    0.0005    constr:    0.0000
     atom:   16    charge:    0.3506    magn:    0.0000    constr:    0.0000

     total cpu time spent up to now is      358.3 secs

     total energy              =   -3030.97165021 Ry
     Harris-Foulkes estimate   =   -3031.16529704 Ry
     estimated scf accuracy    <      20.25677914 Ry

     total magnetization       =    12.66 Bohr mag/cell
     absolute magnetization    =    13.29 Bohr mag/cell

     iteration # 16     ecut=    36.75 Ry     beta=0.30
     Davidson diagonalization with overlap
     ethr =  6.29E-03,  avg # of iterations =  1.4

     negative rho (up, down):  3.736E-05 3.997E-07
 
     Adding external electric field

     Computed dipole along edir(3) : 
        Dipole                0.7408 Ry au,          1.8829 Debye
        Dipole field          0.0025 Ry au
 
        Potential amp.       -0.2189 Ry
        Total length         44.6402 bohr
 
 
     Adding external electric field

     Computed dipole along edir(3) : 
        Dipole                0.7408 Ry au,          1.8829 Debye
        Dipole field          0.0025 Ry au
 
        Potential amp.       -0.2189 Ry
        Total length         44.6402 bohr
 
 
     Magnetic moment per site:
     atom:    1    charge:    7.1170    magn:    0.5320    constr:    0.0000
     atom:    2    charge:    7.1157    magn:    0.5385    constr:    0.0000
     atom:    3    charge:    7.1167    magn:    0.5499    constr:    0.0000
     atom:    4    charge:    7.1244    magn:    0.5598    constr:    0.0000
     atom:    5    charge:    7.1051    magn:    0.5647    constr:    0.0000
     atom:    6    charge:    7.1038    magn:    0.5743    constr:    0.0000
     atom:    7    charge:    7.0975    magn:    0.6202    constr:    0.0000
     atom:    8    charge:    7.0978    magn:    0.6339    constr:    0.0000
     atom:    9    charge:    7.0828    magn:    0.3509    constr:    0.0000
     atom:   10    charge:    7.0809    magn:    0.4402    constr:    0.0000
     atom:   11    charge:    7.0727    magn:    0.2974    constr:    0.0000
     atom:   12    charge:    7.0712    magn:    0.3022    constr:    0.0000
     atom:   13    charge:    0.6365    magn:   -0.0042    constr:    0.0000
     atom:   14    charge:    0.3190    magn:   -0.0002    constr:    0.0000
     atom:   15    charge:    0.3583    magn:    0.0004    constr:    0.0000
     atom:   16    charge:    0.3583    magn:   -0.0000    constr:    0.0000

     total cpu time spent up to now is      369.5 secs

     total energy              =   -3031.16625344 Ry
     Harris-Foulkes estimate   =   -3031.50008941 Ry
     estimated scf accuracy    <      72.71561293 Ry

     total magnetization       =     8.34 Bohr mag/cell
     absolute magnetization    =    11.09 Bohr mag/cell

     iteration # 17     ecut=    36.75 Ry     beta=0.30
     Davidson diagonalization with overlap
     ethr =  6.29E-03,  avg # of iterations =  1.3

     negative rho (up, down):  3.172E-05 1.960E-07
 
     Adding external electric field

     Computed dipole along edir(3) : 
        Dipole                0.7402 Ry au,          1.8814 Debye
        Dipole field          0.0024 Ry au
 
        Potential amp.       -0.2187 Ry
        Total length         44.6402 bohr
 
 
     Adding external electric field

     Computed dipole along edir(3) : 
        Dipole                0.7402 Ry au,          1.8814 Debye
        Dipole field          0.0024 Ry au
 
        Potential amp.       -0.2187 Ry
        Total length         44.6402 bohr
 
 
     Magnetic moment per site:
     atom:    1    charge:    7.0847    magn:    0.5139    constr:    0.0000
     atom:    2    charge:    7.0989    magn:    0.5267    constr:    0.0000
     atom:    3    charge:    7.1144    magn:    0.5334    constr:    0.0000
     atom:    4    charge:    7.0806    magn:    0.5185    constr:    0.0000
     atom:    5    charge:    7.1073    magn:    0.5109    constr:    0.0000
     atom:    6    charge:    7.1071    magn:    0.5240    constr:    0.0000
     atom:    7    charge:    7.1001    magn:    0.5911    constr:    0.0000
     atom:    8    charge:    7.0973    magn:    0.6179    constr:    0.0000
     atom:    9    charge:    7.0981    magn:    0.3070    constr:    0.0000
     atom:   10    charge:    7.0922    magn:    0.3959    constr:    0.0000
     atom:   11    charge:    7.0783    magn:    0.1873    constr:    0.0000
     atom:   12    charge:    7.0913    magn:    0.1958    constr:    0.0000
     atom:   13    charge:    0.6357    magn:   -0.0049    constr:    0.0000
     atom:   14    charge:    0.3246    magn:    0.0006    constr:    0.0000
     atom:   15    charge:    0.3635    magn:    0.0003    constr:    0.0000
     atom:   16    charge:    0.3637    magn:   -0.0002    constr:    0.0000

     total cpu time spent up to now is      380.5 secs

     total energy              =   -3029.71095509 Ry
     Harris-Foulkes estimate   =   -3031.37954027 Ry
     estimated scf accuracy    <      66.08904131 Ry

     total magnetization       =     9.05 Bohr mag/cell
     absolute magnetization    =    11.47 Bohr mag/cell

     iteration # 18     ecut=    36.75 Ry     beta=0.30
     Davidson diagonalization with overlap
     ethr =  6.29E-03,  avg # of iterations =  1.2

     negative rho (up, down):  5.108E-05 3.704E-06
 
     Adding external electric field

     Computed dipole along edir(3) : 
        Dipole                0.4811 Ry au,          1.2230 Debye
        Dipole field          0.0016 Ry au
 
        Potential amp.       -0.1422 Ry
        Total length         44.6402 bohr
 
 
     Adding external electric field

     Computed dipole along edir(3) : 
        Dipole                0.4811 Ry au,          1.2230 Debye
        Dipole field          0.0016 Ry au
 
        Potential amp.       -0.1422 Ry
        Total length         44.6402 bohr
 
 
     Magnetic moment per site:
     atom:    1    charge:    7.1047    magn:    0.5263    constr:    0.0000
     atom:    2    charge:    7.0996    magn:    0.5479    constr:    0.0000
     atom:    3    charge:    7.0828    magn:    0.5617    constr:    0.0000
     atom:    4    charge:    7.0992    magn:    0.5286    constr:    0.0000
     atom:    5    charge:    7.0992    magn:    0.5450    constr:    0.0000
     atom:    6    charge:    7.0899    magn:    0.5579    constr:    0.0000
     atom:    7    charge:    7.0748    magn:    0.6187    constr:    0.0000
     atom:    8    charge:    7.0894    magn:    0.6434    constr:    0.0000
     atom:    9    charge:    7.0951    magn:    0.2984    constr:    0.0000
     atom:   10    charge:    7.0886    magn:    0.3858    constr:    0.0000
     atom:   11    charge:    7.0817    magn:    0.1497    constr:    0.0000
     atom:   12    charge:    7.0856    magn:    0.1639    constr:    0.0000
     atom:   13    charge:    0.6324    magn:   -0.0052    constr:    0.0000
     atom:   14    charge:    0.3267    magn:    0.0007    constr:    0.0000
     atom:   15    charge:    0.3665    magn:    0.0004    constr:    0.0000
     atom:   16    charge:    0.3668    magn:   -0.0002    constr:    0.0000

     total cpu time spent up to now is      391.5 secs

     total energy              =   -3030.59187858 Ry
     Harris-Foulkes estimate   =   -3030.72697142 Ry
     estimated scf accuracy    <       3.04852739 Ry

     total magnetization       =    10.98 Bohr mag/cell
     absolute magnetization    =    12.52 Bohr mag/cell

     iteration # 19     ecut=    36.75 Ry     beta=0.30
     Davidson diagonalization with overlap
     ethr =  1.53E-03,  avg # of iterations =  6.4

     negative rho (up, down):  4.014E-05 5.724E-06
 
     Adding external electric field

     Computed dipole along edir(3) : 
        Dipole                0.3817 Ry au,          0.9701 Debye
        Dipole field          0.0013 Ry au
 
        Potential amp.       -0.1128 Ry
        Total length         44.6402 bohr
 
 
     Adding external electric field

     Computed dipole along edir(3) : 
        Dipole                0.3817 Ry au,          0.9701 Debye
        Dipole field          0.0013 Ry au
 
        Potential amp.       -0.1128 Ry
        Total length         44.6402 bohr
 
 
     Magnetic moment per site:
     atom:    1    charge:    7.0946    magn:    0.5183    constr:    0.0000
     atom:    2    charge:    7.0939    magn:    0.5420    constr:    0.0000
     atom:    3    charge:    7.0926    magn:    0.5550    constr:    0.0000
     atom:    4    charge:    7.0920    magn:    0.5217    constr:    0.0000
     atom:    5    charge:    7.0818    magn:    0.5436    constr:    0.0000
     atom:    6    charge:    7.0873    magn:    0.5588    constr:    0.0000
     atom:    7    charge:    7.0934    magn:    0.6173    constr:    0.0000
     atom:    8    charge:    7.0901    magn:    0.6444    constr:    0.0000
     atom:    9    charge:    7.0844    magn:    0.3046    constr:    0.0000
     atom:   10    charge:    7.0779    magn:    0.3931    constr:    0.0000
     atom:   11    charge:    7.0828    magn:    0.1471    constr:    0.0000
     atom:   12    charge:    7.0851    magn:    0.1611    constr:    0.0000
     atom:   13    charge:    0.6322    magn:   -0.0052    constr:    0.0000
     atom:   14    charge:    0.3284    magn:    0.0010    constr:    0.0000
     atom:   15    charge:    0.3687    magn:    0.0005    constr:    0.0000
     atom:   16    charge:    0.3689    magn:   -0.0000    constr:    0.0000

     total cpu time spent up to now is      410.5 secs

     total energy              =   -3030.83738009 Ry
     Harris-Foulkes estimate   =   -3031.05083186 Ry
     estimated scf accuracy    <      13.52379688 Ry

     total magnetization       =    13.32 Bohr mag/cell
     absolute magnetization    =    13.80 Bohr mag/cell

     iteration # 20     ecut=    36.75 Ry     beta=0.30
     Davidson diagonalization with overlap
     ethr =  1.53E-03,  avg # of iterations =  1.1

     negative rho (up, down):  4.243E-05 1.752E-06
 
     Adding external electric field

     Computed dipole along edir(3) : 
        Dipole                0.6546 Ry au,          1.6637 Debye
        Dipole field          0.0022 Ry au
 
        Potential amp.       -0.1934 Ry
        Total length         44.6402 bohr
 
 
     Adding external electric field

     Computed dipole along edir(3) : 
        Dipole                0.6546 Ry au,          1.6637 Debye
        Dipole field          0.0022 Ry au
 
        Potential amp.       -0.1934 Ry
        Total length         44.6402 bohr
 
 
     Magnetic moment per site:
     atom:    1    charge:    7.0795    magn:    0.5291    constr:    0.0000
     atom:    2    charge:    7.0839    magn:    0.5532    constr:    0.0000
     atom:    3    charge:    7.0880    magn:    0.5793    constr:    0.0000
     atom:    4    charge:    7.0858    magn:    0.5386    constr:    0.0000
     atom:    5    charge:    7.0843    magn:    0.5528    constr:    0.0000
     atom:    6    charge:    7.0883    magn:    0.5799    constr:    0.0000
     atom:    7    charge:    7.0773    magn:    0.6343    constr:    0.0000
     atom:    8    charge:    7.0842    magn:    0.6471    constr:    0.0000
     atom:    9    charge:    7.0780    magn:    0.3396    constr:    0.0000
     atom:   10    charge:    7.0869    magn:    0.4143    constr:    0.0000
     atom:   11    charge:    7.0853    magn:    0.2077    constr:    0.0000
     atom:   12    charge:    7.0871    magn:    0.2182    constr:    0.0000
     atom:   13    charge:    0.6337    magn:   -0.0048    constr:    0.0000
     atom:   14    charge:    0.3267    magn:    0.0008    constr:    0.0000
     atom:   15    charge:    0.3668    magn:    0.0006    constr:    0.0000
     atom:   16    charge:    0.3668    magn:    0.0002    constr:    0.0000

     total cpu time spent up to now is      421.4 secs

     total energy              =   -3030.76713489 Ry
     Harris-Foulkes estimate   =   -3030.91080929 Ry
     estimated scf accuracy    <      10.15459858 Ry

     total magnetization       =    13.22 Bohr mag/cell
     absolute magnetization    =    13.71 Bohr mag/cell

     iteration # 21     ecut=    36.75 Ry     beta=0.30
     Davidson diagonalization with overlap
     ethr =  1.53E-03,  avg # of iterations =  1.0

     negative rho (up, down):  1.499E-04 1.131E-05
 
     Adding external electric field

     Computed dipole along edir(3) : 
        Dipole                0.4187 Ry au,          1.0643 Debye
        Dipole field          0.0014 Ry au
 
        Potential amp.       -0.1237 Ry
        Total length         44.6402 bohr
 
 
     Adding external electric field

     Computed dipole along edir(3) : 
        Dipole                0.4187 Ry au,          1.0643 Debye
        Dipole field          0.0014 Ry au
 
        Potential amp.       -0.1237 Ry
        Total length         44.6402 bohr
 
 
     Magnetic moment per site:
     atom:    1    charge:    7.0726    magn:    0.5170    constr:    0.0000
     atom:    2    charge:    7.0653    magn:    0.5450    constr:    0.0000
     atom:    3    charge:    7.0572    magn:    0.5675    constr:    0.0000
     atom:    4    charge:    7.0764    magn:    0.5319    constr:    0.0000
     atom:    5    charge:    7.0891    magn:    0.5331    constr:    0.0000
     atom:    6    charge:    7.0913    magn:    0.5547    constr:    0.0000
     atom:    7    charge:    7.0832    magn:    0.6248    constr:    0.0000
     atom:    8    charge:    7.0811    magn:    0.6465    constr:    0.0000
     atom:    9    charge:    7.0763    magn:    0.2848    constr:    0.0000
     atom:   10    charge:    7.0403    magn:    0.4052    constr:    0.0000
     atom:   11    charge:    7.0789    magn:    0.1105    constr:    0.0000
     atom:   12    charge:    7.0776    magn:    0.1214    constr:    0.0000
     atom:   13    charge:    0.6331    magn:   -0.0053    constr:    0.0000
     atom:   14    charge:    0.3316    magn:    0.0014    constr:    0.0000
     atom:   15    charge:    0.3728    magn:    0.0006    constr:    0.0000
     atom:   16    charge:    0.3729    magn:    0.0001    constr:    0.0000

     total cpu time spent up to now is      432.2 secs

     total energy              =   -3030.75553738 Ry
     Harris-Foulkes estimate   =   -3030.85884970 Ry
     estimated scf accuracy    <       5.44849269 Ry

     total magnetization       =    14.11 Bohr mag/cell
     absolute magnetization    =    14.62 Bohr mag/cell

     iteration # 22     ecut=    36.75 Ry     beta=0.30
     Davidson diagonalization with overlap
     ethr =  1.53E-03,  avg # of iterations =  1.0

     negative rho (up, down):  1.235E-04 1.275E-05
 
     Adding external electric field

     Computed dipole along edir(3) : 
        Dipole                0.4679 Ry au,          1.1894 Debye
        Dipole field          0.0015 Ry au
 
        Potential amp.       -0.1383 Ry
        Total length         44.6402 bohr
 
 
     Adding external electric field

     Computed dipole along edir(3) : 
        Dipole                0.4679 Ry au,          1.1894 Debye
        Dipole field          0.0015 Ry au
 
        Potential amp.       -0.1383 Ry
        Total length         44.6402 bohr
 
 
     Magnetic moment per site:
     atom:    1    charge:    7.0730    magn:    0.5329    constr:    0.0000
     atom:    2    charge:    7.0732    magn:    0.5681    constr:    0.0000
     atom:    3    charge:    7.0796    magn:    0.6120    constr:    0.0000
     atom:    4    charge:    7.0795    magn:    0.5655    constr:    0.0000
     atom:    5    charge:    7.0936    magn:    0.5357    constr:    0.0000
     atom:    6    charge:    7.0705    magn:    0.5831    constr:    0.0000
     atom:    7    charge:    7.0879    magn:    0.6486    constr:    0.0000
     atom:    8    charge:    7.0924    magn:    0.6504    constr:    0.0000
     atom:    9    charge:    7.0715    magn:    0.3343    constr:    0.0000
     atom:   10    charge:    7.0762    magn:    0.4156    constr:    0.0000
     atom:   11    charge:    7.0863    magn:    0.1904    constr:    0.0000
     atom:   12    charge:    7.0927    magn:    0.1975    constr:    0.0000
     atom:   13    charge:    0.6309    magn:   -0.0048    constr:    0.0000
     atom:   14    charge:    0.3312    magn:    0.0013    constr:    0.0000
     atom:   15    charge:    0.3725    magn:    0.0011    constr:    0.0000
     atom:   16    charge:    0.3724    magn:    0.0007    constr:    0.0000

     total cpu time spent up to now is      442.9 secs

     total energy              =   -3030.66571343 Ry
     Harris-Foulkes estimate   =   -3030.93280506 Ry
     estimated scf accuracy    <       8.28343137 Ry

     total magnetization       =    12.85 Bohr mag/cell
     absolute magnetization    =    13.40 Bohr mag/cell

     iteration # 23     ecut=    36.75 Ry     beta=0.30
     Davidson diagonalization with overlap
     ethr =  1.53E-03,  avg # of iterations =  1.1

     negative rho (up, down):  7.937E-05 2.056E-06
 
     Adding external electric field

     Computed dipole along edir(3) : 
        Dipole                0.5840 Ry au,          1.4844 Debye
        Dipole field          0.0019 Ry au
 
        Potential amp.       -0.1725 Ry
        Total length         44.6402 bohr
 
 
     Adding external electric field

     Computed dipole along edir(3) : 
        Dipole                0.5840 Ry au,          1.4844 Debye
        Dipole field          0.0019 Ry au
 
        Potential amp.       -0.1725 Ry
        Total length         44.6402 bohr
 
 
     Magnetic moment per site:
     atom:    1    charge:    7.0816    magn:    0.5539    constr:    0.0000
     atom:    2    charge:    7.0798    magn:    0.5914    constr:    0.0000
     atom:    3    charge:    7.0798    magn:    0.6466    constr:    0.0000
     atom:    4    charge:    7.0859    magn:    0.5930    constr:    0.0000
     atom:    5    charge:    7.0794    magn:    0.5629    constr:    0.0000
     atom:    6    charge:    7.0904    magn:    0.6062    constr:    0.0000
     atom:    7    charge:    7.0886    magn:    0.6719    constr:    0.0000
     atom:    8    charge:    7.0909    magn:    0.6613    constr:    0.0000
     atom:    9    charge:    7.0811    magn:    0.3756    constr:    0.0000
     atom:   10    charge:    7.0870    magn:    0.4366    constr:    0.0000
     atom:   11    charge:    7.1074    magn:    0.2778    constr:    0.0000
     atom:   12    charge:    7.0945    magn:    0.2863    constr:    0.0000
     atom:   13    charge:    0.6311    magn:   -0.0041    constr:    0.0000
     atom:   14    charge:    0.3284    magn:    0.0008    constr:    0.0000
     atom:   15    charge:    0.3689    magn:    0.0013    constr:    0.0000
     atom:   16    charge:    0.3688    magn:    0.0009    constr:    0.0000

     total cpu time spent up to now is      453.8 secs

     total energy              =   -3030.70832137 Ry
     Harris-Foulkes estimate   =   -3030.81900520 Ry
     estimated scf accuracy    <       2.10880098 Ry

     total magnetization       =    13.69 Bohr mag/cell
     absolute magnetization    =    14.29 Bohr mag/cell

     iteration # 24     ecut=    36.75 Ry     beta=0.30
     Davidson diagonalization with overlap
     ethr =  1.06E-03,  avg # of iterations =  4.2

     negative rho (up, down):  1.028E-04 1.894E-06
 
     Adding external electric field

     Computed dipole along edir(3) : 
        Dipole                0.5778 Ry au,          1.4687 Debye
        Dipole field          0.0019 Ry au
 
        Potential amp.       -0.1707 Ry
        Total length         44.6402 bohr
 
 
     Adding external electric field

     Computed dipole along edir(3) : 
        Dipole                0.5778 Ry au,          1.4687 Debye
        Dipole field          0.0019 Ry au
 
        Potential amp.       -0.1707 Ry
        Total length         44.6402 bohr
 
 
     Magnetic moment per site:
     atom:    1    charge:    7.0829    magn:    0.5457    constr:    0.0000
     atom:    2    charge:    7.0812    magn:    0.5835    constr:    0.0000
     atom:    3    charge:    7.0813    magn:    0.6341    constr:    0.0000
     atom:    4    charge:    7.0869    magn:    0.5871    constr:    0.0000
     atom:    5    charge:    7.0813    magn:    0.5623    constr:    0.0000
     atom:    6    charge:    7.0943    magn:    0.6015    constr:    0.0000
     atom:    7    charge:    7.0902    magn:    0.6735    constr:    0.0000
     atom:    8    charge:    7.0849    magn:    0.6675    constr:    0.0000
     atom:    9    charge:    7.0848    magn:    0.3564    constr:    0.0000
     atom:   10    charge:    7.0877    magn:    0.4273    constr:    0.0000
     atom:   11    charge:    7.0894    magn:    0.2471    constr:    0.0000
     atom:   12    charge:    7.1049    magn:    0.2633    constr:    0.0000
     atom:   13    charge:    0.6311    magn:   -0.0042    constr:    0.0000
     atom:   14    charge:    0.3289    magn:    0.0008    constr:    0.0000
     atom:   15    charge:    0.3693    magn:    0.0012    constr:    0.0000
     atom:   16    charge:    0.3692    magn:    0.0007    constr:    0.0000

     total cpu time spent up to now is      468.1 secs

     total energy              =   -3030.75382774 Ry
     Harris-Foulkes estimate   =   -3030.87009978 Ry
     estimated scf accuracy    <       4.18754767 Ry

     total magnetization       =    14.41 Bohr mag/cell
     absolute magnetization    =    15.10 Bohr mag/cell

     iteration # 25     ecut=    36.75 Ry     beta=0.30
     Davidson diagonalization with overlap
     ethr =  1.06E-03,  avg # of iterations =  1.0

     negative rho (up, down):  1.171E-04 3.392E-06
 
     Adding external electric field

     Computed dipole along edir(3) : 
        Dipole                0.5264 Ry au,          1.3380 Debye
        Dipole field          0.0017 Ry au
 
        Potential amp.       -0.1555 Ry
        Total length         44.6402 bohr
 
 
     Adding external electric field

     Computed dipole along edir(3) : 
        Dipole                0.5264 Ry au,          1.3380 Debye
        Dipole field          0.0017 Ry au
 
        Potential amp.       -0.1555 Ry
        Total length         44.6402 bohr
 
 
     Magnetic moment per site:
     atom:    1    charge:    7.0804    magn:    0.5491    constr:    0.0000
     atom:    2    charge:    7.0818    magn:    0.5872    constr:    0.0000
     atom:    3    charge:    7.0875    magn:    0.6320    constr:    0.0000
     atom:    4    charge:    7.0856    magn:    0.5885    constr:    0.0000
     atom:    5    charge:    7.0867    magn:    0.5652    constr:    0.0000
     atom:    6    charge:    7.0867    magn:    0.6061    constr:    0.0000
     atom:    7    charge:    7.0881    magn:    0.6782    constr:    0.0000
     atom:    8    charge:    7.0852    magn:    0.6715    constr:    0.0000
     atom:    9    charge:    7.0920    magn:    0.3537    constr:    0.0000
     atom:   10    charge:    7.0849    magn:    0.4273    constr:    0.0000
     atom:   11    charge:    7.0914    magn:    0.2256    constr:    0.0000
     atom:   12    charge:    7.0921    magn:    0.2614    constr:    0.0000
     atom:   13    charge:    0.6314    magn:   -0.0042    constr:    0.0000
     atom:   14    charge:    0.3293    magn:    0.0008    constr:    0.0000
     atom:   15    charge:    0.3697    magn:    0.0011    constr:    0.0000
     atom:   16    charge:    0.3696    magn:    0.0007    constr:    0.0000

     total cpu time spent up to now is      478.9 secs

     total energy              =   -3030.78016472 Ry
     Harris-Foulkes estimate   =   -3030.82774425 Ry
     estimated scf accuracy    <       1.64829411 Ry

     total magnetization       =    14.22 Bohr mag/cell
     absolute magnetization    =    15.08 Bohr mag/cell

     iteration # 26     ecut=    36.75 Ry     beta=0.30
     Davidson diagonalization with overlap
     ethr =  8.28E-04,  avg # of iterations =  1.0

     negative rho (up, down):  1.232E-04 5.400E-06
 
     Adding external electric field

     Computed dipole along edir(3) : 
        Dipole                0.4373 Ry au,          1.1114 Debye
        Dipole field          0.0014 Ry au
 
        Potential amp.       -0.1292 Ry
        Total length         44.6402 bohr
 
 
     Adding external electric field

     Computed dipole along edir(3) : 
        Dipole                0.4373 Ry au,          1.1114 Debye
        Dipole field          0.0014 Ry au
 
        Potential amp.       -0.1292 Ry
        Total length         44.6402 bohr
 
 
     Magnetic moment per site:
     atom:    1    charge:    7.0860    magn:    0.5551    constr:    0.0000
     atom:    2    charge:    7.0876    magn:    0.5988    constr:    0.0000
     atom:    3    charge:    7.0894    magn:    0.6467    constr:    0.0000
     atom:    4    charge:    7.0874    magn:    0.6008    constr:    0.0000
     atom:    5    charge:    7.0885    magn:    0.5721    constr:    0.0000
     atom:    6    charge:    7.0894    magn:    0.6125    constr:    0.0000
     atom:    7    charge:    7.0875    magn:    0.6935    constr:    0.0000
     atom:    8    charge:    7.0832    magn:    0.6826    constr:    0.0000
     atom:    9    charge:    7.0858    magn:    0.3566    constr:    0.0000
     atom:   10    charge:    7.0844    magn:    0.4282    constr:    0.0000
     atom:   11    charge:    7.0876    magn:    0.1852    constr:    0.0000
     atom:   12    charge:    7.0907    magn:    0.2543    constr:    0.0000
     atom:   13    charge:    0.6310    magn:   -0.0042    constr:    0.0000
     atom:   14    charge:    0.3304    magn:    0.0008    constr:    0.0000
     atom:   15    charge:    0.3708    magn:    0.0011    constr:    0.0000
     atom:   16    charge:    0.3708    magn:    0.0006    constr:    0.0000

     total cpu time spent up to now is      489.8 secs

     total energy              =   -3030.80175753 Ry
     Harris-Foulkes estimate   =   -3030.81808035 Ry
     estimated scf accuracy    <       0.84856080 Ry

     total magnetization       =    14.51 Bohr mag/cell
     absolute magnetization    =    15.25 Bohr mag/cell

     iteration # 27     ecut=    36.75 Ry     beta=0.30
     Davidson diagonalization with overlap
     ethr =  4.26E-04,  avg # of iterations =  1.1

     negative rho (up, down):  1.268E-04 7.974E-06
 
     Adding external electric field

     Computed dipole along edir(3) : 
        Dipole                0.3983 Ry au,          1.0123 Debye
        Dipole field          0.0013 Ry au
 
        Potential amp.       -0.1177 Ry
        Total length         44.6402 bohr
 
 
     Adding external electric field

     Computed dipole along edir(3) : 
        Dipole                0.3983 Ry au,          1.0123 Debye
        Dipole field          0.0013 Ry au
 
        Potential amp.       -0.1177 Ry
        Total length         44.6402 bohr
 
 
     Magnetic moment per site:
     atom:    1    charge:    7.0879    magn:    0.5672    constr:    0.0000
     atom:    2    charge:    7.0888    magn:    0.6153    constr:    0.0000
     atom:    3    charge:    7.0897    magn:    0.6655    constr:    0.0000
     atom:    4    charge:    7.0840    magn:    0.6141    constr:    0.0000
     atom:    5    charge:    7.0859    magn:    0.5808    constr:    0.0000
     atom:    6    charge:    7.0888    magn:    0.6221    constr:    0.0000
     atom:    7    charge:    7.0849    magn:    0.7066    constr:    0.0000
     atom:    8    charge:    7.0874    magn:    0.6893    constr:    0.0000
     atom:    9    charge:    7.0871    magn:    0.3640    constr:    0.0000
     atom:   10    charge:    7.0821    magn:    0.4342    constr:    0.0000
     atom:   11    charge:    7.0864    magn:    0.1713    constr:    0.0000
     atom:   12    charge:    7.0905    magn:    0.2608    constr:    0.0000
     atom:   13    charge:    0.6308    magn:   -0.0042    constr:    0.0000
     atom:   14    charge:    0.3311    magn:    0.0007    constr:    0.0000
     atom:   15    charge:    0.3714    magn:    0.0012    constr:    0.0000
     atom:   16    charge:    0.3714    magn:    0.0007    constr:    0.0000

     total cpu time spent up to now is      500.6 secs

     total energy              =   -3030.81467168 Ry
     Harris-Foulkes estimate   =   -3030.81782592 Ry
     estimated scf accuracy    <       0.23493562 Ry

     total magnetization       =    14.59 Bohr mag/cell
     absolute magnetization    =    15.48 Bohr mag/cell

     iteration # 28     ecut=    36.75 Ry     beta=0.30
     Davidson diagonalization with overlap
     ethr =  1.18E-04,  avg # of iterations =  4.8

     negative rho (up, down):  1.846E-04 1.542E-05
 
     Adding external electric field

     Computed dipole along edir(3) : 
        Dipole                0.5836 Ry au,          1.4835 Debye
        Dipole field          0.0019 Ry au
 
        Potential amp.       -0.1724 Ry
        Total length         44.6402 bohr
 
 
     Adding external electric field

     Computed dipole along edir(3) : 
        Dipole                0.5836 Ry au,          1.4835 Debye
        Dipole field          0.0019 Ry au
 
        Potential amp.       -0.1724 Ry
        Total length         44.6402 bohr
 
 
     Magnetic moment per site:
     atom:    1    charge:    7.0916    magn:    0.5499    constr:    0.0000
     atom:    2    charge:    7.0909    magn:    0.5940    constr:    0.0000
     atom:    3    charge:    7.0913    magn:    0.6488    constr:    0.0000
     atom:    4    charge:    7.0968    magn:    0.5972    constr:    0.0000
     atom:    5    charge:    7.0823    magn:    0.5635    constr:    0.0000
     atom:    6    charge:    7.0849    magn:    0.6079    constr:    0.0000
     atom:    7    charge:    7.0877    magn:    0.6888    constr:    0.0000
     atom:    8    charge:    7.0722    magn:    0.6799    constr:    0.0000
     atom:    9    charge:    7.0953    magn:    0.3538    constr:    0.0000
     atom:   10    charge:    7.0765    magn:    0.4306    constr:    0.0000
     atom:   11    charge:    7.0941    magn:    0.2098    constr:    0.0000
     atom:   12    charge:    7.1006    magn:    0.2586    constr:    0.0000
[...]
    -2.2850  -2.0864  -2.0603  -1.9540  -1.8682  -1.7706  -1.6187  -1.5233
    -1.4096  -1.3563  -1.1937  -1.1269  -0.9921  -0.8808  -0.7520  -0.6796
    -0.5541  -0.4141  -0.2844  -0.1969  -0.0923  -0.0593   0.0479   0.2179
     0.2862   0.4208   0.5235   0.5703   0.6653   0.7293   0.8057   0.9308
     1.0425   1.1143   1.1754   1.2358   1.3112   1.3718   1.5342   1.6918
     1.7734   1.9314   2.0248   2.0774   2.1791   2.3166   2.3437   2.4433
     2.6273   2.7037   2.7466   2.7723   2.8194

          k = 0.0322-0.0557 0.0000 ( 14299 PWs)   bands (ev):

   -87.5143 -87.3988 -87.3770 -84.3623 -84.1680 -84.1486 -84.1313 -84.1261
   -83.8326 -83.8081 -83.8057 -83.7997 -53.7833 -53.6156 -53.5734 -53.5080
   -53.4433 -53.3833 -53.3306 -53.2103 -53.1154 -50.5203 -50.5068 -50.4756
   -50.3629 -50.3336 -50.3225 -50.3072 -50.2886 -50.2750 -50.2108 -50.1868
   -50.1491 -50.1318 -50.1134 -50.0908 -50.0272 -50.0104 -50.0094 -49.9170
   -49.9044 -49.8985 -49.8963 -49.8952 -49.8561 -49.8555 -49.8423 -49.8048
   -11.8201  -5.5617  -5.0810  -4.8402  -3.8467  -3.1238  -2.8762  -2.6088
    -2.4266  -2.3498  -2.2917  -2.1683  -1.9225  -1.7406  -1.6507  -1.5092
    -1.2593  -1.1486  -1.0686  -1.0152  -0.8720  -0.8207  -0.7249  -0.6057
    -0.5898  -0.4844  -0.4437  -0.3412  -0.2167  -0.1520  -0.0014   0.3656
     0.4635   0.6225   0.6572   0.8010   0.8617   1.0109   1.0567   1.1559
     1.2263   1.2877   1.3168   1.3895   1.4680   1.5057   1.5859   1.6880
     1.7802   1.8558   1.9338   2.0382   2.1042   2.3601   2.4711   2.6423
     2.7017   2.7438   2.8162   2.9420   2.9903

          k = 0.0644-0.0372 0.0000 ( 14268 PWs)   bands (ev):

   -87.5145 -87.3971 -87.3786 -84.3623 -84.1664 -84.1497 -84.1318 -84.1261
   -83.8305 -83.8117 -83.8030 -83.8011 -53.7834 -53.6148 -53.5740 -53.5107
   -53.4363 -53.3868 -53.3264 -53.2011 -53.1294 -50.5221 -50.5038 -50.4755
   -50.3568 -50.3370 -50.3118 -50.2936 -50.2907 -50.2762 -50.2143 -50.1851
   -50.1730 -50.1266 -50.1201 -50.0891 -50.0171 -50.0162 -49.9869 -49.9156
   -49.9049 -49.8983 -49.8961 -49.8899 -49.8879 -49.8580 -49.8394 -49.8079
   -11.8135  -5.4317  -5.0750  -4.7992  -3.6926  -3.3147  -2.8758  -2.4808
    -2.3799  -2.3151  -2.2482  -2.0809  -1.9890  -1.7993  -1.6679  -1.3698
    -1.2625  -1.1878  -1.0899  -1.0409  -1.0005  -0.8272  -0.7669  -0.6159
    -0.5801  -0.4357  -0.3757  -0.3081  -0.2639  -0.1138  -0.0141   0.2928
     0.3896   0.5836   0.6575   0.7077   0.7952   1.0019   1.0384   1.0990
     1.1571   1.1806   1.2750   1.3052   1.3524   1.4807   1.5410   1.6497
     1.7757   1.8689   1.9451   2.0350   2.2166   2.2989   2.5162   2.6001
     2.6738   2.7114   2.8021   2.8215   2.8662

          k = 0.0644-0.0000 0.0000 ( 14299 PWs)   bands (ev):

   -87.5146 -87.3970 -87.3786 -84.3623 -84.1687 -84.1461 -84.1352 -84.1241
   -83.8326 -83.8072 -83.8067 -83.7996 -53.7835 -53.6146 -53.5741 -53.5098
   -53.4408 -53.3829 -53.3374 -53.1925 -53.1273 -50.5221 -50.5052 -50.4750
   -50.3592 -50.3403 -50.3184 -50.3014 -50.2926 -50.2785 -50.2156 -50.1778
   -50.1517 -50.1384 -50.1168 -50.0822 -50.0281 -50.0115 -50.0078 -49.9172
   -49.9024 -49.9007 -49.8960 -49.8942 -49.8580 -49.8542 -49.8414 -49.8057
   -11.8188  -5.5808  -5.1032  -4.7957  -3.8329  -3.0044  -2.8899  -2.7090
    -2.4372  -2.3457  -2.2376  -2.1572  -2.0356  -1.7872  -1.6826  -1.5361
    -1.2258  -1.1539  -1.0324  -0.9589  -0.8426  -0.8208  -0.7351  -0.6291
    -0.6044  -0.4735  -0.4370  -0.3408  -0.2537  -0.0598   0.0244   0.3432
     0.4006   0.6494   0.6949   0.8039   0.8371   0.9614   1.0486   1.1735
     1.2118   1.2576   1.2887   1.4172   1.4853   1.5311   1.5849   1.7072
     1.7467   1.8582   1.9139   1.9444   2.0972   2.3612   2.5149   2.6644
     2.7325   2.7750   2.7955   2.9346   3.0090

          k = 0.0644 0.0372 0.0000 ( 14268 PWs)   bands (ev):

   -87.5144 -87.3972 -87.3785 -84.3623 -84.1676 -84.1442 -84.1387 -84.1236
   -83.8305 -83.8116 -83.8034 -83.8008 -53.7835 -53.6145 -53.5743 -53.5054
   -53.4397 -53.3832 -53.3367 -53.2009 -53.1245 -50.5222 -50.5044 -50.4748
   -50.3548 -50.3307 -50.3214 -50.3008 -50.2857 -50.2767 -50.2132 -50.1764
   -50.1660 -50.1359 -50.1306 -50.0819 -50.0185 -50.0158 -49.9862 -49.9160
   -49.9031 -49.9009 -49.8949 -49.8889 -49.8878 -49.8573 -49.8402 -49.8086
   -11.8135  -5.4307  -5.0622  -4.8179  -3.6704  -3.3042  -2.9024  -2.4914
    -2.4143  -2.3228  -2.2711  -2.0849  -1.9506  -1.7748  -1.6540  -1.3842
    -1.2746  -1.1990  -1.0891  -1.0406  -1.0158  -0.8106  -0.7406  -0.5678
    -0.5606  -0.4542  -0.3623  -0.3054  -0.2655  -0.0794  -0.0173   0.2746
     0.4057   0.5659   0.6325   0.7071   0.7990   0.9950   1.0326   1.0975
     1.1567   1.1799   1.2762   1.3117   1.3568   1.4686   1.5440   1.6598
     1.7841   1.8259   1.9435   2.0311   2.2329   2.2722   2.5127   2.5828
     2.6694   2.6956   2.7950   2.8220   2.8746

          k = 0.0644-0.1487 0.0000 ( 14261 PWs)   bands (ev):

   -87.5142 -87.3975 -87.3785 -84.3623 -84.1643 -84.1460 -84.1401 -84.1238
   -83.8246 -83.8150 -83.8082 -83.7985 -53.7833 -53.6147 -53.5743 -53.5007
   -53.4358 -53.3882 -53.3217 -53.2185 -53.1250 -50.5222 -50.5023 -50.4750
   -50.3449 -50.3207 -50.3117 -50.2989 -50.2833 -50.2581 -50.2185 -50.2002
   -50.1687 -50.1442 -50.1351 -50.0930 -50.0046 -49.9868 -49.9573 -49.9317
   -49.9130 -49.9047 -49.9022 -49.8950 -49.8933 -49.8692 -49.8405 -49.8217
   -11.8030  -5.2529  -4.9077  -4.6342  -3.6649  -3.2910  -2.9495  -2.6618
    -2.3703  -2.1365  -2.0623  -1.9294  -1.8862  -1.7710  -1.6484  -1.5520
    -1.4646  -1.2869  -1.1586  -1.0803  -0.9961  -0.8826  -0.7215  -0.6456
    -0.5479  -0.3902  -0.3009  -0.1988  -0.1013  -0.0416   0.0556   0.2402
     0.3153   0.4093   0.5035   0.5574   0.6385   0.7327   0.8201   0.8836
     0.9758   1.1113   1.2007   1.2341   1.3099   1.4153   1.5362   1.6949
     1.7943   1.9169   2.0210   2.0672   2.1720   2.2827   2.3505   2.4440
     2.6487   2.6728   2.7450   2.7807   2.8179

          k = 0.0644-0.1115 0.0000 ( 14268 PWs)   bands (ev):

   -87.5140 -87.3976 -87.3785 -84.3623 -84.1609 -84.1510 -84.1378 -84.1245
   -83.8177 -83.8166 -83.8146 -83.7973 -53.7832 -53.6149 -53.5742 -53.5005
   -53.4330 -53.3921 -53.3046 -53.2319 -53.1275 -50.5220 -50.5010 -50.4755
   -50.3398 -50.3200 -50.3094 -50.2860 -50.2705 -50.2519 -50.2335 -50.2187
   -50.1713 -50.1410 -50.1266 -50.1098 -49.9762 -49.9712 -49.9456 -49.9423
   -49.9412 -49.9087 -49.9063 -49.9025 -49.8936 -49.8459 -49.8447 -49.8426
   -11.7977  -5.2236  -4.9261  -3.8968  -3.8172  -3.7300  -3.0499  -2.3499
    -2.3009  -2.1780  -1.9746  -1.8878  -1.8612  -1.8263  -1.6795  -1.5900
    -1.5150  -1.4689  -1.2509  -1.1731  -0.9515  -0.8161  -0.7202  -0.6198
    -0.5016  -0.3510  -0.2615  -0.1444  -0.0979  -0.0643   0.2146   0.2317
     0.2659   0.3293   0.4214   0.4578   0.5393   0.5956   0.6589   0.7398
     0.9678   1.0680   1.1556   1.2352   1.2627   1.4410   1.5265   1.6359
     1.8684   1.8854   1.9549   2.0536   2.1846   2.3045   2.3811   2.5886
     2.6292   2.6530   2.7512   2.8446   2.9197

          k = 0.0644-0.0743 0.0000 ( 14261 PWs)   bands (ev):

   -87.5142 -87.3974 -87.3786 -84.3623 -84.1619 -84.1529 -84.1333 -84.1261
   -83.8245 -83.8152 -83.8080 -83.7985 -53.7832 -53.6150 -53.5741 -53.5062
   -53.4322 -53.3913 -53.3097 -53.2215 -53.1292 -50.5219 -50.5018 -50.4757
   -50.3474 -50.3287 -50.3064 -50.2887 -50.2743 -50.2622 -50.2291 -50.2073
   -50.1716 -50.1383 -50.1199 -50.1032 -50.0037 -49.9863 -49.9579 -49.9325
   -49.9124 -49.9068 -49.8999 -49.8958 -49.8941 -49.8697 -49.8399 -49.8209
   -11.8030  -5.2655  -4.8821  -4.6445  -3.6861  -3.2931  -2.9509  -2.6164
    -2.3702  -2.1271  -2.0527  -1.9261  -1.8863  -1.7420  -1.6564  -1.5499
    -1.4312  -1.3198  -1.1976  -1.1405  -0.9815  -0.8631  -0.7382  -0.6785
    -0.5701  -0.4048  -0.2934  -0.2075  -0.1025  -0.0477   0.0546   0.2476
     0.3315   0.4364   0.5211   0.5567   0.6337   0.7180   0.8219   0.8912
     0.9974   1.1056   1.2031   1.2408   1.3275   1.3835   1.5234   1.7204
     1.7809   1.9119   2.0184   2.0839   2.1748   2.3051   2.3560   2.4389
     2.6467   2.6927   2.7437   2.7898   2.8170

          k =-0.0966 0.0557 0.0000 ( 14254 PWs)   bands (ev):

   -87.5143 -87.3963 -87.3796 -84.3623 -84.1612 -84.1542 -84.1317 -84.1270
   -83.8219 -83.8202 -83.8030 -83.8011 -53.7833 -53.6146 -53.5744 -53.5093
   -53.4280 -53.3930 -53.3117 -53.2109 -53.1372 -50.5228 -50.5008 -50.4757
   -50.3471 -50.3330 -50.2993 -50.2942 -50.2763 -50.2516 -50.2226 -50.2058
   -50.1937 -50.1428 -50.1105 -50.1003 -50.0015 -50.0011 -49.9259 -49.9229
   -49.9101 -49.9079 -49.9057 -49.9049 -49.8979 -49.8946 -49.8241 -49.8234
   -11.8023  -5.3047  -4.8200  -4.3895  -4.2402  -3.2102  -2.7022  -2.5737
    -2.3745  -2.2442  -2.0693  -1.9509  -1.8569  -1.6829  -1.6043  -1.4747
    -1.3002  -1.2417  -1.2186  -1.1572  -1.0874  -0.9874  -0.9460  -0.6363
    -0.5681  -0.3550  -0.2912  -0.1791  -0.1123  -0.0002   0.0266   0.2553
     0.3527   0.4234   0.5122   0.5761   0.6604   0.8092   0.8290   0.8670
     0.9091   0.9943   1.2218   1.2751   1.3692   1.3912   1.3950   1.6874
     1.8642   1.9481   2.0167   2.1144   2.2149   2.3820   2.4071   2.4821
     2.5290   2.5592   2.6692   2.7640   2.7825

          k =-0.0966 0.0929 0.0000 ( 14261 PWs)   bands (ev):

   -87.5143 -87.3964 -87.3795 -84.3623 -84.1628 -84.1511 -84.1351 -84.1251
   -83.8246 -83.8150 -83.8081 -83.7985 -53.7833 -53.6145 -53.5745 -53.5070
   -53.4308 -53.3916 -53.3148 -53.2099 -53.1359 -50.5228 -50.5009 -50.4755
   -50.3458 -50.3291 -50.3011 -50.2953 -50.2769 -50.2613 -50.2265 -50.2056
   -50.1764 -50.1394 -50.1214 -50.0986 -50.0043 -49.9860 -49.9582 -49.9318
   -49.9126 -49.9061 -49.9007 -49.8948 -49.8942 -49.8701 -49.8395 -49.8215
   -11.8023  -5.2979  -4.8432  -4.6436  -3.6956  -3.2542  -2.9015  -2.7029
    -2.3449  -2.1062  -2.0495  -2.0169  -1.8795  -1.7920  -1.6742  -1.5390
    -1.4167  -1.2809  -1.1903  -1.1107  -0.9907  -0.9006  -0.7088  -0.6515
    -0.5277  -0.4309  -0.2761  -0.1975  -0.1205  -0.0413   0.0512   0.2246
     0.3132   0.4159   0.4967   0.5903   0.6467   0.7310   0.8271   0.8723
     1.0005   1.1050   1.1789   1.2493   1.3247   1.3826   1.5179   1.6989
     1.7982   1.8945   2.0330   2.0825   2.1830   2.2322   2.3623   2.4836
     2.6351   2.7057   2.7477   2.8119   2.8566

          k =-0.0966 0.1301 0.0000 ( 14261 PWs)   bands (ev):

   -87.5143 -87.3965 -87.3794 -84.3623 -84.1642 -84.1464 -84.1397 -84.1238
   -83.8246 -83.8149 -83.8082 -83.7985 -53.7834 -53.6143 -53.5746 -53.5033
   -53.4333 -53.3900 -53.3212 -53.2095 -53.1324 -50.5230 -50.5013 -50.4750
   -50.3450 -50.3221 -50.3070 -50.3003 -50.2835 -50.2553 -50.2222 -50.2061
   -50.1655 -50.1463 -50.1323 -50.0918 -50.0048 -49.9867 -49.9574 -49.9315
   -49.9130 -49.9044 -49.9021 -49.8953 -49.8932 -49.8693 -49.8403 -49.8219
   -11.8023  -5.2918  -4.8565  -4.6394  -3.6756  -3.2590  -2.9076  -2.7181
    -2.3492  -2.1253  -2.0627  -2.0224  -1.8500  -1.7898  -1.6947  -1.5245
    -1.4253  -1.2726  -1.1887  -1.1008  -0.9957  -0.8904  -0.7057  -0.6226
    -0.4904  -0.4258  -0.2976  -0.2068  -0.1066  -0.0450   0.0521   0.2301
     0.3193   0.4042   0.4937   0.5896   0.6341   0.7413   0.8214   0.8717
     0.9805   1.1073   1.1692   1.2494   1.3231   1.3979   1.5215   1.6739
     1.8064   1.9034   2.0412   2.1001   2.1337   2.2421   2.3630   2.4706
     2.6361   2.6824   2.7515   2.8068   2.8476

          k =-0.0966-0.0557 0.0000 ( 14254 PWs)   bands (ev):

   -87.5143 -87.3966 -87.3793 -84.3623 -84.1645 -84.1442 -84.1418 -84.1236
   -83.8222 -83.8198 -83.8034 -83.8008 -53.7834 -53.6142 -53.5747 -53.5022
   -53.4329 -53.3897 -53.3246 -53.2101 -53.1303 -50.5231 -50.5015 -50.4747
   -50.3456 -50.3199 -50.3109 -50.3021 -50.2856 -50.2475 -50.2129 -50.1986
   -50.1880 -50.1490 -50.1306 -50.0868 -50.0036 -50.0005 -49.9247 -49.9226
   -49.9113 -49.9069 -49.9057 -49.9031 -49.8987 -49.8941 -49.8250 -49.8239
   -11.8023  -5.2925  -4.8470  -4.3824  -4.2239  -3.1817  -2.7618  -2.5306
    -2.4431  -2.2416  -2.0713  -1.9807  -1.8692  -1.6618  -1.6080  -1.4905
    -1.3275  -1.2109  -1.1781  -1.1327  -1.0285  -1.0158  -0.9605  -0.5869
    -0.5001  -0.3393  -0.3052  -0.2013  -0.1214  -0.0002   0.0320   0.2724
     0.3490   0.4116   0.4692   0.5796   0.6688   0.8107   0.8316   0.8835
     0.8939   0.9640   1.2096   1.2910   1.3552   1.3932   1.4020   1.6924
     1.8478   1.9601   2.0129   2.1177   2.1612   2.3872   2.4022   2.4943
     2.5142   2.5309   2.6881   2.7331   2.7829

     the Fermi energy is     1.4023 ev

!    total energy              =   -3031.13840363 Ry
     Harris-Foulkes estimate   =   -3031.13840373 Ry
     estimated scf accuracy    <       0.00000008 Ry

     The total energy is the sum of the following terms:

     one-electron contribution =  -26261.72813468 Ry
     hartree contribution      =   13134.45957240 Ry
     xc contribution           =    -369.39527335 Ry
     ewald contribution        =   10465.61958296 Ry
     electric field correction =       0.00008952 Ry
     smearing contrib. (-TS)   =      -0.09424048 Ry

     total magnetization       =    15.05 Bohr mag/cell
     absolute magnetization    =    31.65 Bohr mag/cell

     convergence has been achieved in  17 iterations
 
 BEEF-vdW xc energy contributions
           1 :   -323.016233728124     
           2 :    291.839715518793     
           3 :   -239.850469105442     
           4 :    182.515398707614     
           5 :   -133.483037841569     
           6 :    99.6801413232490     
           7 :   -80.3853310115609     
           8 :    69.8939385584337     
           9 :   -61.7447333609922     
          10 :    52.0626574181348     
          11 :   -40.5882793348921     
          12 :    29.4638485726764     
          13 :   -21.0517486466852     
          14 :    16.2606185528243     
          15 :   -14.2273412584103     
          16 :    13.1753092285368     
          17 :   -11.6335037193149     
          18 :    9.17186543951777     
          19 :   -6.33904786981356     
          20 :    4.03014357691455     
          21 :   -2.81041456118135     
          22 :    2.59815901409951     
          23 :   -2.81598371513684     
          24 :    2.80374968714386     
          25 :   -2.20067768085755     
          26 :    1.08173266400763     
          27 :   0.161619753668504     
          28 :   -1.08269826357218     
          29 :    1.41937564310513     
          30 :   -1.21479481399439     
          31 :   -28.7674396222160     
          32 :   -20.2831958554119     

     Forces acting on atoms (Ry/au):


     negative rho (up, down):  5.515E-04 7.313E-04
     atom    1 type  1   force =     0.00018335    0.00043199    0.00326574
     atom    2 type  1   force =    -0.00025349   -0.00002901   -0.00201776
     atom    3 type  1   force =    -0.00110128   -0.00040398   -0.00193148
     atom    4 type  1   force =     0.00108436    0.00001010   -0.00146953
     atom    5 type  1   force =     0.00381716   -0.00656374   -0.00537716
     atom    6 type  1   force =    -0.00358957   -0.00485923   -0.00657387
     atom    7 type  1   force =     0.00182065    0.00628288    0.01543038
     atom    8 type  1   force =    -0.00091031    0.00164539   -0.00049163
     atom    9 type  1   force =    -0.00097498    0.00035445   -0.00138500
     atom   10 type  1   force =     0.00044678    0.00072978   -0.00009152
     atom   11 type  1   force =    -0.00063664    0.00114413   -0.00055943
     atom   12 type  1   force =    -0.00019021   -0.00186524    0.00039306
     atom   13 type  2   force =     0.00019651    0.00095657    0.00044350
     atom   14 type  3   force =    -0.00037548   -0.00029228    0.00097418
     atom   15 type  3   force =     0.00098995    0.00166738   -0.00055779
     atom   16 type  3   force =    -0.00050680    0.00079079   -0.00005168

     Total force =     0.004088     Total SCF correction =     0.000340


     entering subroutine stress ...


     negative rho (up, down):  5.515E-04 7.313E-04
          total   stress  (Ry/bohr**3)                   (kbar)     P=  -17.46
  -0.00017761   0.00000045  -0.00000054        -26.13      0.07     -0.08
   0.00000045  -0.00017249   0.00000739          0.07    -25.37      1.09
  -0.00000054   0.00000739  -0.00000600         -0.08      1.09     -0.88


     bfgs converged in  24 scf cycles and  23 bfgs steps
     (criteria: energy <  1.0E+00, force <  1.9E-03)

     End of BFGS Geometry Optimization

     Final energy   =   -3031.1384036303 Ry
Begin final coordinates

ATOMIC_POSITIONS (crystal)
Fe1      0.166666667   0.166666667   0.412740767    0   0   0
Fe1      0.666666667   0.166666667   0.412740767    0   0   0
Fe1      0.166666667   0.666666667   0.412740767    0   0   0
Fe1      0.666666667   0.666666667   0.412740767    0   0   0
Fe1      0.833333333   0.333333333   0.500000000    0   0   0
Fe1      0.333333333   0.333333333   0.500000000    0   0   0
Fe1      0.833333333   0.833333333   0.500000000    0   0   0
Fe1      0.333333333   0.833333333   0.500000000    0   0   0
Fe1      0.020916113  -0.002535112   0.589352115
Fe1      0.494626002  -0.006272185   0.587037681
Fe1     -0.004375395   0.507101963   0.583897560
Fe1      0.507512659   0.484096946   0.576117462
C1       0.226924397   0.014990917   0.663376945
H1       0.446319615   0.001200439   0.670659181
H1       0.062983980   0.215563595   0.685340218
H1       0.245113878   0.819882856   0.684646366
End final coordinates



     Writing output data file calc.save
 
     init_run     :      6.54s CPU      6.75s WALL (       1 calls)
     electrons    :  15736.52s CPU  16063.22s WALL (      24 calls)
     update_pot   :     14.31s CPU     14.89s WALL (      23 calls)
     forces       :     73.10s CPU     74.21s WALL (      24 calls)
     stress       :    239.02s CPU    240.60s WALL (      24 calls)

     Called by init_run:
     wfcinit      :      5.12s CPU      5.23s WALL (       1 calls)
     potinit      :      0.43s CPU      0.48s WALL (       1 calls)

     Called by electrons:
     c_bands      :  13281.60s CPU  13525.16s WALL (     937 calls)
     sum_band     :   1710.07s CPU   1750.44s WALL (     937 calls)
     v_of_rho     :    237.41s CPU    267.09s WALL (     961 calls)
     newd         :    314.66s CPU    315.66s WALL (     961 calls)
     mix_rho      :     13.76s CPU     14.77s WALL (     937 calls)
     vdW_energy   :     84.33s CPU     96.30s WALL (    1825 calls)
     vdW_ffts     :     99.90s CPU    111.71s WALL (    3698 calls)
     vdW_v        :     52.35s CPU     54.14s WALL (    1825 calls)

     Called by c_bands:
     init_us_2    :     76.22s CPU     77.62s WALL (   76920 calls)
     cegterg      :  12789.66s CPU  13029.19s WALL (   37480 calls)

     Called by *egterg:
     h_psi        :   5306.65s CPU   5448.34s WALL (  188120 calls)
     s_psi        :    596.51s CPU    598.05s WALL (  188120 calls)
     g_psi        :     24.56s CPU     24.78s WALL (  150600 calls)
     cdiaghg      :   3916.16s CPU   3986.48s WALL (  187160 calls)

     Called by h_psi:
     add_vuspsi   :    606.43s CPU    608.34s WALL (  188120 calls)

     General routines
     calbec       :    990.16s CPU   1045.88s WALL (  227520 calls)
     fft          :    216.32s CPU    237.73s WALL (  134337 calls)
     ffts         :      1.76s CPU      1.89s WALL (    3796 calls)
     fftw         :   4026.32s CPU   4127.57s WALL (24029634 calls)
     interpolate  :      7.74s CPU      8.67s WALL (    3796 calls)
     davcio       :      0.01s CPU      0.03s WALL (      40 calls)
 
     Parallel routines
     fft_scatter  :   1910.15s CPU   1978.18s WALL (24167767 calls)
 
     PWSCF        :     4h28m CPU        4h33m WALL

 
   This run was terminated on:   1:20:30  12Jul2018            

=------------------------------------------------------------------------------=
   JOB DONE.
=------------------------------------------------------------------------------=
