  python dir          : /u/if/mamunm/src/espresso
  espresso dir        : /nfs/slac/g/suncatfs/sw/espv18/espresso-dynpy-beef/bin
  pseudo dir          : /u/if/mamunm/psp/gbrv1.5pbe
  ase-espresso py git : GITVERSION



     Program PWSCF v.5.1rc2 (svn rev. 11289) starts on 16Apr2018 at 12:17:28 

     This program is part of the open-source Quantum ESPRESSO suite
     for quantum simulation of materials; please cite
         "P. Giannozzi et al., J. Phys.:Condens. Matter 21 395502 (2009);
          URL http://www.quantum-espresso.org", 
     in publications or presentations arising from this work. More details at
     http://www.quantum-espresso.org/quote

     Parallel version (MPI), running on    32 processors
     K-points division:     npool     =       4
     R & G space division:  proc/nbgrp/npool/nimage =       8
     Reading input from pw.inp
     Message from routine read_cards :
     DEPRECATED: no units specified in CELL_PARAMETERS card

     Current dimensions of program PWSCF are:
     Max number of different atomic species (ntypx) = 10
     Max number of k-points (npk) =  40000
     Max angular momentum in pseudopotentials (lmaxx) =  3
     Presently stress not available with electric field


     **************************************************************************
     Initializing libbeef V0.1.1 with the BEEF-vdW functional.
     Citation: Wellendorff et al., PRB 85, 235149 (2012).
     **************************************************************************


     IMPORTANT: XC functional enforced from input :
     Exchange-correlation      = BEEF-VDW ( 1  4 27 13 2)
     Any further DFT definition will be discarded
     Please, verify this is what you really want


     Subspace diagonalization in iterative solution of the eigenvalue problem:
     a serial algorithm will be used

 
     Parallelization info
     --------------------
     sticks:   dense  smooth     PW     G-vecs:    dense   smooth      PW
     Min         400     160     45                76520    19367    3017
     Max         401     161     46                76543    19393    3034
     Sum        3205    1285    367               612275   155017   24235
 


     bravais-lattice index     =            0
     lattice parameter (alat)  =       1.8897  a.u.
     unit-cell volume          =    5144.9564 (a.u.)^3
     number of atoms/cell      =           15
     number of atomic types    =            3
     number of electrons       =       138.00
     number of Kohn-Sham states=           79
     kinetic-energy cutoff     =      36.7493  Ry
     charge density cutoff     =     367.4932  Ry
     convergence threshold     =      1.0E-05
     mixing beta               =       0.3000
     number of iterations used =           10  plain     mixing
     Exchange-correlation      = BEEF-VDW ( 1  4 27 13 2)
     nstep                     =           50


     celldm(1)=   1.889726  celldm(2)=   0.000000  celldm(3)=   0.000000
     celldm(4)=   0.000000  celldm(5)=   0.000000  celldm(6)=   0.000000

     crystal axes: (cart. coord. in units of alat)
               a(1) = (   5.950946   0.000000   0.000000 )  
               a(2) = (   2.975473   5.153671   0.000000 )  
               a(3) = (   0.000000   0.000000  24.858927 )  

     reciprocal axes: (cart. coord. in units 2 pi/alat)
               b(1) = (  0.168040 -0.097018  0.000000 )  
               b(2) = (  0.000000  0.194036  0.000000 )  
               b(3) = (  0.000000  0.000000  0.040227 )  


     PseudoPot. # 1 for Au read from file:
     /u/if/mamunm/psp/gbrv1.5pbe/Au.UPF
     MD5 check sum: 9d7f43293ad2c663164586bc4b293ffc
     Pseudo is Ultrasoft + core correction, Zval = 11.0
     Generated by new atomic code, or converted to UPF format
     Using radial grid of  985 points,  7 beta functions with: 
                l(1) =   0
                l(2) =   0
                l(3) =   1
                l(4) =   1
                l(5) =   2
                l(6) =   2
                l(7) =   3
     Q(r) pseudized with  6 coefficients,  rinner =    1.900   1.900   1.900
                                                       1.900   1.900   1.900
                                                       1.900

     PseudoPot. # 2 for C  read from file:
     /u/if/mamunm/psp/gbrv1.5pbe/C.UPF
     MD5 check sum: d1aef80898a10debaa0f26306b886e00
     Pseudo is Ultrasoft + core correction, Zval =  4.0
     Generated by new atomic code, or converted to UPF format
     Using radial grid of  721 points,  4 beta functions with: 
                l(1) =   0
                l(2) =   0
                l(3) =   1
                l(4) =   1
     Q(r) pseudized with  8 coefficients,  rinner =    1.100   1.100   1.100


     PseudoPot. # 3 for H  read from file:
     /u/if/mamunm/psp/gbrv1.5pbe/H.UPF
     MD5 check sum: 761ae9a214b05c3daf00ab9f6b793d6f
     Pseudo is Ultrasoft, Zval =  1.0
     Generated by new atomic code, or converted to UPF format
     Using radial grid of  615 points,  2 beta functions with: 
                l(1) =   0
                l(2) =   0
     Q(r) pseudized with  8 coefficients,  rinner =    0.700

     vdW kernel table read from file vdW_kernel_table
     MD5 check sum: 095c7af220d748ca6e76c0b4c6cfb241

     atomic species   valence    mass     pseudopotential
        Au1           11.00   196.96657     Au( 1.00)
        C1             4.00    12.01100     C ( 1.00)
        H1             1.00     1.00800     H ( 1.00)

     No symmetry found



   Cartesian axes

     site n.     atom                  positions (alat units)
         1           Au1 tau(   1) = (   1.4877366   0.8589451  10.0000000  )
         2           Au1 tau(   2) = (   4.4632098   0.8589451  10.0000000  )
         3           Au1 tau(   3) = (   2.9754732   3.4357805  10.0000000  )
         4           Au1 tau(   4) = (   5.9509464   3.4357805  10.0000000  )
         5           Au1 tau(   5) = (   5.9509464   1.7178903  12.4294637  )
         6           Au1 tau(   6) = (   2.9754732   1.7178903  12.4294637  )
         7           Au1 tau(   7) = (   7.4386830   4.2947256  12.4294637  )
         8           Au1 tau(   8) = (   4.4632098   4.2947256  12.4294637  )
         9           Au1 tau(   9) = (   0.0000000   0.0000000  14.8589274  )
        10           Au1 tau(  10) = (   2.9754732   0.0000000  14.8589274  )
        11           Au1 tau(  11) = (   1.4877366   2.5768354  14.8589274  )
        12           Au1 tau(  12) = (   4.4632098   2.5768354  14.8589274  )
        13           C1  tau(  13) = (   1.4877366   0.0000000  16.4489274  )
        14           H1  tau(  14) = (   2.1177366   0.6300000  17.0789274  )
        15           H1  tau(  15) = (   3.8332098   4.5236708  17.0789274  )

     number of k points=    20  Fermi-Dirac smearing, width (Ry)=  0.0110
                       cart. coord. in units 2pi/alat
        k(    1) = (   0.0000000   0.0000000   0.0000000), wk =   0.0555556
        k(    2) = (   0.0000000   0.0323394   0.0000000), wk =   0.1111111
        k(    3) = (   0.0000000   0.0646788   0.0000000), wk =   0.1111111
        k(    4) = (   0.0000000  -0.0970182   0.0000000), wk =   0.0555556
        k(    5) = (   0.0280067  -0.0161697   0.0000000), wk =   0.1111111
        k(    6) = (   0.0280067   0.0161697   0.0000000), wk =   0.1111111
        k(    7) = (   0.0280067   0.0485091   0.0000000), wk =   0.1111111
        k(    8) = (   0.0280067  -0.1131879   0.0000000), wk =   0.1111111
        k(    9) = (   0.0280067  -0.0808485   0.0000000), wk =   0.1111111
        k(   10) = (   0.0280067  -0.0485091   0.0000000), wk =   0.1111111
        k(   11) = (   0.0560135  -0.0323394   0.0000000), wk =   0.1111111
        k(   12) = (   0.0560135   0.0000000   0.0000000), wk =   0.1111111
        k(   13) = (   0.0560135   0.0323394   0.0000000), wk =   0.1111111
        k(   14) = (   0.0560135  -0.1293576   0.0000000), wk =   0.1111111
        k(   15) = (   0.0560135  -0.0970182   0.0000000), wk =   0.1111111
        k(   16) = (   0.0560135  -0.0646788   0.0000000), wk =   0.1111111
        k(   17) = (  -0.0840202   0.0485091   0.0000000), wk =   0.0555556
        k(   18) = (  -0.0840202   0.0808485   0.0000000), wk =   0.1111111
        k(   19) = (  -0.0840202   0.1131879   0.0000000), wk =   0.1111111
        k(   20) = (  -0.0840202  -0.0485091   0.0000000), wk =   0.0555556

     Dense  grid:   612275 G-vectors     FFT dimensions: (  72,  72, 288)

     Smooth grid:   155017 G-vectors     FFT dimensions: (  45,  45, 192)

     Largest allocated arrays     est. size (Mb)     dimensions
        Kohn-Sham Wavefunctions         2.95 Mb     (    2444,   79)
        NL pseudopotentials            11.64 Mb     (    2444,  312)
        Each V/rho on FFT grid          2.85 Mb     (  186624)
        Each G-vector array             0.58 Mb     (   76543)
        G-vector shells                 0.16 Mb     (   20517)
     Largest temporary arrays     est. size (Mb)     dimensions
        Auxiliary wavefunctions        11.78 Mb     (    2444,  316)
        Each subspace H/S matrix        1.52 Mb     (     316,  316)
        Each <psi_i|beta_j> matrix      0.38 Mb     (     312,   79)
        Arrays for rho mixing          28.48 Mb     (  186624,   10)

     Check: negative/imaginary core charge=   -0.000002    0.000000

     Initial potential from superposition of free atoms
     Check: negative starting charge=   -0.000110

     starting charge  137.99847, renormalised to  138.00000

     negative rho (up, down):  1.098E-04 0.000E+00


     ************************************************************************
     *
     * You are using vdW-DF for exchange-correlation in this calculation.
     * Please cite the following three references that made this development
     * possible:
     *
     *   M. Dion, H. Rydberg, E. Schroder, D. C. Langreth, and
     *   B. I. Lundqvist, Phys. Rev. Lett. 92, 246401 (2004).
     *
     *   T. Thonhauser, V. R. Cooper, S. Li, A. Puzder, P. Hyldgaard, and
     *   D. C. Langreth, Phys. Rev. B 76, 125112 (2007).
     *
     *   G. Roman-Perez and J. M. Soler, Phys. Rev. Lett. 103, 096102 (2009).
     *
     *
     * If you are using vdW-DF2, please also cite:
     *
     *   K. Lee, E. D. Murray, L. Kong, B. I. Lundqvist, and
     *   D. C. Langreth, Phys. Rev. B 82, 081101(R) (2010).
     *
     *
     * If you are calculating the stress with vdW-DF, please also cite:
     *
     *   R. Sabatini, E. Kucukbenli, B. Kolb, T. Thonhauser, and
     *   S. de Gironcoli, J. Phys.: Condens. Matter 24, 424209 (2012).
     *
     ************************************************************************

     Carrying out vdW-DF run using the following parameters:

     Nqs =      20    Nr_points =    1024   r_max =   100.000
     q_mesh =
               0.00001000     0.04494208     0.09755937     0.15916263
               0.23128650     0.31572767     0.41458969     0.53033537
               0.66584808     0.82450364     1.01025438     1.22772762
               1.48234092     1.78043706     2.12944203     2.53805004
               3.01644009     3.57652955     4.23227104     5.00000000

     Gradients computed in reciprocal space

     ************************************************************************


 
     Adding external electric field

     Computed dipole along edir(3) : 
        Dipole               -0.0001 Ry au,         -0.0002 Debye
        Dipole field         -0.0000 Ry au
 
        Potential amp.        0.0000 Ry
        Total length         45.8022 bohr
 
     Starting wfc are  114 randomized atomic wfcs

     total cpu time spent up to now is       15.7 secs

     per-process dynamical memory:    89.6 Mb

     Self-consistent Calculation

     iteration #  1     ecut=    36.75 Ry     beta=0.30
     Davidson diagonalization with overlap
     ethr =  1.00E-02,  avg # of iterations =  2.4

     negative rho (up, down):  7.525E-05 0.000E+00
 
     Adding external electric field

     Computed dipole along edir(3) : 
        Dipole               -1.9974 Ry au,         -5.0769 Debye
        Dipole field         -0.0049 Ry au
 
        Potential amp.        0.4469 Ry
        Total length         45.8022 bohr
 

     total cpu time spent up to now is       39.1 secs

     total energy              =   -1413.79916573 Ry
     Harris-Foulkes estimate   =   -1414.62919306 Ry
     estimated scf accuracy    <       1.92041627 Ry

     iteration #  2     ecut=    36.75 Ry     beta=0.30
     Davidson diagonalization with overlap
     ethr =  1.39E-03,  avg # of iterations =  5.3

     negative rho (up, down):  1.246E-04 0.000E+00
 
     Adding external electric field

     Computed dipole along edir(3) : 
        Dipole                0.6554 Ry au,          1.6658 Debye
        Dipole field          0.0016 Ry au
 
        Potential amp.       -0.1466 Ry
        Total length         45.8022 bohr
 

     total cpu time spent up to now is       64.8 secs

     total energy              =   -1413.06139568 Ry
     Harris-Foulkes estimate   =   -1415.31058669 Ry
     estimated scf accuracy    <      21.57817686 Ry

     iteration #  3     ecut=    36.75 Ry     beta=0.30
     Davidson diagonalization with overlap
     ethr =  1.39E-03,  avg # of iterations =  4.8

     negative rho (up, down):  1.779E-04 0.000E+00
 
     Adding external electric field

     Computed dipole along edir(3) : 
        Dipole               -0.0194 Ry au,         -0.0493 Debye
        Dipole field         -0.0000 Ry au
 
        Potential amp.        0.0043 Ry
        Total length         45.8022 bohr
 

     total cpu time spent up to now is       90.4 secs

     total energy              =   -1414.13518630 Ry
     Harris-Foulkes estimate   =   -1414.52965718 Ry
     estimated scf accuracy    <       3.82345357 Ry

     iteration #  4     ecut=    36.75 Ry     beta=0.30
     Davidson diagonalization with overlap
     ethr =  1.39E-03,  avg # of iterations =  2.6

     negative rho (up, down):  1.957E-04 0.000E+00
 
     Adding external electric field

     Computed dipole along edir(3) : 
        Dipole                0.0870 Ry au,          0.2211 Debye
        Dipole field          0.0002 Ry au
 
        Potential amp.       -0.0195 Ry
        Total length         45.8022 bohr
 

     total cpu time spent up to now is      113.7 secs

     total energy              =   -1414.32532939 Ry
     Harris-Foulkes estimate   =   -1414.35803085 Ry
     estimated scf accuracy    <       0.14065921 Ry

     iteration #  5     ecut=    36.75 Ry     beta=0.30
     Davidson diagonalization with overlap
     ethr =  1.02E-04,  avg # of iterations =  4.4

     negative rho (up, down):  1.937E-04 0.000E+00
 
     Adding external electric field

     Computed dipole along edir(3) : 
        Dipole                0.1546 Ry au,          0.3930 Debye
        Dipole field          0.0004 Ry au
 
        Potential amp.       -0.0346 Ry
        Total length         45.8022 bohr
 

     total cpu time spent up to now is      138.3 secs

     total energy              =   -1414.33758274 Ry
     Harris-Foulkes estimate   =   -1414.34262160 Ry
     estimated scf accuracy    <       0.02547258 Ry

     iteration #  6     ecut=    36.75 Ry     beta=0.30
     Davidson diagonalization with overlap
     ethr =  1.85E-05,  avg # of iterations =  6.1

     negative rho (up, down):  2.353E-04 0.000E+00
 
     Adding external electric field

     Computed dipole along edir(3) : 
        Dipole                0.2130 Ry au,          0.5415 Debye
        Dipole field          0.0005 Ry au
 
        Potential amp.       -0.0477 Ry
        Total length         45.8022 bohr
 

     total cpu time spent up to now is      163.5 secs

     total energy              =   -1414.33812136 Ry
     Harris-Foulkes estimate   =   -1414.33913956 Ry
     estimated scf accuracy    <       0.00572001 Ry

     iteration #  7     ecut=    36.75 Ry     beta=0.30
     Davidson diagonalization with overlap
     ethr =  4.14E-06,  avg # of iterations =  7.5

     negative rho (up, down):  2.481E-04 0.000E+00
 
     Adding external electric field

     Computed dipole along edir(3) : 
        Dipole                0.2289 Ry au,          0.5818 Debye
        Dipole field          0.0006 Ry au
 
        Potential amp.       -0.0512 Ry
        Total length         45.8022 bohr
 

     total cpu time spent up to now is      190.2 secs

     total energy              =   -1414.33868796 Ry
     Harris-Foulkes estimate   =   -1414.33877580 Ry
     estimated scf accuracy    <       0.00091471 Ry

     iteration #  8     ecut=    36.75 Ry     beta=0.30
     Davidson diagonalization with overlap
     ethr =  6.63E-07,  avg # of iterations =  3.4

     negative rho (up, down):  2.541E-04 0.000E+00
 
     Adding external electric field

     Computed dipole along edir(3) : 
        Dipole                0.2249 Ry au,          0.5715 Debye
        Dipole field          0.0005 Ry au
 
        Potential amp.       -0.0503 Ry
        Total length         45.8022 bohr
 

     total cpu time spent up to now is      215.6 secs

     total energy              =   -1414.33884011 Ry
     Harris-Foulkes estimate   =   -1414.33886089 Ry
     estimated scf accuracy    <       0.00017608 Ry

     iteration #  9     ecut=    36.75 Ry     beta=0.30
     Davidson diagonalization with overlap
     ethr =  1.28E-07,  avg # of iterations =  2.0

     negative rho (up, down):  2.601E-04 0.000E+00
 
     Adding external electric field

     Computed dipole along edir(3) : 
        Dipole                0.2228 Ry au,          0.5663 Debye
        Dipole field          0.0005 Ry au
 
        Potential amp.       -0.0498 Ry
        Total length         45.8022 bohr
 

     total cpu time spent up to now is      239.7 secs

     total energy              =   -1414.33885903 Ry
     Harris-Foulkes estimate   =   -1414.33886401 Ry
     estimated scf accuracy    <       0.00003613 Ry

     iteration # 10     ecut=    36.75 Ry     beta=0.30
     Davidson diagonalization with overlap
     ethr =  2.62E-08,  avg # of iterations =  3.0

     negative rho (up, down):  2.643E-04 0.000E+00

     negative rho (up, down):  2.643E-04 0.000E+00

     negative rho (up, down):  2.643E-04 0.000E+00

     negative rho (up, down):  2.643E-04 0.000E+00

     negative rho (up, down):  2.643E-04 0.000E+00

     negative rho (up, down):  2.643E-04 0.000E+00

     negative rho (up, down):  2.643E-04 0.000E+00

     negative rho (up, down):  2.643E-04 0.000E+00

     negative rho (up, down):  2.643E-04 0.000E+00

     negative rho (up, down):  2.643E-04 0.000E+00

     negative rho (up, down):  2.643E-04 0.000E+00

     negative rho (up, down):  2.643E-04 0.000E+00

     negative rho (up, down):  2.643E-04 0.000E+00

     negative rho (up, down):  2.643E-04 0.000E+00

     negative rho (up, down):  2.643E-04 0.000E+00

     negative rho (up, down):  2.643E-04 0.000E+00

     negative rho (up, down):  2.643E-04 0.000E+00

     negative rho (up, down):  2.643E-04 0.000E+00

     negative rho (up, down):  2.643E-04 0.000E+00

     negative rho (up, down):  2.643E-04 0.000E+00

     negative rho (up, down):  2.643E-04 0.000E+00

     negative rho (up, down):  2.643E-04 0.000E+00

     negative rho (up, down):  2.643E-04 0.000E+00

     negative rho (up, down):  2.643E-04 0.000E+00

     negative rho (up, down):  2.643E-04 0.000E+00

     negative rho (up, down):  2.643E-04 0.000E+00

     negative rho (up, down):  2.643E-04 0.000E+00

     negative rho (up, down):  2.643E-04 0.000E+00

     negative rho (up, down):  2.643E-04 0.000E+00

     negative rho (up, down):  2.643E-04 0.000E+00

     negative rho (up, down):  2.643E-04 0.000E+00

     negative rho (up, down):  2.643E-04 0.000E+00

     negative rho (up, down):  2.643E-04 0.000E+00

     negative rho (up, down):  2.643E-04 0.000E+00

     negative rho (up, down):  2.643E-04 0.000E+00
 
     Adding external electric field

     Computed dipole along edir(3) : 
        Dipole                0.2136 Ry au,          0.5430 Debye
        Dipole field          0.0005 Ry au
 
        Potential amp.       -0.0478 Ry
        Total length         45.8022 bohr
 

     total cpu time spent up to now is      317.2 secs

     End of self-consistent calculation

          k = 0.0000 0.0000 0.0000 ( 19315 PWs)   bands (ev):

   -11.9046  -7.5100  -6.3490  -6.3256  -5.8129  -5.6396  -5.5092  -5.4681
    -5.4101  -5.3508  -5.2275  -5.1276  -5.0363  -5.0134  -4.9287  -4.8994
    -4.8447  -4.3853  -4.0731  -3.9422  -3.7997  -3.7579  -3.7344  -3.6723
    -3.6091  -3.6006  -3.5178  -3.5052  -3.3599  -3.3399  -3.3185  -3.2718
    -3.2405  -3.2357  -2.9433  -2.8386  -2.7068  -2.6446  -2.5896  -2.4855
    -2.3878  -2.3443  -2.2456  -2.1412  -2.0586  -2.0285  -1.9800  -1.7051
    -1.6658  -1.6632  -1.6359  -1.5702  -1.5389  -1.5310  -1.4810  -1.4341
    -1.3872  -1.3666  -1.3296  -1.2627  -1.1918  -1.1730  -1.0820  -1.0767
    -1.0729  -0.1403   0.2698   1.0717   1.1976   1.2699   1.4981   1.7873
     1.9671   2.0432   2.1066   2.3233   2.9662   3.7219   3.9291

          k = 0.0000 0.0323 0.0000 ( 19351 PWs)   bands (ev):

   -11.8996  -7.3246  -6.3407  -6.1963  -5.6681  -5.5366  -5.4294  -5.3792
    -5.2975  -5.2275  -5.1252  -5.0519  -4.9790  -4.9421  -4.8626  -4.7635
    -4.6992  -4.3579  -4.0286  -3.9238  -3.7915  -3.7286  -3.7060  -3.6898
    -3.6491  -3.6143  -3.5014  -3.4518  -3.4143  -3.3864  -3.3162  -3.3049
    -3.2276  -3.1358  -3.0254  -2.9223  -2.8142  -2.7044  -2.6637  -2.5764
    -2.4579  -2.3770  -2.3270  -2.2500  -2.1764  -2.1406  -2.0264  -1.8372
    -1.7825  -1.7532  -1.7081  -1.7015  -1.6914  -1.6835  -1.6412  -1.5543
    -1.5256  -1.5084  -1.4923  -1.4067  -1.3941  -1.2926  -1.2540  -1.2348
    -0.9582  -0.6182  -0.0932   0.2198   0.6642   0.9693   1.0762   1.7173
     1.9544   2.4150   2.9332   2.9946   3.6548   4.1134   4.2261

          k = 0.0000 0.0647 0.0000 ( 19389 PWs)   bands (ev):

   -11.8897  -6.8162  -6.3011  -5.9997  -5.5358  -5.2580  -5.1361  -5.0773
    -5.0117  -4.9338  -4.8837  -4.8598  -4.7716  -4.7136  -4.6744  -4.4299
    -4.2819  -4.2678  -4.0238  -3.9533  -3.9150  -3.8702  -3.7343  -3.6904
    -3.6255  -3.5948  -3.5559  -3.4965  -3.3828  -3.3586  -3.2659  -3.2266
    -3.1931  -3.1668  -3.1627  -3.1226  -2.9207  -2.8721  -2.8280  -2.7683
    -2.6676  -2.5853  -2.5145  -2.4757  -2.4482  -2.4254  -2.4086  -2.3721
    -2.3067  -2.1103  -2.0937  -2.0754  -1.9888  -1.9528  -1.9385  -1.8742
    -1.8441  -1.7681  -1.6998  -1.6604  -1.5630  -1.5042  -1.4481  -1.3484
    -1.2955  -1.1297  -0.4658   0.2262   0.3626   0.7235   0.9853   1.5463
     2.0170   2.4801   3.2018   3.7632   4.1848   4.5174   4.6492

          k = 0.0000-0.0970 0.0000 ( 19380 PWs)   bands (ev):

   -11.8848  -6.3119  -6.2765  -6.0314  -5.6819  -4.9966  -4.9256  -4.8379
    -4.7892  -4.7781  -4.7388  -4.7268  -4.4965  -4.4732  -4.3773  -4.2894
    -4.2324  -4.1175  -4.0813  -3.9966  -3.9238  -3.9089  -3.8673  -3.7400
    -3.7231  -3.6154  -3.6034  -3.4928  -3.3690  -3.3540  -3.3160  -3.2609
    -3.2301  -3.1101  -3.0998  -3.0777  -3.0661  -3.0297  -3.0050  -2.9532
    -2.9179  -2.8933  -2.7719  -2.6881  -2.6525  -2.5636  -2.5482  -2.5109
    -2.4833  -2.4055  -2.3592  -2.2740  -2.2551  -2.2019  -2.0788  -2.0597
    -1.9556  -1.9492  -1.7137  -1.6973  -1.5831  -1.5115  -1.4629  -1.4291
    -1.3305  -1.2845  -0.2750   0.0842   0.5473   0.5559   0.9827   1.2766
     2.0695   2.6369   3.4775   3.9082   4.1880   4.5612   5.2905

          k = 0.0280-0.0162 0.0000 ( 19351 PWs)   bands (ev):

   -11.8971  -7.3243  -6.3335  -6.1632  -5.6509  -5.5301  -5.4593  -5.3533
    -5.2894  -5.2689  -5.1291  -5.0512  -4.9708  -4.9497  -4.8467  -4.7956
    -4.7152  -4.3350  -4.0820  -3.9294  -3.7637  -3.7374  -3.7147  -3.6800
    -3.6572  -3.6161  -3.5033  -3.4721  -3.4316  -3.3771  -3.3178  -3.2851
    -3.2161  -3.1409  -3.0585  -2.9179  -2.8534  -2.7915  -2.6168  -2.4745
    -2.4427  -2.3979  -2.3137  -2.2492  -2.1831  -2.1376  -2.0166  -1.8568
    -1.8090  -1.7609  -1.7341  -1.7018  -1.6877  -1.6604  -1.5928  -1.5447
    -1.5334  -1.5085  -1.4639  -1.4396  -1.3790  -1.2844  -1.2638  -1.2346
    -0.9842  -0.6435  -0.2104   0.3939   0.6522   0.9419   1.1435   1.7639
     1.9375   2.4567   2.9693   3.1631   3.4430   4.1066   4.2233

          k = 0.0280 0.0162 0.0000 ( 19351 PWs)   bands (ev):

   -11.8965  -7.3286  -6.3715  -6.1433  -5.6504  -5.5187  -5.4305  -5.3623
    -5.3035  -5.2275  -5.1715  -5.0514  -4.9658  -4.9450  -4.8122  -4.7971
    -4.7349  -4.3330  -4.0622  -3.9323  -3.7750  -3.7486  -3.7132  -3.6775
    -3.6689  -3.6146  -3.4982  -3.4588  -3.4264  -3.3984  -3.3191  -3.2854
    -3.2140  -3.1454  -3.0370  -2.9082  -2.8778  -2.7866  -2.6559  -2.4901
    -2.4310  -2.4030  -2.3197  -2.2474  -2.1670  -2.1497  -2.0303  -1.8463
    -1.8004  -1.7450  -1.7282  -1.6941  -1.6771  -1.6379  -1.6049  -1.5796
    -1.5419  -1.5254  -1.4812  -1.4512  -1.3849  -1.3028  -1.2588  -1.2346
    -0.9845  -0.5894  -0.0361   0.3162   0.6554   0.8789   1.1352   1.7414
     2.0707   2.4107   2.9724   3.0668   3.3556   4.1020   4.2158

          k = 0.0280 0.0485 0.0000 ( 19345 PWs)   bands (ev):

   -11.8887  -6.9878  -6.3415  -5.9569  -5.4274  -5.3469  -5.2908  -5.1872
    -5.1065  -5.0177  -4.9691  -4.8936  -4.8627  -4.7694  -4.6932  -4.6075
    -4.3988  -4.2841  -4.0263  -3.9457  -3.8939  -3.8305  -3.7762  -3.7060
    -3.6169  -3.5739  -3.5207  -3.4831  -3.4062  -3.3798  -3.2875  -3.2662
    -3.2187  -3.1498  -3.1119  -3.0548  -2.9415  -2.9119  -2.8214  -2.6442
    -2.5634  -2.5082  -2.4834  -2.4214  -2.3686  -2.2563  -2.2449  -2.2156
    -2.1810  -2.1595  -1.9970  -1.9812  -1.9222  -1.8711  -1.8148  -1.7979
    -1.6987  -1.6320  -1.5937  -1.5679  -1.5339  -1.4590  -1.4199  -1.3758
    -0.9759  -0.8502  -0.5571  -0.2841   0.0129   0.9475   1.2269   2.2135
     2.4005   2.4439   2.5982   3.0551   3.9462   4.1949   4.7942

          k = 0.0280-0.1132 0.0000 ( 19376 PWs)   bands (ev):

   -11.8816  -6.4795  -6.2009  -5.8570  -5.5088  -5.1161  -4.9344  -4.8325
    -4.7937  -4.7817  -4.7199  -4.7046  -4.5960  -4.5186  -4.3790  -4.3003
    -4.2163  -4.1773  -4.1177  -4.0481  -3.9646  -3.9166  -3.8604  -3.7837
    -3.7280  -3.6719  -3.6019  -3.5182  -3.4548  -3.4298  -3.3633  -3.3190
    -3.2669  -3.2099  -3.1815  -3.1557  -3.0610  -3.0488  -2.9541  -2.8874
    -2.8493  -2.7777  -2.7528  -2.6445  -2.6192  -2.5716  -2.4884  -2.4444
    -2.4260  -2.3466  -2.2596  -2.2364  -2.1361  -2.0446  -2.0129  -1.8930
    -1.8736  -1.7244  -1.6915  -1.6254  -1.5922  -1.5572  -1.5158  -1.4589
    -1.4080  -1.2361  -0.8572  -0.3357   0.1658   0.5262   1.2638   1.8083
     2.3766   2.7302   3.4472   3.7196   4.0794   4.8345   5.0336

          k = 0.0280-0.0808 0.0000 ( 19376 PWs)   bands (ev):

   -11.8823  -6.3792  -6.2971  -5.8466  -5.5062  -5.1429  -4.9530  -4.8288
    -4.8128  -4.7844  -4.7072  -4.6635  -4.5792  -4.5497  -4.4570  -4.2921
    -4.2372  -4.1676  -4.0939  -3.9937  -3.9618  -3.8933  -3.8326  -3.7996
    -3.7519  -3.6923  -3.6159  -3.5219  -3.4486  -3.4044  -3.3659  -3.3318
    -3.2917  -3.2205  -3.1603  -3.1028  -3.0764  -3.0578  -2.9281  -2.8984
    -2.8246  -2.7721  -2.7579  -2.6544  -2.6181  -2.5603  -2.4875  -2.4422
    -2.4296  -2.3335  -2.2716  -2.2502  -2.1478  -2.0684  -1.9935  -1.8799
    -1.8583  -1.7207  -1.7033  -1.6483  -1.5989  -1.5666  -1.5152  -1.4588
    -1.4058  -1.1974  -0.8079  -0.2878  -0.1650   0.8478   1.1064   1.7954
     2.3198   2.8745   3.3643   3.7285   4.1224   4.8250   5.0661

          k = 0.0280-0.0485 0.0000 ( 19345 PWs)   bands (ev):

   -11.8899  -6.9680  -6.3009  -5.9778  -5.4309  -5.3660  -5.3183  -5.2163
    -5.1107  -5.0063  -4.9410  -4.8869  -4.8455  -4.8171  -4.7302  -4.6088
    -4.3980  -4.2791  -4.0418  -3.9370  -3.9086  -3.7895  -3.7497  -3.6979
    -3.6140  -3.5797  -3.5456  -3.4653  -3.4052  -3.3695  -3.3079  -3.2652
    -3.2583  -3.1544  -3.1007  -3.0538  -2.9233  -2.8761  -2.7112  -2.6476
    -2.5939  -2.5190  -2.4599  -2.4225  -2.3710  -2.2962  -2.2540  -2.2086
    -2.1862  -2.1584  -2.0312  -1.9745  -1.9239  -1.8602  -1.8218  -1.7422
    -1.6872  -1.6167  -1.5982  -1.5644  -1.5535  -1.4430  -1.4112  -1.3810
    -0.9972  -0.8313  -0.5754  -0.4472   0.0768   0.8584   1.2369   2.2134
     2.3389   2.3993   2.8489   3.1131   3.8919   4.1817   4.8225

          k = 0.0560-0.0323 0.0000 ( 19389 PWs)   bands (ev):

   -11.8821  -6.8145  -6.2916  -5.7625  -5.5930  -5.2407  -5.1644  -5.1128
    -5.0022  -4.9553  -4.8939  -4.8630  -4.8240  -4.7448  -4.6471  -4.5520
    -4.3502  -4.1898  -4.0871  -4.0063  -3.9342  -3.8615  -3.7382  -3.6973
    -3.6319  -3.6152  -3.5456  -3.4994  -3.4107  -3.3701  -3.2973  -3.2295
    -3.2054  -3.1699  -3.1426  -3.1185  -3.0344  -2.8390  -2.7790  -2.6552
    -2.6096  -2.5790  -2.5159  -2.4680  -2.4622  -2.4434  -2.4029  -2.3761
    -2.2922  -2.1264  -2.0933  -2.0746  -1.9957  -1.9606  -1.9014  -1.8785
    -1.8355  -1.7888  -1.6972  -1.5980  -1.5454  -1.5105  -1.4787  -1.3479
    -1.3090  -1.2170  -0.4939   0.2528   0.4839   0.7200   1.1143   1.6790
     1.8655   2.7460   3.0345   3.7828   4.1669   4.5715   4.6809

          k = 0.0560 0.0000 0.0000 ( 19345 PWs)   bands (ev):

   -11.8837  -6.9856  -6.3330  -5.8363  -5.4106  -5.3542  -5.2959  -5.1864
    -5.1168  -5.0272  -4.9834  -4.9150  -4.8487  -4.8192  -4.6474  -4.6068
    -4.5692  -4.2332  -4.0899  -3.9598  -3.9250  -3.8016  -3.7695  -3.7200
    -3.6287  -3.5774  -3.5549  -3.4552  -3.3950  -3.3709  -3.3268  -3.2761
    -3.2555  -3.1815  -3.1171  -3.0606  -2.9837  -2.8899  -2.7570  -2.6061
    -2.5353  -2.4798  -2.4628  -2.4345  -2.3574  -2.3189  -2.2426  -2.1993
    -2.1801  -2.1525  -2.0115  -1.9612  -1.9077  -1.8582  -1.7889  -1.7627
    -1.7045  -1.6691  -1.5919  -1.5706  -1.5332  -1.4579  -1.4173  -1.3900
    -0.9420  -0.8359  -0.4867  -0.4334   0.0302   0.8102   1.4970   2.2126
     2.3298   2.5060   2.7687   3.2217   3.6828   4.2094   4.7997

          k = 0.0560 0.0323 0.0000 ( 19389 PWs)   bands (ev):

   -11.8802  -6.8539  -6.3415  -5.7463  -5.5100  -5.2306  -5.1624  -5.0888
    -5.0120  -4.9712  -4.8909  -4.8520  -4.7825  -4.7221  -4.6371  -4.5710
    -4.3427  -4.2085  -4.0674  -4.0034  -3.9531  -3.8739  -3.7940  -3.7049
    -3.6549  -3.6100  -3.5494  -3.5158  -3.3985  -3.3579  -3.2509  -3.2067
    -3.1938  -3.1596  -3.1371  -3.1085  -3.0520  -2.9104  -2.8324  -2.6850
    -2.6181  -2.5627  -2.5085  -2.4709  -2.4614  -2.4463  -2.4099  -2.3851
    -2.2870  -2.1330  -2.1084  -2.0583  -1.9999  -1.9574  -1.9192  -1.8801
    -1.8514  -1.7684  -1.6985  -1.6548  -1.5846  -1.5333  -1.4725  -1.3719
    -1.2917  -1.0501  -0.2818   0.2608   0.4330   0.7027   1.0514   1.5923
     2.0271   2.5361   3.0117   4.0643   4.1122   4.6100   4.6703

          k = 0.0560-0.1294 0.0000 ( 19376 PWs)   bands (ev):

   -11.8754  -6.5609  -6.1600  -5.6032  -5.5457  -5.1168  -4.9422  -4.8925
    -4.8221  -4.7491  -4.7288  -4.6709  -4.6279  -4.5350  -4.4379  -4.3778
    -4.2308  -4.1991  -4.1110  -4.0561  -3.9683  -3.9204  -3.8900  -3.8076
    -3.7660  -3.6805  -3.6167  -3.5362  -3.4388  -3.3933  -3.3679  -3.3163
    -3.2389  -3.2196  -3.1863  -3.1371  -3.0750  -3.0308  -2.9377  -2.8667
    -2.8499  -2.8088  -2.7627  -2.6346  -2.6205  -2.5552  -2.5128  -2.4515
    -2.3979  -2.3584  -2.2745  -2.2614  -2.1195  -2.0560  -1.9876  -1.9282
    -1.8542  -1.7247  -1.6895  -1.6489  -1.6320  -1.5697  -1.5018  -1.4563
    -1.4064  -1.1583  -0.7811  -0.3682   0.2772   0.5804   1.2800   1.7216
     2.2924   2.9143   3.4982   3.7449   4.1929   4.7601   5.0793

          k = 0.0560-0.0970 0.0000 ( 19365 PWs)   bands (ev):

   -11.8739  -6.4053  -5.7728  -5.6194  -5.5634  -5.3512  -4.7643  -4.6706
    -4.6348  -4.5843  -4.5466  -4.5140  -4.4499  -4.4323  -4.3961  -4.3439
    -4.3330  -4.3122  -4.1479  -4.0287  -3.9826  -3.9392  -3.9193  -3.8646
    -3.8081  -3.7793  -3.7170  -3.6404  -3.5429  -3.5190  -3.5127  -3.4845
    -3.4420  -3.3525  -3.1698  -3.1019  -3.0838  -3.0490  -3.0450  -3.0339
    -3.0173  -2.9882  -2.7182  -2.6633  -2.6183  -2.5325  -2.4418  -2.3994
    -2.3720  -2.3003  -2.1906  -2.1614  -2.1095  -1.9238  -1.8920  -1.8475
    -1.8098  -1.7057  -1.6737  -1.6645  -1.6303  -1.6208  -1.6017  -1.5842
    -1.5651  -1.3137  -1.2534  -0.9945   0.1943   0.5099   1.1482   1.9201
     2.6044   3.3790   3.5517   3.7251   4.5461   4.8654   5.0431

          k = 0.0560-0.0647 0.0000 ( 19376 PWs)   bands (ev):

   -11.8772  -6.4118  -6.2398  -5.6343  -5.5897  -5.1161  -5.0035  -4.9059
    -4.8104  -4.7601  -4.7153  -4.6934  -4.6555  -4.5602  -4.4133  -4.3519
    -4.2497  -4.1775  -4.1132  -4.0142  -3.9774  -3.9052  -3.8734  -3.8263
    -3.7697  -3.6498  -3.6067  -3.5395  -3.4562  -3.4093  -3.3421  -3.3263
    -3.2681  -3.2103  -3.1784  -3.1313  -3.0705  -3.0004  -2.9386  -2.8554
    -2.8403  -2.8031  -2.7570  -2.6334  -2.6008  -2.5590  -2.4893  -2.4283
    -2.4013  -2.3192  -2.2901  -2.2694  -2.1353  -2.1064  -1.9735  -1.9023
    -1.8149  -1.7082  -1.6815  -1.6603  -1.6069  -1.5623  -1.5465  -1.4428
    -1.4157  -1.2850  -0.7569  -0.2374  -0.0995   0.6174   1.4200   1.9805
     2.0987   2.8236   3.4747   3.7056   4.2113   4.7536   5.1858

          k =-0.0840 0.0485 0.0000 ( 19380 PWs)   bands (ev):

   -11.8747  -6.3945  -6.0823  -5.9873  -5.4564  -5.1184  -4.9537  -4.8658
    -4.8091  -4.7807  -4.7626  -4.7430  -4.7179  -4.4325  -4.3970  -4.3106
    -4.2752  -4.1909  -4.1179  -4.0009  -3.9725  -3.9191  -3.8806  -3.8494
    -3.7790  -3.6348  -3.5587  -3.4984  -3.3654  -3.3095  -3.2729  -3.2470
    -3.1952  -3.1260  -3.1098  -3.0950  -3.0222  -3.0124  -2.9696  -2.9539
    -2.9188  -2.9099  -2.7246  -2.7065  -2.6396  -2.6046  -2.5035  -2.4428
    -2.4365  -2.4010  -2.3649  -2.3310  -2.2522  -2.2382  -2.0615  -2.0540
    -1.9605  -1.9012  -1.7058  -1.6728  -1.5603  -1.5274  -1.5146  -1.4979
    -1.3195  -1.2957  -0.2341   0.0819   0.5334   0.5397   1.1834   1.6458
     1.8375   2.6069   3.6105   3.7336   4.4424   4.6446   5.3232

          k =-0.0840 0.0808 0.0000 ( 19376 PWs)   bands (ev):

   -11.8741  -6.4864  -6.1567  -5.6600  -5.4550  -5.1136  -5.0053  -4.8972
    -4.8097  -4.7791  -4.7499  -4.6979  -4.6571  -4.5777  -4.4214  -4.3559
    -4.2519  -4.2308  -4.1452  -4.0512  -3.9907  -3.9372  -3.8824  -3.8045
    -3.7361  -3.6948  -3.6342  -3.5100  -3.4633  -3.3966  -3.3542  -3.3208
    -3.2797  -3.2240  -3.1547  -3.1109  -3.0476  -2.9811  -2.9312  -2.8983
    -2.8282  -2.8024  -2.7445  -2.6437  -2.5977  -2.5540  -2.5068  -2.4428
    -2.3944  -2.3418  -2.2846  -2.2355  -2.1196  -2.0779  -1.9616  -1.9038
    -1.8340  -1.7260  -1.6781  -1.6291  -1.5928  -1.5624  -1.5388  -1.4570
    -1.4222  -1.2858  -0.7848  -0.2203  -0.0232   0.5230   1.6171   1.8447
     2.1165   2.9158   3.4694   3.7522   4.1431   4.8302   5.1425

          k =-0.0840 0.1132 0.0000 ( 19376 PWs)   bands (ev):

   -11.8728  -6.5588  -6.1505  -5.5763  -5.4461  -5.1555  -4.9431  -4.8822
    -4.8108  -4.7930  -4.7280  -4.6767  -4.6459  -4.5770  -4.4514  -4.4085
    -4.2550  -4.2116  -4.1541  -4.0645  -3.9744  -3.9288  -3.8633  -3.8117
    -3.7414  -3.7173  -3.6504  -3.5343  -3.4374  -3.3944  -3.3573  -3.3217
    -3.2818  -3.1826  -3.1619  -3.0857  -3.0616  -3.0366  -2.9402  -2.8941
    -2.8241  -2.8088  -2.7451  -2.6519  -2.5948  -2.5377  -2.5231  -2.4641
    -2.4180  -2.3306  -2.2856  -2.2470  -2.0967  -2.0797  -1.9748  -1.9070
    -1.8650  -1.7195  -1.6752  -1.6589  -1.6241  -1.5762  -1.5209  -1.4699
    -1.4075  -1.1074  -0.7753  -0.3478   0.0503   0.7994   1.2444   1.7277
     2.2541   3.1249   3.4005   3.7916   4.1461   4.8929   5.0338

          k =-0.0840-0.0485 0.0000 ( 19380 PWs)   bands (ev):

   -11.8722  -6.5696  -6.0705  -5.8465  -5.4500  -5.0357  -4.9580  -4.8261
    -4.7897  -4.7709  -4.7563  -4.7160  -4.6745  -4.4904  -4.4374  -4.3710
    -4.2856  -4.1425  -4.1022  -4.0351  -3.9593  -3.9295  -3.9043  -3.8294
    -3.7526  -3.7382  -3.5688  -3.4520  -3.3728  -3.3078  -3.2514  -3.2312
    -3.1753  -3.1503  -3.1334  -3.0879  -3.0618  -3.0252  -2.9624  -2.9531
    -2.9163  -2.8974  -2.7556  -2.6930  -2.6852  -2.6058  -2.5023  -2.4568
    -2.4270  -2.4054  -2.3919  -2.3690  -2.2481  -2.2311  -2.0676  -2.0367
    -2.0059  -1.9403  -1.7141  -1.6440  -1.5596  -1.5376  -1.4931  -1.3978
    -1.3484  -1.2816   0.0498   0.1144   0.5312   0.5949   1.0464   1.2310
     2.0722   2.6154   3.7192   3.8185   4.3887   4.7868   5.0170

     the Fermi energy is     0.5762 ev

!    total energy              =   -1414.33886392 Ry
     Harris-Foulkes estimate   =   -1414.33887812 Ry
     estimated scf accuracy    <       0.00000642 Ry

     The total energy is the sum of the following terms:

     one-electron contribution =   -8283.34064661 Ry
     hartree contribution      =    4241.10246324 Ry
     xc contribution           =    -773.31116959 Ry
     ewald contribution        =    3401.23562187 Ry
     electric field correction =       0.00011149 Ry
     smearing contrib. (-TS)   =      -0.02524431 Ry

     convergence has been achieved in  10 iterations
 
 BEEF-vdW xc energy contributions
           1 :   -691.049146243245     
           2 :    642.257374206105     
           3 :   -555.058421294078     
           4 :    446.395628372113     
           5 :   -334.513359986853     
           6 :    234.283642218580     
           7 :   -154.409573986238     
           8 :    96.9683788542295     
           9 :   -59.0154427464058     
          10 :    35.2454457036297     
          11 :   -20.5095873926816     
          12 :    11.2626437644760     
          13 :   -5.70678272741407     
          14 :    3.02556613378772     
          15 :   -2.43906834456959     
          16 :    2.68762045776555     
          17 :   -2.18529607878554     
          18 :  -0.353748780113619     
          19 :    5.25474271337885     
          20 :   -11.6273689219418     
          21 :    17.6996998794114     
          22 :   -21.6017095280972     
          23 :    22.2020063600272     
          24 :   -19.5870517932491     
          25 :    14.9615627537873     
          26 :   -10.0542786016722     
          27 :    6.34706269206026     
          28 :   -4.51301161694755     
          29 :    4.30547261904826     
          30 :   -4.89854083481055     
          31 :   -54.8050506326387     
          32 :   -39.9374173221369     

     Forces acting on atoms (Ry/au):


     negative rho (up, down):  2.643E-04 0.000E+00
     atom    1 type  1   force =    -0.00085759   -0.00088379   -0.00335428
     atom    2 type  1   force =     0.00077276   -0.00031644   -0.00704317
     atom    3 type  1   force =    -0.00004286    0.00091589   -0.00499421
     atom    4 type  1   force =     0.00026498    0.00042277   -0.00420277
     atom    5 type  1   force =    -0.00068937    0.00056427   -0.00370380
     atom    6 type  1   force =     0.00118776   -0.00040798    0.00323208
     atom    7 type  1   force =     0.00121520    0.00515940    0.01169601
     atom    8 type  1   force =    -0.00068813   -0.00144208   -0.00727042
     atom    9 type  1   force =    -0.01185835    0.01840469    0.00778521
     atom   10 type  1   force =     0.01081248   -0.02537898    0.00865967
     atom   11 type  1   force =    -0.00359183    0.00926876   -0.00030157
     atom   12 type  1   force =     0.00377420   -0.00837034   -0.00312340
     atom   13 type  2   force =     0.00011243    0.00176830   -0.00076148
     atom   14 type  3   force =    -0.01755399    0.01698488    0.00167541
     atom   15 type  3   force =     0.01714231   -0.01668936    0.00170672

     Total force =     0.052415     Total SCF correction =     0.009349
     SCF correction compared to forces is large: reduce conv_thr to get better values


     entering subroutine stress ...


     negative rho (up, down):  2.643E-04 0.000E+00
          total   stress  (Ry/bohr**3)                   (kbar)     P=   -7.35
  -0.00010257  -0.00001271  -0.00000144        -15.09     -1.87     -0.21
  -0.00001271  -0.00007257  -0.00000242         -1.87    -10.67     -0.36
  -0.00000144  -0.00000242   0.00002522         -0.21     -0.36      3.71


     BFGS Geometry Optimization

     number of scf cycles    =   1
     number of bfgs steps    =   0

     energy   new            =   -1414.3388639216 Ry

     new trust radius        =       0.0289135290 bohr
     new conv_thr            =       0.0000099958 Ry


ATOMIC_POSITIONS (crystal)
Au1      0.166666667   0.166666667   0.402269971    0   0   0
Au1      0.666666667   0.166666667   0.402269971    0   0   0
Au1      0.166666667   0.666666667   0.402269971    0   0   0
Au1      0.666666667   0.666666667   0.402269971    0   0   0
Au1      0.833333333   0.333333333   0.500000000    0   0   0
Au1      0.333333333   0.333333333   0.500000000    0   0   0
Au1      0.833333333   0.833333333   0.500000000    0   0   0
Au1      0.333333333   0.833333333   0.500000000    0   0   0
Au1     -0.001999376   0.001889787   0.597895754
Au1      0.502264433  -0.002605905   0.597914369
Au1     -0.000795254   0.500951714   0.597723610
Au1      0.500765346   0.499140536   0.597663541
C1       0.249919213   0.000181569   0.661674745
H1       0.292311073   0.123986968   0.687069627
H1       0.207637147   0.876043376   0.687070294



     Writing output data file calc.save
     Check: negative starting charge=   -0.000110
     NEW-OLD atomic charge density approx. for the potential

     Check: negative/imaginary core charge=   -0.000002    0.000000
     Check: negative starting charge=   -0.000110

     negative rho (up, down):  2.643E-04 0.000E+00
 
     Adding external electric field

     Computed dipole along edir(3) : 
        Dipole                0.2137 Ry au,          0.5430 Debye
        Dipole field          0.0005 Ry au
 
        Potential amp.       -0.0478 Ry
        Total length         45.8022 bohr
 

     total cpu time spent up to now is      432.0 secs

     per-process dynamical memory:    86.9 Mb

     Self-consistent Calculation

     iteration #  1     ecut=    36.75 Ry     beta=0.30
     Davidson diagonalization with overlap
     ethr =  1.00E-06,  avg # of iterations =  4.1

     negative rho (up, down):  2.641E-04 0.000E+00
 
     Adding external electric field

     Computed dipole along edir(3) : 
        Dipole                0.2562 Ry au,          0.6513 Debye
        Dipole field          0.0006 Ry au
 
        Potential amp.       -0.0573 Ry
        Total length         45.8022 bohr
 

     total cpu time spent up to now is      467.4 secs

     total energy              =   -1414.34140289 Ry
     Harris-Foulkes estimate   =   -1414.34152312 Ry
     estimated scf accuracy    <       0.00039387 Ry

     iteration #  2     ecut=    36.75 Ry     beta=0.30
     Davidson diagonalization with overlap
     ethr =  2.85E-07,  avg # of iterations =  4.8

     negative rho (up, down):  2.645E-04 0.000E+00
 
     Adding external electric field

     Computed dipole along edir(3) : 
        Dipole                0.2124 Ry au,          0.5399 Debye
        Dipole field          0.0005 Ry au
 
        Potential amp.       -0.0475 Ry
        Total length         45.8022 bohr
 

     total cpu time spent up to now is      496.0 secs

     total energy              =   -1414.34114057 Ry
     Harris-Foulkes estimate   =   -1414.34194112 Ry
     estimated scf accuracy    <       0.00881459 Ry

     iteration #  3     ecut=    36.75 Ry     beta=0.30
     Davidson diagonalization with overlap
     ethr =  2.85E-07,  avg # of iterations =  4.8

     negative rho (up, down):  2.645E-04 0.000E+00
 
     Adding external electric field

     Computed dipole along edir(3) : 
        Dipole                0.2189 Ry au,          0.5564 Debye
        Dipole field          0.0005 Ry au
 
        Potential amp.       -0.0490 Ry
        Total length         45.8022 bohr
 

     total cpu time spent up to now is      523.5 secs

     total energy              =   -1414.34150790 Ry
     Harris-Foulkes estimate   =   -1414.34156926 Ry
     estimated scf accuracy    <       0.00059872 Ry

     iteration #  4     ecut=    36.75 Ry     beta=0.30
     Davidson diagonalization with overlap
     ethr =  2.85E-07,  avg # of iterations =  2.0

     negative rho (up, down):  2.641E-04 0.000E+00
 
     Adding external electric field

     Computed dipole along edir(3) : 
        Dipole                0.2191 Ry au,          0.5568 Debye
        Dipole field          0.0005 Ry au
 
        Potential amp.       -0.0490 Ry
        Total length         45.8022 bohr
 

     total cpu time spent up to now is      548.6 secs

     total energy              =   -1414.34154162 Ry
     Harris-Foulkes estimate   =   -1414.34154303 Ry
     estimated scf accuracy    <       0.00002188 Ry

     iteration #  5     ecut=    36.75 Ry     beta=0.30
     Davidson diagonalization with overlap
     ethr =  1.59E-08,  avg # of iterations =  2.0

     negative rho (up, down):  2.641E-04 0.000E+00

     negative rho (up, down):  2.641E-04 0.000E+00

     negative rho (up, down):  2.641E-04 0.000E+00

     negative rho (up, down):  2.641E-04 0.000E+00

     negative rho (up, down):  2.641E-04 0.000E+00

     negative rho (up, down):  2.641E-04 0.000E+00

     negative rho (up, down):  2.641E-04 0.000E+00

     negative rho (up, down):  2.641E-04 0.000E+00

     negative rho (up, down):  2.641E-04 0.000E+00

     negative rho (up, down):  2.641E-04 0.000E+00

     negative rho (up, down):  2.641E-04 0.000E+00

     negative rho (up, down):  2.641E-04 0.000E+00

     negative rho (up, down):  2.641E-04 0.000E+00

     negative rho (up, down):  2.641E-04 0.000E+00

     negative rho (up, down):  2.641E-04 0.000E+00

     negative rho (up, down):  2.641E-04 0.000E+00

     negative rho (up, down):  2.641E-04 0.000E+00

     negative rho (up, down):  2.641E-04 0.000E+00

     negative rho (up, down):  2.641E-04 0.000E+00

     negative rho (up, down):  2.641E-04 0.000E+00

     negative rho (up, down):  2.641E-04 0.000E+00

     negative rho (up, down):  2.641E-04 0.000E+00

     negative rho (up, down):  2.641E-04 0.000E+00

     negative rho (up, down):  2.641E-04 0.000E+00

     negative rho (up, down):  2.641E-04 0.000E+00

     negative rho (up, down):  2.641E-04 0.000E+00

     negative rho (up, down):  2.641E-04 0.000E+00

     negative rho (up, down):  2.641E-04 0.000E+00

     negative rho (up, down):  2.641E-04 0.000E+00

     negative rho (up, down):  2.641E-04 0.000E+00

     negative rho (up, down):  2.641E-04 0.000E+00

     negative rho (up, down):  2.641E-04 0.000E+00

     negative rho (up, down):  2.641E-04 0.000E+00

     negative rho (up, down):  2.641E-04 0.000E+00

     negative rho (up, down):  2.641E-04 0.000E+00
 
     Adding external electric field

     Computed dipole along edir(3) : 
        Dipole                0.2169 Ry au,          0.5513 Debye
        Dipole field          0.0005 Ry au
 
        Potential amp.       -0.0485 Ry
        Total length         45.8022 bohr
 

     total cpu time spent up to now is      625.0 secs

     End of self-consistent calculation

          k = 0.0000 0.0000 0.0000 ( 19315 PWs)   bands (ev):

   -11.8887  -7.5102  -6.3281  -6.3228  -5.8156  -5.6382  -5.5077  -5.4684
    -5.4104  -5.3492  -5.2252  -5.1254  -5.0367  -5.0160  -4.9294  -4.9025
    -4.8474  -4.3830  -4.0712  -3.9447  -3.8048  -3.7642  -3.7389  -3.6760
    -3.6106  -3.6026  -3.5203  -3.5070  -3.3609  -3.3396  -3.3207  -3.2748
    -3.2458  -3.2410  -2.9579  -2.8414  -2.7120  -2.6534  -2.5946  -2.4894
    -2.3897  -2.3487  -2.2488  -2.1422  -2.0639  -2.0342  -1.9829  -1.7101
    -1.6717  -1.6683  -1.6417  -1.5748  -1.5433  -1.5352  -1.4833  -1.4383
    -1.3894  -1.3687  -1.3329  -1.2656  -1.1959  -1.1776  -1.0882  -1.0824
    -1.0784  -0.1512   0.2796   1.0683   1.1965   1.2628   1.4921   1.7858
     1.9624   2.0383   2.1056   2.3143   2.9612   3.7148   3.9285

          k = 0.0000 0.0323 0.0000 ( 19351 PWs)   bands (ev):

   -11.8836  -7.3246  -6.3196  -6.1908  -5.6705  -5.5365  -5.4285  -5.3783
    -5.2974  -5.2262  -5.1235  -5.0511  -4.9791  -4.9442  -4.8635  -4.7652
    -4.7033  -4.3561  -4.0271  -3.9269  -3.7966  -3.7321  -3.7107  -3.6937
    -3.6531  -3.6177  -3.5023  -3.4531  -3.4162  -3.3866  -3.3215  -3.3077
    -3.2308  -3.1414  -3.0340  -2.9270  -2.8181  -2.7154  -2.6657  -2.5796
    -2.4601  -2.3817  -2.3309  -2.2504  -2.1819  -2.1444  -2.0322  -1.8413
    -1.7885  -1.7582  -1.7099  -1.7073  -1.6957  -1.6866  -1.6467  -1.5588
    -1.5302  -1.5107  -1.4957  -1.4117  -1.3969  -1.2980  -1.2574  -1.2406
    -0.9616  -0.6187  -0.0986   0.2109   0.6637   0.9603   1.0701   1.7135
     1.9557   2.4090   2.9286   2.9938   3.6515   4.1106   4.2235

          k = 0.0000 0.0647 0.0000 ( 19389 PWs)   bands (ev):

   -11.8736  -6.8152  -6.2753  -5.9943  -5.5369  -5.2592  -5.1376  -5.0748
    -5.0081  -4.9341  -4.8846  -4.8625  -4.7704  -4.7161  -4.6739  -4.4289
    -4.2857  -4.2699  -4.0236  -3.9573  -3.9151  -3.8752  -3.7386  -3.6949
    -3.6288  -3.5952  -3.5621  -3.5001  -3.3901  -3.3616  -3.2675  -3.2289
    -3.1957  -3.1701  -3.1628  -3.1271  -2.9250  -2.8742  -2.8333  -2.7725
    -2.6750  -2.5874  -2.5207  -2.4791  -2.4549  -2.4282  -2.4141  -2.3725
    -2.3104  -2.1163  -2.0977  -2.0783  -1.9909  -1.9585  -1.9418  -1.8812
    -1.8470  -1.7711  -1.7051  -1.6677  -1.5699  -1.5080  -1.4519  -1.3525
    -1.2984  -1.1319  -0.4716   0.2138   0.3568   0.7196   0.9780   1.5379
     2.0207   2.4781   3.1949   3.7605   4.1910   4.5163   4.6465

          k = 0.0000-0.0970 0.0000 ( 19380 PWs)   bands (ev):

   -11.8686  -6.2848  -6.2714  -6.0334  -5.6782  -5.0010  -4.9173  -4.8377
    -4.7910  -4.7799  -4.7403  -4.7257  -4.4970  -4.4718  -4.3820  -4.2901
    -4.2309  -4.1190  -4.0853  -3.9951  -3.9265  -3.9099  -3.8701  -3.7447
    -3.7237  -3.6204  -3.6103  -3.5034  -3.3670  -3.3543  -3.3166  -3.2703
    -3.2375  -3.1079  -3.1035  -3.0786  -3.0686  -3.0376  -3.0098  -2.9596
    -2.9238  -2.8985  -2.7724  -2.6916  -2.6579  -2.5626  -2.5531  -2.5166
    -2.4889  -2.4116  -2.3637  -2.2779  -2.2550  -2.2075  -2.0851  -2.0623
    -1.9622  -1.9543  -1.7189  -1.7021  -1.5898  -1.5157  -1.4664  -1.4310
    -1.3355  -1.2876  -0.2794   0.0687   0.5459   0.5504   0.9758   1.2654
     2.0745   2.6330   3.4694   3.9059   4.1965   4.5609   5.2868

          k = 0.0280-0.0162 0.0000 ( 19351 PWs)   bands (ev):

   -11.8810  -7.3244  -6.3101  -6.1596  -5.6531  -5.5289  -5.4594  -5.3518
    -5.2887  -5.2688  -5.1268  -5.0499  -4.9713  -4.9509  -4.8476  -4.7998
    -4.7180  -4.3330  -4.0833  -3.9320  -3.7668  -3.7434  -3.7170  -3.6856
    -3.6600  -3.6183  -3.5053  -3.4762  -3.4342  -3.3765  -3.3233  -3.2850
    -3.2211  -3.1462  -3.0681  -2.9230  -2.8604  -2.7957  -2.6222  -2.4776
    -2.4445  -2.4026  -2.3189  -2.2497  -2.1888  -2.1401  -2.0209  -1.8620
    -1.8182  -1.7665  -1.7386  -1.7046  -1.6918  -1.6634  -1.5954  -1.5490
    -1.5381  -1.5116  -1.4689  -1.4434  -1.3823  -1.2895  -1.2684  -1.2403
    -0.9869  -0.6521  -0.2106   0.3918   0.6501   0.9356   1.1436   1.7619
     1.9352   2.4490   2.9673   3.1580   3.4354   4.1004   4.2218

          k = 0.0280 0.0162 0.0000 ( 19351 PWs)   bands (ev):

   -11.8804  -7.3284  -6.3516  -6.1383  -5.6527  -5.5188  -5.4292  -5.3609
    -5.3025  -5.2254  -5.1711  -5.0497  -4.9658  -4.9470  -4.8134  -4.7989
    -4.7388  -4.3302  -4.0612  -3.9352  -3.7808  -3.7511  -3.7168  -3.6819
    -3.6729  -3.6183  -3.4998  -3.4615  -3.4270  -3.4001  -3.3229  -3.2870
    -3.2178  -3.1524  -3.0476  -2.9116  -2.8846  -2.7916  -2.6604  -2.4943
    -2.4338  -2.4070  -2.3236  -2.2491  -2.1719  -2.1525  -2.0359  -1.8532
    -1.8040  -1.7492  -1.7343  -1.6990  -1.6805  -1.6428  -1.6085  -1.5829
    -1.5466  -1.5283  -1.4853  -1.4538  -1.3878  -1.3070  -1.2639  -1.2404
    -0.9905  -0.5946  -0.0446   0.3163   0.6533   0.8726   1.1324   1.7379
     2.0628   2.4097   2.9694   3.0650   3.3542   4.1014   4.2112

          k = 0.0280 0.0485 0.0000 ( 19345 PWs)   bands (ev):

   -11.8726  -6.9864  -6.3202  -5.9504  -5.4298  -5.3449  -5.2932  -5.1864
    -5.1022  -5.0150  -4.9707  -4.8956  -4.8628  -4.7697  -4.6946  -4.6092
    -4.4010  -4.2824  -4.0259  -3.9463  -3.8968  -3.8386  -3.7787  -3.7109
    -3.6201  -3.5777  -3.5234  -3.4840  -3.4093  -3.3842  -3.2924  -3.2693
    -3.2201  -3.1542  -3.1173  -3.0594  -2.9478  -2.9154  -2.8226  -2.6490
    -2.5663  -2.5074  -2.4897  -2.4280  -2.3716  -2.2614  -2.2504  -2.2168
    -2.1866  -2.1635  -2.0006  -1.9864  -1.9254  -1.8787  -1.8200  -1.8033
    -1.7023  -1.6361  -1.5987  -1.5723  -1.5384  -1.4640  -1.4231  -1.3797
    -0.9808  -0.8553  -0.5628  -0.2945   0.0096   0.9379   1.2226   2.2110
     2.3973   2.4388   2.5982   3.0518   3.9503   4.1951   4.7965

          k = 0.0280-0.1132 0.0000 ( 19376 PWs)   bands (ev):

   -11.8654  -6.4665  -6.1860  -5.8518  -5.5078  -5.1156  -4.9352  -4.8340
    -4.7902  -4.7801  -4.7189  -4.7058  -4.5981  -4.5207  -4.3814  -4.2991
    -4.2147  -4.1791  -4.1213  -4.0489  -3.9664  -3.9174  -3.8623  -3.7924
    -3.7338  -3.6731  -3.6042  -3.5257  -3.4584  -3.4324  -3.3675  -3.3212
    -3.2740  -3.2136  -3.1851  -3.1600  -3.0648  -3.0470  -2.9608  -2.8900
    -2.8521  -2.7828  -2.7584  -2.6497  -2.6209  -2.5737  -2.4936  -2.4505
    -2.4313  -2.3497  -2.2645  -2.2384  -2.1417  -2.0488  -2.0165  -1.9004
    -1.8790  -1.7282  -1.6971  -1.6318  -1.5973  -1.5611  -1.5201  -1.4635
    -1.4112  -1.2378  -0.8636  -0.3434   0.1563   0.5201   1.2588   1.8022
     2.3740   2.7281   3.4490   3.7179   4.0792   4.8319   5.0331

          k = 0.0280-0.0808 0.0000 ( 19376 PWs)   bands (ev):

   -11.8660  -6.3740  -6.2722  -5.8430  -5.5039  -5.1407  -4.9555  -4.8282
    -4.8142  -4.7814  -4.7110  -4.6602  -4.5818  -4.5496  -4.4572  -4.2930
    -4.2400  -4.1690  -4.1014  -3.9901  -3.9680  -3.8942  -3.8348  -3.8024
    -3.7537  -3.6983  -3.6200  -3.5310  -3.4519  -3.4039  -3.3729  -3.3364
    -3.2950  -3.2246  -3.1631  -3.1050  -3.0803  -3.0621  -2.9315  -2.9010
    -2.8274  -2.7777  -2.7643  -2.6623  -2.6241  -2.5641  -2.4904  -2.4451
    -2.4313  -2.3370  -2.2762  -2.2537  -2.1508  -2.0728  -1.9975  -1.8839
    -1.8666  -1.7259  -1.7080  -1.6526  -1.6035  -1.5711  -1.5177  -1.4631
    -1.4088  -1.1995  -0.8126  -0.2980  -0.1738   0.8458   1.1004   1.7867
     2.3171   2.8737   3.3648   3.7293   4.1189   4.8224   5.0674

          k = 0.0280-0.0485 0.0000 ( 19345 PWs)   bands (ev):

   -11.8737  -6.9679  -6.2738  -5.9722  -5.4308  -5.3679  -5.3180  -5.2159
    -5.1109  -5.0030  -4.9402  -4.8904  -4.8480  -4.8142  -4.7313  -4.6124
    -4.4013  -4.2795  -4.0455  -3.9385  -3.9105  -3.7952  -3.7514  -3.7029
    -3.6190  -3.5829  -3.5482  -3.4682  -3.4091  -3.3723  -3.3139  -3.2695
    -3.2619  -3.1519  -3.1061  -3.0578  -2.9273  -2.8814  -2.7199  -2.6456
    -2.6020  -2.5214  -2.4652  -2.4267  -2.3724  -2.3029  -2.2591  -2.2116
    -2.1902  -2.1620  -2.0355  -1.9791  -1.9276  -1.8648  -1.8256  -1.7474
    -1.6923  -1.6215  -1.6023  -1.5679  -1.5583  -1.4481  -1.4157  -1.3843
    -0.9988  -0.8334  -0.5806  -0.4550   0.0723   0.8527   1.2342   2.2107
     2.3328   2.3960   2.8448   3.1107   3.8943   4.1810   4.8194

          k = 0.0560-0.0323 0.0000 ( 19389 PWs)   bands (ev):

   -11.8657  -6.8133  -6.2651  -5.7535  -5.5919  -5.2392  -5.1668  -5.1136
    -4.9999  -4.9552  -4.8909  -4.8664  -4.8258  -4.7453  -4.6469  -4.5574
    -4.3534  -4.1908  -4.0917  -4.0076  -3.9385  -3.8624  -3.7460  -3.6987
    -3.6335  -3.6201  -3.5491  -3.5035  -3.4203  -3.3731  -3.3047  -3.2320
    -3.2075  -3.1710  -3.1453  -3.1237  -3.0384  -2.8447  -2.7837  -2.6560
    -2.6141  -2.5845  -2.5203  -2.4725  -2.4678  -2.4465  -2.4073  -2.3784
    -2.2972  -2.1305  -2.0991  -2.0793  -1.9987  -1.9643  -1.9036  -1.8818
    -1.8367  -1.7941  -1.7023  -1.6015  -1.5526  -1.5156  -1.4828  -1.3564
    -1.3121  -1.2200  -0.5038   0.2564   0.4825   0.7157   1.1113   1.6730
     1.8627   2.7430   3.0336   3.7804   4.1649   4.5667   4.6806

          k = 0.0560 0.0000 0.0000 ( 19345 PWs)   bands (ev):

   -11.8673  -6.9843  -6.3103  -5.8293  -5.4101  -5.3548  -5.2975  -5.1841
    -5.1141  -5.0254  -4.9833  -4.9152  -4.8499  -4.8203  -4.6481  -4.6080
    -4.5732  -4.2334  -4.0927  -3.9624  -3.9274  -3.8071  -3.7729  -3.7203
    -3.6331  -3.5816  -3.5588  -3.4606  -3.4014  -3.3744  -3.3277  -3.2803
    -3.2584  -3.1860  -3.1203  -3.0674  -2.9863  -2.8963  -2.7624  -2.6106
    -2.5402  -2.4829  -2.4676  -2.4378  -2.3640  -2.3203  -2.2459  -2.2057
    -2.1841  -2.1563  -2.0156  -1.9650  -1.9121  -1.8621  -1.7927  -1.7649
    -1.7095  -1.6754  -1.5967  -1.5752  -1.5376  -1.4616  -1.4217  -1.3942
    -0.9445  -0.8400  -0.4960  -0.4400   0.0273   0.8086   1.4936   2.2104
     2.3247   2.5040   2.7664   3.2238   3.6767   4.2086   4.8021

          k = 0.0560 0.0323 0.0000 ( 19389 PWs)   bands (ev):

   -11.8640  -6.8503  -6.3229  -5.7390  -5.5100  -5.2298  -5.1621  -5.0840
    -5.0109  -4.9707  -4.8926  -4.8535  -4.7824  -4.7228  -4.6367  -4.5721
    -4.3434  -4.2087  -4.0709  -4.0040  -3.9542  -3.8786  -3.7995  -3.7074
    -3.6575  -3.6131  -3.5531  -3.5205  -3.4028  -3.3675  -3.2517  -3.2103
    -3.1965  -3.1646  -3.1400  -3.1132  -3.0552  -2.9137  -2.8368  -2.6923
    -2.6186  -2.5679  -2.5127  -2.4769  -2.4649  -2.4519  -2.4143  -2.3890
    -2.2927  -2.1371  -2.1129  -2.0630  -2.0030  -1.9614  -1.9226  -1.8847
    -1.8527  -1.7721  -1.7038  -1.6622  -1.5892  -1.5383  -1.4774  -1.3752
    -1.2961  -1.0568  -0.2953   0.2635   0.4268   0.6951   1.0458   1.5886
     2.0189   2.5431   3.0101   4.0662   4.1108   4.6082   4.6689

          k = 0.0560-0.1294 0.0000 ( 19376 PWs)   bands (ev):

   -11.8590  -6.5455  -6.1519  -5.5939  -5.5420  -5.1184  -4.9396  -4.8900
    -4.8238  -4.7458  -4.7296  -4.6710  -4.6327  -4.5339  -4.4414  -4.3769
    -4.2342  -4.1991  -4.1116  -4.0528  -3.9720  -3.9235  -3.8946  -3.8085
    -3.7744  -3.6818  -3.6221  -3.5402  -3.4456  -3.3935  -3.3758  -3.3199
    -3.2456  -3.2241  -3.1901  -3.1398  -3.0772  -3.0349  -2.9412  -2.8706
    -2.8541  -2.8121  -2.7674  -2.6398  -2.6232  -2.5615  -2.5160  -2.4556
    -2.4027  -2.3624  -2.2794  -2.2649  -2.1257  -2.0593  -1.9932  -1.9328
    -1.8573  -1.7299  -1.6947  -1.6541  -1.6374  -1.5741  -1.5057  -1.4598
    -1.4108  -1.1664  -0.7854  -0.3764   0.2763   0.5644   1.2763   1.7201
     2.2922   2.9100   3.4977   3.7452   4.1937   4.7596   5.0812

          k = 0.0560-0.0970 0.0000 ( 19365 PWs)   bands (ev):

   -11.8574  -6.3803  -5.7604  -5.6256  -5.5612  -5.3413  -4.7677  -4.6684
    -4.6343  -4.5842  -4.5453  -4.5142  -4.4495  -4.4378  -4.3970  -4.3446
    -4.3351  -4.3143  -4.1452  -4.0312  -3.9898  -3.9379  -3.9240  -3.8719
    -3.8107  -3.7806  -3.7200  -3.6434  -3.5479  -3.5251  -3.5189  -3.4924
    -3.4473  -3.3633  -3.1655  -3.1059  -3.0862  -3.0553  -3.0511  -3.0395
    -3.0206  -2.9925  -2.7209  -2.6671  -2.6220  -2.5378  -2.4438  -2.4028
    -2.3762  -2.3044  -2.1961  -2.1650  -2.1113  -1.9281  -1.8983  -1.8500
    -1.8167  -1.7104  -1.6800  -1.6687  -1.6344  -1.6257  -1.6068  -1.5872
    -1.5689  -1.3157  -1.2596  -0.9996   0.1793   0.5079   1.1421   1.9229
     2.5982   3.3772   3.5483   3.7295   4.5439   4.8622   5.0429

          k = 0.0560-0.0647 0.0000 ( 19376 PWs)   bands (ev):

   -11.8607  -6.4000  -6.2219  -5.6327  -5.5774  -5.1158  -5.0025  -4.9094
    -4.8119  -4.7574  -4.7196  -4.6950  -4.6535  -4.5610  -4.4138  -4.3568
    -4.2522  -4.1784  -4.1186  -4.0126  -3.9801  -3.9080  -3.8768  -3.8309
    -3.7761  -3.6584  -3.6067  -3.5436  -3.4597  -3.4163  -3.3470  -3.3307
    -3.2759  -3.2136  -3.1833  -3.1352  -3.0708  -3.0022  -2.9422  -2.8606
    -2.8416  -2.8087  -2.7621  -2.6366  -2.6086  -2.5617  -2.4933  -2.4304
    -2.4055  -2.3216  -2.2947  -2.2733  -2.1381  -2.1130  -1.9761  -1.9070
    -1.8177  -1.7124  -1.6892  -1.6641  -1.6119  -1.5673  -1.5512  -1.4480
    -1.4190  -1.2887  -0.7591  -0.2486  -0.1002   0.6124   1.4168   1.9815
     2.0943   2.8174   3.4757   3.7053   4.2094   4.7477   5.1854

          k =-0.0840 0.0485 0.0000 ( 19380 PWs)   bands (ev):

   -11.8581  -6.3739  -6.0720  -5.9880  -5.4321  -5.1217  -4.9585  -4.8748
    -4.8109  -4.7817  -4.7601  -4.7430  -4.7176  -4.4345  -4.3958  -4.3158
    -4.2771  -4.1908  -4.1215  -4.0017  -3.9725  -3.9205  -3.8842  -3.8580
    -3.7834  -3.6443  -3.5641  -3.4993  -3.3838  -3.3068  -3.2789  -3.2526
    -3.1930  -3.1349  -3.1165  -3.0922  -3.0301  -3.0127  -2.9745  -2.9593
    -2.9240  -2.9149  -2.7296  -2.7055  -2.6358  -2.6120  -2.5078  -2.4452
    -2.4286  -2.4113  -2.3757  -2.3357  -2.2562  -2.2447  -2.0660  -2.0551
    -1.9644  -1.9018  -1.7174  -1.6765  -1.5636  -1.5319  -1.5190  -1.5023
    -1.3250  -1.2988  -0.2501   0.0878   0.5325   0.5360   1.1816   1.6410
     1.8380   2.5992   3.6070   3.7373   4.4394   4.6427   5.3282

          k =-0.0840 0.0808 0.0000 ( 19376 PWs)   bands (ev):

   -11.8575  -6.4717  -6.1433  -5.6574  -5.4371  -5.1159  -5.0043  -4.9014
    -4.8126  -4.7836  -4.7459  -4.6995  -4.6585  -4.5788  -4.4214  -4.3581
    -4.2516  -4.2319  -4.1490  -4.0521  -3.9939  -3.9417  -3.8845  -3.8084
    -3.7389  -3.7034  -3.6362  -3.5212  -3.4687  -3.4043  -3.3552  -3.3267
    -3.2816  -3.2279  -3.1604  -3.1141  -3.0514  -2.9831  -2.9370  -2.9022
    -2.8324  -2.8066  -2.7502  -2.6450  -2.6025  -2.5600  -2.5076  -2.4471
    -2.3977  -2.3461  -2.2884  -2.2389  -2.1257  -2.0797  -1.9636  -1.9086
    -1.8372  -1.7319  -1.6824  -1.6338  -1.5990  -1.5669  -1.5440  -1.4637
    -1.4252  -1.2884  -0.7865  -0.2252  -0.0376   0.5245   1.6147   1.8449
     2.1110   2.9126   3.4751   3.7451   4.1402   4.8299   5.1460

          k =-0.0840 0.1132 0.0000 ( 19376 PWs)   bands (ev):

   -11.8564  -6.5430  -6.1422  -5.5740  -5.4301  -5.1575  -4.9392  -4.8818
    -4.8106  -4.7945  -4.7294  -4.6796  -4.6500  -4.5769  -4.4478  -4.4095
    -4.2547  -4.2107  -4.1594  -4.0687  -3.9761  -3.9319  -3.8643  -3.8119
    -3.7439  -3.7233  -3.6590  -3.5418  -3.4432  -3.4029  -3.3628  -3.3230
    -3.2860  -3.1877  -3.1642  -3.0901  -3.0647  -3.0403  -2.9443  -2.8986
    -2.8296  -2.8129  -2.7509  -2.6538  -2.5999  -2.5405  -2.5266  -2.4680
    -2.4231  -2.3352  -2.2900  -2.2506  -2.1005  -2.0826  -1.9797  -1.9094
    -1.8696  -1.7237  -1.6811  -1.6653  -1.6272  -1.5814  -1.5253  -1.4735
    -1.4118  -1.1134  -0.7791  -0.3551   0.0394   0.7914   1.2485   1.7194
     2.2526   3.1233   3.4041   3.7880   4.1468   4.8926   5.0336

          k =-0.0840-0.0485 0.0000 ( 19380 PWs)   bands (ev):

   -11.8558  -6.5514  -6.0698  -5.8419  -5.4364  -5.0311  -4.9544  -4.8244
    -4.7918  -4.7721  -4.7577  -4.7149  -4.6838  -4.4851  -4.4391  -4.3712
    -4.2869  -4.1438  -4.1035  -4.0387  -3.9591  -3.9299  -3.9068  -3.8297
    -3.7586  -3.7438  -3.5729  -3.4589  -3.3799  -3.3201  -3.2604  -3.2332
    -3.1777  -3.1494  -3.1373  -3.0912  -3.0633  -3.0292  -2.9684  -2.9583
    -2.9215  -2.9019  -2.7585  -2.6944  -2.6874  -2.6128  -2.5071  -2.4612
    -2.4303  -2.4071  -2.3977  -2.3746  -2.2536  -2.2363  -2.0721  -2.0398
    -2.0123  -1.9409  -1.7180  -1.6524  -1.5645  -1.5429  -1.4974  -1.4041
    -1.3519  -1.2860   0.0382   0.1051   0.5258   0.5892   1.0527   1.2220
     2.0635   2.6232   3.7166   3.8147   4.3907   4.7919   5.0221

     the Fermi energy is     0.5719 ev

!    total energy              =   -1414.34154272 Ry
     Harris-Foulkes estimate   =   -1414.34154577 Ry
     estimated scf accuracy    <       0.00000375 Ry

     The total energy is the sum of the following terms:

     one-electron contribution =   -8281.21582186 Ry
     hartree contribution      =    4239.98581295 Ry
     xc contribution           =    -773.30958281 Ry
     ewald contribution        =    3400.22318388 Ry
     electric field correction =       0.00011490 Ry
     smearing contrib. (-TS)   =      -0.02524978 Ry

     convergence has been achieved in   5 iterations
 
 BEEF-vdW xc energy contributions
           1 :   -691.047185506500     
           2 :    642.253208976274     
           3 :   -555.051403036013     
           4 :    446.387027658908     
           5 :   -334.505552615920     
           6 :    234.278839718129     
           7 :   -154.408632959239     
           8 :    96.9702643671151     
           9 :   -59.0177644488671     
          10 :    35.2458473792167     
          11 :   -20.5071623554871     
          12 :    11.2585165870289     
          13 :   -5.70340743391739     
          14 :    3.02518855754579     
          15 :   -2.44229084721997     
          16 :    2.69292818116014     
          17 :   -2.18982890286122     
          18 :  -0.352578573029405     
          19 :    5.25767292854312     
          20 :   -11.6327565407951     
          21 :    17.7044416081508     
          22 :   -21.6030288292093     
          23 :    22.1991072070909     
          24 :   -19.5816513360481     
          25 :    14.9568660935827     
          26 :   -10.0530491590041     
          27 :    6.34996926940744     
          28 :   -4.51817672773939     
          29 :    4.30950382530546     
          30 :   -4.89858035405973     
          31 :   -54.8048976238949     
          32 :   -39.9366717257351     

     Forces acting on atoms (Ry/au):


     negative rho (up, down):  2.641E-04 0.000E+00
     atom    1 type  1   force =    -0.00084030   -0.00077255   -0.00222151
     atom    2 type  1   force =     0.00071779   -0.00028557   -0.00607883
     atom    3 type  1   force =    -0.00006192    0.00090073   -0.00415497
     atom    4 type  1   force =     0.00025988    0.00036625   -0.00348883
     atom    5 type  1   force =    -0.00052609    0.00022548   -0.00417988
     atom    6 type  1   force =     0.00097263   -0.00087357    0.00393923
     atom    7 type  1   force =     0.00140799    0.00552618    0.01143891
     atom    8 type  1   force =    -0.00097748   -0.00086978   -0.00622316
     atom    9 type  1   force =    -0.00865468    0.01721650    0.00795628
     atom   10 type  1   force =     0.00776848   -0.02383680    0.00873798
     atom   11 type  1   force =    -0.00141805    0.00763142   -0.00200097
     atom   12 type  1   force =     0.00153563   -0.00750722   -0.00500462
     atom   13 type  2   force =    -0.00057163    0.00095480   -0.00064173
     atom   14 type  3   force =    -0.01768570    0.01700770    0.00138299
     atom   15 type  3   force =     0.01807345   -0.01568357    0.00053911

     Total force =     0.049659     Total SCF correction =     0.005263
     SCF correction compared to forces is large: reduce conv_thr to get better values


     entering subroutine stress ...


     negative rho (up, down):  2.641E-04 0.000E+00
          total   stress  (Ry/bohr**3)                   (kbar)     P=   -8.30
  -0.00010934  -0.00001316  -0.00000098        -16.08     -1.94     -0.14
  -0.00001316  -0.00007781  -0.00000225         -1.94    -11.45     -0.33
  -0.00000098  -0.00000225   0.00001790         -0.14     -0.33      2.63


     number of scf cycles    =   2
     number of bfgs steps    =   1

     energy   old            =   -1414.3388639216 Ry
     energy   new            =   -1414.3415427231 Ry

     CASE: energy  _new < energy  _old


     WARNING: bfgs curvature condition failed, Theta= 0.851
     new trust radius        =       0.0433702934 bohr
     new conv_thr            =       0.0000001000 Ry


ATOMIC_POSITIONS (crystal)
Au1      0.166666667   0.166666667   0.402269971    0   0   0
Au1      0.666666667   0.166666667   0.402269971    0   0   0
Au1      0.166666667   0.666666667   0.402269971    0   0   0
Au1      0.666666667   0.666666667   0.402269971    0   0   0
Au1      0.833333333   0.333333333   0.500000000    0   0   0
Au1      0.333333333   0.333333333   0.500000000    0   0   0
Au1      0.833333333   0.833333333   0.500000000    0   0   0
Au1      0.333333333   0.833333333   0.500000000    0   0   0
Au1     -0.004832811   0.004757237   0.598160465
Au1      0.505512185  -0.006569082   0.598206611
Au1     -0.001793111   0.502297228   0.597680065
Au1      0.501747438   0.497867053   0.597521692
C1       0.249774201   0.000390729   0.661651537
H1       0.288462433   0.126739397   0.687120119
H1       0.211421019   0.873436376   0.687104625



     Writing output data file calc.save
     Check: negative starting charge=   -0.000110
     NEW-OLD atomic charge density approx. for the potential

     Check: negative/imaginary core charge=   -0.000002    0.000000
     Check: negative starting charge=   -0.000110

     negative rho (up, down):  2.638E-04 0.000E+00
 
     Adding external electric field

     Computed dipole along edir(3) : 
        Dipole                0.2169 Ry au,          0.5513 Debye
        Dipole field          0.0005 Ry au
 
        Potential amp.       -0.0485 Ry
        Total length         45.8022 bohr
 

     total cpu time spent up to now is      743.2 secs

     per-process dynamical memory:    86.9 Mb

     Self-consistent Calculation

     iteration #  1     ecut=    36.75 Ry     beta=0.30
     Davidson diagonalization with overlap
     ethr =  1.00E-06,  avg # of iterations =  4.5

     negative rho (up, down):  2.636E-04 0.000E+00
 
     Adding external electric field

     Computed dipole along edir(3) : 
        Dipole                0.2099 Ry au,          0.5336 Debye
        Dipole field          0.0005 Ry au
 
        Potential amp.       -0.0470 Ry
        Total length         45.8022 bohr
 

     total cpu time spent up to now is      779.1 secs

     total energy              =   -1414.34532085 Ry
     Harris-Foulkes estimate   =   -1414.34535756 Ry
     estimated scf accuracy    <       0.00019493 Ry

     iteration #  2     ecut=    36.75 Ry     beta=0.30
     Davidson diagonalization with overlap
     ethr =  1.41E-07,  avg # of iterations =  2.0

     negative rho (up, down):  2.637E-04 0.000E+00
 
     Adding external electric field

     Computed dipole along edir(3) : 
        Dipole                0.2278 Ry au,          0.5791 Debye
        Dipole field          0.0006 Ry au
 
        Potential amp.       -0.0510 Ry
        Total length         45.8022 bohr
 

     total cpu time spent up to now is      803.9 secs

     total energy              =   -1414.34530103 Ry
     Harris-Foulkes estimate   =   -1414.34532366 Ry
     estimated scf accuracy    <       0.00024173 Ry

     iteration #  3     ecut=    36.75 Ry     beta=0.30
     Davidson diagonalization with overlap
     ethr =  1.41E-07,  avg # of iterations =  2.2

     negative rho (up, down):  2.636E-04 0.000E+00
 
     Adding external electric field

     Computed dipole along edir(3) : 
        Dipole                0.2153 Ry au,          0.5473 Debye
        Dipole field          0.0005 Ry au
 
        Potential amp.       -0.0482 Ry
        Total length         45.8022 bohr
 

     total cpu time spent up to now is      828.7 secs

     total energy              =   -1414.34529239 Ry
     Harris-Foulkes estimate   =   -1414.34538592 Ry
     estimated scf accuracy    <       0.00106608 Ry

     iteration #  4     ecut=    36.75 Ry     beta=0.30
     Davidson diagonalization with overlap
     ethr =  1.41E-07,  avg # of iterations =  1.7

     negative rho (up, down):  2.638E-04 0.000E+00
 
     Adding external electric field

     Computed dipole along edir(3) : 
        Dipole                0.2148 Ry au,          0.5459 Debye
        Dipole field          0.0005 Ry au
 
        Potential amp.       -0.0481 Ry
        Total length         45.8022 bohr
 

     total cpu time spent up to now is      853.3 secs

     total energy              =   -1414.34533392 Ry
     Harris-Foulkes estimate   =   -1414.34533641 Ry
     estimated scf accuracy    <       0.00003034 Ry

     iteration #  5     ecut=    36.75 Ry     beta=0.30
     Davidson diagonalization with overlap
     ethr =  2.20E-08,  avg # of iterations =  2.0

     negative rho (up, down):  2.637E-04 0.000E+00
 
     Adding external electric field

     Computed dipole along edir(3) : 
        Dipole                0.2152 Ry au,          0.5470 Debye
        Dipole field          0.0005 Ry au
 
        Potential amp.       -0.0481 Ry
        Total length         45.8022 bohr
 

     total cpu time spent up to now is      878.3 secs

     total energy              =   -1414.34533619 Ry
     Harris-Foulkes estimate   =   -1414.34533744 Ry
     estimated scf accuracy    <       0.00001006 Ry

     iteration #  6     ecut=    36.75 Ry     beta=0.30
     Davidson diagonalization with overlap
     ethr =  7.29E-09,  avg # of iterations =  2.0

     negative rho (up, down):  2.637E-04 0.000E+00
 
     Adding external electric field

     Computed dipole along edir(3) : 
        Dipole                0.2156 Ry au,          0.5480 Debye
        Dipole field          0.0005 Ry au
 
        Potential amp.       -0.0482 Ry
        Total length         45.8022 bohr
 

     total cpu time spent up to now is      905.6 secs

     total energy              =   -1414.34533747 Ry
     Harris-Foulkes estimate   =   -1414.34533712 Ry
     estimated scf accuracy    <       0.00000130 Ry

     iteration #  7     ecut=    36.75 Ry     beta=0.30
     Davidson diagonalization with overlap
     ethr =  9.42E-10,  avg # of iterations =  2.5

     negative rho (up, down):  2.637E-04 0.000E+00
 
     Adding external electric field

     Computed dipole along edir(3) : 
        Dipole                0.2156 Ry au,          0.5480 Debye
        Dipole field          0.0005 Ry au
 
        Potential amp.       -0.0482 Ry
        Total length         45.8022 bohr
 

     total cpu time spent up to now is      935.3 secs

     total energy              =   -1414.34533770 Ry
     Harris-Foulkes estimate   =   -1414.34533769 Ry
     estimated scf accuracy    <       0.00000025 Ry

     iteration #  8     ecut=    36.75 Ry     beta=0.30
     Davidson diagonalization with overlap
     ethr =  1.83E-10,  avg # of iterations =  2.3

     negative rho (up, down):  2.636E-04 0.000E+00

     negative rho (up, down):  2.636E-04 0.000E+00

     negative rho (up, down):  2.636E-04 0.000E+00

     negative rho (up, down):  2.636E-04 0.000E+00

     negative rho (up, down):  2.636E-04 0.000E+00

     negative rho (up, down):  2.636E-04 0.000E+00

     negative rho (up, down):  2.636E-04 0.000E+00

     negative rho (up, down):  2.636E-04 0.000E+00

     negative rho (up, down):  2.636E-04 0.000E+00

     negative rho (up, down):  2.636E-04 0.000E+00

     negative rho (up, down):  2.636E-04 0.000E+00

     negative rho (up, down):  2.636E-04 0.000E+00

     negative rho (up, down):  2.636E-04 0.000E+00

     negative rho (up, down):  2.636E-04 0.000E+00

     negative rho (up, down):  2.636E-04 0.000E+00

     negative rho (up, down):  2.636E-04 0.000E+00

     negative rho (up, down):  2.636E-04 0.000E+00

     negative rho (up, down):  2.636E-04 0.000E+00

     negative rho (up, down):  2.636E-04 0.000E+00

     negative rho (up, down):  2.636E-04 0.000E+00

     negative rho (up, down):  2.636E-04 0.000E+00

     negative rho (up, down):  2.636E-04 0.000E+00

     negative rho (up, down):  2.636E-04 0.000E+00

     negative rho (up, down):  2.636E-04 0.000E+00

     negative rho (up, down):  2.636E-04 0.000E+00

     negative rho (up, down):  2.636E-04 0.000E+00

     negative rho (up, down):  2.636E-04 0.000E+00

     negative rho (up, down):  2.636E-04 0.000E+00

     negative rho (up, down):  2.636E-04 0.000E+00

     negative rho (up, down):  2.636E-04 0.000E+00

     negative rho (up, down):  2.636E-04 0.000E+00

     negative rho (up, down):  2.636E-04 0.000E+00

     negative rho (up, down):  2.636E-04 0.000E+00

     negative rho (up, down):  2.636E-04 0.000E+00

     negative rho (up, down):  2.636E-04 0.000E+00
 
     Adding external electric field

     Computed dipole along edir(3) : 
        Dipole                0.2154 Ry au,          0.5475 Debye
        Dipole field          0.0005 Ry au
 
        Potential amp.       -0.0482 Ry
        Total length         45.8022 bohr
 

     total cpu time spent up to now is     1016.2 secs

     End of self-consistent calculation

          k = 0.0000 0.0000 0.0000 ( 19315 PWs)   bands (ev):

   -11.8662  -7.5115  -6.3212  -6.2962  -5.8190  -5.6367  -5.5066  -5.4706
    -5.4125  -5.3472  -5.2218  -5.1226  -5.0379  -5.0201  -4.9296  -4.9042
    -4.8488  -4.3794  -4.0674  -3.9469  -3.8126  -3.7732  -3.7450  -3.6819
    -3.6143  -3.6068  -3.5245  -3.5084  -3.3646  -3.3402  -3.3228  -3.2780
    -3.2512  -3.2458  -2.9805  -2.8425  -2.7183  -2.6662  -2.5992  -2.4930
    -2.3922  -2.3543  -2.2501  -2.1426  -2.0708  -2.0399  -1.9843  -1.7158
    -1.6794  -1.6738  -1.6496  -1.5800  -1.5481  -1.5395  -1.4846  -1.4441
    -1.3935  -1.3733  -1.3388  -1.2691  -1.1978  -1.1811  -1.0938  -1.0875
    -1.0838  -0.1642   0.2963   1.0647   1.1960   1.2533   1.4845   1.7841
     1.9560   2.0322   2.1062   2.3032   2.9571   3.7077   3.9307

          k = 0.0000 0.0323 0.0000 ( 19351 PWs)   bands (ev):

   -11.8611  -7.3258  -6.2906  -6.1822  -5.6738  -5.5368  -5.4284  -5.3783
    -5.2990  -5.2250  -5.1214  -5.0505  -4.9798  -4.9475  -4.8637  -4.7653
    -4.7073  -4.3530  -4.0243  -3.9304  -3.8050  -3.7386  -3.7178  -3.6986
    -3.6587  -3.6211  -3.5057  -3.4562  -3.4191  -3.3870  -3.3279  -3.3130
    -3.2337  -3.1476  -3.0469  -2.9311  -2.8219  -2.7316  -2.6667  -2.5826
    -2.4617  -2.3879  -2.3339  -2.2498  -2.1881  -2.1469  -2.0389  -1.8456
    -1.7954  -1.7653  -1.7157  -1.7117  -1.6998  -1.6891  -1.6531  -1.5647
    -1.5357  -1.5139  -1.4995  -1.4161  -1.3989  -1.3038  -1.2603  -1.2459
    -0.9638  -0.6180  -0.1037   0.1999   0.6635   0.9476   1.0627   1.7105
     1.9597   2.4033   2.9229   2.9936   3.6475   4.1090   4.2226

          k = 0.0000 0.0647 0.0000 ( 19389 PWs)   bands (ev):

   -11.8508  -6.8151  -6.2376  -5.9878  -5.5401  -5.2608  -5.1404  -5.0724
    -5.0040  -4.9359  -4.8874  -4.8670  -4.7695  -4.7202  -4.6727  -4.4264
    -4.2916  -4.2701  -4.0243  -3.9641  -3.9145  -3.8816  -3.7452  -3.7019
    -3.6340  -3.5953  -3.5712  -3.5051  -3.4001  -3.3648  -3.2701  -3.2309
    -3.2005  -3.1766  -3.1625  -3.1316  -2.9316  -2.8775  -2.8395  -2.7768
    -2.6819  -2.5892  -2.5259  -2.4824  -2.4616  -2.4291  -2.4203  -2.3711
    -2.3119  -2.1252  -2.1027  -2.0809  -1.9929  -1.9645  -1.9439  -1.8900
    -1.8480  -1.7742  -1.7108  -1.6774  -1.5787  -1.5100  -1.4551  -1.3580
    -1.3012  -1.1329  -0.4773   0.1967   0.3494   0.7149   0.9689   1.5290
     2.0282   2.4767   3.1870   3.7599   4.2031   4.5152   4.6425

          k = 0.0000-0.0970 0.0000 ( 19380 PWs)   bands (ev):

   -11.8458  -6.2664  -6.2442  -6.0374  -5.6745  -5.0073  -4.9075  -4.8389
    -4.7943  -4.7849  -4.7430  -4.7241  -4.4990  -4.4699  -4.3898  -4.2907
    -4.2293  -4.1217  -4.0921  -3.9928  -3.9314  -3.9123  -3.8743  -3.7508
    -3.7252  -3.6353  -3.6125  -3.5166  -3.3778  -3.3447  -3.3129  -3.2839
    -3.2447  -3.1104  -3.1070  -3.0757  -3.0690  -3.0451  -3.0123  -2.9658
    -2.9292  -2.9028  -2.7757  -2.6977  -2.6653  -2.5692  -2.5531  -2.5214
    -2.4944  -2.4190  -2.3690  -2.2805  -2.2493  -2.2126  -2.0924  -2.0628
    -1.9714  -1.9576  -1.7250  -1.7083  -1.5984  -1.5182  -1.4692  -1.4324
    -1.3426  -1.2911  -0.2827   0.0460   0.5405   0.5485   0.9674   1.2524
     2.0833   2.6292   3.4603   3.9046   4.2123   4.5636   5.2835

          k = 0.0280-0.0162 0.0000 ( 19351 PWs)   bands (ev):

   -11.8583  -7.3256  -6.2763  -6.1551  -5.6560  -5.5284  -5.4602  -5.3510
    -5.2888  -5.2700  -5.1238  -5.0486  -4.9729  -4.9533  -4.8473  -4.8039
    -4.7200  -4.3299  -4.0851  -3.9349  -3.7732  -3.7518  -3.7205  -3.6935
    -3.6642  -3.6209  -3.5097  -3.4827  -3.4388  -3.3755  -3.3295  -3.2850
    -3.2274  -3.1516  -3.0817  -2.9293  -2.8687  -2.7993  -2.6289  -2.4807
    -2.4463  -2.4081  -2.3241  -2.2490  -2.1951  -2.1410  -2.0241  -1.8692
    -1.8307  -1.7734  -1.7438  -1.7073  -1.6956  -1.6660  -1.5977  -1.5542
[...]
    -1.4265  -1.1744  -0.9343  -0.4602  -0.1046   0.6789   0.9614   1.6912
     2.2590   2.7958   3.4276   3.7524   4.0490   4.7784   5.0975

          k = 0.0280-0.0808 0.0000 ( 19376 PWs)   bands (ev):

   -11.8009  -6.3485  -5.9467  -5.8701  -5.5391  -5.1329  -5.0248  -4.8926
    -4.8539  -4.7830  -4.7412  -4.6848  -4.5924  -4.5225  -4.4681  -4.3012
    -4.2298  -4.1901  -4.1452  -4.0745  -4.0217  -3.9358  -3.9144  -3.8578
    -3.8172  -3.7322  -3.6680  -3.5817  -3.5496  -3.4825  -3.4544  -3.3602
    -3.3204  -3.2623  -3.2191  -3.1829  -3.1018  -3.0541  -2.9471  -2.9123
    -2.8739  -2.8477  -2.8318  -2.7237  -2.6880  -2.5936  -2.5321  -2.5062
    -2.4478  -2.3742  -2.3241  -2.2687  -2.1988  -2.1299  -2.0775  -2.0258
    -1.9131  -1.8174  -1.7612  -1.7088  -1.6606  -1.6083  -1.5580  -1.5117
    -1.4265  -1.1757  -0.9358  -0.4604  -0.1025   0.6823   0.9581   1.6914
     2.2592   2.7967   3.4265   3.7520   4.0550   4.7756   5.0939

          k = 0.0280-0.0485 0.0000 ( 19345 PWs)   bands (ev):

   -11.8084  -6.9528  -6.0408  -5.9350  -5.4850  -5.3592  -5.3149  -5.2223
    -5.0649  -5.0293  -4.9636  -4.9169  -4.8620  -4.7640  -4.7217  -4.5534
    -4.3527  -4.2903  -4.2455  -3.9957  -3.9467  -3.8930  -3.8348  -3.7603
    -3.7118  -3.6190  -3.5621  -3.5005  -3.4483  -3.4179  -3.3782  -3.3402
    -3.3005  -3.2198  -3.1377  -3.0972  -2.9928  -2.9367  -2.8728  -2.7493
    -2.6984  -2.5759  -2.5394  -2.5104  -2.4009  -2.3794  -2.3202  -2.2499
    -2.2173  -2.1344  -2.0984  -2.0287  -1.9929  -1.9613  -1.9133  -1.8618
    -1.7481  -1.6898  -1.6641  -1.6308  -1.5936  -1.5238  -1.4682  -1.4072
    -1.0173  -0.8629  -0.6266  -0.4712   0.0344   0.7214   1.1726   2.1861
     2.2640   2.3723   2.6854   3.0315   4.0059   4.2274   4.7817

          k = 0.0560-0.0323 0.0000 ( 19389 PWs)   bands (ev):

   -11.7961  -6.7843  -6.0154  -5.7169  -5.5549  -5.2786  -5.1200  -5.0723
    -5.0190  -4.9715  -4.9340  -4.8657  -4.8334  -4.7368  -4.6425  -4.5682
    -4.3578  -4.2942  -4.1658  -4.0408  -3.9457  -3.8939  -3.8475  -3.7362
    -3.7207  -3.6312  -3.6178  -3.5747  -3.4863  -3.4527  -3.3603  -3.2666
    -3.2500  -3.2343  -3.1965  -3.1323  -3.0559  -2.9474  -2.8912  -2.7657
    -2.6948  -2.6466  -2.5991  -2.5711  -2.5449  -2.5183  -2.4543  -2.3695
    -2.3351  -2.2313  -2.1637  -2.1225  -2.0732  -2.0079  -1.9466  -1.9424
    -1.8962  -1.8307  -1.7686  -1.7362  -1.6774  -1.6011  -1.5511  -1.4309
    -1.3634  -1.2007  -0.5957   0.1883   0.4961   0.5895   1.0666   1.6447
     1.8180   2.7100   3.0476   3.8736   4.2001   4.5544   4.6647

          k = 0.0560 0.0000 0.0000 ( 19345 PWs)   bands (ev):

   -11.7986  -6.9466  -6.0238  -5.8064  -5.4089  -5.3582  -5.3517  -5.1683
    -5.0803  -5.0077  -4.9778  -4.9343  -4.8808  -4.8283  -4.6683  -4.6115
    -4.5084  -4.3597  -4.1889  -4.0103  -3.9190  -3.8518  -3.7754  -3.7352
    -3.6994  -3.6515  -3.6227  -3.5783  -3.4410  -3.4099  -3.3906  -3.3346
    -3.3041  -3.2174  -3.2033  -3.1381  -2.9988  -2.9750  -2.8120  -2.6678
    -2.6368  -2.5837  -2.5691  -2.4979  -2.4795  -2.4036  -2.3549  -2.2593
    -2.2105  -2.1502  -2.1004  -2.0049  -1.9578  -1.9422  -1.8836  -1.8244
    -1.8049  -1.7731  -1.6763  -1.6408  -1.6243  -1.5316  -1.4702  -1.4249
    -0.9589  -0.9197  -0.7197  -0.5236   0.0017   0.8041   1.4461   2.2274
     2.3141   2.4620   2.9059   3.2420   3.5703   4.2388   4.8481

          k = 0.0560 0.0323 0.0000 ( 19389 PWs)   bands (ev):

   -11.7961  -6.7848  -6.0144  -5.7192  -5.5562  -5.2787  -5.1238  -5.0747
    -5.0172  -4.9696  -4.9354  -4.8662  -4.8358  -4.7378  -4.6458  -4.5660
    -4.3583  -4.2924  -4.1643  -4.0350  -3.9487  -3.8899  -3.8478  -3.7360
    -3.7148  -3.6308  -3.6186  -3.5713  -3.4881  -3.4484  -3.3592  -3.2683
    -3.2517  -3.2342  -3.1969  -3.1325  -3.0579  -2.9486  -2.8828  -2.7614
    -2.6959  -2.6420  -2.6051  -2.5731  -2.5458  -2.5184  -2.4549  -2.3714
    -2.3332  -2.2348  -2.1626  -2.1207  -2.0725  -2.0095  -1.9502  -1.9434
    -1.8931  -1.8333  -1.7687  -1.7335  -1.6757  -1.5965  -1.5495  -1.4309
    -1.3682  -1.2017  -0.6012   0.1839   0.4954   0.5899   1.0664   1.6425
     1.8186   2.7109   3.0468   3.8736   4.2006   4.5504   4.6646

          k = 0.0560-0.1294 0.0000 ( 19376 PWs)   bands (ev):

   -11.7911  -6.3401  -5.9453  -5.6662  -5.5201  -5.1620  -4.9592  -4.9162
    -4.8521  -4.8200  -4.7318  -4.7071  -4.6530  -4.5574  -4.4506  -4.3626
    -4.3089  -4.2042  -4.1626  -4.0615  -3.9921  -3.9517  -3.9371  -3.8785
    -3.8036  -3.7569  -3.6653  -3.6226  -3.5389  -3.4700  -3.3912  -3.3632
    -3.3347  -3.2882  -3.2486  -3.1591  -3.0883  -3.0617  -2.9804  -2.9155
    -2.9027  -2.8519  -2.7823  -2.7178  -2.6834  -2.6091  -2.5205  -2.5051
    -2.4462  -2.4187  -2.3174  -2.2994  -2.2012  -2.1759  -2.0376  -2.0160
    -1.8778  -1.8413  -1.7639  -1.7244  -1.6836  -1.6331  -1.6048  -1.5117
    -1.4668  -1.3230  -0.8120  -0.4360   0.0724   0.3811   1.3371   1.8474
     2.1765   2.7438   3.5102   3.7763   4.2298   4.7350   5.1596

          k = 0.0560-0.0970 0.0000 ( 19365 PWs)   bands (ev):

   -11.7887  -5.9676  -5.7913  -5.6676  -5.5700  -5.3344  -4.8726  -4.7611
    -4.6522  -4.5989  -4.5309  -4.5234  -4.5088  -4.4478  -4.3948  -4.3609
    -4.3529  -4.2830  -4.2108  -4.0824  -4.0351  -4.0214  -3.9362  -3.9028
    -3.8542  -3.7792  -3.7640  -3.6693  -3.6391  -3.6013  -3.5893  -3.5456
    -3.5010  -3.4138  -3.2069  -3.1893  -3.1217  -3.1174  -3.1130  -3.0619
    -3.0218  -2.9223  -2.8176  -2.7710  -2.6757  -2.5818  -2.4981  -2.4711
    -2.4261  -2.3873  -2.2744  -2.1627  -2.1416  -2.0795  -1.9733  -1.9359
    -1.8451  -1.8230  -1.7777  -1.7283  -1.7068  -1.6916  -1.6461  -1.6186
    -1.5684  -1.3417  -1.3097  -1.0683  -0.0402   0.4777   1.0279   1.9098
     2.5552   3.3480   3.4944   3.9217   4.5174   4.7964   5.0824

          k = 0.0560-0.0647 0.0000 ( 19376 PWs)   bands (ev):

   -11.7911  -6.3395  -5.9458  -5.6663  -5.5169  -5.1591  -4.9537  -4.9199
    -4.8524  -4.8163  -4.7334  -4.7011  -4.6528  -4.5542  -4.4534  -4.3641
    -4.3108  -4.2088  -4.1665  -4.0601  -3.9927  -3.9509  -3.9389  -3.8744
    -3.8074  -3.7632  -3.6680  -3.6199  -3.5380  -3.4746  -3.3921  -3.3687
    -3.3364  -3.2858  -3.2502  -3.1616  -3.0885  -3.0627  -2.9792  -2.9156
    -2.9023  -2.8521  -2.7809  -2.7181  -2.6849  -2.6055  -2.5207  -2.5036
    -2.4456  -2.4176  -2.3207  -2.2976  -2.1972  -2.1763  -2.0356  -2.0182
    -1.8795  -1.8400  -1.7639  -1.7231  -1.6884  -1.6341  -1.6054  -1.5083
    -1.4637  -1.3229  -0.8109  -0.4338   0.0754   0.3834   1.3370   1.8492
     2.1726   2.7444   3.5067   3.7845   4.2344   4.7340   5.1611

          k =-0.0840 0.0485 0.0000 ( 19380 PWs)   bands (ev):

   -11.7863  -6.2014  -6.0250  -5.8811  -5.3132  -5.1145  -4.9828  -4.9396
    -4.8330  -4.8242  -4.7487  -4.7147  -4.7011  -4.4514  -4.4349  -4.3976
    -4.3280  -4.2247  -4.1361  -4.0570  -4.0169  -3.9669  -3.9028  -3.8698
    -3.8131  -3.7823  -3.6535  -3.5432  -3.4985  -3.4183  -3.3269  -3.2891
    -3.2420  -3.2320  -3.1961  -3.1380  -3.0787  -3.0619  -3.0106  -2.9876
    -2.9796  -2.8184  -2.8003  -2.7437  -2.7145  -2.6313  -2.6142  -2.5587
    -2.5071  -2.4612  -2.4181  -2.3433  -2.3081  -2.2887  -2.1602  -2.1221
    -2.0574  -1.9678  -1.8510  -1.7531  -1.6239  -1.6049  -1.5753  -1.5597
    -1.3942  -1.3498  -0.3791   0.0160   0.4745   0.5252   1.1890   1.4189
     1.8433   2.6387   3.6699   3.7596   4.4784   4.7345   5.3084

          k =-0.0840 0.0808 0.0000 ( 19376 PWs)   bands (ev):

   -11.7863  -6.3174  -5.9734  -5.6290  -5.3325  -5.1988  -5.0107  -4.9174
    -4.8813  -4.8062  -4.7481  -4.6981  -4.6438  -4.5817  -4.4493  -4.3833
    -4.2793  -4.2665  -4.1802  -4.1493  -4.0204  -3.9691  -3.9236  -3.8386
    -3.7804  -3.7331  -3.6983  -3.6106  -3.5541  -3.4788  -3.4242  -3.3920
    -3.3240  -3.2650  -3.2129  -3.1366  -3.0988  -3.0580  -3.0000  -2.9260
    -2.9040  -2.8234  -2.7922  -2.7270  -2.6693  -2.6385  -2.5750  -2.5181
    -2.4648  -2.4151  -2.3575  -2.2691  -2.1791  -2.1305  -2.0432  -1.9919
    -1.9190  -1.8479  -1.7765  -1.7313  -1.6753  -1.6461  -1.5915  -1.5219
    -1.4575  -1.2569  -0.8232  -0.4358  -0.1794   0.6120   1.5488   1.6671
     2.1361   2.9957   3.5568   3.7734   4.1602   4.8948   5.0799

          k =-0.0840 0.1132 0.0000 ( 19376 PWs)   bands (ev):

   -11.7863  -6.3181  -5.9724  -5.6300  -5.3350  -5.2004  -5.0136  -4.9157
    -4.8807  -4.8069  -4.7498  -4.7003  -4.6463  -4.5810  -4.4478  -4.3853
    -4.2754  -4.2602  -4.1827  -4.1464  -4.0226  -3.9685  -3.9218  -3.8397
    -3.7751  -3.7343  -3.6940  -3.6116  -3.5485  -3.4810  -3.4251  -3.3977
    -3.3247  -3.2640  -3.2094  -3.1398  -3.0941  -3.0551  -2.9991  -2.9293
    -2.8990  -2.8236  -2.7949  -2.7310  -2.6645  -2.6367  -2.5844  -2.5171
    -2.4626  -2.4173  -2.3561  -2.2693  -2.1778  -2.1292  -2.0438  -1.9934
    -1.9202  -1.8499  -1.7739  -1.7299  -1.6738  -1.6449  -1.5896  -1.5222
    -1.4606  -1.2591  -0.8245  -0.4385  -0.1806   0.6101   1.5450   1.6704
     2.1380   2.9970   3.5576   3.7686   4.1608   4.8864   5.0790

          k =-0.0840-0.0485 0.0000 ( 19380 PWs)   bands (ev):

   -11.7863  -6.2035  -6.0235  -5.8813  -5.3167  -5.1220  -4.9789  -4.9428
    -4.8390  -4.8211  -4.7470  -4.7207  -4.7098  -4.4506  -4.4302  -4.3948
    -4.3202  -4.2247  -4.1295  -4.0607  -4.0138  -3.9698  -3.8989  -3.8609
    -3.8144  -3.7812  -3.6520  -3.5427  -3.4931  -3.4214  -3.3197  -3.2944
    -3.2452  -3.2287  -3.1975  -3.1349  -3.0791  -3.0604  -3.0065  -2.9880
    -2.9714  -2.8209  -2.8013  -2.7502  -2.7137  -2.6276  -2.6236  -2.5639
    -2.5070  -2.4613  -2.4154  -2.3413  -2.3047  -2.2874  -2.1599  -2.1259
    -2.0580  -1.9691  -1.8524  -1.7523  -1.6195  -1.6014  -1.5752  -1.5607
    -1.3947  -1.3547  -0.3891   0.0117   0.4744   0.5255   1.1915   1.4153
     1.8429   2.6428   3.6670   3.7605   4.4701   4.7358   5.3095

     the Fermi energy is     0.5126 ev

!    total energy              =   -1414.38985594 Ry
     Harris-Foulkes estimate   =   -1414.38985587 Ry
     estimated scf accuracy    <       0.00000009 Ry

     The total energy is the sum of the following terms:

     one-electron contribution =   -8190.76787161 Ry
     hartree contribution      =    4194.61134393 Ry
     xc contribution           =    -773.29158467 Ry
     ewald contribution        =    3355.08468275 Ry
     electric field correction =       0.00007280 Ry
     smearing contrib. (-TS)   =      -0.02649913 Ry

     convergence has been achieved in   6 iterations
 
 BEEF-vdW xc energy contributions
           1 :   -691.020794000645     
           2 :    642.177152874081     
           3 :   -554.916575411027     
           4 :    446.227455675719     
           5 :   -334.371178675148     
           6 :    234.203265959677     
           7 :   -154.389846359413     
           8 :    96.9748972526709     
           9 :   -59.0047649050865     
          10 :    35.1944802122123     
          11 :   -20.4326143471570     
          12 :    11.2046875065115     
          13 :   -5.71451495504130     
          14 :    3.11347972212002     
          15 :   -2.57324110958962     
          16 :    2.79928786854475     
          17 :   -2.20858393037179     
          18 :  -0.441438623073736     
          19 :    5.41461013431342     
          20 :   -11.7758661629877     
          21 :    17.7532307018000     
          22 :   -21.5238468230561     
          23 :    22.0254217659090     
          24 :   -19.3963051299789     
          25 :    14.8456756802238     
          26 :   -10.0559347672977     
          27 :    6.43835191364496     
          28 :   -4.61284504826051     
          29 :    4.32909124882519     
          30 :   -4.80927601348117     
          31 :   -54.8030254477999     
          32 :   -39.9209496644858     

     Forces acting on atoms (Ry/au):


     negative rho (up, down):  2.658E-04 0.000E+00
     atom    1 type  1   force =    -0.00004456   -0.00046029   -0.00114848
     atom    2 type  1   force =    -0.00003512   -0.00076293   -0.00513240
     atom    3 type  1   force =    -0.00078162    0.00085626   -0.00604748
     atom    4 type  1   force =     0.00075893    0.00082406   -0.00577557
     atom    5 type  1   force =     0.00185951   -0.00795756   -0.00156610
     atom    6 type  1   force =    -0.00128775   -0.00842383   -0.00226751
     atom    7 type  1   force =    -0.00009886    0.01275419    0.01443736
     atom    8 type  1   force =     0.00030468    0.00460999    0.00493666
     atom    9 type  1   force =    -0.00139217   -0.00038029    0.00004701
     atom   10 type  1   force =     0.00085626   -0.00079408   -0.00004748
     atom   11 type  1   force =    -0.00144870    0.00036564    0.00134508
     atom   12 type  1   force =     0.00102878   -0.00081311    0.00092902
     atom   13 type  2   force =     0.00020695    0.00024306   -0.00185326
     atom   14 type  3   force =     0.00020837    0.00071464    0.00099054
     atom   15 type  3   force =    -0.00013469   -0.00077577    0.00115262

     Total force =     0.004135     Total SCF correction =     0.000560
     SCF correction compared to forces is large: reduce conv_thr to get better values


     entering subroutine stress ...


     negative rho (up, down):  2.658E-04 0.000E+00
          total   stress  (Ry/bohr**3)                   (kbar)     P=   -7.60
  -0.00009533  -0.00000009  -0.00000049        -14.02     -0.01     -0.07
  -0.00000009  -0.00007688  -0.00000164         -0.01    -11.31     -0.24
  -0.00000049  -0.00000164   0.00001714         -0.07     -0.24      2.52


     bfgs converged in  22 scf cycles and  21 bfgs steps
     (criteria: energy <  1.0E+00, force <  1.9E-03)

     End of BFGS Geometry Optimization

     Final energy   =   -1414.3898559392 Ry
Begin final coordinates

ATOMIC_POSITIONS (crystal)
Au1      0.166666667   0.166666667   0.402269971    0   0   0
Au1      0.666666667   0.166666667   0.402269971    0   0   0
Au1      0.166666667   0.666666667   0.402269971    0   0   0
Au1      0.666666667   0.666666667   0.402269971    0   0   0
Au1      0.833333333   0.333333333   0.500000000    0   0   0
Au1      0.333333333   0.333333333   0.500000000    0   0   0
Au1      0.833333333   0.833333333   0.500000000    0   0   0
Au1      0.333333333   0.833333333   0.500000000    0   0   0
Au1      0.003439339  -0.012131619   0.606195845
Au1      0.513897650  -0.013237682   0.606902653
Au1      0.000924825   0.504129283   0.594225717
Au1      0.511669873   0.478523091   0.594029717
C1       0.250769705   0.000244499   0.665601800
H1       0.161096299   0.178080214   0.689144516
H1       0.336232688   0.828228749   0.690973918
End final coordinates



     Writing output data file calc.save
 
     init_run     :     14.78s CPU     15.15s WALL (       1 calls)
     electrons    :   6426.26s CPU   6886.93s WALL (      22 calls)
     update_pot   :     70.68s CPU     73.99s WALL (      21 calls)
     forces       :    618.32s CPU    667.71s WALL (      22 calls)
     stress       :   1987.89s CPU   2129.92s WALL (      22 calls)

     Called by init_run:
     wfcinit      :      3.92s CPU      4.00s WALL (       1 calls)
     potinit      :      2.20s CPU      2.37s WALL (       1 calls)

     Called by electrons:
     c_bands      :   1738.18s CPU   1821.80s WALL (     186 calls)
     sum_band     :   1551.34s CPU   1673.86s WALL (     186 calls)
     v_of_rho     :    342.94s CPU    378.79s WALL (     205 calls)
     newd         :   1706.70s CPU   1723.44s WALL (     205 calls)
     mix_rho      :     10.63s CPU     10.89s WALL (     186 calls)
     vdW_energy   :    223.43s CPU    246.81s WALL (     997 calls)
     vdW_ffts     :    550.45s CPU    574.54s WALL (    2038 calls)
     vdW_v        :    200.75s CPU    211.31s WALL (     997 calls)

     Called by c_bands:
     init_us_2    :     17.28s CPU     17.35s WALL (    2085 calls)
     cegterg      :   1523.70s CPU   1552.84s WALL (     930 calls)

     Called by *egterg:
     h_psi        :   1074.78s CPU   1095.84s WALL (    3767 calls)
     s_psi        :    120.84s CPU    120.97s WALL (    3767 calls)
     g_psi        :      5.85s CPU      5.88s WALL (    2832 calls)
     cdiaghg      :     77.65s CPU     78.32s WALL (    3642 calls)

     Called by h_psi:
     add_vuspsi   :    123.03s CPU    123.25s WALL (    3767 calls)

     General routines
     calbec       :    196.77s CPU    200.48s WALL (    4917 calls)
     fft          :    828.85s CPU    880.76s WALL (   59829 calls)
     ffts         :      0.76s CPU      0.80s WALL (     391 calls)
     fftw         :    632.63s CPU    656.41s WALL (  452886 calls)
     interpolate  :      7.09s CPU      7.31s WALL (     391 calls)
     davcio       :      0.00s CPU      0.03s WALL (       5 calls)
 
     Parallel routines
     fft_scatter  :    870.07s CPU    939.00s WALL (  513106 calls)
 
     PWSCF        :     2h35m CPU        2h46m WALL

 
   This run was terminated on:  15: 3:52  16Apr2018            

=------------------------------------------------------------------------------=
   JOB DONE.
=------------------------------------------------------------------------------=
Job  /afs/slac/g/suncat/bin/suncat-tsmpirun -x LD_LIBRARY_PATH -wdir /scratch/qe125030_T6GpV pw.x -npool 4 -in pw.inp

TID   HOST_NAME   COMMAND_LINE            STATUS            TERMINATION_TIME
===== ========== ================  =======================  ===================
00000 suncat0005 pw.x -npool 4 -i  Done                     04/16/2018 15:03:52
00001 suncat0005 pw.x -npool 4 -i  Done                     04/16/2018 15:03:52
00002 suncat0005 pw.x -npool 4 -i  Done                     04/16/2018 15:03:52
00003 suncat0005 pw.x -npool 4 -i  Done                     04/16/2018 15:03:52
00004 suncat0005 pw.x -npool 4 -i  Done                     04/16/2018 15:03:52
00005 suncat0005 pw.x -npool 4 -i  Done                     04/16/2018 15:03:52
00006 suncat0005 pw.x -npool 4 -i  Done                     04/16/2018 15:03:52
00007 suncat0005 pw.x -npool 4 -i  Done                     04/16/2018 15:03:52
00008 suncat0188 pw.x -npool 4 -i  Done                     04/16/2018 15:03:52
00009 suncat0188 pw.x -npool 4 -i  Done                     04/16/2018 15:03:52
00010 suncat0188 pw.x -npool 4 -i  Done                     04/16/2018 15:03:52
00011 suncat0188 pw.x -npool 4 -i  Done                     04/16/2018 15:03:52
00012 suncat0188 pw.x -npool 4 -i  Done                     04/16/2018 15:03:52
00013 suncat0188 pw.x -npool 4 -i  Done                     04/16/2018 15:03:52
00014 suncat0188 pw.x -npool 4 -i  Done                     04/16/2018 15:03:52
00015 suncat0188 pw.x -npool 4 -i  Done                     04/16/2018 15:03:52
00016 suncat0169 pw.x -npool 4 -i  Done                     04/16/2018 15:03:52
00017 suncat0169 pw.x -npool 4 -i  Done                     04/16/2018 15:03:52
00018 suncat0169 pw.x -npool 4 -i  Done                     04/16/2018 15:03:52
00019 suncat0169 pw.x -npool 4 -i  Done                     04/16/2018 15:03:52
00020 suncat0169 pw.x -npool 4 -i  Done                     04/16/2018 15:03:52
00021 suncat0169 pw.x -npool 4 -i  Done                     04/16/2018 15:03:52
00022 suncat0169 pw.x -npool 4 -i  Done                     04/16/2018 15:03:52
00023 suncat0169 pw.x -npool 4 -i  Done                     04/16/2018 15:03:52
00024 suncat0148 pw.x -npool 4 -i  Done                     04/16/2018 15:03:52
00025 suncat0148 pw.x -npool 4 -i  Done                     04/16/2018 15:03:52
00026 suncat0148 pw.x -npool 4 -i  Done                     04/16/2018 15:03:52
00027 suncat0148 pw.x -npool 4 -i  Done                     04/16/2018 15:03:52
00028 suncat0148 pw.x -npool 4 -i  Done                     04/16/2018 15:03:52
00029 suncat0148 pw.x -npool 4 -i  Done                     04/16/2018 15:03:52
00030 suncat0148 pw.x -npool 4 -i  Done                     04/16/2018 15:03:52
00031 suncat0148 pw.x -npool 4 -i  Done                     04/16/2018 15:03:52
