  python dir          : /home/users/winther/.local/lib/python2.7/site-packages/espresso
  espresso dir        : /home/users/vossj/suncat/s2/qe5/bin
  pseudo dir          : /home/users/winther/src/pseudo
  ase-espresso py git : d16fa15-git



     Program PWSCF v.5.1rc2 starts on  9May2018 at 18:31:34 

     This program is part of the open-source Quantum ESPRESSO suite
     for quantum simulation of materials; please cite
         "P. Giannozzi et al., J. Phys.:Condens. Matter 21 395502 (2009);
          URL http://www.quantum-espresso.org", 
     in publications or presentations arising from this work. More details at
     http://www.quantum-espresso.org/quote

     Parallel version (MPI), running on    20 processors
     R & G space division:  proc/nbgrp/npool/nimage =      20
     Reading input from pw.inp
     Message from routine read_cards :
     DEPRECATED: no units specified in CELL_PARAMETERS card

     Current dimensions of program PWSCF are:
     Max number of different atomic species (ntypx) = 10
     Max number of k-points (npk) =  40000
     Max angular momentum in pseudopotentials (lmaxx) =  3
     Presently stress not available with electric field


     **************************************************************************
     Initializing libbeef V0.1.2 with the BEEF-vdW functional.
     Citation: Wellendorff et al., PRB 85, 235149 (2012).
     **************************************************************************


     IMPORTANT: XC functional enforced from input :
     Exchange-correlation      = BEEF-VDW ( 1  4 27 13 2)
     Any further DFT definition will be discarded
     Please, verify this is what you really want


     Subspace diagonalization in iterative solution of the eigenvalue problem:
     scalapack distributed-memory algorithm (size of sub-group:  3*  3 procs)

 
     Parallelization info
     --------------------
     sticks:   dense  smooth     PW     G-vecs:    dense   smooth      PW
     Min         161      64     18                30849     7786    1213
     Max         165      65     20                30859     7837    1231
     Sum        3241    1285    379               617075   156145   24367
 


     bravais-lattice index     =            0
     lattice parameter (alat)  =       1.8897  a.u.
     unit-cell volume          =    5185.0501 (a.u.)^3
     number of atoms/cell      =           16
     number of atomic types    =            3
     number of electrons       =       163.00
     number of Kohn-Sham states=           91
     kinetic-energy cutoff     =      36.7493  Ry
     charge density cutoff     =     367.4932  Ry
     convergence threshold     =      1.0E-05
     mixing beta               =       0.3000
     number of iterations used =           10  plain     mixing
     Exchange-correlation      = BEEF-VDW ( 1  4 27 13 2)
     nstep                     =           50


     celldm(1)=   1.889726  celldm(2)=   0.000000  celldm(3)=   0.000000
     celldm(4)=   0.000000  celldm(5)=   0.000000  celldm(6)=   0.000000

     crystal axes: (cart. coord. in units of alat)
               a(1) = (   5.972022   0.000000   0.000000 )  
               a(2) = (   2.986011   5.171923  -0.000000 )  
               a(3) = (   0.000000   0.000000  24.876136 )  

     reciprocal axes: (cart. coord. in units 2 pi/alat)
               b(1) = (  0.167447 -0.096676  0.000000 )  
               b(2) = (  0.000000  0.193352 -0.000000 )  
               b(3) = (  0.000000  0.000000  0.040199 )  


     PseudoPot. # 1 for Ta read from file:
     /home/users/winther/src/pseudo/Ta.UPF
     MD5 check sum: f8bbe9446314a3b8ea5d9f3e3836c939
     Pseudo is Ultrasoft + core correction, Zval = 13.0
     Generated by new atomic code, or converted to UPF format
     Using radial grid of  921 points,  7 beta functions with: 
                l(1) =   0
                l(2) =   0
                l(3) =   1
                l(4) =   1
                l(5) =   2
                l(6) =   2
                l(7) =   3
     Q(r) pseudized with  6 coefficients,  rinner =    1.300   1.300   1.300
                                                       1.300   1.300   1.300
                                                       1.300

     PseudoPot. # 2 for C  read from file:
     /home/users/winther/src/pseudo/C.UPF
     MD5 check sum: d1aef80898a10debaa0f26306b886e00
     Pseudo is Ultrasoft + core correction, Zval =  4.0
     Generated by new atomic code, or converted to UPF format
     Using radial grid of  721 points,  4 beta functions with: 
                l(1) =   0
                l(2) =   0
                l(3) =   1
                l(4) =   1
     Q(r) pseudized with  8 coefficients,  rinner =    1.100   1.100   1.100


     PseudoPot. # 3 for H  read from file:
     /home/users/winther/src/pseudo/H.UPF
     MD5 check sum: 761ae9a214b05c3daf00ab9f6b793d6f
     Pseudo is Ultrasoft, Zval =  1.0
     Generated by new atomic code, or converted to UPF format
     Using radial grid of  615 points,  2 beta functions with: 
                l(1) =   0
                l(2) =   0
     Q(r) pseudized with  8 coefficients,  rinner =    0.700

     vdW kernel table read from file vdW_kernel_table
     MD5 check sum: 095c7af220d748ca6e76c0b4c6cfb241

     atomic species   valence    mass     pseudopotential
        Ta1           13.00   180.94788     Ta( 1.00)
        C1             4.00    12.01100     C ( 1.00)
        H1             1.00     1.00800     H ( 1.00)

     No symmetry found



   Cartesian axes

     site n.     atom                  positions (alat units)
         1           Ta1 tau(   1) = (   0.0000000   0.0000000  10.0000000  )
         2           Ta1 tau(   2) = (   1.4930055   2.5859614  10.0000000  )
         3           Ta1 tau(   3) = (   2.9860110   0.0000000  10.0000000  )
         4           Ta1 tau(   4) = (   4.4790165   2.5859614  10.0000000  )
         5           Ta1 tau(   5) = (   5.9720221   3.4479485  12.4380678  )
         6           Ta1 tau(   6) = (   4.4790165   0.8619871  12.4380678  )
         7           Ta1 tau(   7) = (   2.9860110   3.4479485  12.4380678  )
         8           Ta1 tau(   8) = (   1.4930055   0.8619871  12.4380678  )
         9           Ta1 tau(   9) = (   2.9854666   1.7240852  14.8749846  )
        10           Ta1 tau(  10) = (   4.4793922   4.3093350  14.8758439  )
        11           Ta1 tau(  11) = (   5.9714203   1.7258265  14.8761221  )
        12           Ta1 tau(  12) = (   7.4639699   4.3107582  14.8749147  )
        13           C1  tau(  13) = (   3.7327226   3.0149953  16.6727238  )
        14           H1  tau(  14) = (   4.1960342   3.8201934  17.2092234  )
        15           H1  tau(  15) = (   3.2690745   2.2141539  17.2075735  )
        16           H1  tau(  16) = (   2.9852912   1.7235136  16.7866927  )

     number of k points=    20  Fermi-Dirac smearing, width (Ry)=  0.0110
                       cart. coord. in units 2pi/alat
        k(    1) = (   0.0000000   0.0000000   0.0000000), wk =   0.0555556
        k(    2) = (   0.0000000   0.0322253  -0.0000000), wk =   0.1111111
        k(    3) = (   0.0000000   0.0644506  -0.0000000), wk =   0.1111111
        k(    4) = (   0.0000000  -0.0966758   0.0000000), wk =   0.0555556
        k(    5) = (   0.0279079  -0.0161126   0.0000000), wk =   0.1111111
        k(    6) = (   0.0279079   0.0161126  -0.0000000), wk =   0.1111111
        k(    7) = (   0.0279079   0.0483379  -0.0000000), wk =   0.1111111
        k(    8) = (   0.0279079  -0.1127885   0.0000000), wk =   0.1111111
        k(    9) = (   0.0279079  -0.0805632   0.0000000), wk =   0.1111111
        k(   10) = (   0.0279079  -0.0483379   0.0000000), wk =   0.1111111
        k(   11) = (   0.0558158  -0.0322253   0.0000000), wk =   0.1111111
        k(   12) = (   0.0558158  -0.0000000  -0.0000000), wk =   0.1111111
        k(   13) = (   0.0558158   0.0322253  -0.0000000), wk =   0.1111111
        k(   14) = (   0.0558158  -0.1289011   0.0000000), wk =   0.1111111
        k(   15) = (   0.0558158  -0.0966758   0.0000000), wk =   0.1111111
        k(   16) = (   0.0558158  -0.0644506   0.0000000), wk =   0.1111111
        k(   17) = (  -0.0837237   0.0483379  -0.0000000), wk =   0.0555556
        k(   18) = (  -0.0837237   0.0805632  -0.0000000), wk =   0.1111111
        k(   19) = (  -0.0837237   0.1127885  -0.0000000), wk =   0.1111111
        k(   20) = (  -0.0837237  -0.0483379   0.0000000), wk =   0.0555556

     Dense  grid:   617075 G-vectors     FFT dimensions: (  72,  72, 288)

     Smooth grid:   156145 G-vectors     FFT dimensions: (  45,  45, 192)

     Largest allocated arrays     est. size (Mb)     dimensions
        Kohn-Sham Wavefunctions         1.40 Mb     (    1005,   91)
        NL pseudopotentials             4.82 Mb     (    1005,  314)
        Each V/rho on FFT grid          1.19 Mb     (   77760)
        Each G-vector array             0.24 Mb     (   30859)
        G-vector shells                 0.10 Mb     (   13486)
     Largest temporary arrays     est. size (Mb)     dimensions
        Auxiliary wavefunctions         5.58 Mb     (    1005,  364)
        Each subspace H/S matrix        0.22 Mb     (     121,  121)
        Each <psi_i|beta_j> matrix      0.44 Mb     (     314,   91)
        Arrays for rho mixing          11.87 Mb     (   77760,   10)

     Initial potential from superposition of free atoms
     Check: negative starting charge=   -1.121546

     starting charge  162.98659, renormalised to  163.00000

     negative rho (up, down):  1.122E+00 0.000E+00


     ************************************************************************
     *
     * You are using vdW-DF for exchange-correlation in this calculation.
     * Please cite the following three references that made this development
     * possible:
     *
     *   M. Dion, H. Rydberg, E. Schroder, D. C. Langreth, and
     *   B. I. Lundqvist, Phys. Rev. Lett. 92, 246401 (2004).
     *
     *   T. Thonhauser, V. R. Cooper, S. Li, A. Puzder, P. Hyldgaard, and
     *   D. C. Langreth, Phys. Rev. B 76, 125112 (2007).
     *
     *   G. Roman-Perez and J. M. Soler, Phys. Rev. Lett. 103, 096102 (2009).
     *
     *
     * If you are using vdW-DF2, please also cite:
     *
     *   K. Lee, E. D. Murray, L. Kong, B. I. Lundqvist, and
     *   D. C. Langreth, Phys. Rev. B 82, 081101(R) (2010).
     *
     *
     * If you are calculating the stress with vdW-DF, please also cite:
     *
     *   R. Sabatini, E. Kucukbenli, B. Kolb, T. Thonhauser, and
     *   S. de Gironcoli, J. Phys.: Condens. Matter 24, 424209 (2012).
     *
     ************************************************************************

     Carrying out vdW-DF run using the following parameters:

     Nqs =      20    Nr_points =    1024   r_max =   100.000
     q_mesh =
               0.00001000     0.04494208     0.09755937     0.15916263
               0.23128650     0.31572767     0.41458969     0.53033537
               0.66584808     0.82450364     1.01025438     1.22772762
               1.48234092     1.78043706     2.12944203     2.53805004
               3.01644009     3.57652955     4.23227104     5.00000000

     Gradients computed in reciprocal space

     ************************************************************************


 
     Adding external electric field

     Computed dipole along edir(3) : 
        Dipole               -0.0042 Ry au,         -0.0108 Debye
        Dipole field         -0.0000 Ry au
 
        Potential amp.        0.0009 Ry
        Total length         45.8339 bohr
 
     Starting wfc are  163 randomized atomic wfcs

     total cpu time spent up to now is        6.3 secs

     per-process dynamical memory:    49.2 Mb

     Self-consistent Calculation

     iteration #  1     ecut=    36.75 Ry     beta=0.30
     Davidson diagonalization with overlap
     ethr =  1.00E-02,  avg # of iterations =  2.0

     negative rho (up, down):  1.136E+00 0.000E+00
 
     Adding external electric field

     Computed dipole along edir(3) : 
        Dipole               -4.3464 Ry au,        -11.0473 Debye
        Dipole field         -0.0105 Ry au
 
        Potential amp.        0.9656 Ry
        Total length         45.8339 bohr
 

     total cpu time spent up to now is       15.5 secs

     total energy              =   -1731.04348577 Ry
     Harris-Foulkes estimate   =   -1733.72217633 Ry
     estimated scf accuracy    <       5.88895703 Ry

     iteration #  2     ecut=    36.75 Ry     beta=0.30
     Davidson diagonalization with overlap
     ethr =  3.61E-03,  avg # of iterations =  9.2

     negative rho (up, down):  1.136E+00 0.000E+00
 
     Adding external electric field

     Computed dipole along edir(3) : 
        Dipole                1.6708 Ry au,          4.2468 Debye
        Dipole field          0.0040 Ry au
 
        Potential amp.       -0.3712 Ry
        Total length         45.8339 bohr
 

     total cpu time spent up to now is       36.1 secs

     total energy              =   -1716.72001905 Ry
     Harris-Foulkes estimate   =   -1746.30985876 Ry
     estimated scf accuracy    <     886.81660583 Ry

     iteration #  3     ecut=    36.75 Ry     beta=0.30
     Davidson diagonalization with overlap
     ethr =  3.61E-03,  avg # of iterations =  6.9

     negative rho (up, down):  1.138E+00 0.000E+00
 
     Adding external electric field

     Computed dipole along edir(3) : 
        Dipole                0.8743 Ry au,          2.2224 Debye
        Dipole field          0.0021 Ry au
 
        Potential amp.       -0.1942 Ry
        Total length         45.8339 bohr
 

     total cpu time spent up to now is       54.0 secs

     total energy              =   -1730.77231995 Ry
     Harris-Foulkes estimate   =   -1735.43907101 Ry
     estimated scf accuracy    <     102.54015512 Ry

     iteration #  4     ecut=    36.75 Ry     beta=0.30
     Davidson diagonalization with overlap
     ethr =  3.61E-03,  avg # of iterations =  4.0

     negative rho (up, down):  1.144E+00 0.000E+00
 
     Adding external electric field

     Computed dipole along edir(3) : 
        Dipole                1.0457 Ry au,          2.6578 Debye
        Dipole field          0.0025 Ry au
 
        Potential amp.       -0.2323 Ry
        Total length         45.8339 bohr
 

     total cpu time spent up to now is       65.9 secs

     total energy              =   -1733.14868791 Ry
     Harris-Foulkes estimate   =   -1733.41407367 Ry
     estimated scf accuracy    <       3.57594318 Ry

     iteration #  5     ecut=    36.75 Ry     beta=0.30
     Davidson diagonalization with overlap
     ethr =  2.19E-03,  avg # of iterations =  1.6

     negative rho (up, down):  1.153E+00 0.000E+00
 
     Adding external electric field

     Computed dipole along edir(3) : 
        Dipole                0.9177 Ry au,          2.3326 Debye
        Dipole field          0.0022 Ry au
 
        Potential amp.       -0.2039 Ry
        Total length         45.8339 bohr
 

     total cpu time spent up to now is       74.3 secs

     total energy              =   -1733.23249964 Ry
     Harris-Foulkes estimate   =   -1733.27191595 Ry
     estimated scf accuracy    <       0.27373957 Ry

     iteration #  6     ecut=    36.75 Ry     beta=0.30
     Davidson diagonalization with overlap
     ethr =  1.68E-04,  avg # of iterations =  5.8

     negative rho (up, down):  1.160E+00 0.000E+00
 
     Adding external electric field

     Computed dipole along edir(3) : 
        Dipole                0.9455 Ry au,          2.4031 Debye
        Dipole field          0.0023 Ry au
 
        Potential amp.       -0.2100 Ry
        Total length         45.8339 bohr
 

     total cpu time spent up to now is       86.2 secs

     total energy              =   -1733.23950912 Ry
     Harris-Foulkes estimate   =   -1733.25960578 Ry
     estimated scf accuracy    <       0.33336913 Ry

     iteration #  7     ecut=    36.75 Ry     beta=0.30
     Davidson diagonalization with overlap
     ethr =  1.68E-04,  avg # of iterations =  1.1

     negative rho (up, down):  1.168E+00 0.000E+00
 
     Adding external electric field

     Computed dipole along edir(3) : 
        Dipole                0.6918 Ry au,          1.7583 Debye
        Dipole field          0.0017 Ry au
 
        Potential amp.       -0.1537 Ry
        Total length         45.8339 bohr
 

     total cpu time spent up to now is       94.5 secs

     total energy              =   -1733.24039511 Ry
     Harris-Foulkes estimate   =   -1733.25134866 Ry
     estimated scf accuracy    <       0.05895139 Ry

     iteration #  8     ecut=    36.75 Ry     beta=0.30
     Davidson diagonalization with overlap
     ethr =  3.62E-05,  avg # of iterations =  4.2

     negative rho (up, down):  1.172E+00 0.000E+00
 
     Adding external electric field

     Computed dipole along edir(3) : 
        Dipole                0.6418 Ry au,          1.6313 Debye
        Dipole field          0.0016 Ry au
 
        Potential amp.       -0.1426 Ry
        Total length         45.8339 bohr
 

     total cpu time spent up to now is      105.1 secs

     total energy              =   -1733.24195240 Ry
     Harris-Foulkes estimate   =   -1733.24695461 Ry
     estimated scf accuracy    <       0.05973714 Ry

     iteration #  9     ecut=    36.75 Ry     beta=0.30
     Davidson diagonalization with overlap
     ethr =  3.62E-05,  avg # of iterations =  1.9

     negative rho (up, down):  1.174E+00 0.000E+00
 
     Adding external electric field

     Computed dipole along edir(3) : 
        Dipole                0.5325 Ry au,          1.3536 Debye
        Dipole field          0.0013 Ry au
 
        Potential amp.       -0.1183 Ry
        Total length         45.8339 bohr
 

     total cpu time spent up to now is      113.7 secs

     total energy              =   -1733.24236057 Ry
     Harris-Foulkes estimate   =   -1733.24501406 Ry
     estimated scf accuracy    <       0.02434961 Ry

     iteration # 10     ecut=    36.75 Ry     beta=0.30
     Davidson diagonalization with overlap
     ethr =  1.49E-05,  avg # of iterations =  3.8

     negative rho (up, down):  1.175E+00 0.000E+00
 
     Adding external electric field

     Computed dipole along edir(3) : 
        Dipole                0.4259 Ry au,          1.0826 Debye
        Dipole field          0.0010 Ry au
 
        Potential amp.       -0.0946 Ry
        Total length         45.8339 bohr
 

     total cpu time spent up to now is      123.3 secs

     total energy              =   -1733.24158473 Ry
     Harris-Foulkes estimate   =   -1733.24355222 Ry
     estimated scf accuracy    <       0.00487406 Ry

     iteration # 11     ecut=    36.75 Ry     beta=0.30
     Davidson diagonalization with overlap
     ethr =  2.99E-06,  avg # of iterations =  7.7

     negative rho (up, down):  1.177E+00 0.000E+00
 
     Adding external electric field

     Computed dipole along edir(3) : 
        Dipole                0.3430 Ry au,          0.8719 Debye
        Dipole field          0.0008 Ry au
 
        Potential amp.       -0.0762 Ry
        Total length         45.8339 bohr
 

     total cpu time spent up to now is      136.5 secs

     total energy              =   -1733.24141531 Ry
     Harris-Foulkes estimate   =   -1733.24222736 Ry
     estimated scf accuracy    <       0.00185124 Ry

     iteration # 12     ecut=    36.75 Ry     beta=0.30
     Davidson diagonalization with overlap
     ethr =  1.14E-06,  avg # of iterations =  2.8

     negative rho (up, down):  1.177E+00 0.000E+00
 
     Adding external electric field

     Computed dipole along edir(3) : 
        Dipole                0.2919 Ry au,          0.7421 Debye
        Dipole field          0.0007 Ry au
 
        Potential amp.       -0.0649 Ry
        Total length         45.8339 bohr
 

     total cpu time spent up to now is      145.9 secs

     total energy              =   -1733.24138803 Ry
     Harris-Foulkes estimate   =   -1733.24160906 Ry
     estimated scf accuracy    <       0.00078314 Ry

     iteration # 13     ecut=    36.75 Ry     beta=0.30
     Davidson diagonalization with overlap
     ethr =  4.80E-07,  avg # of iterations =  3.0

     negative rho (up, down):  1.178E+00 0.000E+00
 
     Adding external electric field

     Computed dipole along edir(3) : 
        Dipole                0.2484 Ry au,          0.6314 Debye
        Dipole field          0.0006 Ry au
 
        Potential amp.       -0.0552 Ry
        Total length         45.8339 bohr
 

     total cpu time spent up to now is      155.3 secs

     total energy              =   -1733.24150449 Ry
     Harris-Foulkes estimate   =   -1733.24149767 Ry
     estimated scf accuracy    <       0.00017106 Ry

     iteration # 14     ecut=    36.75 Ry     beta=0.30
     Davidson diagonalization with overlap
     ethr =  1.05E-07,  avg # of iterations =  4.0

     negative rho (up, down):  1.178E+00 0.000E+00
 
     Adding external electric field

     Computed dipole along edir(3) : 
        Dipole                0.2444 Ry au,          0.6211 Debye
        Dipole field          0.0006 Ry au
 
        Potential amp.       -0.0543 Ry
        Total length         45.8339 bohr
 

     total cpu time spent up to now is      166.1 secs

     total energy              =   -1733.24154083 Ry
     Harris-Foulkes estimate   =   -1733.24153236 Ry
     estimated scf accuracy    <       0.00004619 Ry

     iteration # 15     ecut=    36.75 Ry     beta=0.30
     Davidson diagonalization with overlap
     ethr =  2.83E-08,  avg # of iterations =  3.0

     negative rho (up, down):  1.177E+00 0.000E+00
 
     Adding external electric field

     Computed dipole along edir(3) : 
        Dipole                0.2364 Ry au,          0.6009 Debye
        Dipole field          0.0006 Ry au
 
        Potential amp.       -0.0525 Ry
        Total length         45.8339 bohr
 

     total cpu time spent up to now is      175.6 secs

     total energy              =   -1733.24155417 Ry
     Harris-Foulkes estimate   =   -1733.24155356 Ry
     estimated scf accuracy    <       0.00001496 Ry

     iteration # 16     ecut=    36.75 Ry     beta=0.30
     Davidson diagonalization with overlap
     ethr =  9.18E-09,  avg # of iterations =  3.5

     negative rho (up, down):  1.177E+00 0.000E+00

     negative rho (up, down):  1.177E+00 0.000E+00

     negative rho (up, down):  1.177E+00 0.000E+00

     negative rho (up, down):  1.177E+00 0.000E+00

     negative rho (up, down):  1.177E+00 0.000E+00

     negative rho (up, down):  1.177E+00 0.000E+00

     negative rho (up, down):  1.177E+00 0.000E+00

     negative rho (up, down):  1.177E+00 0.000E+00

     negative rho (up, down):  1.177E+00 0.000E+00

     negative rho (up, down):  1.177E+00 0.000E+00

     negative rho (up, down):  1.177E+00 0.000E+00

     negative rho (up, down):  1.177E+00 0.000E+00

     negative rho (up, down):  1.177E+00 0.000E+00

     negative rho (up, down):  1.177E+00 0.000E+00

     negative rho (up, down):  1.177E+00 0.000E+00

     negative rho (up, down):  1.177E+00 0.000E+00

     negative rho (up, down):  1.177E+00 0.000E+00

     negative rho (up, down):  1.177E+00 0.000E+00

     negative rho (up, down):  1.177E+00 0.000E+00

     negative rho (up, down):  1.177E+00 0.000E+00

     negative rho (up, down):  1.177E+00 0.000E+00

     negative rho (up, down):  1.177E+00 0.000E+00

     negative rho (up, down):  1.177E+00 0.000E+00

     negative rho (up, down):  1.177E+00 0.000E+00

     negative rho (up, down):  1.177E+00 0.000E+00

     negative rho (up, down):  1.177E+00 0.000E+00

     negative rho (up, down):  1.177E+00 0.000E+00

     negative rho (up, down):  1.177E+00 0.000E+00

     negative rho (up, down):  1.177E+00 0.000E+00

     negative rho (up, down):  1.177E+00 0.000E+00

     negative rho (up, down):  1.177E+00 0.000E+00

     negative rho (up, down):  1.177E+00 0.000E+00

     negative rho (up, down):  1.177E+00 0.000E+00

     negative rho (up, down):  1.177E+00 0.000E+00

     negative rho (up, down):  1.177E+00 0.000E+00
 
     Adding external electric field

     Computed dipole along edir(3) : 
        Dipole                0.2548 Ry au,          0.6477 Debye
        Dipole field          0.0006 Ry au
 
        Potential amp.       -0.0566 Ry
        Total length         45.8339 bohr
 

     total cpu time spent up to now is      195.6 secs

     End of self-consistent calculation

          k = 0.0000 0.0000 0.0000 ( 19447 PWs)   bands (ev):

   -65.9983 -65.9582 -65.9412 -65.8907 -65.8344 -65.8312 -65.8298 -65.7940
   -65.7538 -65.7426 -65.7255 -65.7189 -32.6746 -32.6560 -32.6304 -32.6244
   -32.6061 -32.5884 -32.5690 -32.5393 -32.5349 -32.5319 -32.3762 -32.3136
   -32.3044 -32.1973 -32.1778 -32.1713 -32.1398 -32.1131 -32.0432 -32.0318
   -31.9926 -31.9816 -31.9765 -31.9573 -31.9532 -31.9407 -31.8952 -31.8816
   -31.8799 -31.8723 -31.8435 -31.8233 -31.8030 -31.7954 -31.7311 -31.7256
   -12.5518  -7.4221  -5.0534  -3.6158  -2.6115  -2.0659  -1.7372  -1.6626
    -1.6507  -1.5436  -1.4491  -1.2229  -1.0069  -0.7787  -0.6647  -0.5458
    -0.5322  -0.2447   0.1593   0.6324   0.9960   1.1219   1.4038   1.8954
     1.9387   2.0726   2.2452   2.3379   2.4517   2.5246   2.5551   2.7585
     2.7858   2.7974   3.0571   3.0748   3.1215   3.1410   3.1487   3.2308
     3.2444   3.3420   3.6715

          k = 0.0000 0.0322-0.0000 ( 19481 PWs)   bands (ev):

   -65.9960 -65.9581 -65.9432 -65.8868 -65.8369 -65.8314 -65.8309 -65.7910
   -65.7543 -65.7447 -65.7259 -65.7193 -32.6505 -32.6249 -32.6077 -32.5956
   -32.5799 -32.5631 -32.5416 -32.5143 -32.5073 -32.4903 -32.3731 -32.3209
   -32.3158 -32.2174 -32.1716 -32.1672 -32.1316 -32.1281 -32.0559 -32.0447
   -32.0255 -32.0185 -31.9764 -31.9523 -31.9462 -31.9317 -31.9152 -31.9056
   -31.8975 -31.8751 -31.8659 -31.8451 -31.8281 -31.8112 -31.7741 -31.7384
   -12.5484  -7.4320  -4.8182  -3.4055  -2.4236  -1.9148  -1.7692  -1.5902
    -1.5113  -1.4244  -1.3091  -1.0986  -0.8583  -0.6157  -0.4872  -0.4009
    -0.3942  -0.1213   0.2059   0.6851   0.9355   1.1463   1.3758   1.8034
     1.9267   2.0781   2.1175   2.2313   2.2776   2.3409   2.3564   2.4999
     2.7471   2.9260   2.9589   2.9887   3.0025   3.0791   3.1036   3.2148
     3.2207   3.4316   3.4675

          k = 0.0000 0.0645-0.0000 ( 19517 PWs)   bands (ev):

   -65.9908 -65.9579 -65.9480 -65.8761 -65.8470 -65.8320 -65.8311 -65.7833
   -65.7572 -65.7489 -65.7266 -65.7199 -32.5971 -32.5704 -32.5492 -32.5262
   -32.5171 -32.4938 -32.4744 -32.4522 -32.4448 -32.3773 -32.3648 -32.3382
   -32.3262 -32.2525 -32.1861 -32.1591 -32.1489 -32.1214 -32.1073 -32.0914
   -32.0872 -32.0409 -32.0271 -31.9976 -31.9769 -31.9711 -31.9487 -31.9254
   -31.9175 -31.9089 -31.8932 -31.8777 -31.8557 -31.8507 -31.8297 -31.7636
   -12.5417  -7.4515  -4.1632  -2.8868  -2.3365  -2.0092  -1.4887  -1.2862
    -1.1673  -1.1205  -0.9011  -0.7875  -0.5826  -0.2915  -0.0198   0.0003
     0.0378   0.2740   0.4034   0.7714   0.8785   1.0874   1.2271   1.4246
     1.5374   1.6671   1.7390   1.8292   2.0815   2.1726   2.3039   2.3316
     2.3777   2.4443   2.5092   2.5680   2.6398   2.7098   2.9540   2.9972
     3.1075   3.4114   3.5417

          k = 0.0000-0.0967 0.0000 ( 19532 PWs)   bands (ev):

   -65.9877 -65.9576 -65.9511 -65.8622 -65.8609 -65.8322 -65.8311 -65.7773
   -65.7616 -65.7504 -65.7268 -65.7203 -32.5626 -32.5314 -32.5126 -32.5080
   -32.4778 -32.4655 -32.4134 -32.4046 -32.3943 -32.3756 -32.3623 -32.2925
   -32.2738 -32.2220 -32.2178 -32.1868 -32.1817 -32.1748 -32.1472 -32.1004
   -32.0929 -32.0780 -32.0582 -32.0422 -32.0201 -32.0103 -32.0085 -31.9330
   -31.9168 -31.9079 -31.9016 -31.8890 -31.8758 -31.8613 -31.8111 -31.7893
   -12.5383  -7.4611  -3.3007  -3.1957  -2.4752  -1.8279  -1.4462  -0.9306
    -0.9204  -0.8454  -0.5933  -0.5520  -0.4930  -0.2823   0.2959   0.3595
     0.5547   0.5990   0.6161   0.6573   0.9309   1.0377   1.1421   1.1808
     1.2880   1.3455   1.5658   1.5995   1.7814   1.8109   1.8643   1.9036
     2.0574   2.0893   2.2547   2.4245   2.6542   2.6905   2.7061   2.7954
     3.1152   3.3802   3.6336

          k = 0.0279-0.0161 0.0000 ( 19481 PWs)   bands (ev):

   -65.9956 -65.9597 -65.9421 -65.8868 -65.8363 -65.8331 -65.8298 -65.7910
   -65.7546 -65.7443 -65.7260 -65.7193 -32.6469 -32.6200 -32.6074 -32.5995
   -32.5825 -32.5624 -32.5417 -32.5112 -32.5083 -32.4934 -32.3732 -32.3236
   -32.3125 -32.2164 -32.1746 -32.1671 -32.1405 -32.1239 -32.0691 -32.0351
   -32.0268 -32.0154 -31.9673 -31.9553 -31.9429 -31.9348 -31.9208 -31.9051
   -31.8979 -31.8792 -31.8638 -31.8393 -31.8306 -31.8067 -31.7782 -31.7346
   -12.5502  -7.4206  -4.8237  -3.4196  -2.4564  -1.9715  -1.7633  -1.5598
    -1.5006  -1.4012  -1.2682  -1.1479  -0.7863  -0.5649  -0.5395  -0.4007
    -0.3792  -0.1755   0.2046   0.6825   0.9563   1.0860   1.3472   1.7962
     1.9908   2.0992   2.1679   2.2247   2.2709   2.2975   2.3713   2.5355
     2.7599   2.9321   2.9384   2.9886   3.0328   3.0903   3.0973   3.1917
     3.2230   3.3285   3.4568

          k = 0.0279 0.0161-0.0000 ( 19481 PWs)   bands (ev):

   -65.9954 -65.9604 -65.9415 -65.8868 -65.8367 -65.8321 -65.8304 -65.7909
   -65.7556 -65.7426 -65.7274 -65.7187 -32.6444 -32.6319 -32.6058 -32.5939
   -32.5807 -32.5659 -32.5406 -32.5127 -32.5092 -32.4900 -32.3731 -32.3260
   -32.3100 -32.2181 -32.1739 -32.1673 -32.1330 -32.1280 -32.0574 -32.0416
   -32.0259 -32.0177 -31.9746 -31.9509 -31.9432 -31.9344 -31.9173 -31.9024
   -31.8963 -31.8784 -31.8671 -31.8476 -31.8221 -31.8134 -31.7748 -31.7391
   -12.5484  -7.4320  -4.8182  -3.4056  -2.4225  -1.9028  -1.7914  -1.5882
    -1.5091  -1.4172  -1.3115  -1.0957  -0.8607  -0.6169  -0.4888  -0.4027
    -0.3900  -0.1227   0.2064   0.6858   0.9453   1.1494   1.3566   1.7746
     1.9431   2.1022   2.1330   2.2166   2.2758   2.3389   2.3647   2.4922
     2.7531   2.9067   2.9492   2.9882   3.0165   3.0770   3.1052   3.2134
     3.2259   3.4304   3.4677

          k = 0.0279 0.0483-0.0000 ( 19485 PWs)   bands (ev):

   -65.9912 -65.9615 -65.9440 -65.8795 -65.8413 -65.8372 -65.8281 -65.7854
   -65.7579 -65.7453 -65.7281 -65.7190 -32.6076 -32.5909 -32.5530 -32.5508
   -32.5302 -32.5181 -32.4959 -32.4786 -32.4371 -32.4261 -32.3690 -32.3368
   -32.3253 -32.2464 -32.1764 -32.1610 -32.1537 -32.1227 -32.1130 -32.0807
   -32.0431 -32.0088 -31.9969 -31.9900 -31.9744 -31.9573 -31.9394 -31.9237
   -31.9069 -31.8915 -31.8827 -31.8717 -31.8634 -31.8425 -31.8242 -31.7635
   -12.5424  -7.4523  -4.3665  -3.0239  -2.1001  -1.8599  -1.8266  -1.4559
    -1.3713  -1.1724  -1.0436  -0.7728  -0.6680  -0.3844  -0.2002  -0.1018
    -0.0845   0.1689   0.3378   0.7482   0.8690   1.2146   1.2855   1.5384
     1.6903   1.7219   1.8018   1.9159   2.1304   2.2300   2.2932   2.4518
     2.4809   2.5087   2.6142   2.6924   2.7763   2.8539   2.9461   3.1583
     3.2198   3.3117   3.4159

          k = 0.0279-0.1128 0.0000 ( 19521 PWs)   bands (ev):

   -65.9866 -65.9621 -65.9477 -65.8669 -65.8524 -65.8408 -65.8262 -65.7775
   -65.7611 -65.7505 -65.7275 -65.7198 -32.5573 -32.5341 -32.5077 -32.4966
   -32.4776 -32.4507 -32.4268 -32.4122 -32.3836 -32.3723 -32.3417 -32.3204
   -32.3000 -32.2659 -32.2492 -32.2067 -32.1744 -32.1426 -32.1244 -32.1124
   -32.0927 -32.0671 -32.0525 -32.0252 -32.0144 -31.9793 -31.9545 -31.9507
   -31.9356 -31.9139 -31.8998 -31.8863 -31.8738 -31.8562 -31.8420 -31.7997
   -12.5383  -7.4611  -3.5651  -2.6937  -2.4503  -1.7565  -1.7217  -1.3614
    -0.9200  -0.7581  -0.5932  -0.4300  -0.3229  -0.0947   0.2242   0.3184
     0.4007   0.4439   0.6176   0.8023   0.9218   0.9791   1.0658   1.1813
     1.3212   1.3864   1.4545   1.5563   1.6981   1.7418   1.8721   1.9877
     2.0385   2.1119   2.3038   2.4486   2.5377   2.7191   2.8367   3.0188
     3.1536   3.3988   3.5770

          k = 0.0279-0.0806 0.0000 ( 19521 PWs)   bands (ev):

   -65.9870 -65.9606 -65.9487 -65.8669 -65.8523 -65.8409 -65.8262 -65.7779
   -65.7589 -65.7528 -65.7265 -65.7203 -32.5593 -32.5281 -32.5082 -32.4982
   -32.4736 -32.4512 -32.4217 -32.4126 -32.3831 -32.3685 -32.3473 -32.3239
   -32.2979 -32.2695 -32.2615 -32.2070 -32.1702 -32.1416 -32.1281 -32.1114
   -32.0874 -32.0687 -32.0476 -32.0254 -32.0187 -31.9924 -31.9517 -31.9457
   -31.9350 -31.9151 -31.8989 -31.8881 -31.8673 -31.8584 -31.8389 -31.7984
   -12.5401  -7.4501  -3.5878  -2.6839  -2.4886  -1.8711  -1.6561  -1.2868
    -0.9726  -0.7431  -0.5252  -0.3635  -0.2722  -0.1892   0.2322   0.3443
     0.3726   0.4525   0.5766   0.7667   0.8958   0.9943   1.0425   1.1712
     1.3405   1.3915   1.4410   1.6031   1.7114   1.8046   1.9028   1.9885
     2.0079   2.0926   2.3121   2.4725   2.5466   2.6701   2.7586   3.0407
     3.1779   3.3556   3.5264

          k = 0.0279-0.0483 0.0000 ( 19485 PWs)   bands (ev):

   -65.9918 -65.9595 -65.9455 -65.8795 -65.8406 -65.8380 -65.8280 -65.7857
   -65.7549 -65.7493 -65.7258 -65.7201 -32.6093 -32.5801 -32.5567 -32.5440
   -32.5352 -32.5185 -32.4938 -32.4775 -32.4360 -32.4313 -32.3689 -32.3361
   -32.3256 -32.2447 -32.1955 -32.1604 -32.1560 -32.1230 -32.1071 -32.0806
   -32.0356 -32.0157 -31.9977 -31.9950 -31.9749 -31.9618 -31.9322 -31.9235
   -31.9138 -31.8896 -31.8803 -31.8718 -31.8571 -31.8498 -31.8146 -31.7596
   -12.5460  -7.4299  -4.3818  -3.0667  -2.2232  -1.8403  -1.7986  -1.5709
    -1.2516  -1.1060  -0.9570  -0.8647  -0.5187  -0.3579  -0.2157  -0.1220
    -0.0736   0.0756   0.3173   0.7618   0.8549   1.0873   1.2707   1.5667
     1.7556   1.7821   1.8559   1.9111   2.1223   2.1805   2.3536   2.4691
     2.4857   2.5125   2.6283   2.7018   2.7593   2.8060   2.9443   3.2089
     3.2811   3.2965   3.4187

          k = 0.0558-0.0322 0.0000 ( 19517 PWs)   bands (ev):

   -65.9888 -65.9643 -65.9436 -65.8762 -65.8466 -65.8336 -65.8299 -65.7832
   -65.7585 -65.7475 -65.7269 -65.7199 -32.5906 -32.5558 -32.5470 -32.5337
   -32.5133 -32.4997 -32.4732 -32.4490 -32.4463 -32.3844 -32.3676 -32.3346
   -32.3263 -32.2526 -32.2054 -32.1618 -32.1482 -32.1417 -32.1055 -32.0911
   -32.0892 -32.0434 -32.0086 -31.9969 -31.9778 -31.9684 -31.9374 -31.9270
   -31.9219 -31.9075 -31.9032 -31.8744 -31.8564 -31.8444 -31.8265 -31.7593
   -12.5471  -7.4181  -4.1860  -2.9793  -2.4045  -2.0201  -1.5037  -1.2294
    -1.1404  -1.1030  -0.8597  -0.8229  -0.4561  -0.2854  -0.0132   0.0180
     0.0873   0.1554   0.4036   0.7843   0.8596   1.0395   1.2503   1.3914
     1.5701   1.6725   1.7046   1.9144   2.0891   2.1918   2.3042   2.3228
     2.3638   2.4154   2.5329   2.5917   2.6168   2.6881   2.9873   3.0483
     3.0683   3.3828   3.5484

          k = 0.0558-0.0000-0.0000 ( 19485 PWs)   bands (ev):

   -65.9900 -65.9649 -65.9420 -65.8795 -65.8401 -65.8386 -65.8279 -65.7853
   -65.7585 -65.7446 -65.7284 -65.7191 -32.6058 -32.5775 -32.5579 -32.5431
   -32.5346 -32.5257 -32.4934 -32.4755 -32.4386 -32.4298 -32.3696 -32.3390
   -32.3225 -32.2453 -32.2006 -32.1606 -32.1553 -32.1217 -32.1130 -32.0774
   -32.0303 -32.0151 -32.0017 -31.9884 -31.9700 -31.9629 -31.9355 -31.9216
   -31.9120 -31.8878 -31.8809 -31.8745 -31.8673 -31.8356 -31.8230 -31.7596
   -12.5460  -7.4299  -4.3817  -3.0669  -2.2194  -1.8428  -1.8002  -1.5747
    -1.2501  -1.1017  -0.9599  -0.8601  -0.5201  -0.3701  -0.2086  -0.1169
    -0.0706   0.0659   0.3204   0.7659   0.8908   1.0702   1.2436   1.5314
     1.7408   1.7951   1.8733   1.9253   2.1427   2.1731   2.3660   2.4721
     2.4956   2.5022   2.6196   2.6965   2.7780   2.7895   2.9501   3.1934
     3.2870   3.3077   3.4068

          k = 0.0558 0.0322-0.0000 ( 19517 PWs)   bands (ev):

   -65.9876 -65.9670 -65.9420 -65.8761 -65.8469 -65.8327 -65.8305 -65.7826
   -65.7616 -65.7426 -65.7305 -65.7187 -32.5863 -32.5716 -32.5520 -32.5325
   -32.5165 -32.4940 -32.4732 -32.4528 -32.4462 -32.3791 -32.3662 -32.3317
   -32.3267 -32.2577 -32.1921 -32.1574 -32.1529 -32.1301 -32.1048 -32.0906
   -32.0877 -32.0264 -32.0168 -31.9998 -31.9759 -31.9669 -31.9466 -31.9291
   -31.9235 -31.9042 -31.8955 -31.8839 -31.8541 -31.8482 -31.8324 -31.7651
   -12.5417  -7.4515  -4.1632  -2.8866  -2.3319  -2.0181  -1.4876  -1.2861
    -1.1667  -1.1117  -0.9074  -0.7817  -0.5883  -0.2980  -0.0300   0.0063
     0.0441   0.2724   0.4054   0.7882   0.9111   1.1221   1.2094   1.3437
     1.5178   1.6620   1.6922   1.8964   2.1073   2.1790   2.2935   2.3245
     2.3683   2.4487   2.4909   2.5584   2.6260   2.7083   2.9545   3.0402
     3.1234   3.4121   3.5482

          k = 0.0558-0.1289 0.0000 ( 19521 PWs)   bands (ev):

   -65.9831 -65.9694 -65.9437 -65.8669 -65.8523 -65.8409 -65.8262 -65.7763
   -65.7650 -65.7463 -65.7297 -65.7190 -32.5500 -32.5317 -32.5115 -32.5009
   -32.4789 -32.4530 -32.4238 -32.4100 -32.3850 -32.3675 -32.3420 -32.3257
   -32.3094 -32.2691 -32.2350 -32.2067 -32.1826 -32.1447 -32.1341 -32.1113
   -32.0965 -32.0624 -32.0348 -32.0155 -32.0055 -31.9914 -31.9579 -31.9473
   -31.9406 -31.9162 -31.9023 -31.8839 -31.8723 -31.8609 -31.8382 -31.8019
   -12.5383  -7.4611  -3.5650  -2.6908  -2.4549  -1.7639  -1.7149  -1.3530
    -0.9266  -0.7587  -0.5908  -0.4323  -0.3285  -0.1016   0.2212   0.3383
     0.3983   0.4470   0.6178   0.8628   0.9122   0.9942   1.0542   1.1638
     1.3005   1.3643   1.4121   1.5782   1.6923   1.7723   1.8325   2.0132
     2.0316   2.1084   2.2924   2.4330   2.5364   2.7031   2.8251   3.0489
     3.2130   3.4160   3.5506

          k = 0.0558-0.0967 0.0000 ( 19521 PWs)   bands (ev):

   -65.9818 -65.9687 -65.9456 -65.8567 -65.8536 -65.8518 -65.8242 -65.7731
   -65.7639 -65.7522 -65.7277 -65.7198 -32.5261 -32.5081 -32.4822 -32.4577
   -32.4414 -32.4319 -32.4052 -32.3987 -32.3635 -32.3448 -32.3357 -32.3167
   -32.2934 -32.2731 -32.2652 -32.2331 -32.2289 -32.2215 -32.1371 -32.1065
   -32.1038 -32.0885 -32.0738 -32.0243 -31.9898 -31.9782 -31.9460 -31.9420
   -31.9326 -31.9292 -31.9056 -31.8967 -31.8879 -31.8540 -31.8514 -31.8408
   -12.5394  -7.4494  -2.9040  -2.6811  -2.6330  -2.2555  -1.4491  -1.2648
    -0.9922  -0.5219  -0.0310   0.0019   0.0220   0.0665   0.1649   0.2312
     0.5737   0.6945   0.7099   0.7288   0.7544   0.8803   0.8972   0.9185
     0.9606   1.2374   1.2961   1.5185   1.6127   1.6432   1.6605   1.7591
     1.8264   1.8377   2.1763   2.2660   2.4156   2.7974   2.9847   3.1409
     3.3267   3.4466   3.4757

          k = 0.0558-0.0645 0.0000 ( 19521 PWs)   bands (ev):

   -65.9851 -65.9657 -65.9455 -65.8671 -65.8518 -65.8413 -65.8261 -65.7776
   -65.7604 -65.7514 -65.7267 -65.7203 -32.5549 -32.5210 -32.5087 -32.4956
   -32.4724 -32.4500 -32.4235 -32.4095 -32.3807 -32.3639 -32.3473 -32.3369
   -32.3058 -32.2759 -32.2590 -32.2060 -32.1880 -32.1461 -32.1296 -32.1130
   -32.0866 -32.0644 -32.0516 -32.0196 -32.0088 -31.9874 -31.9532 -31.9482
   -31.9351 -31.9144 -31.9003 -31.8847 -31.8701 -31.8570 -31.8356 -31.7954
   -12.5437  -7.4280  -3.6110  -2.8170  -2.4373  -1.8329  -1.7333  -1.2247
    -0.9256  -0.8001  -0.5179  -0.3781  -0.2388  -0.0975   0.2353   0.3573
     0.3811   0.4377   0.5867   0.7786   0.8872   0.9700   1.0930   1.1389
     1.3398   1.3686   1.4111   1.6218   1.7428   1.8007   1.8576   1.9809
     2.0316   2.1055   2.3164   2.4380   2.5306   2.6404   2.7309   3.0837
     3.1506   3.4570   3.4889

          k =-0.0837 0.0483-0.0000 ( 19532 PWs)   bands (ev):

   -65.9837 -65.9684 -65.9442 -65.8635 -65.8592 -65.8337 -65.8299 -65.7766
   -65.7636 -65.7486 -65.7272 -65.7203 -32.5469 -32.5313 -32.5103 -32.4969
   -32.4870 -32.4574 -32.4096 -32.4041 -32.3933 -32.3735 -32.3531 -32.3075
   -32.2883 -32.2509 -32.2407 -32.1879 -32.1859 -32.1744 -32.1340 -32.1126
   -32.0971 -32.0628 -32.0542 -32.0445 -32.0302 -32.0231 -31.9623 -31.9357
   -31.9223 -31.9066 -31.8981 -31.8942 -31.8774 -31.8537 -31.8089 -31.7840
   -12.5455  -7.4170  -3.3964  -3.2288  -2.5559  -1.8953  -1.3542  -0.9256
    -0.9099  -0.8782  -0.5804  -0.5287  -0.4052  -0.1896   0.3420   0.3553
     0.5529   0.5950   0.6316   0.7085   0.9125   1.0395   1.1419   1.1869
     1.2496   1.3532   1.4701   1.6685   1.7433   1.8241   1.8451   1.9091
     2.0536   2.0786   2.3176   2.4206   2.5326   2.6759   2.6995   2.7210
     3.1573   3.5755   3.6447

          k =-0.0837 0.0806-0.0000 ( 19521 PWs)   bands (ev):

   -65.9831 -65.9693 -65.9438 -65.8671 -65.8518 -65.8414 -65.8261 -65.7771
   -65.7626 -65.7491 -65.7278 -65.7198 -32.5533 -32.5232 -32.5118 -32.4827
   -32.4748 -32.4501 -32.4259 -32.4104 -32.3834 -32.3709 -32.3427 -32.3363
   -32.3052 -32.2796 -32.2608 -32.2063 -32.1818 -32.1462 -32.1261 -32.1126
   -32.0914 -32.0678 -32.0539 -32.0191 -32.0069 -31.9770 -31.9547 -31.9446
   -31.9370 -31.9156 -31.9023 -31.8829 -31.8773 -31.8503 -31.8410 -31.7943
   -12.5437  -7.4280  -3.6109  -2.8175  -2.4373  -1.8269  -1.7392  -1.2261
    -0.9262  -0.7956  -0.5211  -0.3808  -0.2379  -0.0973   0.2317   0.3560
     0.3954   0.4377   0.5863   0.7947   0.8822   0.9572   1.0959   1.1265
     1.3283   1.3526   1.4392   1.6176   1.7568   1.7989   1.8488   1.9886
     2.0393   2.0937   2.3114   2.4316   2.5297   2.6452   2.7403   3.0662
     3.1455   3.4185   3.5888

          k =-0.0837 0.1128-0.0000 ( 19521 PWs)   bands (ev):

   -65.9811 -65.9723 -65.9428 -65.8670 -65.8521 -65.8411 -65.8261 -65.7761
   -65.7654 -65.7460 -65.7299 -65.7191 -32.5515 -32.5249 -32.5154 -32.4931
   -32.4761 -32.4542 -32.4212 -32.4095 -32.3848 -32.3744 -32.3418 -32.3295
   -32.3036 -32.2738 -32.2594 -32.2065 -32.1668 -32.1429 -32.1339 -32.1098
   -32.0990 -32.0630 -32.0352 -32.0186 -32.0078 -31.9927 -31.9519 -31.9460
   -31.9383 -31.9205 -31.9000 -31.8845 -31.8746 -31.8553 -31.8408 -31.7992
   -12.5401  -7.4501  -3.5878  -2.6796  -2.4942  -1.8710  -1.6576  -1.2819
    -0.9726  -0.7421  -0.5282  -0.3644  -0.2733  -0.1992   0.2276   0.3467
     0.3925   0.4508   0.5782   0.8283   0.9270   0.9836   1.0518   1.0955
     1.3072   1.3504   1.4369   1.6245   1.7177   1.8230   1.9301   1.9579
     2.0081   2.0916   2.2994   2.4528   2.5283   2.6527   2.7728   3.0749
     3.1553   3.4465   3.5426

          k =-0.0837-0.0483 0.0000 ( 19532 PWs)   bands (ev):

   -65.9786 -65.9755 -65.9422 -65.8627 -65.8602 -65.8328 -65.8305 -65.7733
   -65.7699 -65.7426 -65.7319 -65.7187 -32.5394 -32.5378 -32.5226 -32.5046
   -32.4889 -32.4654 -32.4120 -32.4085 -32.3873 -32.3798 -32.3466 -32.3024
   -32.2870 -32.2386 -32.2122 -32.1869 -32.1838 -32.1704 -32.1497 -32.1080
   -32.0930 -32.0560 -32.0538 -32.0347 -32.0228 -32.0111 -31.9916 -31.9423
   -31.9230 -31.9129 -31.9001 -31.8854 -31.8782 -31.8636 -31.8027 -31.7981
   -12.5383  -7.4611  -3.3020  -3.1928  -2.4793  -1.8285  -1.4378  -0.9331
    -0.9154  -0.8471  -0.6015  -0.5482  -0.5030  -0.2917   0.2945   0.3757
     0.5831   0.5948   0.6468   0.6589   0.9824   1.0297   1.1270   1.1634
     1.2878   1.3302   1.4313   1.5995   1.7977   1.8226   1.8628   1.9562
     2.0267   2.1073   2.2940   2.3154   2.6138   2.6803   2.6918   2.7968
     3.2547   3.4867   3.6516

     the Fermi energy is     2.4272 ev

!    total energy              =   -1733.24155087 Ry
     Harris-Foulkes estimate   =   -1733.24153379 Ry
     estimated scf accuracy    <       0.00000673 Ry

     The total energy is the sum of the following terms:

     one-electron contribution =  -11739.07673236 Ry
     hartree contribution      =    5855.97222697 Ry
     xc contribution           =    -528.80386342 Ry
     ewald contribution        =    4678.77029037 Ry
     electric field correction =       0.00015740 Ry
     smearing contrib. (-TS)   =      -0.10362982 Ry

     convergence has been achieved in  16 iterations
 
 BEEF-vdW xc energy contributions
           1 :   -465.351899246579     
           2 :    429.436317036743     
           3 :   -366.786327766323     
           4 :    291.926348233414     
           5 :   -219.373479838464     
           6 :    159.206604279453     
           7 :   -115.075070352582     
           8 :    85.0094183154363     
           9 :   -64.1477911085276     
          10 :    47.7846275990840     
          11 :   -33.3114481520926     
          12 :    20.4568787962203     
          13 :   -10.2121553564699     
          14 :    3.39884930301264     
          15 :   0.219602113214819     
          16 :   -1.90264064683362     
          17 :    3.19847417927957     
          18 :   -5.08488024771543     
          19 :    7.53191763383404     
          20 :   -9.71030310203003     
          21 :    10.6600112039382     
          22 :   -9.97827540060791     
          23 :    8.11067991845749     
          24 :   -6.09736361020771     
          25 :    4.96474972319373     
          26 :   -5.15286053360597     
          27 :    6.31786588334052     
          28 :   -7.59986991324160     
          29 :    8.16148379918877     
          30 :   -7.65828800712313     
          31 :   -41.7770176108763     
          32 :   -31.0066171323913     

     Forces acting on atoms (Ry/au):


     negative rho (up, down):  1.177E+00 0.000E+00
     atom    1 type  1   force =    -0.00041774    0.00003174    0.00306991
     atom    2 type  1   force =    -0.00099172    0.00054257    0.00332268
     atom    3 type  1   force =     0.00103272   -0.00060555    0.00145188
     atom    4 type  1   force =    -0.00007379    0.00077794    0.00262694
     atom    5 type  1   force =     0.00226779   -0.00168165    0.00017445
     atom    6 type  1   force =     0.00201921   -0.00435169   -0.00291716
     atom    7 type  1   force =    -0.00004108   -0.00090288   -0.00369763
     atom    8 type  1   force =    -0.00577032   -0.00187146   -0.00835011
     atom    9 type  1   force =    -0.00608986    0.00322303    0.02517058
     atom   10 type  1   force =    -0.00965735    0.00290575    0.04901982
     atom   11 type  1   force =     0.01604496   -0.00806031   -0.00466086
     atom   12 type  1   force =    -0.00550915    0.00627145   -0.00290783
     atom   13 type  2   force =     0.07523457    0.12124615   -0.17869356
     atom   14 type  3   force =     0.01330910    0.02138585    0.04001627
     atom   15 type  3   force =     0.08405513    0.14365311    0.25343859
     atom   16 type  3   force =    -0.16541244   -0.28256406   -0.17706396

     Total force =     0.537237     Total SCF correction =     0.007049


     entering subroutine stress ...


     negative rho (up, down):  1.177E+00 0.000E+00
          total   stress  (Ry/bohr**3)                   (kbar)     P=  -24.38
  -0.00025318   0.00005292   0.00001902        -37.24      7.78      2.80
   0.00005292  -0.00019471   0.00002941          7.78    -28.64      4.33
   0.00001902   0.00002941  -0.00004940          2.80      4.33     -7.27


     BFGS Geometry Optimization

     number of scf cycles    =   1
     number of bfgs steps    =   0

     energy   new            =   -1733.2415508668 Ry

     new trust radius        =       0.3722302642 bohr
     new conv_thr            =       0.0000099958 Ry


ATOMIC_POSITIONS (crystal)
Ta1      0.000000000   0.000000000   0.401991699    0   0   0
Ta1     -0.000000000   0.500000000   0.401991699    0   0   0
Ta1      0.500000000   0.000000000   0.401991699    0   0   0
Ta1      0.500000000   0.500000000   0.401991699    0   0   0
Ta1      0.666666667   0.666666667   0.500000000    0   0   0
Ta1      0.666666667   0.166666667   0.500000000    0   0   0
Ta1      0.166666667   0.666666667   0.500000000    0   0   0
Ta1      0.166666667   0.166666667   0.500000000    0   0   0
Ta1      0.332526950   0.333684552   0.598497473
Ta1      0.332449924   0.833514507   0.599039349
Ta1      0.834887597   0.332866766   0.597908611
Ta1      0.832267701   0.834134052   0.597897368
C1       0.334021459   0.595360007   0.666428402
H1       0.333380145   0.740828989   0.692647740
H1       0.333442052   0.442808585   0.697121439
H1       0.333055831   0.304333075   0.671044521



     Writing output data file calc.save
     Check: negative starting charge=   -1.121546
     NEW-OLD atomic charge density approx. for the potential
     Check: negative starting charge=   -1.120818

     negative rho (up, down):  1.177E+00 0.000E+00
 
     Adding external electric field

     Computed dipole along edir(3) : 
        Dipole                0.2549 Ry au,          0.6479 Debye
        Dipole field          0.0006 Ry au
 
        Potential amp.       -0.0566 Ry
        Total length         45.8339 bohr
 

     total cpu time spent up to now is      217.6 secs

     per-process dynamical memory:    52.7 Mb

     Self-consistent Calculation

     iteration #  1     ecut=    36.75 Ry     beta=0.30
     Davidson diagonalization with overlap
     c_bands:  1 eigenvalues not converged
     c_bands:  1 eigenvalues not converged
     c_bands:  1 eigenvalues not converged
     ethr =  1.00E-06,  avg # of iterations = 13.2

     negative rho (up, down):  1.177E+00 0.000E+00
 
     Adding external electric field

     Computed dipole along edir(3) : 
        Dipole               -0.8683 Ry au,         -2.2070 Debye
        Dipole field         -0.0021 Ry au
 
        Potential amp.        0.1929 Ry
        Total length         45.8339 bohr
 

     total cpu time spent up to now is      238.9 secs

     total energy              =   -1733.33013190 Ry
     Harris-Foulkes estimate   =   -1733.40114562 Ry
     estimated scf accuracy    <       0.15970109 Ry

     iteration #  2     ecut=    36.75 Ry     beta=0.30
     Davidson diagonalization with overlap
     ethr =  9.80E-05,  avg # of iterations =  7.5

     negative rho (up, down):  1.177E+00 0.000E+00
 
     Adding external electric field

     Computed dipole along edir(3) : 
        Dipole                0.2295 Ry au,          0.5833 Debye
        Dipole field          0.0006 Ry au
 
        Potential amp.       -0.0510 Ry
        Total length         45.8339 bohr
 

     total cpu time spent up to now is      255.0 secs

     total energy              =   -1732.59777662 Ry
     Harris-Foulkes estimate   =   -1734.29783229 Ry
     estimated scf accuracy    <      67.71256736 Ry

     iteration #  3     ecut=    36.75 Ry     beta=0.30
     Davidson diagonalization with overlap
     ethr =  9.80E-05,  avg # of iterations =  6.2

     negative rho (up, down):  1.177E+00 0.000E+00
 
     Adding external electric field

     Computed dipole along edir(3) : 
        Dipole                0.2253 Ry au,          0.5725 Debye
        Dipole field          0.0005 Ry au
 
        Potential amp.       -0.0500 Ry
        Total length         45.8339 bohr
 

     total cpu time spent up to now is      270.0 secs

     total energy              =   -1733.39330393 Ry
     Harris-Foulkes estimate   =   -1733.39723901 Ry
     estimated scf accuracy    <       0.02382934 Ry

     iteration #  4     ecut=    36.75 Ry     beta=0.30
     Davidson diagonalization with overlap
     ethr =  1.46E-05,  avg # of iterations =  6.8

     negative rho (up, down):  1.177E+00 0.000E+00
 
     Adding external electric field

     Computed dipole along edir(3) : 
        Dipole                0.2402 Ry au,          0.6106 Debye
        Dipole field          0.0006 Ry au
 
        Potential amp.       -0.0534 Ry
        Total length         45.8339 bohr
 

     total cpu time spent up to now is      283.0 secs

     total energy              =   -1733.39157147 Ry
     Harris-Foulkes estimate   =   -1733.39856941 Ry
     estimated scf accuracy    <       0.06260792 Ry

     iteration #  5     ecut=    36.75 Ry     beta=0.30
     Davidson diagonalization with overlap
     ethr =  1.46E-05,  avg # of iterations =  4.0

     negative rho (up, down):  1.177E+00 0.000E+00
 
     Adding external electric field

     Computed dipole along edir(3) : 
        Dipole                0.2435 Ry au,          0.6188 Debye
        Dipole field          0.0006 Ry au
 
        Potential amp.       -0.0541 Ry
        Total length         45.8339 bohr
 

     total cpu time spent up to now is      294.2 secs

     total energy              =   -1733.39475721 Ry
     Harris-Foulkes estimate   =   -1733.39706851 Ry
     estimated scf accuracy    <       0.02341196 Ry

     iteration #  6     ecut=    36.75 Ry     beta=0.30
     Davidson diagonalization with overlap
     ethr =  1.44E-05,  avg # of iterations =  1.4

     negative rho (up, down):  1.177E+00 0.000E+00
 
     Adding external electric field

     Computed dipole along edir(3) : 
        Dipole                0.2431 Ry au,          0.6179 Debye
        Dipole field          0.0006 Ry au
 
        Potential amp.       -0.0540 Ry
        Total length         45.8339 bohr
 

     total cpu time spent up to now is      302.6 secs

     total energy              =   -1733.39565717 Ry
     Harris-Foulkes estimate   =   -1733.39577993 Ry
     estimated scf accuracy    <       0.00253689 Ry

     iteration #  7     ecut=    36.75 Ry     beta=0.30
     Davidson diagonalization with overlap
     ethr =  1.56E-06,  avg # of iterations =  5.1

     negative rho (up, down):  1.177E+00 0.000E+00
 
     Adding external electric field

     Computed dipole along edir(3) : 
        Dipole                0.2318 Ry au,          0.5893 Debye
        Dipole field          0.0006 Ry au
 
        Potential amp.       -0.0515 Ry
        Total length         45.8339 bohr
 

     total cpu time spent up to now is      315.4 secs

     total energy              =   -1733.39606381 Ry
     Harris-Foulkes estimate   =   -1733.39616641 Ry
     estimated scf accuracy    <       0.00112874 Ry

     iteration #  8     ecut=    36.75 Ry     beta=0.30
     Davidson diagonalization with overlap
     ethr =  6.92E-07,  avg # of iterations =  1.4

     negative rho (up, down):  1.177E+00 0.000E+00
 
     Adding external electric field

     Computed dipole along edir(3) : 
        Dipole                0.2314 Ry au,          0.5880 Debye
        Dipole field          0.0006 Ry au
 
        Potential amp.       -0.0514 Ry
        Total length         45.8339 bohr
 

     total cpu time spent up to now is      323.8 secs

     total energy              =   -1733.39606445 Ry
     Harris-Foulkes estimate   =   -1733.39610880 Ry
     estimated scf accuracy    <       0.00053323 Ry

     iteration #  9     ecut=    36.75 Ry     beta=0.30
     Davidson diagonalization with overlap
     ethr =  3.27E-07,  avg # of iterations =  3.4

     negative rho (up, down):  1.177E+00 0.000E+00
 
     Adding external electric field

     Computed dipole along edir(3) : 
        Dipole                0.2342 Ry au,          0.5952 Debye
        Dipole field          0.0006 Ry au
 
        Potential amp.       -0.0520 Ry
        Total length         45.8339 bohr
 

     total cpu time spent up to now is      334.3 secs

     total energy              =   -1733.39611778 Ry
     Harris-Foulkes estimate   =   -1733.39611851 Ry
     estimated scf accuracy    <       0.00010030 Ry

     iteration # 10     ecut=    36.75 Ry     beta=0.30
     Davidson diagonalization with overlap
     ethr =  6.15E-08,  avg # of iterations =  2.0

     negative rho (up, down):  1.177E+00 0.000E+00
 
     Adding external electric field

     Computed dipole along edir(3) : 
        Dipole                0.2356 Ry au,          0.5988 Debye
        Dipole field          0.0006 Ry au
 
        Potential amp.       -0.0523 Ry
        Total length         45.8339 bohr
 

     total cpu time spent up to now is      343.1 secs

     total energy              =   -1733.39611908 Ry
     Harris-Foulkes estimate   =   -1733.39612059 Ry
     estimated scf accuracy    <       0.00002659 Ry

     iteration # 11     ecut=    36.75 Ry     beta=0.30
     Davidson diagonalization with overlap
     ethr =  1.63E-08,  avg # of iterations =  3.5

     negative rho (up, down):  1.177E+00 0.000E+00
 
     Adding external electric field

     Computed dipole along edir(3) : 
        Dipole                0.2351 Ry au,          0.5976 Debye
        Dipole field          0.0006 Ry au
 
        Potential amp.       -0.0522 Ry
        Total length         45.8339 bohr
 

     total cpu time spent up to now is      354.1 secs

     total energy              =   -1733.39612214 Ry
     Harris-Foulkes estimate   =   -1733.39612332 Ry
     estimated scf accuracy    <       0.00001191 Ry

     iteration # 12     ecut=    36.75 Ry     beta=0.30
     Davidson diagonalization with overlap
     ethr =  7.30E-09,  avg # of iterations =  1.0

     negative rho (up, down):  1.177E+00 0.000E+00

     negative rho (up, down):  1.177E+00 0.000E+00

     negative rho (up, down):  1.177E+00 0.000E+00

     negative rho (up, down):  1.177E+00 0.000E+00

     negative rho (up, down):  1.177E+00 0.000E+00

     negative rho (up, down):  1.177E+00 0.000E+00

     negative rho (up, down):  1.177E+00 0.000E+00

     negative rho (up, down):  1.177E+00 0.000E+00

     negative rho (up, down):  1.177E+00 0.000E+00

     negative rho (up, down):  1.177E+00 0.000E+00

     negative rho (up, down):  1.177E+00 0.000E+00

     negative rho (up, down):  1.177E+00 0.000E+00

     negative rho (up, down):  1.177E+00 0.000E+00

     negative rho (up, down):  1.177E+00 0.000E+00

     negative rho (up, down):  1.177E+00 0.000E+00

     negative rho (up, down):  1.177E+00 0.000E+00

     negative rho (up, down):  1.177E+00 0.000E+00

     negative rho (up, down):  1.177E+00 0.000E+00

     negative rho (up, down):  1.177E+00 0.000E+00

     negative rho (up, down):  1.177E+00 0.000E+00

     negative rho (up, down):  1.177E+00 0.000E+00

     negative rho (up, down):  1.177E+00 0.000E+00

     negative rho (up, down):  1.177E+00 0.000E+00

     negative rho (up, down):  1.177E+00 0.000E+00

     negative rho (up, down):  1.177E+00 0.000E+00

     negative rho (up, down):  1.177E+00 0.000E+00

     negative rho (up, down):  1.177E+00 0.000E+00

     negative rho (up, down):  1.177E+00 0.000E+00

     negative rho (up, down):  1.177E+00 0.000E+00

     negative rho (up, down):  1.177E+00 0.000E+00

     negative rho (up, down):  1.177E+00 0.000E+00

     negative rho (up, down):  1.177E+00 0.000E+00

     negative rho (up, down):  1.177E+00 0.000E+00

     negative rho (up, down):  1.177E+00 0.000E+00

     negative rho (up, down):  1.177E+00 0.000E+00
 
     Adding external electric field

     Computed dipole along edir(3) : 
        Dipole                0.2206 Ry au,          0.5606 Debye
        Dipole field          0.0005 Ry au
 
        Potential amp.       -0.0490 Ry
        Total length         45.8339 bohr
 

     total cpu time spent up to now is      372.4 secs

     End of self-consistent calculation

          k = 0.0000 0.0000 0.0000 ( 19447 PWs)   bands (ev):

   -65.9992 -65.9550 -65.9362 -65.8986 -65.8431 -65.8389 -65.8377 -65.7957
   -65.7545 -65.7420 -65.7217 -65.6704 -32.6651 -32.6515 -32.6296 -32.6280
   -32.6046 -32.5856 -32.5630 -32.5450 -32.5394 -32.5369 -32.3834 -32.3210
   -32.3107 -32.1917 -32.1850 -32.1771 -32.1158 -32.0974 -32.0338 -32.0318
   -31.9987 -31.9825 -31.9794 -31.9619 -31.9562 -31.9427 -31.8884 -31.8821
   -31.8797 -31.8756 -31.8276 -31.8172 -31.8037 -31.7882 -31.7305 -31.7253
   -10.6927  -5.8276  -5.0573  -3.7030  -2.7317  -2.1311  -1.7574  -1.6666
    -1.6397  -1.5468  -1.4296  -1.2619  -1.0319  -0.7673  -0.6876  -0.5408
    -0.5181  -0.2569   0.2030   0.6308   0.7248   1.0670   1.4352   1.8614
     1.9365   2.0547   2.2399   2.3355   2.4633   2.5443   2.5591   2.7477
     2.7883   2.8022   3.0627   3.0828   3.1271   3.1467   3.1613   3.2267
     3.2421   3.3451   3.6791

          k = 0.0000 0.0322-0.0000 ( 19481 PWs)   bands (ev):

   -65.9971 -65.9556 -65.9375 -65.8947 -65.8455 -65.8393 -65.8389 -65.7928
   -65.7549 -65.7439 -65.7224 -65.6706 -32.6413 -32.6221 -32.6081 -32.5953
   -32.5791 -32.5618 -32.5344 -32.5192 -32.5120 -32.4959 -32.3803 -32.3294
   -32.3202 -32.2072 -32.1781 -32.1727 -32.1286 -32.0996 -32.0551 -32.0390
   -32.0258 -32.0204 -31.9803 -31.9572 -31.9483 -31.9340 -31.9134 -31.9053
   -31.8978 -31.8742 -31.8555 -31.8376 -31.8236 -31.8055 -31.7725 -31.7374
   -10.6845  -5.8604  -4.8152  -3.5058  -2.5551  -1.9442  -1.7909  -1.5998
    -1.5103  -1.4197  -1.2997  -1.1269  -0.8824  -0.6094  -0.4991  -0.3930
    -0.3897  -0.1286   0.2471   0.6649   0.7401   1.0432   1.3860   1.7595
     1.9275   2.0571   2.1148   2.2331   2.2818   2.3425   2.3740   2.5036
     2.7266   2.9254   2.9673   2.9992   3.0064   3.0732   3.1043   3.2208
     3.2293   3.4274   3.4560

          k = 0.0000 0.0645-0.0000 ( 19517 PWs)   bands (ev):

   -65.9922 -65.9572 -65.9401 -65.8841 -65.8552 -65.8403 -65.8389 -65.7855
   -65.7570 -65.7481 -65.7236 -65.6711 -32.5894 -32.5715 -32.5467 -32.5233
   -32.5174 -32.4922 -32.4710 -32.4551 -32.4486 -32.3807 -32.3728 -32.3412
   -32.3335 -32.2362 -32.1849 -32.1655 -32.1544 -32.1197 -32.1005 -32.0937
   -32.0837 -32.0365 -32.0183 -31.9938 -31.9773 -31.9714 -31.9530 -31.9296
   -31.9209 -31.9099 -31.8847 -31.8722 -31.8565 -31.8422 -31.8198 -31.7621
   -10.6681  -5.9151  -4.1581  -3.0469  -2.3213  -2.1301  -1.4938  -1.2987
    -1.1692  -1.1164  -0.9077  -0.7878  -0.6035  -0.2868  -0.0373   0.0052
     0.0369   0.2695   0.4232   0.6408   0.8251   1.0230   1.2327   1.3723
     1.5361   1.6658   1.7159   1.8239   2.0300   2.1826   2.2936   2.3363
     2.3762   2.4325   2.5145   2.5609   2.6319   2.6917   2.9500   2.9833
     3.1088   3.4202   3.5551

          k = 0.0000-0.0967 0.0000 ( 19532 PWs)   bands (ev):

   -65.9893 -65.9585 -65.9414 -65.8707 -65.8685 -65.8405 -65.8389 -65.7803
   -65.7601 -65.7498 -65.7241 -65.6713 -32.5554 -32.5338 -32.5139 -32.5057
   -32.4758 -32.4607 -32.4172 -32.4032 -32.3987 -32.3814 -32.3633 -32.2837
   -32.2669 -32.2260 -32.2223 -32.1941 -32.1897 -32.1815 -32.1332 -32.0998
   -32.0946 -32.0695 -32.0618 -32.0422 -32.0196 -32.0029 -31.9974 -31.9322
   -31.9214 -31.9113 -31.9069 -31.8878 -31.8681 -31.8415 -31.8129 -31.7848
   -10.6599  -5.9395  -3.3413  -3.1656  -2.6913  -1.8155  -1.5050  -0.9335
    -0.9154  -0.8574  -0.5900  -0.5407  -0.5099  -0.2766   0.2223   0.3502
     0.4764   0.6036   0.6133   0.6639   0.8604   1.0184   1.1424   1.1892
     1.2884   1.3425   1.4956   1.6133   1.7422   1.8023   1.8410   1.8901
     2.0555   2.0794   2.2203   2.3887   2.6501   2.6825   2.7075   2.7937
     3.0660   3.5531   3.6482

          k = 0.0279-0.0161 0.0000 ( 19481 PWs)   bands (ev):

   -65.9973 -65.9547 -65.9382 -65.8947 -65.8451 -65.8406 -65.8379 -65.7928
   -65.7551 -65.7436 -65.7225 -65.6706 -32.6386 -32.6176 -32.6106 -32.5970
   -32.5816 -32.5593 -32.5350 -32.5180 -32.5133 -32.4977 -32.3804 -32.3284
   -32.3211 -32.2049 -32.1807 -32.1729 -32.1388 -32.0941 -32.0566 -32.0392
   -32.0287 -32.0171 -31.9724 -31.9569 -31.9474 -31.9362 -31.9182 -31.9060
   -31.8926 -31.8689 -31.8670 -31.8356 -31.8268 -31.7977 -31.7767 -31.7341
   -10.6888  -5.8284  -4.8300  -3.5284  -2.5944  -1.9942  -1.7766  -1.5756
    -1.4895  -1.4091  -1.2487  -1.1813  -0.8147  -0.5891  -0.5304  -0.3968
    -0.3670  -0.1829   0.2491   0.6772   0.7351   1.0064   1.3539   1.7563
     1.9998   2.0808   2.1519   2.2227   2.2828   2.3068   2.3700   2.5536
     2.7398   2.9349   2.9422   2.9943   3.0297   3.0847   3.1100   3.1998
     3.2256   3.3365   3.4543

          k = 0.0279 0.0161-0.0000 ( 19481 PWs)   bands (ev):

   -65.9966 -65.9572 -65.9363 -65.8947 -65.8451 -65.8405 -65.8379 -65.7927
   -65.7563 -65.7420 -65.7230 -65.6706 -32.6349 -32.6270 -32.6103 -32.5925
   -32.5790 -32.5637 -32.5348 -32.5164 -32.5143 -32.4961 -32.3803 -32.3331
   -32.3162 -32.2061 -32.1800 -32.1732 -32.1299 -32.1015 -32.0533 -32.0410
   -32.0261 -32.0191 -31.9777 -31.9532 -31.9474 -31.9376 -31.9149 -31.9044
   -31.8937 -31.8743 -31.8625 -31.8377 -31.8185 -31.8054 -31.7735 -31.7388
   -10.6845  -5.8605  -4.8153  -3.5058  -2.5551  -1.9419  -1.7915  -1.6050
    -1.5085  -1.4207  -1.2960  -1.1270  -0.8822  -0.6083  -0.5072  -0.3972
    -0.3806  -0.1277   0.2471   0.6801   0.7357   1.0352   1.3800   1.7332
     1.9397   2.0922   2.1201   2.2159   2.2753   2.3455   2.3649   2.5126
     2.7368   2.9050   2.9560   2.9944   3.0160   3.0803   3.1023   3.2218
     3.2331   3.4296   3.4684

          k = 0.0279 0.0483-0.0000 ( 19485 PWs)   bands (ev):

   -65.9925 -65.9599 -65.9372 -65.8875 -65.8495 -65.8453 -65.8361 -65.7874
   -65.7584 -65.7443 -65.7241 -65.6709 -32.5983 -32.5905 -32.5528 -32.5454
   -32.5328 -32.5185 -32.4910 -32.4785 -32.4430 -32.4306 -32.3761 -32.3441
   -32.3293 -32.2305 -32.1751 -32.1664 -32.1598 -32.1265 -32.0985 -32.0765
   -32.0325 -32.0131 -32.0006 -31.9922 -31.9748 -31.9576 -31.9413 -31.9246
   -31.9019 -31.8894 -31.8847 -31.8692 -31.8546 -31.8292 -31.8209 -31.7627
   -10.6700  -5.9168  -4.3560  -3.1565  -2.2262  -1.8680  -1.8112  -1.4787
    -1.3927  -1.1680  -1.0375  -0.7883  -0.6793  -0.3817  -0.1966  -0.1131
    -0.0822   0.1717   0.3644   0.6494   0.7971   1.0391   1.3318   1.4927
     1.6862   1.7229   1.8053   1.9218   2.0925   2.2317   2.2843   2.4544
     2.4707   2.5020   2.6116   2.6854   2.7690   2.8561   2.9414   3.1625
     3.2159   3.3195   3.4200

          k = 0.0279-0.1128 0.0000 ( 19521 PWs)   bands (ev):

   -65.9886 -65.9606 -65.9400 -65.8750 -65.8605 -65.8488 -65.8343 -65.7803
   -65.7603 -65.7495 -65.7242 -65.6713 -32.5527 -32.5317 -32.5093 -32.4963
   -32.4734 -32.4483 -32.4279 -32.4132 -32.3854 -32.3767 -32.3461 -32.3199
   -32.2965 -32.2640 -32.2502 -32.2064 -32.1766 -32.1479 -32.1289 -32.1191
   -32.0774 -32.0641 -32.0478 -32.0220 -32.0158 -31.9731 -31.9550 -31.9523
   -31.9357 -31.9149 -31.8974 -31.8886 -31.8673 -31.8429 -31.8387 -31.7967
   -10.6599  -5.9397  -3.5643  -2.8389  -2.5189  -1.7711  -1.7424  -1.3843
    -0.9236  -0.7636  -0.5968  -0.4313  -0.3254  -0.0903   0.1889   0.2809
     0.3980   0.4392   0.6200   0.6679   0.9178   0.9655   1.0589   1.1787
     1.3262   1.3685   1.4440   1.5434   1.6873   1.7019   1.8329   1.9843
     2.0375   2.1081   2.2950   2.3817   2.5306   2.7134   2.8286   3.0202
     3.1460   3.4419   3.6432

          k = 0.0279-0.0806 0.0000 ( 19521 PWs)   bands (ev):

   -65.9898 -65.9570 -65.9425 -65.8750 -65.8604 -65.8488 -65.8343 -65.7808
   -65.7573 -65.7526 -65.7237 -65.6713 -32.5561 -32.5283 -32.5069 -32.4971
   -32.4708 -32.4485 -32.4256 -32.4142 -32.3833 -32.3724 -32.3493 -32.3270
   -32.2957 -32.2690 -32.2591 -32.2063 -32.1679 -32.1468 -32.1320 -32.1175
   -32.0771 -32.0599 -32.0414 -32.0245 -32.0189 -31.9836 -31.9561 -31.9470
   -31.9341 -31.9134 -31.9020 -31.8913 -31.8635 -31.8506 -31.8272 -31.7961
   -10.6643  -5.9126  -3.6033  -2.8524  -2.5319  -1.8988  -1.6698  -1.3006
    -0.9699  -0.7573  -0.5360  -0.3560  -0.2850  -0.1826   0.2003   0.3143
     0.3626   0.4665   0.5740   0.6355   0.8826   0.9929   1.0481   1.1590
     1.3376   1.3837   1.4127   1.5796   1.6811   1.7819   1.8799   1.9705
     2.0071   2.0942   2.3047   2.4085   2.5389   2.6760   2.7570   3.0297
     3.1788   3.4563   3.5359

          k = 0.0279-0.0483 0.0000 ( 19485 PWs)   bands (ev):

   -65.9942 -65.9538 -65.9417 -65.8875 -65.8494 -65.8454 -65.8361 -65.7877
   -65.7548 -65.7486 -65.7230 -65.6709 -32.6032 -32.5822 -32.5549 -32.5413
   -32.5335 -32.5179 -32.4866 -32.4825 -32.4403 -32.4368 -32.3759 -32.3407
   -32.3333 -32.2285 -32.1922 -32.1668 -32.1623 -32.1269 -32.0827 -32.0694
   -32.0364 -32.0149 -32.0032 -31.9973 -31.9739 -31.9585 -31.9319 -31.9243
   -31.9127 -31.8911 -31.8828 -31.8689 -31.8515 -31.8451 -31.8041 -31.7586
   -10.6786  -5.8588  -4.3875  -3.2201  -2.3383  -1.8380  -1.8037  -1.5840
    -1.2547  -1.1241  -0.9626  -0.8600  -0.5468  -0.3614  -0.2121  -0.1278
    -0.0653   0.0676   0.3545   0.6764   0.7738   0.9864   1.2580   1.5255
     1.7512   1.7850   1.8631   1.9014   2.0892   2.1835   2.3509   2.4608
     2.4762   2.5132   2.6298   2.6970   2.7569   2.7981   2.9379   3.2146
     3.2853   3.3067   3.4238

          k = 0.0558-0.0322 0.0000 ( 19517 PWs)   bands (ev):

   -65.9931 -65.9534 -65.9431 -65.8842 -65.8548 -65.8415 -65.8380 -65.7854
   -65.7580 -65.7470 -65.7238 -65.6710 -32.5866 -32.5577 -32.5494 -32.5316
   -32.5111 -32.4938 -32.4696 -32.4555 -32.4505 -32.3867 -32.3730 -32.3417
   -32.3333 -32.2341 -32.2049 -32.1686 -32.1532 -32.1298 -32.0986 -32.0976
   -32.0762 -32.0303 -32.0071 -31.9973 -31.9808 -31.9660 -31.9436 -31.9297
   -31.9243 -31.9087 -31.8963 -31.8708 -31.8569 -31.8438 -31.8130 -31.7578
   -10.6810  -5.8301  -4.2040  -3.1693  -2.4227  -2.0992  -1.5057  -1.2423
    -1.1332  -1.1236  -0.8709  -0.8078  -0.4914  -0.3015  -0.0014   0.0206
     0.0896   0.1568   0.4318   0.6946   0.7819   0.9476   1.2631   1.3531
     1.5982   1.6721   1.6910   1.8970   2.0499   2.1982   2.2881   2.3271
     2.3562   2.4109   2.5201   2.5754   2.6308   2.6802   2.9737   3.0430
     3.0691   3.3898   3.5518

          k = 0.0558-0.0000-0.0000 ( 19485 PWs)   bands (ev):

   -65.9931 -65.9581 -65.9385 -65.8875 -65.8487 -65.8463 -65.8359 -65.7873
   -65.7588 -65.7438 -65.7243 -65.6709 -32.6003 -32.5802 -32.5545 -32.5412
   -32.5328 -32.5222 -32.4912 -32.4774 -32.4433 -32.4354 -32.3763 -32.3445
   -32.3298 -32.2281 -32.1963 -32.1675 -32.1620 -32.1261 -32.0900 -32.0697
   -32.0296 -32.0133 -32.0060 -31.9913 -31.9715 -31.9559 -31.9395 -31.9206
   -31.9106 -31.8881 -31.8805 -31.8756 -31.8591 -31.8303 -31.8133 -31.7589
   -10.6786  -5.8589  -4.3877  -3.2200  -2.3381  -1.8382  -1.8015  -1.5869
    -1.2595  -1.1167  -0.9636  -0.8582  -0.5459  -0.3807  -0.2094  -0.1140
    -0.0653   0.0718   0.3494   0.7177   0.7842   0.9315   1.2501   1.4929
     1.7390   1.7968   1.8946   1.9192   2.1030   2.1653   2.3634   2.4697
     2.4941   2.5009   2.6158   2.6905   2.7718   2.7849   2.9441   3.1959
     3.2843   3.3127   3.4144

          k = 0.0558 0.0322-0.0000 ( 19517 PWs)   bands (ev):

   -65.9901 -65.9629 -65.9365 -65.8842 -65.8549 -65.8414 -65.8380 -65.7847
   -65.7620 -65.7420 -65.7256 -65.6710 -32.5830 -32.5651 -32.5523 -32.5306
   -32.5145 -32.4923 -32.4708 -32.4561 -32.4496 -32.3832 -32.3732 -32.3385
   -32.3325 -32.2380 -32.1883 -32.1650 -32.1566 -32.1309 -32.0984 -32.0973
   -32.0845 -32.0239 -32.0102 -31.9953 -31.9767 -31.9639 -31.9504 -31.9320
   -31.9265 -31.9062 -31.8857 -31.8762 -31.8527 -31.8436 -31.8220 -31.7643
   -10.6681  -5.9152  -4.1584  -3.0467  -2.3207  -2.1304  -1.4953  -1.3008
    -1.1700  -1.1166  -0.9059  -0.7874  -0.6017  -0.2924  -0.0485   0.0102
     0.0500   0.2741   0.4233   0.6936   0.8561   0.9996   1.2004   1.2875
     1.5216   1.6625   1.6894   1.9026   2.0519   2.1789   2.2889   2.3275
     2.3646   2.4361   2.4857   2.5644   2.6151   2.6978   2.9548   3.0344
     3.1228   3.4177   3.5510

          k = 0.0558-0.1289 0.0000 ( 19521 PWs)   bands (ev):

   -65.9867 -65.9649 -65.9376 -65.8751 -65.8602 -65.8491 -65.8342 -65.7791
   -65.7646 -65.7452 -65.7255 -65.6713 -32.5486 -32.5254 -32.5126 -32.4987
   -32.4769 -32.4502 -32.4273 -32.4104 -32.3880 -32.3715 -32.3448 -32.3253
   -32.3020 -32.2700 -32.2366 -32.2069 -32.1836 -32.1490 -32.1361 -32.1184
   -32.0863 -32.0638 -32.0349 -32.0152 -31.9996 -31.9806 -31.9584 -31.9475
   -31.9428 -31.9115 -31.9039 -31.8829 -31.8682 -31.8524 -31.8300 -31.8002
   -10.6599  -5.9397  -3.5645  -2.8393  -2.5191  -1.7677  -1.7443  -1.3819
    -0.9316  -0.7730  -0.5909  -0.4315  -0.3316  -0.0941   0.1977   0.3395
     0.3854   0.4391   0.6152   0.7330   0.9094   0.9671   1.0194   1.1516
     1.2701   1.3390   1.4158   1.5842   1.6865   1.7399   1.8013   2.0093
     2.0386   2.1037   2.2777   2.3753   2.5282   2.6948   2.8245   3.0565
     3.2126   3.4419   3.6308

          k = 0.0558-0.0967 0.0000 ( 19521 PWs)   bands (ev):

   -65.9872 -65.9608 -65.9411 -65.8655 -65.8611 -65.8596 -65.8323 -65.7770
   -65.7619 -65.7512 -65.7243 -65.6714 -32.5279 -32.5072 -32.4812 -32.4525
   -32.4375 -32.4347 -32.4086 -32.4007 -32.3547 -32.3462 -32.3383 -32.3227
   -32.2914 -32.2704 -32.2595 -32.2394 -32.2312 -32.2205 -32.1395 -32.1094
   -32.1070 -32.0920 -32.0581 -32.0133 -31.9850 -31.9730 -31.9515 -31.9475
   -31.9334 -31.9273 -31.9044 -31.8956 -31.8847 -31.8529 -31.8489 -31.8265
   -10.6624  -5.9116  -3.0582  -2.6846  -2.6099  -2.3904  -1.4574  -1.2425
    -1.0377  -0.5279  -0.0504  -0.0012   0.0241   0.0649   0.1712   0.2351
     0.4165   0.6945   0.7063   0.7363   0.7647   0.8533   0.9021   0.9181
     0.9634   1.2323   1.2656   1.4248   1.6051   1.6351   1.6642   1.7540
     1.8227   1.8447   2.1659   2.2557   2.2851   2.8391   2.9985   3.1250
     3.3506   3.4587   3.4798

          k = 0.0558-0.0645 0.0000 ( 19521 PWs)   bands (ev):

   -65.9905 -65.9538 -65.9450 -65.8751 -65.8601 -65.8492 -65.8342 -65.7806
   -65.7586 -65.7512 -65.7239 -65.6712 -32.5551 -32.5204 -32.5053 -32.4970
   -32.4737 -32.4455 -32.4264 -32.4118 -32.3843 -32.3679 -32.3503 -32.3387
   -32.2997 -32.2774 -32.2549 -32.2056 -32.1769 -32.1516 -32.1325 -32.1179
   -32.0795 -32.0515 -32.0424 -32.0201 -32.0056 -31.9859 -31.9563 -31.9509
   -31.9357 -31.9140 -31.9017 -31.8879 -31.8668 -31.8529 -31.8243 -31.7919
   -10.6729  -5.8583  -3.6475  -2.9885  -2.4899  -1.8697  -1.7302  -1.2542
    -0.9271  -0.8006  -0.5231  -0.3843  -0.2523  -0.0992   0.2416   0.3196
     0.3772   0.4365   0.5959   0.6518   0.8805   0.9718   1.0809   1.1291
     1.3167   1.3560   1.4098   1.6045   1.7105   1.7878   1.8418   1.9596
     2.0321   2.1101   2.3098   2.3611   2.5330   2.6685   2.7249   3.0816
     3.1455   3.4795   3.5249

          k =-0.0837 0.0483-0.0000 ( 19532 PWs)   bands (ev):

   -65.9907 -65.9518 -65.9468 -65.8717 -65.8672 -65.8417 -65.8380 -65.7800
   -65.7616 -65.7484 -65.7244 -65.6712 -32.5504 -32.5210 -32.5157 -32.5011
   -32.4847 -32.4535 -32.4132 -32.4094 -32.3987 -32.3744 -32.3598 -32.3087
   -32.2699 -32.2474 -32.2323 -32.1941 -32.1920 -32.1812 -32.1227 -32.1047
   -32.1030 -32.0570 -32.0481 -32.0362 -32.0303 -32.0126 -31.9707 -31.9331
   -31.9269 -31.9095 -31.9036 -31.8940 -31.8762 -31.8329 -31.8131 -31.7784
   -10.6772  -5.8310  -3.5013  -3.2336  -2.7275  -1.9008  -1.4177  -0.9275
    -0.9017  -0.8780  -0.5790  -0.5179  -0.4405  -0.2012   0.3372   0.3624
     0.4870   0.5914   0.6209   0.7185   0.8094   1.0742   1.1363   1.1746
     1.2497   1.3429   1.4302   1.6524   1.7190   1.8174   1.8423   1.8895
     2.0372   2.0813   2.2817   2.3611   2.5925   2.6682   2.7034   2.7165
     3.1086   3.6270   3.6492

          k =-0.0837 0.0806-0.0000 ( 19521 PWs)   bands (ev):

   -65.9897 -65.9570 -65.9425 -65.8752 -65.8599 -65.8493 -65.8342 -65.7801
   -65.7614 -65.7484 -65.7244 -65.6712 -32.5537 -32.5209 -32.5124 -32.4846
   -32.4740 -32.4453 -32.4265 -32.4129 -32.3860 -32.3747 -32.3478 -32.3392
   -32.2986 -32.2812 -32.2556 -32.2053 -32.1728 -32.1518 -32.1306 -32.1172
   -32.0795 -32.0603 -32.0433 -32.0210 -32.0034 -31.9747 -31.9563 -31.9498
   -31.9377 -31.9135 -31.9037 -31.8817 -31.8768 -31.8450 -31.8321 -31.7903
   -10.6729  -5.8583  -3.6477  -2.9885  -2.4899  -1.8688  -1.7298  -1.2547
    -0.9275  -0.8013  -0.5267  -0.3767  -0.2585  -0.1074   0.2364   0.3464
     0.4024   0.4368   0.5841   0.6439   0.8741   0.9521   1.0726   1.1307
     1.3090   1.3420   1.4452   1.6024   1.7530   1.7765   1.8129   1.9798
     2.0333   2.0931   2.3035   2.3616   2.5291   2.6670   2.7361   3.0544
     3.1431   3.4421   3.6143

          k =-0.0837 0.1128-0.0000 ( 19521 PWs)   bands (ev):

   -65.9872 -65.9638 -65.9382 -65.8751 -65.8600 -65.8493 -65.8342 -65.7790
   -65.7649 -65.7450 -65.7256 -65.6712 -32.5503 -32.5250 -32.5129 -32.4915
   -32.4721 -32.4508 -32.4256 -32.4106 -32.3874 -32.3769 -32.3446 -32.3300
   -32.3013 -32.2773 -32.2522 -32.2063 -32.1669 -32.1487 -32.1351 -32.1169
   -32.0893 -32.0616 -32.0349 -32.0187 -31.9968 -31.9840 -31.9548 -31.9460
   -31.9407 -31.9169 -31.9015 -31.8830 -31.8746 -31.8434 -31.8348 -31.7968
   -10.6643  -5.9127  -3.6039  -2.8524  -2.5312  -1.8983  -1.6700  -1.3013
    -0.9755  -0.7596  -0.5384  -0.3570  -0.2788  -0.1933   0.2082   0.3452
     0.3963   0.4504   0.5768   0.7175   0.8788   0.9627   1.0261   1.0646
     1.2825   1.3465   1.4309   1.6223   1.7011   1.8219   1.8833   1.9579
     2.0076   2.0854   2.2877   2.3914   2.5245   2.6598   2.7746   3.0823
     3.1590   3.4897   3.5676

          k =-0.0837-0.0483 0.0000 ( 19532 PWs)   bands (ev):

   -65.9854 -65.9672 -65.9366 -65.8715 -65.8675 -65.8416 -65.8380 -65.7773
   -65.7683 -65.7420 -65.7268 -65.6712 -32.5397 -32.5320 -32.5220 -32.5036
   -32.4849 -32.4616 -32.4167 -32.4102 -32.3926 -32.3833 -32.3521 -32.2853
   -32.2745 -32.2473 -32.2159 -32.1950 -32.1911 -32.1791 -32.1352 -32.1101
   -32.1007 -32.0600 -32.0522 -32.0341 -32.0188 -31.9917 -31.9854 -31.9402
   -31.9275 -31.9147 -31.9059 -31.8808 -31.8745 -31.8446 -31.8057 -31.7926
   -10.6599  -5.9397  -3.3424  -3.1657  -2.6905  -1.8157  -1.5047  -0.9378
    -0.9125  -0.8584  -0.6179  -0.5396  -0.5051  -0.2780   0.2644   0.3829
     0.5606   0.5987   0.6541   0.6649   0.7973   0.9959   1.1348   1.1496
     1.2647   1.3196   1.3744   1.6082   1.7863   1.8175   1.8407   1.9327
     2.0265   2.1081   2.2390   2.3194   2.6131   2.6749   2.6876   2.7999
     3.2814   3.5562   3.6538

     the Fermi energy is     2.4184 ev

!    total energy              =   -1733.39612031 Ry
     Harris-Foulkes estimate   =   -1733.39613861 Ry
     estimated scf accuracy    <       0.00000274 Ry

     The total energy is the sum of the following terms:

     one-electron contribution =  -11738.61177545 Ry
     hartree contribution      =    5855.90867556 Ry
     xc contribution           =    -528.72618726 Ry
     ewald contribution        =    4678.13546719 Ry
     electric field correction =       0.00011791 Ry
     smearing contrib. (-TS)   =      -0.10241827 Ry

     convergence has been achieved in  12 iterations
 
 BEEF-vdW xc energy contributions
           1 :   -465.285424911538     
           2 :    429.386411704303     
           3 :   -366.760730623959     
           4 :    291.918119255954     
           5 :   -219.365082635219     
           6 :    159.179482262227     
           7 :   -115.018315439785     
           8 :    84.9257561134674     
           9 :   -64.0533066520204     
          10 :    47.7010946048234     
          11 :   -33.2545591229419     
          12 :    20.4272686068805     
          13 :   -10.1965539166608     
          14 :    3.38092927961333     
          15 :   0.248351206741063     
          16 :   -1.93929863064540     
          17 :    3.23217236063130     
          18 :   -5.10459610147706     
          19 :    7.53345273333878     
          20 :   -9.69800192858861     
          21 :    10.6435536563930     
          22 :   -9.96745091385344     
          23 :    8.11137747068290     
          24 :   -6.11000622461586     
          25 :    4.98459995584892     
          26 :   -5.17209441449074     
          27 :    6.32926216475039     
          28 :   -7.60052924217223     
          29 :    8.15451331899612     
          30 :   -7.65147643369573     
          31 :   -41.7736345060348     
          32 :   -31.0060865028643     

     Forces acting on atoms (Ry/au):


     negative rho (up, down):  1.177E+00 0.000E+00
     atom    1 type  1   force =    -0.00016507   -0.00018064    0.00234927
     atom    2 type  1   force =    -0.00058832    0.00042485    0.00313476
     atom    3 type  1   force =     0.00064683   -0.00057665    0.00132641
     atom    4 type  1   force =    -0.00016157    0.00106895    0.00237432
     atom    5 type  1   force =     0.00041186   -0.00194067    0.00278653
     atom    6 type  1   force =     0.00027200   -0.00484348   -0.00015059
     atom    7 type  1   force =     0.00218323   -0.00126947   -0.00070728
     atom    8 type  1   force =    -0.00361419   -0.00340007   -0.00581816
     atom    9 type  1   force =    -0.00197247    0.00753562    0.03573426
     atom   10 type  1   force =    -0.00667690    0.00863045    0.02964252
     atom   11 type  1   force =     0.01325812   -0.00288497   -0.01039247
     atom   12 type  1   force =    -0.00194763    0.00793891   -0.00870046
     atom   13 type  2   force =     0.00621820    0.00244330   -0.01370496
     atom   14 type  3   force =     0.01436961    0.02305370    0.01107635
[...]
   -31.8610 -31.8541 -31.8409 -31.8163 -31.7816 -31.7388 -31.7151 -31.6552
   -10.5703  -4.9938  -4.4116  -3.7186  -2.8264  -2.2547  -1.8172  -1.7931
    -1.4399  -1.2555  -1.1300  -0.9741  -0.7747  -0.5255  -0.3267  -0.1233
    -0.0748  -0.0371   0.4317   0.6552   0.8143   0.9510   1.2138   1.4559
     1.5540   1.7702   1.8066   1.9553   2.0449   2.2279   2.3164   2.3808
     2.4017   2.4737   2.5945   2.6317   2.8731   2.8954   2.9587   3.1718
     3.2880   3.3695   3.4409

          k = 0.0279-0.1128 0.0000 ( 19521 PWs)   bands (ev):

   -65.9878 -65.9360 -65.8629 -65.8498 -65.8344 -65.8212 -65.8079 -65.7539
   -65.7157 -65.6863 -65.6712 -65.6179 -32.5547 -32.5297 -32.4999 -32.4727
   -32.4599 -32.4343 -32.4126 -32.4087 -32.3826 -32.3648 -32.3277 -32.3183
   -32.2964 -32.2702 -32.2529 -32.1864 -32.1476 -32.1310 -32.1024 -32.0860
   -32.0725 -32.0306 -32.0177 -31.9929 -31.9700 -31.9365 -31.9308 -31.9187
   -31.9064 -31.8741 -31.8671 -31.8354 -31.7967 -31.7684 -31.7258 -31.6602
   -10.5529  -4.9231  -3.8682  -3.2661  -2.8959  -2.4860  -1.7799  -1.5902
    -1.2295  -0.8863  -0.6869  -0.4835  -0.4334  -0.2929   0.0735   0.2488
     0.3516   0.4074   0.5316   0.6475   0.7854   0.9122   1.0139   1.0813
     1.2493   1.2959   1.4000   1.5629   1.6366   1.6926   1.8573   1.9308
     2.0352   2.0735   2.2461   2.3399   2.5549   2.6795   2.9539   3.0596
     3.3328   3.5741   3.6354

          k = 0.0279-0.0806 0.0000 ( 19521 PWs)   bands (ev):

   -65.9887 -65.9346 -65.8632 -65.8490 -65.8352 -65.8209 -65.8087 -65.7542
   -65.7144 -65.6889 -65.6690 -65.6183 -32.5680 -32.5363 -32.4964 -32.4861
   -32.4465 -32.4294 -32.4205 -32.4055 -32.3722 -32.3583 -32.3362 -32.3205
   -32.2994 -32.2555 -32.2153 -32.1927 -32.1739 -32.1294 -32.1034 -32.0959
   -32.0577 -32.0325 -32.0082 -31.9943 -31.9752 -31.9543 -31.9332 -31.9188
   -31.9035 -31.8744 -31.8622 -31.8370 -31.7976 -31.7775 -31.7122 -31.6625
   -10.5545  -4.8655  -3.9307  -3.2570  -2.9262  -2.4641  -1.8166  -1.6286
    -1.1781  -1.0066  -0.5855  -0.5057  -0.3930  -0.2965   0.0705   0.2499
     0.3802   0.4278   0.4757   0.6580   0.8132   0.8690   1.0233   1.0724
     1.2373   1.2949   1.4330   1.5508   1.6595   1.7071   1.8647   1.9174
     2.0073   2.0853   2.3086   2.3992   2.5512   2.7501   2.9377   3.0502
     3.2835   3.5605   3.6281

          k = 0.0279-0.0483 0.0000 ( 19485 PWs)   bands (ev):

   -65.9911 -65.9328 -65.8751 -65.8387 -65.8328 -65.8215 -65.8090 -65.7576
   -65.7135 -65.6883 -65.6653 -65.6192 -32.6431 -32.5931 -32.5438 -32.5409
   -32.5006 -32.4941 -32.4734 -32.4625 -32.4204 -32.4087 -32.3656 -32.3179
   -32.2815 -32.2548 -32.1762 -32.1359 -32.1294 -32.1075 -32.0739 -32.0515
   -32.0248 -31.9968 -31.9827 -31.9680 -31.9443 -31.9330 -31.9115 -31.8883
   -31.8605 -31.8508 -31.8478 -31.8197 -31.7903 -31.7557 -31.6945 -31.6517
   -10.5735  -4.8366  -4.5390  -3.7286  -2.8615  -2.2559  -1.9267  -1.7984
    -1.4626  -1.3529  -0.9875  -0.9282  -0.7564  -0.6181  -0.2335  -0.1384
    -0.0623  -0.0026   0.2698   0.7288   0.8296   0.9397   1.2761   1.4668
     1.6167   1.7492   1.8281   1.9252   1.9700   2.2718   2.3664   2.3974
     2.4646   2.5553   2.6268   2.7139   2.8122   2.9036   3.0489   3.1196
     3.2130   3.3350   3.4435

          k = 0.0558-0.0322 0.0000 ( 19517 PWs)   bands (ev):

   -65.9913 -65.9317 -65.8721 -65.8418 -65.8327 -65.8216 -65.8100 -65.7570
   -65.7108 -65.6933 -65.6629 -65.6199 -32.6307 -32.5842 -32.5455 -32.5260
   -32.4879 -32.4713 -32.4530 -32.4334 -32.4095 -32.3694 -32.3553 -32.3076
   -32.2833 -32.2532 -32.1965 -32.1412 -32.1242 -32.1020 -32.0754 -32.0670
   -32.0365 -32.0290 -32.0174 -31.9739 -31.9471 -31.9323 -31.9231 -31.9004
   -31.8884 -31.8726 -31.8405 -31.8197 -31.8074 -31.7627 -31.7048 -31.6399
   -10.5687  -4.7221  -4.4648  -3.6066  -2.9169  -2.3609  -2.0320  -1.5685
    -1.2722  -1.1317  -1.0111  -0.8090  -0.7775  -0.5299  -0.0796  -0.0068
     0.0275   0.1588   0.3176   0.7374   0.8137   0.8989   1.1462   1.3789
     1.5299   1.6299   1.6737   1.9221   1.9844   2.0842   2.2687   2.3519
     2.3752   2.4318   2.4871   2.7205   2.7997   2.8338   2.8775   3.1189
     3.2011   3.2921   3.5343

          k = 0.0558-0.0000-0.0000 ( 19485 PWs)   bands (ev):

   -65.9908 -65.9332 -65.8752 -65.8375 -65.8344 -65.8212 -65.8087 -65.7578
   -65.7127 -65.6899 -65.6641 -65.6195 -32.6373 -32.5947 -32.5613 -32.5241
   -32.5020 -32.4963 -32.4757 -32.4605 -32.4251 -32.4095 -32.3648 -32.3151
   -32.2759 -32.2541 -32.1773 -32.1398 -32.1275 -32.1054 -32.0720 -32.0547
   -32.0207 -31.9975 -31.9816 -31.9681 -31.9492 -31.9266 -31.9174 -31.8847
   -31.8588 -31.8526 -31.8476 -31.8216 -31.7964 -31.7523 -31.7050 -31.6425
   -10.5724  -4.8763  -4.5025  -3.7260  -2.8613  -2.2552  -1.9021  -1.7976
    -1.4489  -1.3398  -0.9996  -0.9404  -0.7832  -0.6009  -0.2771  -0.1391
    -0.0738  -0.0027   0.3034   0.7206   0.8341   0.9010   1.2588   1.4732
     1.6146   1.7676   1.8408   1.9285   1.9671   2.2729   2.3778   2.4020
     2.5019   2.5737   2.6041   2.7839   2.8117   2.9021   3.0624   3.1031
     3.2265   3.3291   3.3813

          k = 0.0558 0.0322-0.0000 ( 19517 PWs)   bands (ev):

   -65.9889 -65.9357 -65.8719 -65.8438 -65.8292 -65.8234 -65.8076 -65.7564
   -65.7149 -65.6869 -65.6679 -65.6186 -32.6029 -32.5733 -32.5416 -32.5109
   -32.4933 -32.4768 -32.4592 -32.4427 -32.4272 -32.3715 -32.3662 -32.3214
   -32.2863 -32.2614 -32.1830 -32.1442 -32.1328 -32.1018 -32.0844 -32.0730
   -32.0433 -32.0284 -31.9964 -31.9749 -31.9376 -31.9295 -31.9241 -31.8973
   -31.8939 -31.8646 -31.8425 -31.8171 -31.7909 -31.7511 -31.7188 -31.6483
   -10.5639  -4.9614  -4.2756  -3.5859  -2.8558  -2.3082  -2.0078  -1.3917
    -1.2713  -1.1462  -1.0601  -0.9537  -0.7104  -0.4640  -0.2471  -0.0069
     0.0561   0.1366   0.4606   0.6393   0.8145   0.9475   1.1097   1.3372
     1.4503   1.6227   1.6424   1.8659   1.9538   2.1650   2.2153   2.3444
     2.4049   2.4393   2.4923   2.6027   2.7175   2.7987   2.8730   3.0386
     3.1937   3.4050   3.4847

          k = 0.0558-0.1289 0.0000 ( 19521 PWs)   bands (ev):

   -65.9875 -65.9366 -65.8631 -65.8492 -65.8350 -65.8209 -65.8076 -65.7541
   -65.7149 -65.6883 -65.6697 -65.6182 -32.5424 -32.5304 -32.5022 -32.4911
   -32.4617 -32.4308 -32.4140 -32.4016 -32.3851 -32.3614 -32.3397 -32.3181
   -32.2931 -32.2563 -32.2482 -32.1885 -32.1437 -32.1294 -32.1090 -32.0884
   -32.0689 -32.0408 -32.0149 -31.9936 -31.9640 -31.9391 -31.9288 -31.9245
   -31.9054 -31.8769 -31.8681 -31.8271 -31.7981 -31.7677 -31.7353 -31.6546
   -10.5518  -4.9398  -3.8588  -3.2499  -2.9061  -2.4647  -1.7930  -1.5702
    -1.2047  -0.9460  -0.6398  -0.5173  -0.4215  -0.2842   0.0168   0.2282
     0.3589   0.4225   0.5104   0.6358   0.7930   0.9246   1.0081   1.0972
     1.2563   1.2970   1.3970   1.5852   1.6534   1.7022   1.8359   1.9022
     2.0528   2.1176   2.2426   2.3318   2.5523   2.6823   2.9545   3.0610
     3.3359   3.5479   3.6220

          k = 0.0558-0.0967 0.0000 ( 19521 PWs)   bands (ev):

   -65.9882 -65.9349 -65.8559 -65.8497 -65.8438 -65.8190 -65.8088 -65.7533
   -65.7121 -65.6936 -65.6674 -65.6186 -32.5293 -32.4952 -32.4880 -32.4748
   -32.4485 -32.4117 -32.3853 -32.3773 -32.3536 -32.3477 -32.3216 -32.3039
   -32.2783 -32.2499 -32.2311 -32.2160 -32.2138 -32.2018 -32.1133 -32.0942
   -32.0754 -32.0677 -32.0056 -31.9889 -31.9665 -31.9505 -31.9350 -31.9264
   -31.9102 -31.8994 -31.8460 -31.8380 -31.8321 -31.7943 -31.7267 -31.6593
   -10.5482  -4.8574  -3.6326  -3.1258  -2.6760  -2.4494  -2.4282  -1.3849
    -1.0795  -0.9193  -0.4829  -0.1354  -0.0287   0.0049   0.0767   0.2845
     0.3522   0.5152   0.6821   0.7602   0.7737   0.8155   0.8609   0.8889
     0.9664   1.1331   1.2211   1.2996   1.5361   1.6072   1.6919   1.7695
     1.8278   1.8950   2.1341   2.1939   2.2820   3.0714   3.1166   3.2835
     3.3692   3.4953   3.6230

          k = 0.0558-0.0645 0.0000 ( 19521 PWs)   bands (ev):

   -65.9900 -65.9324 -65.8638 -65.8464 -65.8379 -65.8201 -65.8100 -65.7548
   -65.7100 -65.6956 -65.6646 -65.6194 -32.5817 -32.5482 -32.5165 -32.4907
   -32.4569 -32.4335 -32.4041 -32.3835 -32.3508 -32.3411 -32.3280 -32.3136
   -32.2824 -32.2585 -32.2518 -32.1928 -32.1548 -32.1264 -32.1021 -32.0793
   -32.0732 -32.0354 -32.0174 -32.0041 -31.9774 -31.9478 -31.9293 -31.9230
   -31.9061 -31.8780 -31.8682 -31.8269 -31.8101 -31.7885 -31.7051 -31.6551
   -10.5566  -4.7616  -4.0137  -3.2779  -2.9653  -2.4781  -1.7638  -1.6941
    -1.2803  -0.8832  -0.6739  -0.5089  -0.3905  -0.3102   0.1629   0.2401
     0.3163   0.4267   0.5048   0.6617   0.8248   0.9203   0.9613   1.1169
     1.2575   1.3327   1.3972   1.5478   1.6809   1.7197   1.8562   1.9082
     2.0605   2.1373   2.3041   2.4532   2.5603   2.7918   2.9362   3.1891
     3.2963   3.4164   3.5947

          k =-0.0837 0.0483-0.0000 ( 19532 PWs)   bands (ev):

   -65.9907 -65.9313 -65.8622 -65.8515 -65.8330 -65.8217 -65.8107 -65.7550
   -65.7073 -65.6989 -65.6630 -65.6199 -32.5936 -32.5506 -32.5302 -32.4935
   -32.4619 -32.4455 -32.4021 -32.3690 -32.3454 -32.3273 -32.3134 -32.3075
   -32.2860 -32.2459 -32.2018 -32.1741 -32.1606 -32.1542 -32.1189 -32.0803
   -32.0751 -32.0426 -32.0147 -32.0020 -31.9951 -31.9700 -31.9575 -31.9138
   -31.8915 -31.8839 -31.8812 -31.8222 -31.8045 -31.7752 -31.7070 -31.6450
   -10.5577  -4.7072  -3.9963  -3.3528  -2.9226  -2.7978  -1.7643  -1.3608
    -1.1084  -0.8932  -0.7241  -0.5989  -0.4923  -0.4728   0.2462   0.2899
     0.3386   0.5207   0.5389   0.6224   0.8658   1.0002   1.0413   1.0866
     1.1775   1.3365   1.4393   1.5670   1.7462   1.8111   1.8519   1.8710
     1.9802   2.1260   2.2011   2.5877   2.6714   2.7166   2.8772   3.0118
     3.3084   3.4953   3.6218

          k =-0.0837 0.0806-0.0000 ( 19521 PWs)   bands (ev):

   -65.9899 -65.9326 -65.8639 -65.8460 -65.8384 -65.8200 -65.8099 -65.7549
   -65.7092 -65.6968 -65.6641 -65.6195 -32.5778 -32.5489 -32.5247 -32.4861
   -32.4593 -32.4317 -32.3997 -32.3872 -32.3493 -32.3370 -32.3292 -32.3111
   -32.2930 -32.2600 -32.2501 -32.1984 -32.1447 -32.1235 -32.1016 -32.0803
   -32.0708 -32.0328 -32.0137 -32.0027 -31.9871 -31.9528 -31.9344 -31.9154
   -31.9063 -31.8775 -31.8681 -31.8296 -31.8131 -31.7840 -31.7088 -31.6518
   -10.5561  -4.7763  -3.9954  -3.2830  -2.9554  -2.4892  -1.7481  -1.6875
    -1.2870  -0.8517  -0.6957  -0.5227  -0.4016  -0.3137   0.1459   0.2469
     0.3008   0.4268   0.5033   0.6692   0.8214   0.9175   0.9564   1.1114
     1.2626   1.3235   1.4063   1.5932   1.6601   1.7118   1.8734   1.9352
     2.0608   2.1409   2.2982   2.4320   2.5504   2.8108   2.9980   3.2161
     3.2758   3.4068   3.5539

          k =-0.0837 0.1128-0.0000 ( 19521 PWs)   bands (ev):

   -65.9883 -65.9354 -65.8635 -65.8480 -65.8362 -65.8205 -65.8083 -65.7544
   -65.7130 -65.6917 -65.6671 -65.6187 -32.5539 -32.5364 -32.5156 -32.4849
   -32.4506 -32.4327 -32.4202 -32.3992 -32.3675 -32.3584 -32.3459 -32.3161
   -32.2922 -32.2575 -32.2146 -32.1980 -32.1615 -32.1276 -32.0983 -32.0943
   -32.0600 -32.0348 -32.0139 -31.9946 -31.9757 -31.9561 -31.9345 -31.9189
   -31.9041 -31.8771 -31.8618 -31.8340 -31.7990 -31.7746 -31.7251 -31.6530
   -10.5529  -4.8951  -3.9048  -3.2444  -2.9273  -2.4534  -1.8169  -1.6073
    -1.1377  -1.0405  -0.5868  -0.5120  -0.4127  -0.2943   0.0029   0.2260
     0.3660   0.4297   0.4778   0.6468   0.8185   0.9038   0.9960   1.0691
     1.2523   1.3301   1.4099   1.5539   1.6842   1.7311   1.8682   1.9244
     2.0193   2.1324   2.3071   2.3662   2.5342   2.7805   2.9685   3.0398
     3.3409   3.4827   3.6288

          k =-0.0837-0.0483 0.0000 ( 19532 PWs)   bands (ev):

   -65.9874 -65.9368 -65.8603 -65.8547 -65.8295 -65.8237 -65.8075 -65.7541
   -65.7150 -65.6885 -65.6693 -65.6183 -32.5452 -32.5250 -32.5114 -32.5032
   -32.4538 -32.4454 -32.4140 -32.3961 -32.3794 -32.3647 -32.3440 -32.3189
   -32.2930 -32.2316 -32.1829 -32.1753 -32.1511 -32.1271 -32.1208 -32.1188
   -32.0640 -32.0490 -32.0315 -32.0102 -31.9745 -31.9623 -31.9293 -31.9098
   -31.8926 -31.8876 -31.8823 -31.8189 -31.7771 -31.7711 -31.7315 -31.6499
   -10.5512  -4.9470  -3.8004  -3.2477  -2.9341  -2.7650  -1.6454  -1.2640
    -1.0464  -0.9138  -0.7745  -0.6031  -0.5471  -0.4018  -0.0349   0.2452
     0.4540   0.4945   0.5804   0.6056   0.7957   0.9354   1.0965   1.1328
     1.1904   1.3317   1.3751   1.6361   1.7283   1.7841   1.8373   1.8760
     1.9449   2.1224   2.1610   2.3602   2.6773   2.7082   2.7849   2.8673
     3.3090   3.6481   3.7893

     the Fermi energy is     2.4276 ev

!    total energy              =   -1733.64298934 Ry
     Harris-Foulkes estimate   =   -1733.64298976 Ry
     estimated scf accuracy    <       0.00000006 Ry

     The total energy is the sum of the following terms:

     one-electron contribution =  -11904.85253391 Ry
     hartree contribution      =    5939.12375104 Ry
     xc contribution           =    -529.03966508 Ry
     ewald contribution        =    4761.21980956 Ry
     electric field correction =       0.00015391 Ry
     smearing contrib. (-TS)   =      -0.09450486 Ry

     convergence has been achieved in  10 iterations
 
 BEEF-vdW xc energy contributions
           1 :   -465.584555224012     
           2 :    429.738357063523     
           3 :   -367.165368150043     
           4 :    292.318252232621     
           5 :   -219.686420035977     
           6 :    159.378473553573     
           7 :   -115.105546071630     
           8 :    84.9517497942896     
           9 :   -64.0715203371262     
          10 :    47.7374052104673     
          11 :   -33.3015778785547     
          12 :    20.4594931458134     
          13 :   -10.1895494157592     
          14 :    3.32320408451534     
          15 :   0.350659736230682     
          16 :   -2.06179980167849     
          17 :    3.33602565496295     
          18 :   -5.14872437038309     
          19 :    7.49613183557233     
          20 :   -9.59630489094513     
          21 :    10.5325062168250     
          22 :   -9.91228122391738     
          23 :    8.14715225036173     
          24 :   -6.21669506626000     
          25 :    5.09820785475489     
          26 :   -5.22676621865594     
          27 :    6.30184070992129     
          28 :   -7.52633094341820     
          29 :    8.10313214318899     
          30 :   -7.67948595608721     
          31 :   -41.7947495731878     
          32 :   -31.0372746527557     

     Forces acting on atoms (Ry/au):


     negative rho (up, down):  1.182E+00 0.000E+00
     atom    1 type  1   force =     0.00071382   -0.00034037    0.00342146
     atom    2 type  1   force =     0.00052249   -0.00096296    0.00351840
     atom    3 type  1   force =     0.00062574   -0.00031756    0.00473979
     atom    4 type  1   force =     0.00184242   -0.00224149    0.00493343
     atom    5 type  1   force =    -0.01886271   -0.00705023   -0.01361080
     atom    6 type  1   force =    -0.00189373    0.02364365   -0.01738384
     atom    7 type  1   force =     0.02067769   -0.00974527    0.00165224
     atom    8 type  1   force =     0.00639793   -0.00214266    0.01271100
     atom    9 type  1   force =    -0.00160590   -0.00003676    0.00107137
     atom   10 type  1   force =    -0.00306021    0.00391022    0.00181282
     atom   11 type  1   force =    -0.00159027    0.00433511   -0.00212103
     atom   12 type  1   force =    -0.00212885   -0.00329393    0.00078416
     atom   13 type  2   force =    -0.00260573    0.00026516   -0.00051872
     atom   14 type  3   force =     0.00157817   -0.00156415    0.00182393
     atom   15 type  3   force =    -0.00074542   -0.00070212   -0.00126129
     atom   16 type  3   force =     0.00013455   -0.00375662   -0.00157293

     Total force =     0.010398     Total SCF correction =     0.000439


     entering subroutine stress ...


     negative rho (up, down):  1.182E+00 0.000E+00
          total   stress  (Ry/bohr**3)                   (kbar)     P=  -22.97
  -0.00022143   0.00000901  -0.00001271        -32.57      1.33     -1.87
   0.00000901  -0.00018352  -0.00000017          1.33    -27.00     -0.02
  -0.00001271  -0.00000017  -0.00006346         -1.87     -0.02     -9.33


     number of scf cycles    =  50
     number of bfgs steps    =  49

     energy   old            =   -1733.6427325628 Ry
     energy   new            =   -1733.6429893397 Ry

     CASE: energy  _new < energy  _old

     new trust radius        =       0.1071423025 bohr

     The maximum number of steps has been reached.

     End of BFGS Geometry Optimization
Begin final coordinates

ATOMIC_POSITIONS (crystal)
Ta1     -0.000000000   0.000000000   0.401991699    0   0   0
Ta1     -0.000000000   0.500000000   0.401991699    0   0   0
Ta1      0.500000000   0.000000000   0.401991699    0   0   0
Ta1      0.500000000   0.500000000   0.401991699    0   0   0
Ta1      0.666666667   0.666666667   0.500000000    0   0   0
Ta1      0.666666667   0.166666667   0.500000000    0   0   0
Ta1      0.166666667   0.666666667   0.500000000    0   0   0
Ta1      0.166666667   0.166666667   0.500000000    0   0   0
Ta1      0.298667826   0.359709585   0.600627362
Ta1      0.299897768   0.861294748   0.599170857
Ta1      0.812224440   0.352155254   0.598819169
Ta1      0.794766614   0.861025705   0.588010129
C1       0.466043979   0.528231713   0.655680762
H1       0.466789713   0.662233758   0.686080865
H1       0.414916392   0.403472198   0.680578354
H1       0.132705764   0.196655319   0.645095860
End final coordinates



     Writing output data file calc.save
 
     init_run     :      5.84s CPU      6.01s WALL (       1 calls)
     electrons    :   7229.64s CPU   7381.61s WALL (      50 calls)
     update_pot   :     41.02s CPU     42.97s WALL (      49 calls)
     forces       :    224.39s CPU    228.42s WALL (      50 calls)
     stress       :    752.79s CPU    759.73s WALL (      50 calls)

     Called by init_run:
     wfcinit      :      4.10s CPU      4.18s WALL (       1 calls)
     potinit      :      0.49s CPU      0.54s WALL (       1 calls)

     Called by electrons:
     c_bands      :   5133.51s CPU   5206.25s WALL (     601 calls)
     sum_band     :    978.33s CPU    997.35s WALL (     601 calls)
     v_of_rho     :    198.53s CPU    223.84s WALL (     647 calls)
     newd         :    468.03s CPU    478.83s WALL (     647 calls)
     mix_rho      :      6.67s CPU      7.19s WALL (     601 calls)
     vdW_energy   :    165.40s CPU    178.23s WALL (    2447 calls)
     vdW_ffts     :    221.58s CPU    243.52s WALL (    4994 calls)
     vdW_v        :    104.80s CPU    108.02s WALL (    2447 calls)

     Called by c_bands:
     init_us_2    :     52.66s CPU     53.20s WALL (   26060 calls)
     cegterg      :   4759.37s CPU   4830.57s WALL (   12020 calls)

     Called by *egterg:
     h_psi        :   2564.01s CPU   2610.46s WALL (   57978 calls)
     s_psi        :    352.35s CPU    353.04s WALL (   57978 calls)
     g_psi        :     10.28s CPU     10.35s WALL (   45938 calls)
     cdiaghg      :    809.48s CPU    824.16s WALL (   56898 calls)

     Called by h_psi:
     add_vuspsi   :    356.74s CPU    357.59s WALL (   57978 calls)

     General routines
     calbec       :    513.64s CPU    535.04s WALL (   71998 calls)
     fft          :    370.65s CPU    403.05s WALL (  147917 calls)
     ffts         :      0.89s CPU      0.96s WALL (    1248 calls)
     fftw         :   1847.52s CPU   1878.22s WALL ( 6815380 calls)
     interpolate  :      4.41s CPU      4.88s WALL (    1248 calls)
     davcio       :      0.00s CPU      0.02s WALL (      20 calls)
 
     Parallel routines
     fft_scatter  :    970.68s CPU   1016.69s WALL ( 6964545 calls)
 
     PWSCF        :     2h18m CPU        2h21m WALL

 
   This run was terminated on:  20:52:53   9May2018            

=------------------------------------------------------------------------------=
   JOB DONE.
=------------------------------------------------------------------------------=
