  python dir          : /u/if/mamunm/src/espresso
  espresso dir        : /nfs/slac/g/suncatfs/sw/espv18/espresso-dynpy-beef/bin
  pseudo dir          : /u/if/mamunm/psp/gbrv1.5pbe
  ase-espresso py git : GITVERSION



     Program PWSCF v.5.1rc2 (svn rev. 11289) starts on 18Apr2018 at 22:13:17 

     This program is part of the open-source Quantum ESPRESSO suite
     for quantum simulation of materials; please cite
         "P. Giannozzi et al., J. Phys.:Condens. Matter 21 395502 (2009);
          URL http://www.quantum-espresso.org", 
     in publications or presentations arising from this work. More details at
     http://www.quantum-espresso.org/quote

     Parallel version (MPI), running on    32 processors
     K-points division:     npool     =       4
     R & G space division:  proc/nbgrp/npool/nimage =       8
     Reading input from pw.inp
     Message from routine read_cards :
     DEPRECATED: no units specified in CELL_PARAMETERS card

     Current dimensions of program PWSCF are:
     Max number of different atomic species (ntypx) = 10
     Max number of k-points (npk) =  40000
     Max angular momentum in pseudopotentials (lmaxx) =  3
     Presently stress not available with electric field


     **************************************************************************
     Initializing libbeef V0.1.1 with the BEEF-vdW functional.
     Citation: Wellendorff et al., PRB 85, 235149 (2012).
     **************************************************************************


     IMPORTANT: XC functional enforced from input :
     Exchange-correlation      = BEEF-VDW ( 1  4 27 13 2)
     Any further DFT definition will be discarded
     Please, verify this is what you really want


     Subspace diagonalization in iterative solution of the eigenvalue problem:
     a serial algorithm will be used

 
     Parallelization info
     --------------------
     sticks:   dense  smooth     PW     G-vecs:    dense   smooth      PW
     Min         630     253     71               126464    31969    4789
     Max         631     254     73               126473    31991    4796
     Sum        5041    2029    571              1011733   255863   38327
 


     bravais-lattice index     =            0
     lattice parameter (alat)  =       1.8897  a.u.
     unit-cell volume          =    8507.0471 (a.u.)^3
     number of atoms/cell      =           14
     number of atomic types    =            3
     number of electrons       =       139.00
     number of Kohn-Sham states=           79
     kinetic-energy cutoff     =      36.7493  Ry
     charge density cutoff     =     367.4932  Ry
     convergence threshold     =      1.0E-05
     mixing beta               =       0.3000
     number of iterations used =           10  plain     mixing
     Exchange-correlation      = BEEF-VDW ( 1  4 27 13 2)
     nstep                     =           50


     celldm(1)=   1.889726  celldm(2)=   0.000000  celldm(3)=   0.000000
     celldm(4)=   0.000000  celldm(5)=   0.000000  celldm(6)=   0.000000

     crystal axes: (cart. coord. in units of alat)
               a(1) = (   7.468327   0.000000   0.000000 )  
               a(2) = (   3.734164   6.467761   0.000000 )  
               a(3) = (   0.000000   0.000000  26.097863 )  

     reciprocal axes: (cart. coord. in units 2 pi/alat)
               b(1) = (  0.133899 -0.077307  0.000000 )  
               b(2) = (  0.000000  0.154613  0.000000 )  
               b(3) = (  0.000000  0.000000  0.038317 )  


     PseudoPot. # 1 for La read from file:
     /u/if/mamunm/psp/gbrv1.5pbe/La.UPF
     MD5 check sum: 5937b0c7494ba0601a847275249473aa
     Pseudo is Ultrasoft + core correction, Zval = 11.0
     Generated by new atomic code, or converted to UPF format
     Using radial grid of  995 points,  8 beta functions with: 
                l(1) =   0
                l(2) =   0
                l(3) =   1
                l(4) =   1
                l(5) =   2
                l(6) =   2
                l(7) =   3
                l(8) =   3
     Q(r) pseudized with  8 coefficients,  rinner =    1.700   1.700   1.700
                                                       1.700   1.700   1.700
                                                       1.700

     PseudoPot. # 2 for S  read from file:
     /u/if/mamunm/psp/gbrv1.5pbe/S.UPF
     MD5 check sum: 88d86576ff6df21479756cfb9bdac1df
     Pseudo is Ultrasoft + core correction, Zval =  6.0
     Generated by new atomic code, or converted to UPF format
     Using radial grid of  907 points,  6 beta functions with: 
                l(1) =   0
                l(2) =   0
                l(3) =   1
                l(4) =   1
                l(5) =   2
                l(6) =   2
     Q(r) pseudized with  8 coefficients,  rinner =    1.300   1.300   1.300
                                                       1.300   1.300

     PseudoPot. # 3 for H  read from file:
     /u/if/mamunm/psp/gbrv1.5pbe/H.UPF
     MD5 check sum: 761ae9a214b05c3daf00ab9f6b793d6f
     Pseudo is Ultrasoft, Zval =  1.0
     Generated by new atomic code, or converted to UPF format
     Using radial grid of  615 points,  2 beta functions with: 
                l(1) =   0
                l(2) =   0
     Q(r) pseudized with  8 coefficients,  rinner =    0.700

     vdW kernel table read from file vdW_kernel_table
     MD5 check sum: 095c7af220d748ca6e76c0b4c6cfb241

     atomic species   valence    mass     pseudopotential
        La1           11.00   138.90547     La( 1.00)
        S1             6.00    32.06000     S ( 1.00)
        H1             1.00     1.00800     H ( 1.00)

     No symmetry found



   Cartesian axes

     site n.     atom                  positions (alat units)
         1           La1 tau(   1) = (   1.8670818   1.0779602  10.0000000  )
         2           La1 tau(   2) = (   5.6012453   1.0779602  10.0000000  )
         3           La1 tau(   3) = (   3.7341635   4.3118406  10.0000000  )
         4           La1 tau(   4) = (   7.4683270   4.3118406  10.0000000  )
         5           La1 tau(   5) = (   7.4683270   2.1559203  13.0489317  )
         6           La1 tau(   6) = (   3.7341635   2.1559203  13.0489317  )
         7           La1 tau(   7) = (   9.3354088   5.3898008  13.0489317  )
         8           La1 tau(   8) = (   5.6012453   5.3898008  13.0489317  )
         9           La1 tau(   9) = (   0.0000000   0.0000000  16.0978635  )
        10           La1 tau(  10) = (   3.7341635   0.0000000  16.0978635  )
        11           La1 tau(  11) = (   1.8670818   3.2338805  16.0978635  )
        12           La1 tau(  12) = (   5.6012453   3.2338805  16.0978635  )
        13           S1  tau(  13) = (   3.7341635   2.1559203  18.1258635  )
        14           H1  tau(  14) = (   3.7341635   2.1559203  19.3758635  )

     number of k points=    20  Fermi-Dirac smearing, width (Ry)=  0.0110
                       cart. coord. in units 2pi/alat
        k(    1) = (   0.0000000   0.0000000   0.0000000), wk =   0.0555556
        k(    2) = (   0.0000000   0.0257688   0.0000000), wk =   0.1111111
        k(    3) = (   0.0000000   0.0515377   0.0000000), wk =   0.1111111
        k(    4) = (   0.0000000  -0.0773065   0.0000000), wk =   0.0555556
        k(    5) = (   0.0223165  -0.0128844   0.0000000), wk =   0.1111111
        k(    6) = (   0.0223165   0.0128844   0.0000000), wk =   0.1111111
        k(    7) = (   0.0223165   0.0386533   0.0000000), wk =   0.1111111
        k(    8) = (   0.0223165  -0.0901909   0.0000000), wk =   0.1111111
        k(    9) = (   0.0223165  -0.0644221   0.0000000), wk =   0.1111111
        k(   10) = (   0.0223165  -0.0386533   0.0000000), wk =   0.1111111
        k(   11) = (   0.0446329  -0.0257688   0.0000000), wk =   0.1111111
        k(   12) = (   0.0446329   0.0000000   0.0000000), wk =   0.1111111
        k(   13) = (   0.0446329   0.0257688   0.0000000), wk =   0.1111111
        k(   14) = (   0.0446329  -0.1030753   0.0000000), wk =   0.1111111
        k(   15) = (   0.0446329  -0.0773065   0.0000000), wk =   0.1111111
        k(   16) = (   0.0446329  -0.0515377   0.0000000), wk =   0.1111111
        k(   17) = (  -0.0669494   0.0386533   0.0000000), wk =   0.0555556
        k(   18) = (  -0.0669494   0.0644221   0.0000000), wk =   0.1111111
        k(   19) = (  -0.0669494   0.0901909   0.0000000), wk =   0.1111111
        k(   20) = (  -0.0669494  -0.0386533   0.0000000), wk =   0.0555556

     Dense  grid:  1011733 G-vectors     FFT dimensions: (  90,  90, 320)

     Smooth grid:   255863 G-vectors     FFT dimensions: (  60,  60, 192)

     Largest allocated arrays     est. size (Mb)     dimensions
        Kohn-Sham Wavefunctions         4.96 Mb     (    4116,   79)
        NL pseudopotentials            25.37 Mb     (    4116,  404)
        Each V/rho on FFT grid          4.94 Mb     (  324000)
        Each G-vector array             0.96 Mb     (  126464)
        G-vector shells                 0.24 Mb     (   31359)
     Largest temporary arrays     est. size (Mb)     dimensions
        Auxiliary wavefunctions        19.85 Mb     (    4116,  316)
        Each subspace H/S matrix        1.52 Mb     (     316,  316)
        Each <psi_i|beta_j> matrix      0.49 Mb     (     404,   79)
        Arrays for rho mixing          49.44 Mb     (  324000,   10)

     Initial potential from superposition of free atoms
     Check: negative starting charge=   -0.830900

     starting charge  138.61513, renormalised to  139.00000

     negative rho (up, down):  8.332E-01 0.000E+00


     ************************************************************************
     *
     * You are using vdW-DF for exchange-correlation in this calculation.
     * Please cite the following three references that made this development
     * possible:
     *
     *   M. Dion, H. Rydberg, E. Schroder, D. C. Langreth, and
     *   B. I. Lundqvist, Phys. Rev. Lett. 92, 246401 (2004).
     *
     *   T. Thonhauser, V. R. Cooper, S. Li, A. Puzder, P. Hyldgaard, and
     *   D. C. Langreth, Phys. Rev. B 76, 125112 (2007).
     *
     *   G. Roman-Perez and J. M. Soler, Phys. Rev. Lett. 103, 096102 (2009).
     *
     *
     * If you are using vdW-DF2, please also cite:
     *
     *   K. Lee, E. D. Murray, L. Kong, B. I. Lundqvist, and
     *   D. C. Langreth, Phys. Rev. B 82, 081101(R) (2010).
     *
     *
     * If you are calculating the stress with vdW-DF, please also cite:
     *
     *   R. Sabatini, E. Kucukbenli, B. Kolb, T. Thonhauser, and
     *   S. de Gironcoli, J. Phys.: Condens. Matter 24, 424209 (2012).
     *
     ************************************************************************

     Carrying out vdW-DF run using the following parameters:

     Nqs =      20    Nr_points =    1024   r_max =   100.000
     q_mesh =
               0.00001000     0.04494208     0.09755937     0.15916263
               0.23128650     0.31572767     0.41458969     0.53033537
               0.66584808     0.82450364     1.01025438     1.22772762
               1.48234092     1.78043706     2.12944203     2.53805004
               3.01644009     3.57652955     4.23227104     5.00000000

     Gradients computed in reciprocal space

     ************************************************************************


 
     Adding external electric field

     Computed dipole along edir(3) : 
        Dipole               -0.1926 Ry au,         -0.4895 Debye
        Dipole field         -0.0003 Ry au
 
        Potential amp.        0.0274 Ry
        Total length         48.0849 bohr
 
     Starting wfc are  245 randomized atomic wfcs

     total cpu time spent up to now is       46.7 secs

     per-process dynamical memory:   135.5 Mb

     Self-consistent Calculation

     iteration #  1     ecut=    36.75 Ry     beta=0.30
     Davidson diagonalization with overlap
     ethr =  1.00E-02,  avg # of iterations =  2.0

     negative rho (up, down):  7.087E-01 0.000E+00
 
     Adding external electric field

     Computed dipole along edir(3) : 
        Dipole                0.2001 Ry au,          0.5085 Debye
        Dipole field          0.0003 Ry au
 
        Potential amp.       -0.0284 Ry
        Total length         48.0849 bohr
 

     total cpu time spent up to now is      105.5 secs

     total energy              =   -1270.98900034 Ry
     Harris-Foulkes estimate   =   -1274.75191517 Ry
     estimated scf accuracy    <       7.83889446 Ry

     iteration #  2     ecut=    36.75 Ry     beta=0.30
     Davidson diagonalization with overlap
     ethr =  5.64E-03,  avg # of iterations =  8.0

     negative rho (up, down):  6.549E-01 0.000E+00
 
     Adding external electric field

     Computed dipole along edir(3) : 
        Dipole               -1.9398 Ry au,         -4.9305 Debye
        Dipole field         -0.0029 Ry au
 
        Potential amp.        0.2756 Ry
        Total length         48.0849 bohr
 

     total cpu time spent up to now is      179.6 secs

     total energy              =   -1270.87326040 Ry
     Harris-Foulkes estimate   =   -1279.37306146 Ry
     estimated scf accuracy    <      58.49125377 Ry

     iteration #  3     ecut=    36.75 Ry     beta=0.30
     Davidson diagonalization with overlap
     ethr =  5.64E-03,  avg # of iterations =  7.7

     negative rho (up, down):  6.464E-01 0.000E+00
 
     Adding external electric field

     Computed dipole along edir(3) : 
        Dipole               -0.3394 Ry au,         -0.8625 Debye
        Dipole field         -0.0005 Ry au
 
        Potential amp.        0.0482 Ry
        Total length         48.0849 bohr
 

     total cpu time spent up to now is      250.2 secs

     total energy              =   -1272.81743832 Ry
     Harris-Foulkes estimate   =   -1275.26250460 Ry
     estimated scf accuracy    <     113.85097795 Ry

     iteration #  4     ecut=    36.75 Ry     beta=0.30
     Davidson diagonalization with overlap
     ethr =  5.64E-03,  avg # of iterations =  4.6

     negative rho (up, down):  6.478E-01 0.000E+00
 
     Adding external electric field

     Computed dipole along edir(3) : 
        Dipole               -0.2197 Ry au,         -0.5585 Debye
        Dipole field         -0.0003 Ry au
 
        Potential amp.        0.0312 Ry
        Total length         48.0849 bohr
 

     total cpu time spent up to now is      312.9 secs

     total energy              =   -1273.81792672 Ry
     Harris-Foulkes estimate   =   -1273.91201798 Ry
     estimated scf accuracy    <       7.25891857 Ry

     iteration #  5     ecut=    36.75 Ry     beta=0.30
     Davidson diagonalization with overlap
     ethr =  5.22E-03,  avg # of iterations =  1.0

     negative rho (up, down):  6.336E-01 0.000E+00
 
     Adding external electric field

     Computed dipole along edir(3) : 
        Dipole                0.5062 Ry au,          1.2865 Debye
        Dipole field          0.0007 Ry au
 
        Potential amp.       -0.0719 Ry
        Total length         48.0849 bohr
 

     total cpu time spent up to now is      372.6 secs

     total energy              =   -1273.52453964 Ry
     Harris-Foulkes estimate   =   -1273.87454562 Ry
     estimated scf accuracy    <       5.55601860 Ry

     iteration #  6     ecut=    36.75 Ry     beta=0.30
     Davidson diagonalization with overlap
     ethr =  4.00E-03,  avg # of iterations =  6.0

     negative rho (up, down):  6.237E-01 0.000E+00
 
     Adding external electric field

     Computed dipole along edir(3) : 
        Dipole                0.2217 Ry au,          0.5635 Debye
        Dipole field          0.0003 Ry au
 
        Potential amp.       -0.0315 Ry
        Total length         48.0849 bohr
 

     total cpu time spent up to now is      436.9 secs

     total energy              =   -1273.84081744 Ry
     Harris-Foulkes estimate   =   -1273.87703546 Ry
     estimated scf accuracy    <       1.08323640 Ry

     iteration #  7     ecut=    36.75 Ry     beta=0.30
     Davidson diagonalization with overlap
     ethr =  7.79E-04,  avg # of iterations =  9.8

     negative rho (up, down):  6.227E-01 0.000E+00
 
     Adding external electric field

     Computed dipole along edir(3) : 
        Dipole                0.2116 Ry au,          0.5379 Debye
        Dipole field          0.0003 Ry au
 
        Potential amp.       -0.0301 Ry
        Total length         48.0849 bohr
 

     total cpu time spent up to now is      507.9 secs

     total energy              =   -1273.99236846 Ry
     Harris-Foulkes estimate   =   -1273.99519888 Ry
     estimated scf accuracy    <       3.85554009 Ry

     iteration #  8     ecut=    36.75 Ry     beta=0.30
     Davidson diagonalization with overlap
     ethr =  7.79E-04,  avg # of iterations =  3.5

     negative rho (up, down):  6.224E-01 0.000E+00
 
     Adding external electric field

     Computed dipole along edir(3) : 
        Dipole                0.1545 Ry au,          0.3927 Debye
        Dipole field          0.0002 Ry au
 
        Potential amp.       -0.0219 Ry
        Total length         48.0849 bohr
 

     total cpu time spent up to now is      568.4 secs

     total energy              =   -1273.97850177 Ry
     Harris-Foulkes estimate   =   -1273.99890293 Ry
     estimated scf accuracy    <       3.84906815 Ry

     iteration #  9     ecut=    36.75 Ry     beta=0.30
     Davidson diagonalization with overlap
     ethr =  7.79E-04,  avg # of iterations =  1.0

     negative rho (up, down):  6.102E-01 0.000E+00
 
     Adding external electric field

     Computed dipole along edir(3) : 
        Dipole               -0.1052 Ry au,         -0.2674 Debye
        Dipole field         -0.0002 Ry au
 
        Potential amp.        0.0149 Ry
        Total length         48.0849 bohr
 

     total cpu time spent up to now is      628.2 secs

     total energy              =   -1273.89842904 Ry
     Harris-Foulkes estimate   =   -1273.98237497 Ry
     estimated scf accuracy    <       3.14483940 Ry

     iteration # 10     ecut=    36.75 Ry     beta=0.30
     Davidson diagonalization with overlap
     ethr =  7.79E-04,  avg # of iterations =  3.5

     negative rho (up, down):  6.013E-01 0.000E+00
 
     Adding external electric field

     Computed dipole along edir(3) : 
        Dipole                0.0282 Ry au,          0.0717 Debye
        Dipole field          0.0000 Ry au
 
        Potential amp.       -0.0040 Ry
        Total length         48.0849 bohr
 

     total cpu time spent up to now is      692.9 secs

     total energy              =   -1273.93117416 Ry
     Harris-Foulkes estimate   =   -1273.94039666 Ry
     estimated scf accuracy    <       0.25914191 Ry

     iteration # 11     ecut=    36.75 Ry     beta=0.30
     Davidson diagonalization with overlap
     ethr =  1.86E-04,  avg # of iterations =  5.9

     negative rho (up, down):  5.928E-01 0.000E+00
 
     Adding external electric field

     Computed dipole along edir(3) : 
        Dipole                0.1181 Ry au,          0.3001 Debye
        Dipole field          0.0002 Ry au
 
        Potential amp.       -0.0168 Ry
        Total length         48.0849 bohr
 

     total cpu time spent up to now is      760.1 secs

     total energy              =   -1273.93398897 Ry
     Harris-Foulkes estimate   =   -1273.93940938 Ry
     estimated scf accuracy    <       0.10445896 Ry

     iteration # 12     ecut=    36.75 Ry     beta=0.30
     Davidson diagonalization with overlap
     ethr =  7.52E-05,  avg # of iterations =  9.2

     negative rho (up, down):  5.927E-01 0.000E+00
 
     Adding external electric field

     Computed dipole along edir(3) : 
        Dipole                0.0678 Ry au,          0.1722 Debye
        Dipole field          0.0001 Ry au
 
        Potential amp.       -0.0096 Ry
        Total length         48.0849 bohr
 

     total cpu time spent up to now is      831.5 secs

     total energy              =   -1273.93977115 Ry
     Harris-Foulkes estimate   =   -1273.94077264 Ry
     estimated scf accuracy    <       0.00954621 Ry

     iteration # 13     ecut=    36.75 Ry     beta=0.30
     Davidson diagonalization with overlap
     ethr =  6.87E-06,  avg # of iterations = 14.2

     negative rho (up, down):  5.905E-01 0.000E+00
 
     Adding external electric field

     Computed dipole along edir(3) : 
        Dipole                0.0355 Ry au,          0.0902 Debye
        Dipole field          0.0001 Ry au
 
        Potential amp.       -0.0050 Ry
        Total length         48.0849 bohr
 

     total cpu time spent up to now is      912.3 secs

     total energy              =   -1273.94190321 Ry
     Harris-Foulkes estimate   =   -1273.94261831 Ry
     estimated scf accuracy    <       0.03480636 Ry

     iteration # 14     ecut=    36.75 Ry     beta=0.30
     Davidson diagonalization with overlap
     ethr =  6.87E-06,  avg # of iterations =  2.8

     negative rho (up, down):  5.864E-01 0.000E+00
 
     Adding external electric field

     Computed dipole along edir(3) : 
        Dipole                0.0685 Ry au,          0.1742 Debye
        Dipole field          0.0001 Ry au
 
        Potential amp.       -0.0097 Ry
        Total length         48.0849 bohr
 

     total cpu time spent up to now is      977.2 secs

     total energy              =   -1273.94105590 Ry
     Harris-Foulkes estimate   =   -1273.94213257 Ry
     estimated scf accuracy    <       0.02908929 Ry

     iteration # 15     ecut=    36.75 Ry     beta=0.30
     Davidson diagonalization with overlap
     ethr =  6.87E-06,  avg # of iterations =  7.7

     negative rho (up, down):  5.863E-01 0.000E+00
 
     Adding external electric field

     Computed dipole along edir(3) : 
        Dipole                0.0942 Ry au,          0.2394 Debye
        Dipole field          0.0001 Ry au
 
        Potential amp.       -0.0134 Ry
        Total length         48.0849 bohr
 

     total cpu time spent up to now is     1050.8 secs

     total energy              =   -1273.94160393 Ry
     Harris-Foulkes estimate   =   -1273.94190753 Ry
     estimated scf accuracy    <       0.00376504 Ry

     iteration # 16     ecut=    36.75 Ry     beta=0.30
     Davidson diagonalization with overlap
     ethr =  2.71E-06,  avg # of iterations =  8.7

     negative rho (up, down):  5.860E-01 0.000E+00
 
     Adding external electric field

     Computed dipole along edir(3) : 
        Dipole                0.0799 Ry au,          0.2030 Debye
        Dipole field          0.0001 Ry au
 
        Potential amp.       -0.0113 Ry
        Total length         48.0849 bohr
 

     total cpu time spent up to now is     1121.9 secs

     total energy              =   -1273.94168543 Ry
     Harris-Foulkes estimate   =   -1273.94186165 Ry
     estimated scf accuracy    <       0.00246573 Ry

     iteration # 17     ecut=    36.75 Ry     beta=0.30
     Davidson diagonalization with overlap
     ethr =  1.77E-06,  avg # of iterations =  3.1

     negative rho (up, down):  5.854E-01 0.000E+00
 
     Adding external electric field

     Computed dipole along edir(3) : 
        Dipole                0.0775 Ry au,          0.1971 Debye
        Dipole field          0.0001 Ry au
 
        Potential amp.       -0.0110 Ry
        Total length         48.0849 bohr
 

     total cpu time spent up to now is     1186.7 secs

     total energy              =   -1273.94172103 Ry
     Harris-Foulkes estimate   =   -1273.94176031 Ry
     estimated scf accuracy    <       0.00022143 Ry

     iteration # 18     ecut=    36.75 Ry     beta=0.30
     Davidson diagonalization with overlap
     ethr =  1.59E-07,  avg # of iterations = 10.4

     negative rho (up, down):  5.851E-01 0.000E+00
 
     Adding external electric field

     Computed dipole along edir(3) : 
        Dipole                0.0799 Ry au,          0.2031 Debye
        Dipole field          0.0001 Ry au
 
        Potential amp.       -0.0114 Ry
        Total length         48.0849 bohr
 

     total cpu time spent up to now is     1266.8 secs

     total energy              =   -1273.94180437 Ry
     Harris-Foulkes estimate   =   -1273.94183451 Ry
     estimated scf accuracy    <       0.00018453 Ry

     iteration # 19     ecut=    36.75 Ry     beta=0.30
     Davidson diagonalization with overlap
     ethr =  1.33E-07,  avg # of iterations =  4.7

     negative rho (up, down):  5.852E-01 0.000E+00
 
     Adding external electric field

     Computed dipole along edir(3) : 
        Dipole                0.0805 Ry au,          0.2046 Debye
        Dipole field          0.0001 Ry au
 
        Potential amp.       -0.0114 Ry
        Total length         48.0849 bohr
 

     total cpu time spent up to now is     1332.6 secs

     total energy              =   -1273.94180374 Ry
     Harris-Foulkes estimate   =   -1273.94181320 Ry
     estimated scf accuracy    <       0.00005599 Ry

     iteration # 20     ecut=    36.75 Ry     beta=0.30
     Davidson diagonalization with overlap
     ethr =  4.03E-08,  avg # of iterations =  6.2

     negative rho (up, down):  5.852E-01 0.000E+00
 
     Adding external electric field

     Computed dipole along edir(3) : 
        Dipole                0.0806 Ry au,          0.2049 Debye
        Dipole field          0.0001 Ry au
 
        Potential amp.       -0.0115 Ry
        Total length         48.0849 bohr
 

     total cpu time spent up to now is     1404.0 secs

     total energy              =   -1273.94181270 Ry
     Harris-Foulkes estimate   =   -1273.94181211 Ry
     estimated scf accuracy    <       0.00001135 Ry

     iteration # 21     ecut=    36.75 Ry     beta=0.30
     Davidson diagonalization with overlap
     ethr =  8.16E-09,  avg # of iterations =  7.6

     negative rho (up, down):  5.856E-01 0.000E+00

     negative rho (up, down):  5.856E-01 0.000E+00

     negative rho (up, down):  5.856E-01 0.000E+00

     negative rho (up, down):  5.856E-01 0.000E+00

     negative rho (up, down):  5.856E-01 0.000E+00

     negative rho (up, down):  5.856E-01 0.000E+00

     negative rho (up, down):  5.856E-01 0.000E+00

     negative rho (up, down):  5.856E-01 0.000E+00

     negative rho (up, down):  5.856E-01 0.000E+00

     negative rho (up, down):  5.856E-01 0.000E+00

     negative rho (up, down):  5.856E-01 0.000E+00

     negative rho (up, down):  5.856E-01 0.000E+00

     negative rho (up, down):  5.856E-01 0.000E+00

     negative rho (up, down):  5.856E-01 0.000E+00

     negative rho (up, down):  5.856E-01 0.000E+00

     negative rho (up, down):  5.856E-01 0.000E+00

     negative rho (up, down):  5.856E-01 0.000E+00

     negative rho (up, down):  5.856E-01 0.000E+00

     negative rho (up, down):  5.856E-01 0.000E+00

     negative rho (up, down):  5.856E-01 0.000E+00

     negative rho (up, down):  5.856E-01 0.000E+00

     negative rho (up, down):  5.856E-01 0.000E+00

     negative rho (up, down):  5.856E-01 0.000E+00

     negative rho (up, down):  5.856E-01 0.000E+00

     negative rho (up, down):  5.856E-01 0.000E+00

     negative rho (up, down):  5.856E-01 0.000E+00

     negative rho (up, down):  5.856E-01 0.000E+00

     negative rho (up, down):  5.856E-01 0.000E+00

     negative rho (up, down):  5.856E-01 0.000E+00

     negative rho (up, down):  5.856E-01 0.000E+00

     negative rho (up, down):  5.856E-01 0.000E+00

     negative rho (up, down):  5.856E-01 0.000E+00

     negative rho (up, down):  5.856E-01 0.000E+00

     negative rho (up, down):  5.856E-01 0.000E+00

     negative rho (up, down):  5.856E-01 0.000E+00
 
     Adding external electric field

     Computed dipole along edir(3) : 
        Dipole                0.0975 Ry au,          0.2477 Debye
        Dipole field          0.0001 Ry au
 
        Potential amp.       -0.0138 Ry
        Total length         48.0849 bohr
 

     total cpu time spent up to now is     1568.9 secs

     End of self-consistent calculation

          k = 0.0000 0.0000 0.0000 ( 31997 PWs)   bands (ev):

   -31.2575 -31.2468 -31.1244 -31.1233 -31.1229 -31.1190 -31.0514 -31.0513
   -30.7930 -30.6742 -30.6702 -30.6699 -15.4287 -15.3590 -15.3589 -15.3187
   -15.2893 -15.2893 -15.2108 -15.1127 -15.0976 -15.0974 -14.9383 -14.7909
   -14.7283 -14.7281 -14.5983 -14.5607 -14.5607 -14.5194 -14.5193 -14.5149
   -14.4913 -14.4913 -14.4562 -14.2609 -14.2609 -14.2278 -14.2278 -14.1841
   -14.1733 -14.1730 -14.1593 -14.0706 -14.0706 -14.0704 -13.8428 -13.8427
   -12.4040  -5.1248  -1.5830  -1.5830  -0.6560   0.0592   0.4058   0.4472
     0.4472   0.5663   0.7251   0.8166   0.8166   0.9717   0.9859   0.9860
     1.0586   1.0587   1.1210   1.8787   1.8787   1.9679   2.2582   2.4809
     2.6549   2.6549   2.9124   2.9948   3.1943   3.3012   3.3051

          k = 0.0000 0.0258 0.0000 ( 32061 PWs)   bands (ev):

   -31.2492 -31.2407 -31.1326 -31.1238 -31.1233 -31.1192 -31.0574 -31.0513
   -30.7850 -30.6802 -30.6725 -30.6699 -15.3843 -15.3230 -15.3057 -15.2759
   -15.2543 -15.2323 -15.1870 -15.0847 -15.0695 -15.0610 -14.9309 -14.8113
   -14.7564 -14.7411 -14.5844 -14.5643 -14.5614 -14.5508 -14.5487 -14.5344
   -14.5177 -14.4990 -14.4604 -14.3499 -14.3200 -14.2786 -14.2450 -14.1740
   -14.1657 -14.1643 -14.1335 -14.1108 -14.1100 -14.0557 -13.9161 -13.8584
   -12.3981  -5.1124  -1.5947  -1.5735  -0.4709   0.2407   0.5497   0.5870
     0.6006   0.7066   0.7985   0.9137   0.9592   1.0530   1.1273   1.1581
     1.1643   1.1870   1.2472   1.9127   1.9387   1.9874   2.2469   2.4854
     2.6450   2.6492   2.8209   2.8413   2.9359   3.0681   3.1101

          k = 0.0000 0.0515 0.0000 ( 32002 PWs)   bands (ev):

   -31.2310 -31.2222 -31.1572 -31.1239 -31.1234 -31.1198 -31.0705 -31.0514
   -30.7631 -30.7023 -30.6729 -30.6699 -15.2812 -15.2343 -15.1964 -15.1688
   -15.1404 -15.1255 -15.0613 -15.0247 -15.0042 -14.9865 -14.9165 -14.8636
   -14.8025 -14.7807 -14.6698 -14.6600 -14.6579 -14.6239 -14.5654 -14.5376
   -14.5195 -14.5023 -14.4824 -14.4548 -14.4217 -14.3264 -14.2910 -14.2136
   -14.2123 -14.1561 -14.1473 -14.1428 -14.1207 -14.1039 -14.0149 -13.9009
   -12.3869  -5.0879  -1.6142  -1.5557   0.0077   0.6748   0.7783   0.8270
     0.9609   1.0056   1.0819   1.2218   1.2867   1.2953   1.3929   1.5323
     1.5525   1.6360   1.6812   1.9825   1.9872   2.1119   2.1235   2.3092
     2.4230   2.5236   2.5938   2.6202   2.6911   2.7822   2.8773

          k = 0.0000-0.0773 0.0000 ( 31970 PWs)   bands (ev):

   -31.2227 -31.1906 -31.1900 -31.1239 -31.1234 -31.1204 -31.0778 -31.0514
   -30.7343 -30.7314 -30.6729 -30.6699 -15.2111 -15.1729 -15.1318 -15.1132
   -15.0740 -15.0481 -14.9916 -14.9587 -14.9329 -14.9138 -14.8579 -14.8304
   -14.8264 -14.8045 -14.8011 -14.7724 -14.7341 -14.7133 -14.7094 -14.6809
   -14.4920 -14.4682 -14.3949 -14.3900 -14.3760 -14.3365 -14.3296 -14.3242
   -14.2779 -14.2766 -14.1517 -14.1434 -14.1263 -14.1242 -13.9598 -13.9568
   -12.3815  -5.0758  -1.6228  -1.5473   0.5207   0.5683   0.9359   1.0138
     1.2655   1.2747   1.3208   1.3524   1.3600   1.5028   1.7140   1.7561
     1.8992   1.9134   1.9468   1.9747   2.1840   2.1995   2.2973   2.2992
     2.3046   2.3451   2.4443   2.4937   2.6208   2.6260   2.6598

          k = 0.0223-0.0129 0.0000 ( 32061 PWs)   bands (ev):

   -31.2492 -31.2407 -31.1326 -31.1240 -31.1231 -31.1192 -31.0574 -31.0513
   -30.7850 -30.6802 -30.6722 -30.6701 -15.3843 -15.3231 -15.3056 -15.2759
   -15.2544 -15.2323 -15.1870 -15.0848 -15.0694 -15.0611 -14.9309 -14.8112
   -14.7565 -14.7410 -14.5844 -14.5644 -14.5613 -14.5509 -14.5486 -14.5345
   -14.5177 -14.4990 -14.4604 -14.3499 -14.3200 -14.2786 -14.2450 -14.1739
   -14.1659 -14.1642 -14.1335 -14.1108 -14.1101 -14.0557 -13.9161 -13.8584
   -12.3981  -5.1124  -1.5947  -1.5735  -0.4709   0.2407   0.5497   0.5871
     0.6006   0.7066   0.7985   0.9138   0.9591   1.0530   1.1273   1.1580
     1.1642   1.1870   1.2472   1.9127   1.9387   1.9874   2.2469   2.4854
     2.6450   2.6492   2.8209   2.8413   2.9360   3.0682   3.1100

          k = 0.0223 0.0129 0.0000 ( 32061 PWs)   bands (ev):

   -31.2492 -31.2407 -31.1326 -31.1241 -31.1230 -31.1192 -31.0572 -31.0514
   -30.7850 -30.6802 -30.6722 -30.6701 -15.3843 -15.3231 -15.3056 -15.2759
   -15.2544 -15.2323 -15.1870 -15.0848 -15.0694 -15.0611 -14.9309 -14.8113
   -14.7565 -14.7410 -14.5844 -14.5644 -14.5613 -14.5509 -14.5486 -14.5344
   -14.5178 -14.4990 -14.4604 -14.3499 -14.3200 -14.2785 -14.2450 -14.1739
   -14.1659 -14.1642 -14.1335 -14.1108 -14.1101 -14.0557 -13.9161 -13.8584
   -12.3981  -5.1124  -1.5947  -1.5735  -0.4709   0.2407   0.5496   0.5871
     0.6006   0.7066   0.7985   0.9138   0.9591   1.0530   1.1273   1.1580
     1.1642   1.1870   1.2472   1.9127   1.9388   1.9874   2.2469   2.4854
     2.6450   2.6492   2.8209   2.8413   2.9359   3.0681   3.1102

          k = 0.0223 0.0387 0.0000 ( 32007 PWs)   bands (ev):

   -31.2355 -31.2287 -31.1409 -31.1399 -31.1191 -31.1158 -31.0687 -31.0502
   -30.7700 -30.6883 -30.6856 -30.6641 -15.3120 -15.2508 -15.2125 -15.2110
   -15.1685 -15.1407 -15.1347 -15.0405 -15.0182 -15.0071 -14.9195 -14.8476
   -14.8055 -14.7597 -14.6889 -14.6752 -14.5538 -14.5365 -14.5287 -14.5166
   -14.5073 -14.4946 -14.4893 -14.4817 -14.4546 -14.3160 -14.2844 -14.2276
   -14.1674 -14.1538 -14.1513 -14.1208 -14.0782 -14.0762 -14.0404 -13.8928
   -12.3896  -5.0939  -1.6068  -1.5629  -0.1353   0.5633   0.7781   0.8126
     0.8910   0.9301   0.9555   1.0155   1.2297   1.2807   1.3027   1.3486
     1.3972   1.4957   1.5894   1.9651   2.0107   2.0406   2.1817   2.4023
     2.4746   2.5461   2.5871   2.6594   2.6938   2.9266   2.9704

          k = 0.0223-0.0902 0.0000 ( 31991 PWs)   bands (ev):

   -31.2232 -31.2023 -31.1694 -31.1449 -31.1167 -31.1113 -31.0839 -31.0486
   -30.7440 -30.7135 -30.6910 -30.6600 -15.2091 -15.1498 -15.1247 -15.0895
   -15.0624 -15.0539 -14.9879 -14.9711 -14.9528 -14.9334 -14.9091 -14.8805
   -14.8597 -14.8465 -14.8098 -14.7705 -14.7155 -14.6828 -14.5897 -14.5676
   -14.4932 -14.4706 -14.4534 -14.4408 -14.3968 -14.3861 -14.3544 -14.3438
   -14.2291 -14.1677 -14.1647 -14.1323 -14.1196 -14.1136 -14.0209 -13.9537
   -12.3815  -5.0757  -1.6156  -1.5544   0.4045   0.8447   1.0064   1.0788
     1.1741   1.2308   1.2803   1.4013   1.4766   1.5609   1.6131   1.6838
     1.7765   1.8295   1.9689   2.0154   2.0493   2.0953   2.1554   2.2259
     2.2956   2.3704   2.3937   2.4970   2.5257   2.6249   2.6566

          k = 0.0223-0.0644 0.0000 ( 31991 PWs)   bands (ev):

   -31.2232 -31.2023 -31.1694 -31.1449 -31.1166 -31.1113 -31.0840 -31.0486
   -30.7440 -30.7135 -30.6910 -30.6600 -15.2091 -15.1498 -15.1247 -15.0895
   -15.0624 -15.0539 -14.9879 -14.9711 -14.9528 -14.9334 -14.9091 -14.8805
   -14.8596 -14.8465 -14.8098 -14.7705 -14.7155 -14.6828 -14.5897 -14.5676
   -14.4932 -14.4706 -14.4534 -14.4408 -14.3968 -14.3861 -14.3544 -14.3439
   -14.2291 -14.1677 -14.1647 -14.1323 -14.1196 -14.1136 -14.0209 -13.9537
   -12.3815  -5.0757  -1.6156  -1.5544   0.4045   0.8447   1.0064   1.0788
     1.1741   1.2308   1.2803   1.4013   1.4766   1.5609   1.6131   1.6838
     1.7765   1.8295   1.9688   2.0154   2.0493   2.0953   2.1554   2.2259
     2.2956   2.3704   2.3937   2.4970   2.5257   2.6249   2.6566

          k = 0.0223-0.0387 0.0000 ( 32007 PWs)   bands (ev):

   -31.2355 -31.2288 -31.1410 -31.1398 -31.1190 -31.1158 -31.0688 -31.0502
   -30.7700 -30.6883 -30.6856 -30.6641 -15.3120 -15.2508 -15.2126 -15.2110
   -15.1685 -15.1407 -15.1347 -15.0405 -15.0182 -15.0071 -14.9195 -14.8476
   -14.8055 -14.7597 -14.6889 -14.6752 -14.5538 -14.5365 -14.5287 -14.5166
   -14.5073 -14.4946 -14.4893 -14.4818 -14.4545 -14.3160 -14.2844 -14.2276
   -14.1674 -14.1538 -14.1513 -14.1208 -14.0782 -14.0762 -14.0404 -13.8928
   -12.3896  -5.0939  -1.6068  -1.5628  -0.1353   0.5633   0.7781   0.8126
     0.8910   0.9301   0.9555   1.0155   1.2297   1.2807   1.3027   1.3486
     1.3972   1.4957   1.5894   1.9652   2.0107   2.0406   2.1817   2.4023
     2.4746   2.5461   2.5871   2.6593   2.6938   2.9266   2.9709

          k = 0.0446-0.0258 0.0000 ( 32002 PWs)   bands (ev):

   -31.2310 -31.2222 -31.1572 -31.1241 -31.1231 -31.1198 -31.0705 -31.0514
   -30.7631 -30.7024 -30.6726 -30.6701 -15.2811 -15.2344 -15.1963 -15.1689
   -15.1404 -15.1254 -15.0613 -15.0248 -15.0040 -14.9865 -14.9165 -14.8636
   -14.8026 -14.7806 -14.6698 -14.6601 -14.6578 -14.6239 -14.5654 -14.5377
   -14.5196 -14.5022 -14.4824 -14.4548 -14.4217 -14.3264 -14.2910 -14.2135
   -14.2124 -14.1559 -14.1474 -14.1428 -14.1207 -14.1039 -14.0148 -13.9009
   -12.3869  -5.0879  -1.6142  -1.5557   0.0077   0.6748   0.7783   0.8269
     0.9609   1.0056   1.0820   1.2218   1.2866   1.2954   1.3929   1.5322
     1.5525   1.6360   1.6812   1.9825   1.9872   2.1118   2.1235   2.3092
     2.4230   2.5236   2.5938   2.6202   2.6911   2.7822   2.8773

          k = 0.0446 0.0000 0.0000 ( 32007 PWs)   bands (ev):

   -31.2355 -31.2287 -31.1407 -31.1402 -31.1191 -31.1158 -31.0687 -31.0502
   -30.7700 -30.6885 -30.6854 -30.6641 -15.3120 -15.2508 -15.2125 -15.2110
   -15.1686 -15.1407 -15.1347 -15.0405 -15.0180 -15.0072 -14.9195 -14.8475
   -14.8055 -14.7597 -14.6889 -14.6752 -14.5539 -14.5364 -14.5287 -14.5166
   -14.5073 -14.4946 -14.4893 -14.4817 -14.4546 -14.3160 -14.2844 -14.2276
   -14.1674 -14.1540 -14.1512 -14.1209 -14.0782 -14.0762 -14.0404 -13.8928
   -12.3896  -5.0939  -1.6068  -1.5629  -0.1353   0.5633   0.7781   0.8126
     0.8910   0.9301   0.9555   1.0155   1.2297   1.2807   1.3027   1.3486
     1.3972   1.4957   1.5894   1.9651   2.0107   2.0406   2.1817   2.4023
     2.4746   2.5461   2.5871   2.6594   2.6938   2.9266   2.9702

          k = 0.0446 0.0258 0.0000 ( 32002 PWs)   bands (ev):

   -31.2310 -31.2222 -31.1572 -31.1242 -31.1230 -31.1199 -31.0703 -31.0515
   -30.7631 -30.7024 -30.6726 -30.6701 -15.2812 -15.2344 -15.1963 -15.1689
   -15.1404 -15.1254 -15.0613 -15.0248 -15.0040 -14.9865 -14.9165 -14.8636
   -14.8026 -14.7806 -14.6698 -14.6601 -14.6577 -14.6240 -14.5654 -14.5377
   -14.5196 -14.5022 -14.4824 -14.4548 -14.4217 -14.3264 -14.2910 -14.2135
   -14.2124 -14.1559 -14.1474 -14.1428 -14.1207 -14.1039 -14.0148 -13.9009
   -12.3869  -5.0879  -1.6142  -1.5557   0.0077   0.6748   0.7783   0.8269
     0.9609   1.0056   1.0820   1.2218   1.2866   1.2954   1.3929   1.5322
     1.5526   1.6360   1.6812   1.9825   1.9872   2.1118   2.1235   2.3092
     2.4230   2.5236   2.5937   2.6202   2.6911   2.7822   2.8773

          k = 0.0446-0.1031 0.0000 ( 31991 PWs)   bands (ev):

   -31.2231 -31.2023 -31.1694 -31.1449 -31.1167 -31.1113 -31.0838 -31.0486
   -30.7440 -30.7135 -30.6910 -30.6600 -15.2091 -15.1499 -15.1245 -15.0896
   -15.0624 -15.0539 -14.9879 -14.9711 -14.9527 -14.9334 -14.9091 -14.8805
   -14.8596 -14.8466 -14.8098 -14.7705 -14.7155 -14.6828 -14.5897 -14.5676
   -14.4933 -14.4706 -14.4534 -14.4407 -14.3968 -14.3861 -14.3544 -14.3439
   -14.2291 -14.1676 -14.1648 -14.1323 -14.1195 -14.1136 -14.0208 -13.9537
   -12.3814  -5.0757  -1.6156  -1.5544   0.4045   0.8447   1.0065   1.0787
     1.1741   1.2309   1.2803   1.4013   1.4766   1.5609   1.6130   1.6838
     1.7765   1.8295   1.9688   2.0154   2.0493   2.0953   2.1555   2.2259
     2.2956   2.3704   2.3937   2.4970   2.5257   2.6249   2.6566

          k = 0.0446-0.0773 0.0000 ( 31986 PWs)   bands (ev):

   -31.2196 -31.1748 -31.1736 -31.1731 -31.1068 -31.1044 -31.1022 -31.0463
   -30.7202 -30.7165 -30.7160 -30.6559 -15.1315 -15.0567 -15.0380 -15.0379
   -15.0266 -15.0222 -15.0099 -14.9611 -14.9411 -14.8978 -14.8894 -14.8753
   -14.8746 -14.8639 -14.8520 -14.8373 -14.8289 -14.8240 -14.4964 -14.4935
   -14.4911 -14.4769 -14.4671 -14.4536 -14.4427 -14.4346 -14.3597 -14.3446
   -14.3415 -14.1711 -14.1319 -14.1283 -14.1275 -14.0437 -14.0422 -14.0398
   -12.3788  -5.0695  -1.6112  -1.5587   0.8987   0.9174   0.9451   1.3503
     1.3765   1.3776   1.4526   1.5612   1.7148   1.7865   1.7951   1.8019
     1.8131   1.8251   1.8453   1.9613   1.9818   2.0190   2.0368   2.0447
     2.2653   2.3570   2.3638   2.4179   2.4451   2.4695   2.4827

          k = 0.0446-0.0515 0.0000 ( 31991 PWs)   bands (ev):

   -31.2232 -31.2023 -31.1694 -31.1449 -31.1166 -31.1113 -31.0840 -31.0486
   -30.7440 -30.7135 -30.6910 -30.6600 -15.2091 -15.1499 -15.1246 -15.0896
   -15.0624 -15.0539 -14.9879 -14.9711 -14.9528 -14.9334 -14.9091 -14.8805
   -14.8596 -14.8466 -14.8098 -14.7705 -14.7154 -14.6828 -14.5897 -14.5676
   -14.4933 -14.4706 -14.4534 -14.4408 -14.3968 -14.3861 -14.3544 -14.3439
   -14.2291 -14.1676 -14.1648 -14.1323 -14.1195 -14.1136 -14.0208 -13.9537
   -12.3815  -5.0757  -1.6156  -1.5543   0.4045   0.8447   1.0064   1.0788
     1.1741   1.2309   1.2803   1.4013   1.4766   1.5609   1.6130   1.6838
     1.7765   1.8295   1.9688   2.0154   2.0493   2.0953   2.1554   2.2259
     2.2956   2.3704   2.3937   2.4970   2.5257   2.6249   2.6566

          k =-0.0669 0.0387 0.0000 ( 31970 PWs)   bands (ev):

   -31.2227 -31.1909 -31.1898 -31.1241 -31.1232 -31.1203 -31.0778 -31.0514
   -30.7341 -30.7316 -30.6727 -30.6701 -15.2111 -15.1730 -15.1317 -15.1133
   -15.0741 -15.0480 -14.9918 -14.9585 -14.9328 -14.9138 -14.8580 -14.8304
   -14.8263 -14.8044 -14.8011 -14.7724 -14.7342 -14.7132 -14.7095 -14.6809
   -14.4921 -14.4681 -14.3950 -14.3899 -14.3760 -14.3365 -14.3297 -14.3241
   -14.2777 -14.2768 -14.1515 -14.1435 -14.1263 -14.1242 -13.9596 -13.9570
   -12.3815  -5.0758  -1.6228  -1.5473   0.5207   0.5682   0.9359   1.0137
     1.2656   1.2746   1.3209   1.3523   1.3600   1.5028   1.7140   1.7561
     1.8992   1.9134   1.9468   1.9747   2.1839   2.1995   2.2973   2.2992
     2.3046   2.3451   2.4443   2.4937   2.6209   2.6260   2.6598

          k =-0.0669 0.0644 0.0000 ( 31991 PWs)   bands (ev):

   -31.2232 -31.2023 -31.1694 -31.1449 -31.1167 -31.1113 -31.0839 -31.0486
   -30.7440 -30.7135 -30.6909 -30.6600 -15.2091 -15.1499 -15.1246 -15.0895
   -15.0624 -15.0539 -14.9879 -14.9712 -14.9527 -14.9334 -14.9091 -14.8805
   -14.8596 -14.8466 -14.8097 -14.7705 -14.7155 -14.6828 -14.5897 -14.5676
   -14.4933 -14.4706 -14.4534 -14.4408 -14.3968 -14.3861 -14.3544 -14.3438
   -14.2291 -14.1676 -14.1648 -14.1323 -14.1196 -14.1136 -14.0208 -13.9537
   -12.3815  -5.0757  -1.6156  -1.5543   0.4045   0.8447   1.0064   1.0788
     1.1741   1.2309   1.2803   1.4013   1.4766   1.5609   1.6130   1.6838
     1.7765   1.8296   1.9689   2.0154   2.0493   2.0953   2.1554   2.2259
     2.2956   2.3704   2.3937   2.4970   2.5257   2.6249   2.6566

          k =-0.0669 0.0902 0.0000 ( 31991 PWs)   bands (ev):

   -31.2231 -31.2023 -31.1694 -31.1449 -31.1167 -31.1113 -31.0838 -31.0486
   -30.7440 -30.7135 -30.6909 -30.6600 -15.2091 -15.1499 -15.1245 -15.0895
   -15.0624 -15.0539 -14.9879 -14.9712 -14.9527 -14.9334 -14.9092 -14.8805
   -14.8596 -14.8466 -14.8097 -14.7705 -14.7155 -14.6828 -14.5897 -14.5676
   -14.4933 -14.4706 -14.4534 -14.4407 -14.3968 -14.3861 -14.3545 -14.3438
   -14.2291 -14.1676 -14.1648 -14.1323 -14.1196 -14.1136 -14.0208 -13.9537
   -12.3814  -5.0757  -1.6156  -1.5544   0.4045   0.8447   1.0065   1.0787
     1.1741   1.2309   1.2803   1.4013   1.4766   1.5609   1.6130   1.6838
     1.7765   1.8296   1.9689   2.0154   2.0493   2.0953   2.1555   2.2259
     2.2956   2.3704   2.3937   2.4970   2.5257   2.6249   2.6566

          k =-0.0669-0.0387 0.0000 ( 31970 PWs)   bands (ev):

   -31.2227 -31.1910 -31.1897 -31.1242 -31.1231 -31.1205 -31.0776 -31.0515
   -30.7341 -30.7316 -30.6727 -30.6702 -15.2111 -15.1730 -15.1316 -15.1133
   -15.0741 -15.0480 -14.9918 -14.9585 -14.9327 -14.9138 -14.8581 -14.8304
   -14.8263 -14.8043 -14.8011 -14.7724 -14.7343 -14.7131 -14.7094 -14.6809
   -14.4921 -14.4681 -14.3950 -14.3899 -14.3760 -14.3366 -14.3297 -14.3240
   -14.2777 -14.2768 -14.1515 -14.1435 -14.1263 -14.1242 -13.9596 -13.9570
   -12.3815  -5.0758  -1.6228  -1.5474   0.5207   0.5682   0.9360   1.0137
     1.2656   1.2746   1.3209   1.3523   1.3600   1.5028   1.7139   1.7561
     1.8992   1.9134   1.9468   1.9747   2.1839   2.1995   2.2973   2.2992
     2.3046   2.3450   2.4443   2.4937   2.6209   2.6260   2.6598

     the Fermi energy is     2.1022 ev

!    total energy              =   -1273.94181247 Ry
     Harris-Foulkes estimate   =   -1273.94180918 Ry
     estimated scf accuracy    <       0.00000205 Ry

     The total energy is the sum of the following terms:

     one-electron contribution =   -4782.96353551 Ry
     hartree contribution      =    2406.02767022 Ry
     xc contribution           =    -618.21372567 Ry
     ewald contribution        =    1721.33260992 Ry
     electric field correction =       0.00001403 Ry
     smearing contrib. (-TS)   =      -0.12484547 Ry

     convergence has been achieved in  21 iterations
 
 BEEF-vdW xc energy contributions
           1 :   -547.463217886334     
           2 :    503.344782619704     
           3 :   -425.347746616213     
           4 :    330.133706533121     
           5 :   -235.405985765278     
           6 :    155.201110701349     
           7 :   -97.1977681196845     
           8 :    62.3800020659262     
           9 :   -46.5637798722287     
          10 :    42.8546499710487     
          11 :   -44.0989249590353     
          12 :    44.6444470861421     
          13 :   -41.1597053370767     
          14 :    32.6532064480849     
          15 :   -20.0374553773994     
          16 :    5.51673137970852     
          17 :    8.09380167545828     
          18 :   -18.1158828003795     
          19 :    22.7592347230900     
          20 :   -21.6895374224457     
          21 :    16.1771982013693     
          22 :   -8.70068002748349     
          23 :    2.09170175199824     
          24 :    1.46779835954680     
          25 :   -1.19050232171207     
          26 :   -2.15048304937454     
          27 :    6.69762958295109     
          28 :   -10.3918967608718     
          29 :    11.8449417166078     
          30 :   -10.8189375926229     
          31 :   -46.7765678310583     
          32 :   -33.5426024550586     

     Forces acting on atoms (Ry/au):


     negative rho (up, down):  5.856E-01 0.000E+00
     atom    1 type  1   force =    -0.00057312   -0.00035016    0.00405220
     atom    2 type  1   force =     0.00057247   -0.00034597    0.00403266
     atom    3 type  1   force =     0.00000346    0.00068489    0.00399426
     atom    4 type  1   force =    -0.00000018    0.00001619    0.00461131
     atom    5 type  1   force =     0.00000701   -0.00046983   -0.00402176
     atom    6 type  1   force =    -0.00000674   -0.00001955   -0.00227494
     atom    7 type  1   force =     0.00040815    0.00023210   -0.00398658
     atom    8 type  1   force =    -0.00040792    0.00024075   -0.00400515
     atom    9 type  1   force =    -0.00002084    0.00001999   -0.00736553
     atom   10 type  1   force =     0.00001296    0.00129591   -0.00062649
     atom   11 type  1   force =     0.00109382   -0.00064510   -0.00060635
     atom   12 type  1   force =    -0.00108974   -0.00066256   -0.00059285
     atom   13 type  2   force =    -0.00000116    0.00000036   -0.12037778
     atom   14 type  3   force =     0.00000181    0.00000297    0.12716699

     Total force =     0.175278     Total SCF correction =     0.003866


     entering subroutine stress ...


     negative rho (up, down):  5.856E-01 0.000E+00
          total   stress  (Ry/bohr**3)                   (kbar)     P=    1.42
   0.00000226   0.00000000  -0.00000000          0.33      0.00     -0.00
   0.00000000   0.00000226  -0.00000001          0.00      0.33     -0.00
  -0.00000000  -0.00000001   0.00002442         -0.00     -0.00      3.59


     BFGS Geometry Optimization

     number of scf cycles    =   1
     number of bfgs steps    =   0

     energy   new            =   -1273.9418124721 Ry

     new trust radius        =       0.1271669868 bohr
     new conv_thr            =       0.0000099958 Ry


ATOMIC_POSITIONS (crystal)
La1      0.166666667   0.166666667   0.383173129    0   0   0
La1      0.666666667   0.166666667   0.383173129    0   0   0
La1      0.166666667   0.666666667   0.383173129    0   0   0
La1      0.666666667   0.666666667   0.383173129    0   0   0
La1      0.833333333   0.333333333   0.500000000    0   0   0
La1      0.333333333   0.333333333   0.500000000    0   0   0
La1      0.833333333   0.833333333   0.500000000    0   0   0
La1      0.333333333   0.833333333   0.500000000    0   0   0
La1     -0.000002295   0.000001636   0.616677523
La1      0.499947904   0.000106029   0.616814168
La1      0.000103894   0.499947219   0.616814576
La1      0.499949890   0.499945791   0.616814850
S1       0.333333237   0.333333363   0.692093524
H1       0.333333340   0.333333576   0.745009543



     Writing output data file calc.save
     Check: negative starting charge=   -0.830900
     NEW-OLD atomic charge density approx. for the potential
     Check: negative starting charge=   -0.830752

     negative rho (up, down):  5.857E-01 0.000E+00
 
     Adding external electric field

     Computed dipole along edir(3) : 
        Dipole                0.0972 Ry au,          0.2470 Debye
        Dipole field          0.0001 Ry au
 
        Potential amp.       -0.0138 Ry
        Total length         48.0849 bohr
 

     total cpu time spent up to now is     1870.3 secs

     per-process dynamical memory:   168.2 Mb

     Self-consistent Calculation

     iteration #  1     ecut=    36.75 Ry     beta=0.30
     Davidson diagonalization with overlap
     c_bands:  1 eigenvalues not converged
     ethr =  1.00E-06,  avg # of iterations = 13.0

     negative rho (up, down):  5.853E-01 0.000E+00
 
     Adding external electric field

     Computed dipole along edir(3) : 
        Dipole               -0.3615 Ry au,         -0.9189 Debye
        Dipole field         -0.0005 Ry au
 
        Potential amp.        0.0514 Ry
        Total length         48.0849 bohr
 

     total cpu time spent up to now is     1955.3 secs

     total energy              =   -1273.94495044 Ry
     Harris-Foulkes estimate   =   -1273.95359358 Ry
     estimated scf accuracy    <       0.01935619 Ry

     iteration #  2     ecut=    36.75 Ry     beta=0.30
     Davidson diagonalization with overlap
     c_bands:  1 eigenvalues not converged
     ethr =  1.39E-05,  avg # of iterations = 15.1

     negative rho (up, down):  5.850E-01 0.000E+00
 
     Adding external electric field

     Computed dipole along edir(3) : 
        Dipole                0.1232 Ry au,          0.3130 Debye
        Dipole field          0.0002 Ry au
 
        Potential amp.       -0.0175 Ry
        Total length         48.0849 bohr
 

     total cpu time spent up to now is     2038.3 secs

     total energy              =   -1273.84939429 Ry
     Harris-Foulkes estimate   =   -1274.05317862 Ry
     estimated scf accuracy    <       9.61503512 Ry

     iteration #  3     ecut=    36.75 Ry     beta=0.30
     Davidson diagonalization with overlap
     ethr =  1.39E-05,  avg # of iterations = 13.7

     negative rho (up, down):  5.851E-01 0.000E+00
 
     Adding external electric field

     Computed dipole along edir(3) : 
        Dipole                0.0968 Ry au,          0.2461 Debye
        Dipole field          0.0001 Ry au
 
        Potential amp.       -0.0138 Ry
        Total length         48.0849 bohr
 

     total cpu time spent up to now is     2120.5 secs

     total energy              =   -1273.95117577 Ry
     Harris-Foulkes estimate   =   -1273.95222162 Ry
     estimated scf accuracy    <       0.00467407 Ry

     iteration #  4     ecut=    36.75 Ry     beta=0.30
     Davidson diagonalization with overlap
     ethr =  3.36E-06,  avg # of iterations =  9.6

     negative rho (up, down):  5.853E-01 0.000E+00
 
     Adding external electric field

     Computed dipole along edir(3) : 
        Dipole                0.0720 Ry au,          0.1830 Debye
        Dipole field          0.0001 Ry au
 
        Potential amp.       -0.0102 Ry
        Total length         48.0849 bohr
 

     total cpu time spent up to now is     2197.4 secs

     total energy              =   -1273.95086494 Ry
     Harris-Foulkes estimate   =   -1273.95295236 Ry
     estimated scf accuracy    <       0.02167436 Ry

     iteration #  5     ecut=    36.75 Ry     beta=0.30
     Davidson diagonalization with overlap
     ethr =  3.36E-06,  avg # of iterations =  6.7

     negative rho (up, down):  5.854E-01 0.000E+00
 
     Adding external electric field

     Computed dipole along edir(3) : 
        Dipole                0.0818 Ry au,          0.2080 Debye
        Dipole field          0.0001 Ry au
 
        Potential amp.       -0.0116 Ry
        Total length         48.0849 bohr
 

     total cpu time spent up to now is     2269.7 secs

     total energy              =   -1273.95187549 Ry
     Harris-Foulkes estimate   =   -1273.95199317 Ry
     estimated scf accuracy    <       0.00069753 Ry

     iteration #  6     ecut=    36.75 Ry     beta=0.30
     Davidson diagonalization with overlap
     ethr =  5.02E-07,  avg # of iterations =  6.5

     negative rho (up, down):  5.854E-01 0.000E+00
 
     Adding external electric field

     Computed dipole along edir(3) : 
        Dipole                0.0698 Ry au,          0.1774 Debye
        Dipole field          0.0001 Ry au
 
        Potential amp.       -0.0099 Ry
        Total length         48.0849 bohr
 

     total cpu time spent up to now is     2340.5 secs

     total energy              =   -1273.95197345 Ry
     Harris-Foulkes estimate   =   -1273.95198031 Ry
     estimated scf accuracy    <       0.00012909 Ry

     iteration #  7     ecut=    36.75 Ry     beta=0.30
     Davidson diagonalization with overlap
     ethr =  9.29E-08,  avg # of iterations =  7.7

     negative rho (up, down):  5.855E-01 0.000E+00
 
     Adding external electric field

     Computed dipole along edir(3) : 
        Dipole                0.0671 Ry au,          0.1704 Debye
        Dipole field          0.0001 Ry au
 
        Potential amp.       -0.0095 Ry
        Total length         48.0849 bohr
 

     total cpu time spent up to now is     2412.8 secs

     total energy              =   -1273.95199119 Ry
     Harris-Foulkes estimate   =   -1273.95198754 Ry
     estimated scf accuracy    <       0.00003751 Ry

     iteration #  8     ecut=    36.75 Ry     beta=0.30
     Davidson diagonalization with overlap
     ethr =  2.70E-08,  avg # of iterations =  5.5

     negative rho (up, down):  5.855E-01 0.000E+00

     negative rho (up, down):  5.855E-01 0.000E+00

     negative rho (up, down):  5.855E-01 0.000E+00

     negative rho (up, down):  5.855E-01 0.000E+00

     negative rho (up, down):  5.855E-01 0.000E+00

     negative rho (up, down):  5.855E-01 0.000E+00

     negative rho (up, down):  5.855E-01 0.000E+00

     negative rho (up, down):  5.855E-01 0.000E+00

     negative rho (up, down):  5.855E-01 0.000E+00

     negative rho (up, down):  5.855E-01 0.000E+00

     negative rho (up, down):  5.855E-01 0.000E+00

     negative rho (up, down):  5.855E-01 0.000E+00

     negative rho (up, down):  5.855E-01 0.000E+00

     negative rho (up, down):  5.855E-01 0.000E+00

     negative rho (up, down):  5.855E-01 0.000E+00

     negative rho (up, down):  5.855E-01 0.000E+00

     negative rho (up, down):  5.855E-01 0.000E+00

     negative rho (up, down):  5.855E-01 0.000E+00

     negative rho (up, down):  5.855E-01 0.000E+00

     negative rho (up, down):  5.855E-01 0.000E+00

     negative rho (up, down):  5.855E-01 0.000E+00

     negative rho (up, down):  5.855E-01 0.000E+00

     negative rho (up, down):  5.855E-01 0.000E+00

     negative rho (up, down):  5.855E-01 0.000E+00

     negative rho (up, down):  5.855E-01 0.000E+00

     negative rho (up, down):  5.855E-01 0.000E+00

     negative rho (up, down):  5.855E-01 0.000E+00

     negative rho (up, down):  5.855E-01 0.000E+00

     negative rho (up, down):  5.855E-01 0.000E+00

     negative rho (up, down):  5.855E-01 0.000E+00

     negative rho (up, down):  5.855E-01 0.000E+00

     negative rho (up, down):  5.855E-01 0.000E+00

     negative rho (up, down):  5.855E-01 0.000E+00

     negative rho (up, down):  5.855E-01 0.000E+00

     negative rho (up, down):  5.855E-01 0.000E+00
 
     Adding external electric field

     Computed dipole along edir(3) : 
        Dipole                0.0814 Ry au,          0.2069 Debye
        Dipole field          0.0001 Ry au
 
        Potential amp.       -0.0116 Ry
        Total length         48.0849 bohr
 

     total cpu time spent up to now is     2580.6 secs

     End of self-consistent calculation

          k = 0.0000 0.0000 0.0000 ( 31997 PWs)   bands (ev):

   -31.2641 -31.2510 -31.1318 -31.1299 -31.1298 -31.1135 -31.0407 -31.0407
   -30.8014 -30.6848 -30.6777 -30.6776 -15.4477 -15.3639 -15.3638 -15.3270
   -15.2927 -15.2927 -15.2160 -15.1198 -15.1040 -15.1040 -14.9417 -14.7965
   -14.7304 -14.7303 -14.6060 -14.5642 -14.5642 -14.5248 -14.5248 -14.5215
   -14.4929 -14.4929 -14.4501 -14.2679 -14.2679 -14.2243 -14.2243 -14.1937
   -14.1796 -14.1796 -14.1667 -14.0789 -14.0789 -14.0775 -13.8510 -13.8510
   -11.9341  -4.8386  -1.6246  -1.6246  -0.6626   0.0534   0.3981   0.4397
     0.4397   0.5610   0.7162   0.8123   0.8123   0.9596   0.9872   0.9872
     1.0507   1.0507   1.1149   1.8784   1.8784   1.9655   2.2493   2.4777
     2.6493   2.6493   2.9076   2.9649   3.1854   3.2759   3.2995

          k = 0.0000 0.0258 0.0000 ( 32061 PWs)   bands (ev):

   -31.2556 -31.2456 -31.1397 -31.1311 -31.1299 -31.1130 -31.0468 -31.0407
   -30.7935 -30.6898 -30.6809 -30.6776 -15.4028 -15.3280 -15.3114 -15.2832
   -15.2579 -15.2361 -15.1922 -15.0919 -15.0758 -15.0672 -14.9344 -14.8169
   -14.7588 -14.7432 -14.5918 -14.5699 -14.5674 -14.5560 -14.5531 -14.5356
   -14.5162 -14.5044 -14.4572 -14.3563 -14.3183 -14.2855 -14.2414 -14.1835
   -14.1723 -14.1711 -14.1394 -14.1191 -14.1174 -14.0636 -13.9243 -13.8667
   -11.9271  -4.8250  -1.6367  -1.6139  -0.4775   0.2347   0.5422   0.5793
     0.5930   0.7007   0.7918   0.9079   0.9557   1.0487   1.1192   1.1552
     1.1558   1.1805   1.2403   1.9118   1.9385   1.9835   2.2375   2.4797
     2.6382   2.6429   2.8142   2.8360   2.9166   3.0622   3.0871

          k = 0.0000 0.0515 0.0000 ( 32002 PWs)   bands (ev):

   -31.2370 -31.2291 -31.1642 -31.1312 -31.1300 -31.1116 -31.0604 -31.0408
   -30.7717 -30.7111 -30.6821 -30.6777 -15.2978 -15.2394 -15.2051 -15.1729
   -15.1447 -15.1311 -15.0662 -15.0319 -15.0102 -14.9915 -14.9207 -14.8681
   -14.8057 -14.7832 -14.6743 -14.6649 -14.6639 -14.6210 -14.5703 -14.5432
   -14.5210 -14.5052 -14.4873 -14.4611 -14.4205 -14.3332 -14.2872 -14.2224
   -14.2194 -14.1644 -14.1539 -14.1500 -14.1270 -14.1120 -14.0229 -13.9091
   -11.9137  -4.7980  -1.6571  -1.5937   0.0014   0.6681   0.7710   0.8224
     0.9533   0.9987   1.0755   1.2111   1.2817   1.2940   1.3844   1.5220
     1.5451   1.6297   1.6701   1.9811   1.9851   2.1033   2.1151   2.3002
     2.4130   2.5174   2.5861   2.6134   2.6845   2.7792   2.8656

          k = 0.0000-0.0773 0.0000 ( 31970 PWs)   bands (ev):

   -31.2298 -31.1980 -31.1967 -31.1312 -31.1300 -31.1104 -31.0683 -31.0408
   -30.7439 -30.7390 -30.6822 -30.6777 -15.2267 -15.1780 -15.1403 -15.1179
   -15.0813 -15.0524 -14.9985 -14.9645 -14.9377 -14.9182 -14.8646 -14.8357
   -14.8297 -14.8109 -14.8062 -14.7717 -14.7375 -14.7179 -14.7094 -14.6772
   -14.4981 -14.4718 -14.4004 -14.3967 -14.3777 -14.3367 -14.3320 -14.3311
   -14.2868 -14.2837 -14.1599 -14.1500 -14.1333 -14.1310 -13.9686 -13.9642
   -11.9072  -4.7848  -1.6661  -1.5841   0.5138   0.5635   0.9283   1.0088
     1.2578   1.2672   1.3127   1.3450   1.3514   1.5033   1.7009   1.7494
     1.8898   1.9060   1.9391   1.9648   2.1701   2.1913   2.2893   2.2905
     2.2976   2.3319   2.4388   2.4938   2.6138   2.6193   2.6573

          k = 0.0223-0.0129 0.0000 ( 32061 PWs)   bands (ev):

   -31.2556 -31.2456 -31.1397 -31.1311 -31.1299 -31.1130 -31.0468 -31.0407
   -30.7935 -30.6898 -30.6809 -30.6777 -15.4028 -15.3280 -15.3114 -15.2832
   -15.2579 -15.2361 -15.1922 -15.0919 -15.0758 -15.0672 -14.9344 -14.8169
   -14.7589 -14.7432 -14.5918 -14.5699 -14.5674 -14.5561 -14.5531 -14.5356
   -14.5162 -14.5044 -14.4572 -14.3563 -14.3183 -14.2855 -14.2414 -14.1835
   -14.1723 -14.1711 -14.1394 -14.1191 -14.1174 -14.0636 -13.9243 -13.8667
   -11.9271  -4.8250  -1.6367  -1.6139  -0.4775   0.2347   0.5422   0.5793
     0.5930   0.7007   0.7918   0.9079   0.9556   1.0487   1.1192   1.1552
     1.1558   1.1805   1.2403   1.9118   1.9385   1.9835   2.2375   2.4797
     2.6382   2.6429   2.8142   2.8360   2.9167   3.0624   3.0871

          k = 0.0223 0.0129 0.0000 ( 32061 PWs)   bands (ev):

   -31.2556 -31.2456 -31.1397 -31.1311 -31.1299 -31.1130 -31.0468 -31.0407
   -30.7935 -30.6899 -30.6809 -30.6777 -15.4028 -15.3280 -15.3113 -15.2832
   -15.2579 -15.2361 -15.1922 -15.0919 -15.0758 -15.0672 -14.9344 -14.8169
   -14.7589 -14.7432 -14.5918 -14.5699 -14.5674 -14.5561 -14.5531 -14.5356
   -14.5162 -14.5044 -14.4572 -14.3563 -14.3183 -14.2855 -14.2414 -14.1835
   -14.1723 -14.1711 -14.1394 -14.1191 -14.1174 -14.0636 -13.9243 -13.8667
   -11.9271  -4.8250  -1.6367  -1.6139  -0.4775   0.2347   0.5422   0.5793
     0.5930   0.7007   0.7918   0.9079   0.9556   1.0487   1.1192   1.1552
     1.1558   1.1805   1.2403   1.9118   1.9385   1.9835   2.2375   2.4797
     2.6382   2.6429   2.8142   2.8360   2.9167   3.0624   3.0871

          k = 0.0223 0.0387 0.0000 ( 32007 PWs)   bands (ev):

   -31.2414 -31.2353 -31.1481 -31.1467 -31.1227 -31.1115 -31.0583 -31.0397
   -30.7786 -30.6982 -30.6931 -30.6725 -15.3282 -15.2593 -15.2174 -15.2155
   -15.1748 -15.1460 -15.1382 -15.0477 -15.0243 -15.0124 -14.9232 -14.8532
   -14.8078 -14.7625 -14.6953 -14.6756 -14.5605 -14.5415 -14.5335 -14.5228
   -14.5122 -14.4993 -14.4894 -14.4809 -14.4526 -14.3231 -14.2808 -14.2353
   -14.1760 -14.1610 -14.1582 -14.1270 -14.0860 -14.0842 -14.0483 -13.9010
   -11.9169  -4.8047  -1.6495  -1.6013  -0.1417   0.5570   0.7706   0.8051
     0.8832   0.9236   0.9484   1.0140   1.2183   1.2760   1.2975   1.3418
     1.3908   1.4870   1.5802   1.9669   2.0058   2.0356   2.1723   2.3939
     2.4650   2.5384   2.5794   2.6521   2.6879   2.9176   2.9490

          k = 0.0223-0.0902 0.0000 ( 31991 PWs)   bands (ev):

   -31.2301 -31.2093 -31.1764 -31.1519 -31.1183 -31.1071 -31.0738 -31.0383
   -30.7527 -30.7222 -30.6995 -30.6685 -15.2236 -15.1590 -15.1295 -15.0955
   -15.0696 -15.0593 -14.9941 -14.9759 -14.9583 -14.9391 -14.9142 -14.8847
   -14.8644 -14.8486 -14.8108 -14.7730 -14.7200 -14.6832 -14.5959 -14.5665
   -14.4988 -14.4764 -14.4578 -14.4427 -14.4011 -14.3930 -14.3562 -14.3458
   -14.2362 -14.1764 -14.1721 -14.1391 -14.1261 -14.1209 -14.0289 -13.9618
   -11.9072  -4.7846  -1.6592  -1.5909   0.3984   0.8389   0.9993   1.0724
     1.1668   1.2240   1.2767   1.3929   1.4669   1.5558   1.6045   1.6747
     1.7690   1.8237   1.9596   2.0079   2.0401   2.0842   2.1474   2.2160
     2.2878   2.3640   2.3863   2.4926   2.5166   2.6186   2.6486

          k = 0.0223-0.0644 0.0000 ( 31991 PWs)   bands (ev):

   -31.2301 -31.2093 -31.1764 -31.1519 -31.1183 -31.1071 -31.0738 -31.0383
   -30.7527 -30.7222 -30.6995 -30.6685 -15.2236 -15.1590 -15.1295 -15.0955
   -15.0696 -15.0593 -14.9941 -14.9759 -14.9583 -14.9391 -14.9142 -14.8847
   -14.8644 -14.8486 -14.8108 -14.7730 -14.7200 -14.6832 -14.5959 -14.5665
   -14.4988 -14.4764 -14.4578 -14.4427 -14.4011 -14.3930 -14.3562 -14.3458
   -14.2362 -14.1764 -14.1721 -14.1391 -14.1261 -14.1210 -14.0289 -13.9618
   -11.9072  -4.7846  -1.6592  -1.5909   0.3984   0.8389   0.9993   1.0724
     1.1668   1.2240   1.2767   1.3929   1.4669   1.5558   1.6045   1.6747
     1.7690   1.8237   1.9596   2.0079   2.0401   2.0842   2.1474   2.2160
     2.2878   2.3640   2.3863   2.4926   2.5166   2.6186   2.6486

          k = 0.0223-0.0387 0.0000 ( 32007 PWs)   bands (ev):

   -31.2414 -31.2353 -31.1481 -31.1467 -31.1227 -31.1115 -31.0583 -31.0397
   -30.7786 -30.6982 -30.6931 -30.6724 -15.3282 -15.2593 -15.2174 -15.2155
   -15.1748 -15.1460 -15.1382 -15.0477 -15.0243 -15.0124 -14.9232 -14.8532
   -14.8078 -14.7625 -14.6953 -14.6756 -14.5605 -14.5415 -14.5335 -14.5228
   -14.5122 -14.4993 -14.4894 -14.4809 -14.4526 -14.3231 -14.2808 -14.2353
   -14.1760 -14.1609 -14.1582 -14.1270 -14.0860 -14.0842 -14.0483 -13.9010
   -11.9169  -4.8047  -1.6495  -1.6013  -0.1417   0.5570   0.7706   0.8051
     0.8832   0.9236   0.9484   1.0140   1.2183   1.2760   1.2975   1.3418
     1.3908   1.4870   1.5802   1.9669   2.0058   2.0356   2.1723   2.3939
     2.4650   2.5384   2.5794   2.6521   2.6879   2.9176   2.9490

          k = 0.0446-0.0258 0.0000 ( 32002 PWs)   bands (ev):

   -31.2370 -31.2291 -31.1642 -31.1312 -31.1299 -31.1116 -31.0604 -31.0408
   -30.7717 -30.7111 -30.6821 -30.6777 -15.2978 -15.2394 -15.2050 -15.1729
   -15.1447 -15.1311 -15.0662 -15.0319 -15.0102 -14.9915 -14.9207 -14.8681
   -14.8057 -14.7832 -14.6744 -14.6649 -14.6639 -14.6210 -14.5703 -14.5433
   -14.5210 -14.5052 -14.4873 -14.4611 -14.4205 -14.3332 -14.2872 -14.2224
   -14.2194 -14.1644 -14.1539 -14.1500 -14.1270 -14.1120 -14.0229 -13.9091
   -11.9137  -4.7980  -1.6571  -1.5937   0.0014   0.6681   0.7710   0.8224
     0.9533   0.9987   1.0755   1.2111   1.2817   1.2940   1.3844   1.5220
     1.5451   1.6297   1.6701   1.9811   1.9851   2.1033   2.1151   2.3002
     2.4130   2.5175   2.5861   2.6134   2.6845   2.7792   2.8656

          k = 0.0446 0.0000 0.0000 ( 32007 PWs)   bands (ev):

   -31.2414 -31.2353 -31.1480 -31.1468 -31.1227 -31.1115 -31.0583 -31.0397
   -30.7786 -30.6982 -30.6931 -30.6725 -15.3282 -15.2593 -15.2173 -15.2155
   -15.1748 -15.1460 -15.1382 -15.0477 -15.0243 -15.0124 -14.9232 -14.8532
   -14.8078 -14.7625 -14.6953 -14.6756 -14.5605 -14.5415 -14.5335 -14.5228
   -14.5122 -14.4993 -14.4894 -14.4809 -14.4526 -14.3231 -14.2808 -14.2353
   -14.1760 -14.1610 -14.1582 -14.1270 -14.0860 -14.0842 -14.0484 -13.9010
   -11.9169  -4.8047  -1.6495  -1.6013  -0.1417   0.5570   0.7706   0.8051
     0.8832   0.9236   0.9484   1.0140   1.2183   1.2760   1.2975   1.3418
     1.3908   1.4870   1.5802   1.9669   2.0058   2.0356   2.1723   2.3939
     2.4650   2.5384   2.5794   2.6521   2.6879   2.9176   2.9490

          k = 0.0446 0.0258 0.0000 ( 32002 PWs)   bands (ev):

   -31.2370 -31.2291 -31.1642 -31.1312 -31.1299 -31.1116 -31.0604 -31.0408
   -30.7716 -30.7111 -30.6820 -30.6777 -15.2978 -15.2394 -15.2050 -15.1729
   -15.1448 -15.1311 -15.0662 -15.0320 -15.0101 -14.9915 -14.9207 -14.8681
   -14.8057 -14.7832 -14.6743 -14.6649 -14.6639 -14.6210 -14.5703 -14.5433
   -14.5210 -14.5052 -14.4873 -14.4611 -14.4205 -14.3332 -14.2872 -14.2224
   -14.2194 -14.1644 -14.1540 -14.1500 -14.1270 -14.1120 -14.0229 -13.9091
   -11.9137  -4.7980  -1.6571  -1.5937   0.0014   0.6681   0.7710   0.8224
     0.9533   0.9987   1.0755   1.2111   1.2817   1.2940   1.3844   1.5220
     1.5451   1.6297   1.6701   1.9811   1.9851   2.1033   2.1151   2.3002
     2.4130   2.5175   2.5861   2.6134   2.6845   2.7792   2.8656

          k = 0.0446-0.1031 0.0000 ( 31991 PWs)   bands (ev):

   -31.2301 -31.2093 -31.1764 -31.1519 -31.1183 -31.1071 -31.0738 -31.0383
   -30.7527 -30.7222 -30.6994 -30.6685 -15.2236 -15.1590 -15.1295 -15.0956
   -15.0695 -15.0593 -14.9941 -14.9759 -14.9583 -14.9391 -14.9142 -14.8847
   -14.8644 -14.8486 -14.8108 -14.7730 -14.7200 -14.6832 -14.5959 -14.5665
   -14.4988 -14.4764 -14.4577 -14.4427 -14.4010 -14.3930 -14.3562 -14.3458
   -14.2362 -14.1763 -14.1721 -14.1391 -14.1261 -14.1210 -14.0289 -13.9618
   -11.9072  -4.7846  -1.6592  -1.5909   0.3984   0.8389   0.9993   1.0724
     1.1668   1.2240   1.2767   1.3929   1.4669   1.5558   1.6045   1.6748
     1.7690   1.8237   1.9596   2.0079   2.0401   2.0842   2.1474   2.2160
     2.2878   2.3640   2.3863   2.4926   2.5166   2.6187   2.6486

          k = 0.0446-0.0773 0.0000 ( 31986 PWs)   bands (ev):

   -31.2270 -31.1821 -31.1802 -31.1801 -31.1138 -31.0946 -31.0916 -31.0362
   -30.7309 -30.7241 -30.7236 -30.6644 -15.1497 -15.0640 -15.0479 -15.0439
   -15.0328 -15.0289 -15.0114 -14.9649 -14.9489 -14.9027 -14.8947 -14.8825
   -14.8796 -14.8671 -14.8577 -14.8348 -14.8268 -14.8233 -14.5032 -14.4999
   -14.4970 -14.4769 -14.4670 -14.4546 -14.4498 -14.4374 -14.3659 -14.3503
   -14.3450 -14.1794 -14.1383 -14.1353 -14.1349 -14.0522 -14.0505 -14.0471
   -11.9039  -4.7779  -1.6555  -1.5942   0.8920   0.9111   0.9402   1.3436
     1.3694   1.3709   1.4451   1.5646   1.7062   1.7720   1.7858   1.7940
     1.8041   1.8176   1.8298   1.9540   1.9686   2.0119   2.0298   2.0375
     2.2548   2.3500   2.3573   2.4090   2.4360   2.4619   2.4765

          k = 0.0446-0.0515 0.0000 ( 31991 PWs)   bands (ev):

   -31.2301 -31.2093 -31.1764 -31.1519 -31.1183 -31.1071 -31.0738 -31.0383
   -30.7527 -30.7222 -30.6995 -30.6685 -15.2236 -15.1590 -15.1295 -15.0955
   -15.0695 -15.0593 -14.9941 -14.9759 -14.9583 -14.9391 -14.9142 -14.8847
   -14.8644 -14.8486 -14.8108 -14.7730 -14.7200 -14.6832 -14.5959 -14.5665
   -14.4988 -14.4764 -14.4577 -14.4427 -14.4010 -14.3930 -14.3562 -14.3458
   -14.2362 -14.1763 -14.1721 -14.1391 -14.1261 -14.1210 -14.0289 -13.9618
   -11.9072  -4.7846  -1.6592  -1.5909   0.3984   0.8389   0.9993   1.0724
     1.1668   1.2240   1.2767   1.3929   1.4669   1.5558   1.6045   1.6748
     1.7690   1.8237   1.9596   2.0079   2.0401   2.0842   2.1474   2.2160
     2.2878   2.3640   2.3863   2.4926   2.5166   2.6187   2.6486

          k =-0.0669 0.0387 0.0000 ( 31970 PWs)   bands (ev):

   -31.2298 -31.1980 -31.1966 -31.1313 -31.1300 -31.1104 -31.0683 -31.0408
   -30.7439 -30.7390 -30.6822 -30.6777 -15.2267 -15.1781 -15.1403 -15.1180
   -15.0813 -15.0524 -14.9985 -14.9644 -14.9377 -14.9182 -14.8646 -14.8357
   -14.8297 -14.8109 -14.8062 -14.7718 -14.7375 -14.7179 -14.7094 -14.6772
   -14.4981 -14.4718 -14.4004 -14.3967 -14.3777 -14.3367 -14.3320 -14.3311
   -14.2868 -14.2837 -14.1599 -14.1500 -14.1333 -14.1310 -13.9685 -13.9642
   -11.9072  -4.7848  -1.6661  -1.5841   0.5139   0.5635   0.9283   1.0087
     1.2578   1.2672   1.3128   1.3450   1.3514   1.5033   1.7009   1.7494
     1.8898   1.9060   1.9391   1.9648   2.1701   2.1913   2.2893   2.2905
     2.2976   2.3318   2.4388   2.4938   2.6138   2.6193   2.6573

          k =-0.0669 0.0644 0.0000 ( 31991 PWs)   bands (ev):

   -31.2301 -31.2093 -31.1764 -31.1519 -31.1183 -31.1071 -31.0738 -31.0383
   -30.7527 -30.7222 -30.6995 -30.6685 -15.2236 -15.1590 -15.1295 -15.0955
   -15.0696 -15.0593 -14.9941 -14.9759 -14.9583 -14.9391 -14.9142 -14.8847
   -14.8644 -14.8486 -14.8108 -14.7730 -14.7200 -14.6832 -14.5959 -14.5665
   -14.4988 -14.4764 -14.4577 -14.4427 -14.4010 -14.3930 -14.3562 -14.3458
   -14.2362 -14.1763 -14.1721 -14.1391 -14.1261 -14.1210 -14.0289 -13.9618
   -11.9072  -4.7846  -1.6592  -1.5909   0.3984   0.8389   0.9993   1.0724
     1.1668   1.2240   1.2767   1.3929   1.4669   1.5558   1.6045   1.6747
     1.7690   1.8238   1.9596   2.0079   2.0401   2.0842   2.1474   2.2160
     2.2878   2.3640   2.3864   2.4926   2.5166   2.6186   2.6486

          k =-0.0669 0.0902 0.0000 ( 31991 PWs)   bands (ev):

   -31.2301 -31.2093 -31.1764 -31.1519 -31.1183 -31.1071 -31.0738 -31.0383
   -30.7527 -30.7222 -30.6994 -30.6685 -15.2236 -15.1590 -15.1295 -15.0955
   -15.0695 -15.0593 -14.9941 -14.9759 -14.9583 -14.9391 -14.9142 -14.8847
   -14.8644 -14.8486 -14.8108 -14.7730 -14.7200 -14.6832 -14.5959 -14.5665
   -14.4988 -14.4764 -14.4577 -14.4427 -14.4010 -14.3930 -14.3562 -14.3458
   -14.2362 -14.1763 -14.1721 -14.1391 -14.1261 -14.1210 -14.0289 -13.9618
   -11.9072  -4.7846  -1.6592  -1.5909   0.3984   0.8389   0.9993   1.0724
     1.1668   1.2240   1.2767   1.3929   1.4669   1.5558   1.6045   1.6747
     1.7690   1.8238   1.9596   2.0079   2.0401   2.0842   2.1474   2.2160
     2.2878   2.3640   2.3864   2.4926   2.5166   2.6187   2.6486

          k =-0.0669-0.0387 0.0000 ( 31970 PWs)   bands (ev):

   -31.2298 -31.1980 -31.1966 -31.1313 -31.1300 -31.1104 -31.0683 -31.0408
   -30.7439 -30.7391 -30.6822 -30.6777 -15.2267 -15.1781 -15.1403 -15.1180
   -15.0813 -15.0523 -14.9986 -14.9644 -14.9377 -14.9182 -14.8646 -14.8357
   -14.8297 -14.8109 -14.8062 -14.7717 -14.7375 -14.7179 -14.7094 -14.6772
   -14.4981 -14.4718 -14.4004 -14.3967 -14.3777 -14.3367 -14.3319 -14.3311
   -14.2867 -14.2837 -14.1599 -14.1500 -14.1333 -14.1310 -13.9685 -13.9643
   -11.9072  -4.7848  -1.6661  -1.5841   0.5139   0.5635   0.9283   1.0087
     1.2578   1.2672   1.3128   1.3450   1.3514   1.5033   1.7008   1.7494
     1.8898   1.9060   1.9391   1.9648   2.1701   2.1913   2.2893   2.2905
     2.2976   2.3319   2.4388   2.4938   2.6138   2.6193   2.6573

     the Fermi energy is     2.0948 ev

!    total energy              =   -1273.95199374 Ry
     Harris-Foulkes estimate   =   -1273.95199119 Ry
     estimated scf accuracy    <       0.00000523 Ry

     The total energy is the sum of the following terms:

     one-electron contribution =   -4789.85165443 Ry
     hartree contribution      =    2409.44911179 Ry
     xc contribution           =    -618.15974508 Ry
     ewald contribution        =    1724.73530340 Ry
     electric field correction =       0.00000979 Ry
     smearing contrib. (-TS)   =      -0.12501921 Ry

     convergence has been achieved in   8 iterations
 
 BEEF-vdW xc energy contributions
           1 :   -547.417931035702     
           2 :    503.314981668909     
           3 :   -425.337300440517     
           4 :    330.133960742163     
           5 :   -235.402766343012     
           6 :    155.183482476167     
           7 :   -97.1637880109115     
           8 :    62.3364562068409     
           9 :   -46.5214184790980     
          10 :    42.8222897067665     
          11 :   -44.0800383084717     
          12 :    44.6375164289528     
          13 :   -41.1607410981383     
          14 :    32.6582265149426     
          15 :   -20.0437166576287     
          16 :    5.52267758801440     
          17 :    8.08909332969370     
          18 :   -18.1129568837335     
          19 :    22.7581857926506     
          20 :   -21.6898093342736     
          21 :    16.1771990285341     
          22 :   -8.69788567844876     
          23 :    2.08382321185775     
          24 :    1.48097611676508     
          25 :   -1.20569920985372     
          26 :   -2.13945670863018     
          27 :    6.69710488073156     
          28 :   -10.4048613240094     
          29 :    11.8687232299760     
          30 :   -10.8457068820081     
          31 :   -46.7741075514795     
          32 :   -33.5435266555660     

     Forces acting on atoms (Ry/au):


     negative rho (up, down):  5.855E-01 0.000E+00
     atom    1 type  1   force =    -0.00053101   -0.00030175    0.00413706
     atom    2 type  1   force =     0.00052973   -0.00029703    0.00412644
     atom    3 type  1   force =     0.00000216    0.00060633    0.00411011
     atom    4 type  1   force =     0.00000129   -0.00000274    0.00474166
     atom    5 type  1   force =     0.00000243   -0.00054940   -0.00438943
     atom    6 type  1   force =    -0.00000072   -0.00000788   -0.00249229
     atom    7 type  1   force =     0.00046612    0.00027654   -0.00437532
     atom    8 type  1   force =    -0.00046849    0.00028123   -0.00437939
     atom    9 type  1   force =    -0.00000005    0.00000095   -0.00701045
     atom   10 type  1   force =    -0.00000172   -0.00125257   -0.00285009
     atom   11 type  1   force =    -0.00108838    0.00061995   -0.00284782
     atom   12 type  1   force =     0.00108697    0.00062612   -0.00284403
     atom   13 type  2   force =     0.00000063    0.00000077    0.03094970
     atom   14 type  3   force =     0.00000103   -0.00000052   -0.01687614

     Total force =     0.036344     Total SCF correction =     0.001951


     entering subroutine stress ...


     negative rho (up, down):  5.855E-01 0.000E+00
          total   stress  (Ry/bohr**3)                   (kbar)     P=    0.01
   0.00000605  -0.00000000   0.00000000          0.89     -0.00      0.00
  -0.00000000   0.00000605  -0.00000000         -0.00      0.89     -0.00
   0.00000000  -0.00000000  -0.00001193          0.00     -0.00     -1.75


     number of scf cycles    =   2
     number of bfgs steps    =   1

     energy   old            =   -1273.9418124721 Ry
     energy   new            =   -1273.9519937371 Ry

     CASE: energy  _new < energy  _old

     new trust radius        =       0.0254156456 bohr
     new conv_thr            =       0.0000001000 Ry


ATOMIC_POSITIONS (crystal)
La1      0.166666667   0.166666667   0.383173129    0   0   0
La1      0.666666667   0.166666667   0.383173129    0   0   0
La1      0.166666667   0.666666667   0.383173129    0   0   0
La1      0.666666667   0.666666667   0.383173129    0   0   0
La1      0.833333333   0.333333333   0.500000000    0   0   0
La1      0.333333333   0.333333333   0.500000000    0   0   0
La1      0.833333333   0.833333333   0.500000000    0   0   0
La1      0.333333333   0.833333333   0.500000000    0   0   0
La1     -0.000002342   0.000001709   0.616557262
La1      0.499990620   0.000020400   0.616765518
La1      0.000018258   0.499989599   0.616765967
La1      0.499992856   0.499988587   0.616766307
S1       0.333333247   0.333333417   0.692608868
H1       0.333333420   0.333333541   0.744734808



     Writing output data file calc.save
     Check: negative starting charge=   -0.830752
     NEW-OLD atomic charge density approx. for the potential
     Check: negative starting charge=   -0.830749

     negative rho (up, down):  5.857E-01 0.000E+00
 
     Adding external electric field

     Computed dipole along edir(3) : 
        Dipole                0.0810 Ry au,          0.2058 Debye
        Dipole field          0.0001 Ry au
 
        Potential amp.       -0.0115 Ry
        Total length         48.0849 bohr
 

     total cpu time spent up to now is     2942.2 secs

     per-process dynamical memory:   178.3 Mb

     Self-consistent Calculation

     iteration #  1     ecut=    36.75 Ry     beta=0.30
     Davidson diagonalization with overlap
     ethr =  1.00E-06,  avg # of iterations =  7.4

     negative rho (up, down):  5.857E-01 0.000E+00
 
     Adding external electric field

     Computed dipole along edir(3) : 
        Dipole               -0.2278 Ry au,         -0.5790 Debye
        Dipole field         -0.0003 Ry au
 
        Potential amp.        0.0324 Ry
        Total length         48.0849 bohr
 

     total cpu time spent up to now is     3022.7 secs

     total energy              =   -1273.95026438 Ry
     Harris-Foulkes estimate   =   -1273.95276314 Ry
     estimated scf accuracy    <       0.00513400 Ry

     iteration #  2     ecut=    36.75 Ry     beta=0.30
     Davidson diagonalization with overlap
     c_bands:  1 eigenvalues not converged
     ethr =  3.69E-06,  avg # of iterations = 14.4

     negative rho (up, down):  5.856E-01 0.000E+00
 
     Adding external electric field

     Computed dipole along edir(3) : 
        Dipole                0.0700 Ry au,          0.1778 Debye
        Dipole field          0.0001 Ry au
 
        Potential amp.       -0.0099 Ry
        Total length         48.0849 bohr
 

     total cpu time spent up to now is     3115.4 secs

     total energy              =   -1273.91438034 Ry
     Harris-Foulkes estimate   =   -1273.99093117 Ry
     estimated scf accuracy    <       3.63424867 Ry

     iteration #  3     ecut=    36.75 Ry     beta=0.30
     Davidson diagonalization with overlap
     c_bands:  1 eigenvalues not converged
     ethr =  3.69E-06,  avg # of iterations = 14.7

     negative rho (up, down):  5.856E-01 0.000E+00
 
     Adding external electric field

     Computed dipole along edir(3) : 
        Dipole                0.0681 Ry au,          0.1732 Debye
        Dipole field          0.0001 Ry au
 
        Potential amp.       -0.0097 Ry
[...]
   -14.2410 -14.1845 -14.1763 -14.1496 -14.1324 -14.1188 -14.0355 -13.9678
   -11.9721  -4.8207  -1.5615  -1.5008   0.3837   0.8218   0.9847   1.0475
     1.1407   1.2028   1.2549   1.3748   1.4536   1.5214   1.5739   1.6579
     1.7389   1.8019   1.9360   1.9796   2.0279   2.0578   2.1526   2.2019
     2.2715   2.3214   2.3740   2.4811   2.5001   2.6031   2.6207

          k = 0.0223-0.0644 0.0000 ( 31991 PWs)   bands (ev):

   -31.2287 -31.1956 -31.1827 -31.1711 -31.1468 -31.1374 -31.1184 -31.0841
   -30.7612 -30.7289 -30.7051 -30.6741 -15.2383 -15.1755 -15.1436 -15.1189
   -15.0881 -15.0758 -15.0132 -14.9944 -14.9752 -14.9534 -14.9322 -14.9055
   -14.8802 -14.8712 -14.8266 -14.7940 -14.7381 -14.7023 -14.6135 -14.5878
   -14.5058 -14.4934 -14.4653 -14.4615 -14.4115 -14.4072 -14.3778 -14.3576
   -14.2410 -14.1845 -14.1763 -14.1496 -14.1324 -14.1188 -14.0355 -13.9678
   -11.9721  -4.8207  -1.5615  -1.5008   0.3837   0.8218   0.9847   1.0475
     1.1407   1.2028   1.2549   1.3748   1.4536   1.5214   1.5739   1.6579
     1.7389   1.8019   1.9360   1.9796   2.0279   2.0578   2.1526   2.2019
     2.2715   2.3214   2.3740   2.4811   2.5001   2.6031   2.6207

          k = 0.0223-0.0387 0.0000 ( 32007 PWs)   bands (ev):

   -31.2572 -31.2098 -31.1669 -31.1662 -31.1419 -31.1251 -31.1085 -31.0879
   -30.7860 -30.7083 -30.6968 -30.6777 -15.3384 -15.2754 -15.2353 -15.2294
   -15.1933 -15.1708 -15.1481 -15.0734 -15.0411 -15.0290 -14.9424 -14.8636
   -14.8318 -14.7856 -14.7139 -14.6894 -14.5615 -14.5557 -14.5495 -14.5374
   -14.5347 -14.5200 -14.5066 -14.4975 -14.4736 -14.3415 -14.3065 -14.2413
   -14.1817 -14.1691 -14.1634 -14.1285 -14.0923 -14.0909 -14.0532 -13.9074
   -11.9793  -4.8377  -1.5526  -1.5089  -0.1573   0.5427   0.7383   0.7735
     0.8745   0.9050   0.9254   0.9828   1.2051   1.2451   1.2837   1.3085
     1.3738   1.4691   1.5564   1.9441   1.9928   2.0307   2.1590   2.3739
     2.4436   2.5283   2.5753   2.6375   2.6873   2.8860   2.9313

          k = 0.0446-0.0258 0.0000 ( 32002 PWs)   bands (ev):

   -31.2496 -31.2024 -31.1833 -31.1502 -31.1494 -31.1354 -31.1019 -31.0918
   -30.7793 -30.7186 -30.6896 -30.6816 -15.3092 -15.2550 -15.2229 -15.1784
   -15.1683 -15.1579 -15.0787 -15.0567 -15.0260 -15.0093 -14.9394 -14.8831
   -14.8275 -14.8070 -14.6868 -14.6846 -14.6662 -14.6560 -14.5891 -14.5537
   -14.5316 -14.5213 -14.4944 -14.4801 -14.4400 -14.3521 -14.3143 -14.2303
   -14.2228 -14.1706 -14.1629 -14.1558 -14.1271 -14.1161 -14.0296 -13.9154
   -11.9769  -4.8321  -1.5601  -1.5019  -0.0139   0.6522   0.7477   0.8018
     0.9197   0.9827   1.0530   1.1957   1.2605   1.2613   1.3592   1.4992
     1.5302   1.6072   1.6467   1.9643   1.9668   2.0745   2.1188   2.2752
     2.4062   2.4942   2.5882   2.6021   2.6719   2.7652   2.8348

          k = 0.0446 0.0000 0.0000 ( 32007 PWs)   bands (ev):

   -31.2572 -31.2098 -31.1669 -31.1662 -31.1419 -31.1251 -31.1085 -31.0879
   -30.7860 -30.7083 -30.6968 -30.6777 -15.3384 -15.2754 -15.2353 -15.2294
   -15.1933 -15.1708 -15.1481 -15.0734 -15.0411 -15.0290 -14.9424 -14.8636
   -14.8318 -14.7856 -14.7139 -14.6894 -14.5615 -14.5557 -14.5495 -14.5374
   -14.5347 -14.5200 -14.5066 -14.4975 -14.4736 -14.3415 -14.3065 -14.2413
   -14.1817 -14.1691 -14.1634 -14.1285 -14.0923 -14.0909 -14.0532 -13.9074
   -11.9793  -4.8377  -1.5526  -1.5089  -0.1573   0.5427   0.7383   0.7735
     0.8745   0.9050   0.9254   0.9828   1.2051   1.2451   1.2837   1.3085
     1.3738   1.4691   1.5564   1.9441   1.9928   2.0307   2.1590   2.3739
     2.4436   2.5283   2.5753   2.6375   2.6873   2.8860   2.9313

          k = 0.0446 0.0258 0.0000 ( 32002 PWs)   bands (ev):

   -31.2496 -31.2024 -31.1833 -31.1502 -31.1494 -31.1354 -31.1019 -31.0918
   -30.7793 -30.7186 -30.6896 -30.6816 -15.3092 -15.2550 -15.2229 -15.1784
   -15.1683 -15.1579 -15.0787 -15.0567 -15.0260 -15.0093 -14.9394 -14.8831
   -14.8275 -14.8070 -14.6868 -14.6846 -14.6662 -14.6560 -14.5891 -14.5537
   -14.5316 -14.5213 -14.4944 -14.4801 -14.4400 -14.3521 -14.3143 -14.2303
   -14.2228 -14.1706 -14.1629 -14.1558 -14.1271 -14.1161 -14.0296 -13.9154
   -11.9769  -4.8321  -1.5601  -1.5019  -0.0139   0.6522   0.7477   0.8018
     0.9197   0.9827   1.0530   1.1957   1.2605   1.2613   1.3592   1.4993
     1.5302   1.6072   1.6467   1.9643   1.9668   2.0745   2.1188   2.2752
     2.4062   2.4942   2.5882   2.6021   2.6719   2.7652   2.8348

          k = 0.0446-0.1031 0.0000 ( 31991 PWs)   bands (ev):

   -31.2287 -31.1956 -31.1827 -31.1711 -31.1468 -31.1374 -31.1184 -31.0841
   -30.7612 -30.7289 -30.7051 -30.6741 -15.2383 -15.1755 -15.1436 -15.1189
   -15.0881 -15.0758 -15.0132 -14.9944 -14.9752 -14.9534 -14.9322 -14.9055
   -14.8802 -14.8712 -14.8266 -14.7940 -14.7381 -14.7023 -14.6135 -14.5878
   -14.5058 -14.4934 -14.4653 -14.4615 -14.4115 -14.4072 -14.3778 -14.3576
   -14.2410 -14.1845 -14.1763 -14.1496 -14.1324 -14.1188 -14.0355 -13.9678
   -11.9721  -4.8207  -1.5615  -1.5008   0.3837   0.8218   0.9847   1.0475
     1.1407   1.2028   1.2549   1.3748   1.4536   1.5214   1.5739   1.6579
     1.7389   1.8019   1.9360   1.9796   2.0279   2.0578   2.1526   2.2019
     2.2715   2.3214   2.3740   2.4811   2.5001   2.6031   2.6207

          k = 0.0446-0.0773 0.0000 ( 31986 PWs)   bands (ev):

   -31.2007 -31.1997 -31.1996 -31.1648 -31.1505 -31.1370 -31.1329 -31.0799
   -30.7449 -30.7280 -30.7263 -30.6703 -15.1677 -15.0813 -15.0680 -15.0645
   -15.0637 -15.0467 -15.0233 -14.9630 -14.9494 -14.9218 -14.9179 -14.8986
   -14.8962 -14.8938 -14.8797 -14.8665 -14.8523 -14.8334 -14.5189 -14.5186
   -14.5142 -14.4908 -14.4853 -14.4839 -14.4589 -14.4435 -14.3736 -14.3564
   -14.3508 -14.1859 -14.1539 -14.1412 -14.1306 -14.0606 -14.0570 -14.0491
   -11.9698  -4.8150  -1.5570  -1.5054   0.8868   0.8939   0.9198   1.3317
     1.3443   1.3455   1.4234   1.5117   1.6908   1.7541   1.7665   1.7739
     1.7781   1.7916   1.8091   1.9468   1.9607   1.9627   2.0302   2.0309
     2.1908   2.3196   2.3523   2.3943   2.4128   2.4439   2.4481

          k = 0.0446-0.0515 0.0000 ( 31991 PWs)   bands (ev):

   -31.2287 -31.1956 -31.1827 -31.1711 -31.1468 -31.1374 -31.1184 -31.0841
   -30.7612 -30.7289 -30.7051 -30.6741 -15.2383 -15.1755 -15.1436 -15.1189
   -15.0881 -15.0758 -15.0132 -14.9944 -14.9752 -14.9534 -14.9322 -14.9055
   -14.8802 -14.8712 -14.8266 -14.7940 -14.7381 -14.7023 -14.6135 -14.5878
   -14.5058 -14.4934 -14.4653 -14.4615 -14.4115 -14.4072 -14.3778 -14.3576
   -14.2410 -14.1845 -14.1763 -14.1496 -14.1324 -14.1188 -14.0355 -13.9678
   -11.9721  -4.8207  -1.5615  -1.5008   0.3837   0.8218   0.9847   1.0475
     1.1407   1.2028   1.2549   1.3748   1.4536   1.5214   1.5739   1.6579
     1.7389   1.8020   1.9360   1.9796   2.0279   2.0578   2.1526   2.2019
     2.2715   2.3214   2.3740   2.4811   2.5001   2.6031   2.6207

          k =-0.0669 0.0387 0.0000 ( 31970 PWs)   bands (ev):

   -31.2169 -31.2163 -31.1767 -31.1605 -31.1502 -31.1494 -31.1030 -31.0918
   -30.7554 -30.7422 -30.6902 -30.6816 -15.2428 -15.1917 -15.1584 -15.1219
   -15.1044 -15.0858 -15.0142 -14.9802 -14.9631 -14.9295 -14.8780 -14.8630
   -14.8508 -14.8287 -14.8244 -14.7795 -14.7485 -14.7413 -14.7184 -14.7152
   -14.4974 -14.4881 -14.4178 -14.4160 -14.3881 -14.3690 -14.3463 -14.3348
   -14.2916 -14.2849 -14.1657 -14.1587 -14.1447 -14.1250 -13.9798 -13.9661
   -11.9722  -4.8208  -1.5687  -1.4937   0.5013   0.5449   0.9088   0.9875
     1.2190   1.2613   1.2963   1.3327   1.3386   1.4605   1.6607   1.7252
     1.8658   1.8853   1.9071   1.9500   2.1427   2.1980   2.2417   2.2731
     2.2776   2.3149   2.4379   2.4825   2.5884   2.5920   2.6580

          k =-0.0669 0.0644 0.0000 ( 31991 PWs)   bands (ev):

   -31.2287 -31.1956 -31.1827 -31.1711 -31.1468 -31.1374 -31.1184 -31.0841
   -30.7612 -30.7289 -30.7051 -30.6741 -15.2383 -15.1755 -15.1436 -15.1189
   -15.0881 -15.0758 -15.0132 -14.9944 -14.9752 -14.9534 -14.9322 -14.9055
   -14.8802 -14.8712 -14.8266 -14.7940 -14.7381 -14.7023 -14.6135 -14.5878
   -14.5058 -14.4934 -14.4653 -14.4615 -14.4115 -14.4072 -14.3778 -14.3576
   -14.2410 -14.1845 -14.1763 -14.1496 -14.1324 -14.1188 -14.0355 -13.9678
   -11.9721  -4.8207  -1.5615  -1.5008   0.3837   0.8218   0.9847   1.0475
     1.1407   1.2028   1.2549   1.3748   1.4536   1.5214   1.5739   1.6579
     1.7389   1.8019   1.9360   1.9796   2.0279   2.0578   2.1526   2.2019
     2.2715   2.3214   2.3740   2.4811   2.5001   2.6031   2.6207

          k =-0.0669 0.0902 0.0000 ( 31991 PWs)   bands (ev):

   -31.2287 -31.1956 -31.1827 -31.1711 -31.1468 -31.1374 -31.1184 -31.0841
   -30.7612 -30.7289 -30.7051 -30.6741 -15.2383 -15.1755 -15.1436 -15.1189
   -15.0881 -15.0758 -15.0132 -14.9944 -14.9752 -14.9534 -14.9322 -14.9055
   -14.8802 -14.8712 -14.8266 -14.7940 -14.7381 -14.7023 -14.6135 -14.5878
   -14.5058 -14.4934 -14.4653 -14.4615 -14.4115 -14.4072 -14.3778 -14.3576
   -14.2410 -14.1845 -14.1763 -14.1496 -14.1324 -14.1188 -14.0355 -13.9678
   -11.9721  -4.8207  -1.5615  -1.5008   0.3837   0.8218   0.9847   1.0475
     1.1407   1.2028   1.2549   1.3748   1.4536   1.5214   1.5739   1.6579
     1.7389   1.8019   1.9360   1.9796   2.0279   2.0578   2.1526   2.2019
     2.2715   2.3214   2.3740   2.4811   2.5001   2.6031   2.6207

          k =-0.0669-0.0387 0.0000 ( 31970 PWs)   bands (ev):

   -31.2169 -31.2163 -31.1767 -31.1605 -31.1502 -31.1494 -31.1030 -31.0918
   -30.7554 -30.7422 -30.6902 -30.6816 -15.2428 -15.1917 -15.1584 -15.1219
   -15.1044 -15.0858 -15.0142 -14.9802 -14.9631 -14.9295 -14.8780 -14.8630
   -14.8508 -14.8287 -14.8244 -14.7795 -14.7485 -14.7413 -14.7184 -14.7152
   -14.4974 -14.4881 -14.4178 -14.4160 -14.3881 -14.3690 -14.3463 -14.3348
   -14.2916 -14.2849 -14.1657 -14.1587 -14.1447 -14.1250 -13.9798 -13.9661
   -11.9722  -4.8208  -1.5687  -1.4937   0.5013   0.5449   0.9088   0.9875
     1.2190   1.2613   1.2963   1.3327   1.3386   1.4605   1.6607   1.7252
     1.8658   1.8853   1.9071   1.9500   2.1427   2.1980   2.2417   2.2731
     2.2776   2.3149   2.4379   2.4825   2.5884   2.5920   2.6580

     the Fermi energy is     2.0771 ev

!    total energy              =   -1273.95445188 Ry
     Harris-Foulkes estimate   =   -1273.95445164 Ry
     estimated scf accuracy    <       0.00000006 Ry

     The total energy is the sum of the following terms:

     one-electron contribution =   -4791.81527622 Ry
     hartree contribution      =    2410.38650676 Ry
     xc contribution           =    -618.17406071 Ry
     ewald contribution        =    1725.77253753 Ry
     electric field correction =       0.00000380 Ry
     smearing contrib. (-TS)   =      -0.12416304 Ry

     convergence has been achieved in  10 iterations
 
 BEEF-vdW xc energy contributions
           1 :   -547.429833590424     
           2 :    503.322293908126     
           3 :   -425.341181188230     
           4 :    330.136951273000     
           5 :   -235.404796517445     
           6 :    155.183389485764     
           7 :   -97.1623853018033     
           8 :    62.3385111046313     
           9 :   -46.5335772280611     
          10 :    42.8474687296746     
          11 :   -44.1124219773454     
          12 :    44.6633684900711     
          13 :   -41.1665458484380     
          14 :    32.6404445998855     
          15 :   -20.0122358947855     
          16 :    5.49545916674333     
          17 :    8.09623121390689     
          18 :   -18.0949764364289     
          19 :    22.7235773124864     
          20 :   -21.6563044310739     
          21 :    16.1622801231935     
          22 :   -8.70882975900838     
          23 :    2.11365529831994     
          24 :    1.44824585824074     
          25 :   -1.18428447760505     
          26 :   -2.14550219177806     
          27 :    6.69400292405419     
          28 :   -10.4021298155965     
          29 :    11.8713034945403     
          30 :   -10.8503946872034     
          31 :   -46.7749593889279     
          32 :   -33.5433064005128     

     Forces acting on atoms (Ry/au):


     negative rho (up, down):  5.847E-01 0.000E+00
     atom    1 type  1   force =    -0.00051592   -0.00029797    0.00386173
     atom    2 type  1   force =     0.00051591   -0.00029796    0.00386142
     atom    3 type  1   force =    -0.00000013    0.00059574    0.00386158
     atom    4 type  1   force =    -0.00000016    0.00000002    0.00381895
     atom    5 type  1   force =     0.00000037    0.00078035   -0.00602957
     atom    6 type  1   force =    -0.00000012   -0.00000028   -0.00266904
     atom    7 type  1   force =    -0.00067599   -0.00038998   -0.00602967
     atom    8 type  1   force =     0.00067590   -0.00038990   -0.00602984
     atom    9 type  1   force =     0.00000022    0.00000055    0.00083613
     atom   10 type  1   force =     0.00000008   -0.00134507    0.00076955
     atom   11 type  1   force =    -0.00116528    0.00067225    0.00077022
     atom   12 type  1   force =     0.00116531    0.00067232    0.00076968
     atom   13 type  2   force =    -0.00000010   -0.00000017    0.00121572
     atom   14 type  3   force =    -0.00000008    0.00000012    0.00099313

     Total force =     0.003220     Total SCF correction =     0.000172


     entering subroutine stress ...


     negative rho (up, down):  5.847E-01 0.000E+00
          total   stress  (Ry/bohr**3)                   (kbar)     P=    0.03
   0.00000355   0.00000000  -0.00000000          0.52      0.00     -0.00
   0.00000000   0.00000355   0.00000000          0.00      0.52      0.00
  -0.00000000   0.00000000  -0.00000658         -0.00      0.00     -0.97


     bfgs converged in  14 scf cycles and  13 bfgs steps
     (criteria: energy <  1.0E+00, force <  1.9E-03)

     End of BFGS Geometry Optimization

     Final energy   =   -1273.9544518805 Ry
Begin final coordinates

ATOMIC_POSITIONS (crystal)
La1      0.166666667   0.166666667   0.383173129    0   0   0
La1      0.666666667   0.166666667   0.383173129    0   0   0
La1      0.166666667   0.666666667   0.383173129    0   0   0
La1      0.666666667   0.666666667   0.383173129    0   0   0
La1      0.833333333   0.333333333   0.500000000    0   0   0
La1      0.333333333   0.333333333   0.500000000    0   0   0
La1      0.833333333   0.833333333   0.500000000    0   0   0
La1      0.333333333   0.833333333   0.500000000    0   0   0
La1      0.000000003  -0.000000759   0.611623560
La1      0.498340795   0.003318367   0.617280333
La1      0.003317757   0.498341284   0.617280022
La1      0.498340443   0.498341714   0.617280255
S1       0.333332712   0.333334303   0.695816082
H1       0.333333896   0.333332742   0.747738434
End final coordinates



     Writing output data file calc.save
 
     init_run     :     45.08s CPU     46.04s WALL (       1 calls)
     electrons    :  13259.31s CPU  14322.18s WALL (      14 calls)
     update_pot   :     73.68s CPU     77.55s WALL (      13 calls)
     forces       :   1051.52s CPU   1131.12s WALL (      14 calls)
     stress       :   3174.06s CPU   3385.89s WALL (      14 calls)

     Called by init_run:
     wfcinit      :     17.02s CPU     17.39s WALL (       1 calls)
     potinit      :      3.74s CPU      4.00s WALL (       1 calls)

     Called by electrons:
     c_bands      :   3664.97s CPU   3943.50s WALL (     158 calls)
     sum_band     :   3555.00s CPU   3837.05s WALL (     158 calls)
     v_of_rho     :    515.20s CPU    572.61s WALL (     171 calls)
     newd         :   3942.23s CPU   4002.82s WALL (     171 calls)
     mix_rho      :     17.78s CPU     18.12s WALL (     158 calls)
     vdW_energy   :    261.41s CPU    288.74s WALL (     675 calls)
     vdW_ffts     :    729.11s CPU    756.64s WALL (    1378 calls)
     vdW_v        :    257.88s CPU    265.40s WALL (     675 calls)

     Called by c_bands:
     init_us_2    :     36.04s CPU     36.23s WALL (    1725 calls)
     cegterg      :   2937.26s CPU   3001.66s WALL (     790 calls)

     Called by *egterg:
     h_psi        :   2032.36s CPU   2072.53s WALL (    6022 calls)
     s_psi        :    274.24s CPU    274.93s WALL (    6022 calls)
     g_psi        :      9.55s CPU      9.58s WALL (    5227 calls)
     cdiaghg      :    191.28s CPU    192.56s WALL (    5947 calls)

     Called by h_psi:
     add_vuspsi   :    277.53s CPU    278.27s WALL (    6022 calls)

     General routines
     calbec       :    396.70s CPU    405.05s WALL (    6952 calls)
     fft          :   1193.95s CPU   1302.56s WALL (   40745 calls)
     ffts         :      1.24s CPU      1.33s WALL (     329 calls)
     fftw         :   1038.57s CPU   1078.91s WALL (  416236 calls)
     interpolate  :     11.38s CPU     11.92s WALL (     329 calls)
     davcio       :      0.00s CPU      0.04s WALL (       5 calls)
 
     Parallel routines
     fft_scatter  :   1382.48s CPU   1525.59s WALL (  457310 calls)
 
     PWSCF        :     4h58m CPU        5h21m WALL

 
   This run was terminated on:   3:35: 7  19Apr2018            

=------------------------------------------------------------------------------=
   JOB DONE.
=------------------------------------------------------------------------------=
Job  /afs/slac/g/suncat/bin/suncat-tsmpirun -x LD_LIBRARY_PATH -wdir /scratch/qe340110_yCupu pw.x -npool 4 -in pw.inp

TID   HOST_NAME   COMMAND_LINE            STATUS            TERMINATION_TIME
===== ========== ================  =======================  ===================
00000 suncat0073 pw.x -npool 4 -i  Done                     04/19/2018 03:35:07
00001 suncat0073 pw.x -npool 4 -i  Done                     04/19/2018 03:35:07
00002 suncat0073 pw.x -npool 4 -i  Done                     04/19/2018 03:35:07
00003 suncat0073 pw.x -npool 4 -i  Done                     04/19/2018 03:35:07
00004 suncat0073 pw.x -npool 4 -i  Done                     04/19/2018 03:35:07
00005 suncat0073 pw.x -npool 4 -i  Done                     04/19/2018 03:35:07
00006 suncat0073 pw.x -npool 4 -i  Done                     04/19/2018 03:35:07
00007 suncat0073 pw.x -npool 4 -i  Done                     04/19/2018 03:35:07
00008 suncat0173 pw.x -npool 4 -i  Done                     04/19/2018 03:35:07
00009 suncat0173 pw.x -npool 4 -i  Done                     04/19/2018 03:35:07
00010 suncat0173 pw.x -npool 4 -i  Done                     04/19/2018 03:35:07
00011 suncat0173 pw.x -npool 4 -i  Done                     04/19/2018 03:35:07
00012 suncat0173 pw.x -npool 4 -i  Done                     04/19/2018 03:35:07
00013 suncat0173 pw.x -npool 4 -i  Done                     04/19/2018 03:35:07
00014 suncat0173 pw.x -npool 4 -i  Done                     04/19/2018 03:35:07
00015 suncat0173 pw.x -npool 4 -i  Done                     04/19/2018 03:35:07
00016 suncat0141 pw.x -npool 4 -i  Done                     04/19/2018 03:35:07
00017 suncat0141 pw.x -npool 4 -i  Done                     04/19/2018 03:35:07
00018 suncat0141 pw.x -npool 4 -i  Done                     04/19/2018 03:35:07
00019 suncat0141 pw.x -npool 4 -i  Done                     04/19/2018 03:35:07
00020 suncat0141 pw.x -npool 4 -i  Done                     04/19/2018 03:35:07
00021 suncat0141 pw.x -npool 4 -i  Done                     04/19/2018 03:35:07
00022 suncat0141 pw.x -npool 4 -i  Done                     04/19/2018 03:35:07
00023 suncat0141 pw.x -npool 4 -i  Done                     04/19/2018 03:35:07
00024 suncat0124 pw.x -npool 4 -i  Done                     04/19/2018 03:35:07
00025 suncat0124 pw.x -npool 4 -i  Done                     04/19/2018 03:35:07
00026 suncat0124 pw.x -npool 4 -i  Done                     04/19/2018 03:35:07
00027 suncat0124 pw.x -npool 4 -i  Done                     04/19/2018 03:35:07
00028 suncat0124 pw.x -npool 4 -i  Done                     04/19/2018 03:35:07
00029 suncat0124 pw.x -npool 4 -i  Done                     04/19/2018 03:35:07
00030 suncat0124 pw.x -npool 4 -i  Done                     04/19/2018 03:35:07
00031 suncat0124 pw.x -npool 4 -i  Done                     04/19/2018 03:35:07
