  python dir          : /u/if/mamunm/src/espresso
  espresso dir        : /nfs/slac/g/suncatfs/sw/espv18/espresso-dynpy-beef/bin
  pseudo dir          : /u/if/mamunm/psp/gbrv1.5pbe
  ase-espresso py git : GITVERSION



     Program PWSCF v.5.1rc2 (svn rev. 11289) starts on  3May2018 at  6:50:33 

     This program is part of the open-source Quantum ESPRESSO suite
     for quantum simulation of materials; please cite
         "P. Giannozzi et al., J. Phys.:Condens. Matter 21 395502 (2009);
          URL http://www.quantum-espresso.org", 
     in publications or presentations arising from this work. More details at
     http://www.quantum-espresso.org/quote

     Parallel version (MPI), running on    32 processors
     K-points division:     npool     =       4
     R & G space division:  proc/nbgrp/npool/nimage =       8
     Reading input from pw.inp
     Message from routine read_cards :
     DEPRECATED: no units specified in CELL_PARAMETERS card

     Current dimensions of program PWSCF are:
     Max number of different atomic species (ntypx) = 10
     Max number of k-points (npk) =  40000
     Max angular momentum in pseudopotentials (lmaxx) =  3
     Presently stress not available with electric field


     **************************************************************************
     Initializing libbeef V0.1.1 with the BEEF-vdW functional.
     Citation: Wellendorff et al., PRB 85, 235149 (2012).
     **************************************************************************


     IMPORTANT: XC functional enforced from input :
     Exchange-correlation      = BEEF-VDW ( 1  4 27 13 2)
     Any further DFT definition will be discarded
     Please, verify this is what you really want


     Subspace diagonalization in iterative solution of the eigenvalue problem:
     a serial algorithm will be used

 
     Parallelization info
     --------------------
     sticks:   dense  smooth     PW     G-vecs:    dense   smooth      PW
     Min         403     160     46                77132    19506    3044
     Max         407     161     50                77135    19535    3047
     Sum        3241    1285    379               617075   156145   24367
 


     bravais-lattice index     =            0
     lattice parameter (alat)  =       1.8897  a.u.
     unit-cell volume          =    5185.0501 (a.u.)^3
     number of atoms/cell      =           13
     number of atomic types    =            2
     number of electrons       =       157.00
     number of Kohn-Sham states=           88
     kinetic-energy cutoff     =      36.7493  Ry
     charge density cutoff     =     367.4932  Ry
     convergence threshold     =      1.0E-05
     mixing beta               =       0.3000
     number of iterations used =           10  plain     mixing
     Exchange-correlation      = BEEF-VDW ( 1  4 27 13 2)
     nstep                     =           50


     celldm(1)=   1.889726  celldm(2)=   0.000000  celldm(3)=   0.000000
     celldm(4)=   0.000000  celldm(5)=   0.000000  celldm(6)=   0.000000

     crystal axes: (cart. coord. in units of alat)
               a(1) = (   5.972022   0.000000   0.000000 )  
               a(2) = (   2.986011   5.171923   0.000000 )  
               a(3) = (   0.000000   0.000000  24.876136 )  

     reciprocal axes: (cart. coord. in units 2 pi/alat)
               b(1) = (  0.167447 -0.096676  0.000000 )  
               b(2) = (  0.000000  0.193352  0.000000 )  
               b(3) = (  0.000000  0.000000  0.040199 )  


     PseudoPot. # 1 for Ta read from file:
     /u/if/mamunm/psp/gbrv1.5pbe/Ta.UPF
     MD5 check sum: f8bbe9446314a3b8ea5d9f3e3836c939
     Pseudo is Ultrasoft + core correction, Zval = 13.0
     Generated by new atomic code, or converted to UPF format
     Using radial grid of  921 points,  7 beta functions with: 
                l(1) =   0
                l(2) =   0
                l(3) =   1
                l(4) =   1
                l(5) =   2
                l(6) =   2
                l(7) =   3
     Q(r) pseudized with  6 coefficients,  rinner =    1.300   1.300   1.300
                                                       1.300   1.300   1.300
                                                       1.300

     PseudoPot. # 2 for H  read from file:
     /u/if/mamunm/psp/gbrv1.5pbe/H.UPF
     MD5 check sum: 761ae9a214b05c3daf00ab9f6b793d6f
     Pseudo is Ultrasoft, Zval =  1.0
     Generated by new atomic code, or converted to UPF format
     Using radial grid of  615 points,  2 beta functions with: 
                l(1) =   0
                l(2) =   0
     Q(r) pseudized with  8 coefficients,  rinner =    0.700

     vdW kernel table read from file vdW_kernel_table
     MD5 check sum: 095c7af220d748ca6e76c0b4c6cfb241

     atomic species   valence    mass     pseudopotential
        Ta1           13.00   180.94788     Ta( 1.00)
        H1             1.00     1.00800     H ( 1.00)

     No symmetry found



   Cartesian axes

     site n.     atom                  positions (alat units)
         1           Ta1 tau(   1) = (   1.4930055   0.8619871  10.0000000  )
         2           Ta1 tau(   2) = (   4.4790165   0.8619871  10.0000000  )
         3           Ta1 tau(   3) = (   2.9860110   3.4479485  10.0000000  )
         4           Ta1 tau(   4) = (   5.9720221   3.4479485  10.0000000  )
         5           Ta1 tau(   5) = (   5.9720221   1.7239743  12.4380678  )
         6           Ta1 tau(   6) = (   2.9860110   1.7239743  12.4380678  )
         7           Ta1 tau(   7) = (   7.4650276   4.3099357  12.4380678  )
         8           Ta1 tau(   8) = (   4.4790165   4.3099357  12.4380678  )
         9           Ta1 tau(   9) = (   0.0000000   0.0000000  14.8761356  )
        10           Ta1 tau(  10) = (   2.9860110   0.0000000  14.8761356  )
        11           Ta1 tau(  11) = (   1.4930055   2.5859614  14.8761356  )
        12           Ta1 tau(  12) = (   4.4790165   2.5859614  14.8761356  )
        13           H1  tau(  13) = (   1.4930055   0.8619871  16.1826356  )

     number of k points=    20  Fermi-Dirac smearing, width (Ry)=  0.0110
                       cart. coord. in units 2pi/alat
        k(    1) = (   0.0000000   0.0000000   0.0000000), wk =   0.0555556
        k(    2) = (   0.0000000   0.0322253   0.0000000), wk =   0.1111111
        k(    3) = (   0.0000000   0.0644506   0.0000000), wk =   0.1111111
        k(    4) = (   0.0000000  -0.0966758   0.0000000), wk =   0.0555556
        k(    5) = (   0.0279079  -0.0161126   0.0000000), wk =   0.1111111
        k(    6) = (   0.0279079   0.0161126   0.0000000), wk =   0.1111111
        k(    7) = (   0.0279079   0.0483379   0.0000000), wk =   0.1111111
        k(    8) = (   0.0279079  -0.1127885   0.0000000), wk =   0.1111111
        k(    9) = (   0.0279079  -0.0805632   0.0000000), wk =   0.1111111
        k(   10) = (   0.0279079  -0.0483379   0.0000000), wk =   0.1111111
        k(   11) = (   0.0558158  -0.0322253   0.0000000), wk =   0.1111111
        k(   12) = (   0.0558158   0.0000000   0.0000000), wk =   0.1111111
        k(   13) = (   0.0558158   0.0322253   0.0000000), wk =   0.1111111
        k(   14) = (   0.0558158  -0.1289011   0.0000000), wk =   0.1111111
        k(   15) = (   0.0558158  -0.0966758   0.0000000), wk =   0.1111111
        k(   16) = (   0.0558158  -0.0644506   0.0000000), wk =   0.1111111
        k(   17) = (  -0.0837237   0.0483379   0.0000000), wk =   0.0555556
        k(   18) = (  -0.0837237   0.0805632   0.0000000), wk =   0.1111111
        k(   19) = (  -0.0837237   0.1127885   0.0000000), wk =   0.1111111
        k(   20) = (  -0.0837237  -0.0483379   0.0000000), wk =   0.0555556

     Dense  grid:   617075 G-vectors     FFT dimensions: (  72,  72, 288)

     Smooth grid:   156145 G-vectors     FFT dimensions: (  45,  45, 192)

     Largest allocated arrays     est. size (Mb)     dimensions
        Kohn-Sham Wavefunctions         3.34 Mb     (    2487,   88)
        NL pseudopotentials            11.46 Mb     (    2487,  302)
        Each V/rho on FFT grid          2.85 Mb     (  186624)
        Each G-vector array             0.59 Mb     (   77132)
        G-vector shells                 0.16 Mb     (   21038)
     Largest temporary arrays     est. size (Mb)     dimensions
        Auxiliary wavefunctions        13.36 Mb     (    2487,  352)
        Each subspace H/S matrix        1.89 Mb     (     352,  352)
        Each <psi_i|beta_j> matrix      0.41 Mb     (     302,   88)
        Arrays for rho mixing          28.48 Mb     (  186624,   10)

     Initial potential from superposition of free atoms
     Check: negative starting charge=   -1.121610

     starting charge  156.98665, renormalised to  157.00000

     negative rho (up, down):  1.122E+00 0.000E+00


     ************************************************************************
     *
     * You are using vdW-DF for exchange-correlation in this calculation.
     * Please cite the following three references that made this development
     * possible:
     *
     *   M. Dion, H. Rydberg, E. Schroder, D. C. Langreth, and
     *   B. I. Lundqvist, Phys. Rev. Lett. 92, 246401 (2004).
     *
     *   T. Thonhauser, V. R. Cooper, S. Li, A. Puzder, P. Hyldgaard, and
     *   D. C. Langreth, Phys. Rev. B 76, 125112 (2007).
     *
     *   G. Roman-Perez and J. M. Soler, Phys. Rev. Lett. 103, 096102 (2009).
     *
     *
     * If you are using vdW-DF2, please also cite:
     *
     *   K. Lee, E. D. Murray, L. Kong, B. I. Lundqvist, and
     *   D. C. Langreth, Phys. Rev. B 82, 081101(R) (2010).
     *
     *
     * If you are calculating the stress with vdW-DF, please also cite:
     *
     *   R. Sabatini, E. Kucukbenli, B. Kolb, T. Thonhauser, and
     *   S. de Gironcoli, J. Phys.: Condens. Matter 24, 424209 (2012).
     *
     ************************************************************************

     Carrying out vdW-DF run using the following parameters:

     Nqs =      20    Nr_points =    1024   r_max =   100.000
     q_mesh =
               0.00001000     0.04494208     0.09755937     0.15916263
               0.23128650     0.31572767     0.41458969     0.53033537
               0.66584808     0.82450364     1.01025438     1.22772762
               1.48234092     1.78043706     2.12944203     2.53805004
               3.01644009     3.57652955     4.23227104     5.00000000

     Gradients computed in reciprocal space

     ************************************************************************


 
     Adding external electric field

     Computed dipole along edir(3) : 
        Dipole               -0.0005 Ry au,         -0.0014 Debye
        Dipole field         -0.0000 Ry au
 
        Potential amp.        0.0001 Ry
        Total length         45.8339 bohr
 
     Starting wfc are  157 randomized atomic wfcs

     total cpu time spent up to now is       16.5 secs

     per-process dynamical memory:    93.6 Mb

     Self-consistent Calculation

     iteration #  1     ecut=    36.75 Ry     beta=0.30
     Davidson diagonalization with overlap
     ethr =  1.00E-02,  avg # of iterations =  2.0

     negative rho (up, down):  1.136E+00 0.000E+00
 
     Adding external electric field

     Computed dipole along edir(3) : 
        Dipole               -1.5752 Ry au,         -4.0037 Debye
        Dipole field         -0.0038 Ry au
 
        Potential amp.        0.3499 Ry
        Total length         45.8339 bohr
 

     total cpu time spent up to now is       40.7 secs

     total energy              =   -1717.68165266 Ry
     Harris-Foulkes estimate   =   -1719.88711708 Ry
     estimated scf accuracy    <       4.75165777 Ry

     iteration #  2     ecut=    36.75 Ry     beta=0.30
     Davidson diagonalization with overlap
     ethr =  3.03E-03,  avg # of iterations =  7.8

     negative rho (up, down):  1.137E+00 0.000E+00
 
     Adding external electric field

     Computed dipole along edir(3) : 
        Dipole                2.6310 Ry au,          6.6874 Debye
        Dipole field          0.0064 Ry au
 
        Potential amp.       -0.5845 Ry
        Total length         45.8339 bohr
 

     total cpu time spent up to now is       72.8 secs

     total energy              =   -1712.53789789 Ry
     Harris-Foulkes estimate   =   -1724.67625745 Ry
     estimated scf accuracy    <     197.81424489 Ry

     iteration #  3     ecut=    36.75 Ry     beta=0.30
     Davidson diagonalization with overlap
     ethr =  3.03E-03,  avg # of iterations = 10.2

     negative rho (up, down):  1.138E+00 0.000E+00
 
     Adding external electric field

     Computed dipole along edir(3) : 
        Dipole                0.1724 Ry au,          0.4382 Debye
        Dipole field          0.0004 Ry au
 
        Potential amp.       -0.0383 Ry
        Total length         45.8339 bohr
 

     total cpu time spent up to now is      120.1 secs

     total energy              =   -1714.53778354 Ry
     Harris-Foulkes estimate   =   -1724.38564221 Ry
     estimated scf accuracy    <     312.60870433 Ry

     iteration #  4     ecut=    36.75 Ry     beta=0.30
     Davidson diagonalization with overlap
     ethr =  3.03E-03,  avg # of iterations =  6.0

     negative rho (up, down):  1.149E+00 0.000E+00
 
     Adding external electric field

     Computed dipole along edir(3) : 
        Dipole                0.0916 Ry au,          0.2329 Debye
        Dipole field          0.0002 Ry au
 
        Potential amp.       -0.0204 Ry
        Total length         45.8339 bohr
 

     total cpu time spent up to now is      161.5 secs

     total energy              =   -1719.49770495 Ry
     Harris-Foulkes estimate   =   -1719.54903458 Ry
     estimated scf accuracy    <       0.26412135 Ry

     iteration #  5     ecut=    36.75 Ry     beta=0.30
     Davidson diagonalization with overlap
     c_bands:  4 eigenvalues not converged
     ethr =  1.68E-04,  avg # of iterations =  5.1

     negative rho (up, down):  1.157E+00 0.000E+00
 
     Adding external electric field

     Computed dipole along edir(3) : 
        Dipole                0.0618 Ry au,          0.1571 Debye
        Dipole field          0.0001 Ry au
 
        Potential amp.       -0.0137 Ry
        Total length         45.8339 bohr
 

     total cpu time spent up to now is      191.4 secs

     total energy              =   -1719.50922437 Ry
     Harris-Foulkes estimate   =   -1719.52411404 Ry
     estimated scf accuracy    <       0.15737257 Ry

     iteration #  6     ecut=    36.75 Ry     beta=0.30
     Davidson diagonalization with overlap
     ethr =  1.00E-04,  avg # of iterations =  1.8

     negative rho (up, down):  1.165E+00 0.000E+00
 
     Adding external electric field

     Computed dipole along edir(3) : 
        Dipole                0.0523 Ry au,          0.1330 Debye
        Dipole field          0.0001 Ry au
 
        Potential amp.       -0.0116 Ry
        Total length         45.8339 bohr
 

     total cpu time spent up to now is      216.9 secs

     total energy              =   -1719.51001081 Ry
     Harris-Foulkes estimate   =   -1719.51759594 Ry
     estimated scf accuracy    <       0.06550933 Ry

     iteration #  7     ecut=    36.75 Ry     beta=0.30
     Davidson diagonalization with overlap
     ethr =  4.17E-05,  avg # of iterations =  3.5

     negative rho (up, down):  1.171E+00 0.000E+00
 
     Adding external electric field

     Computed dipole along edir(3) : 
        Dipole                0.0194 Ry au,          0.0492 Debye
        Dipole field          0.0000 Ry au
 
        Potential amp.       -0.0043 Ry
        Total length         45.8339 bohr
 

     total cpu time spent up to now is      242.9 secs

     total energy              =   -1719.51192016 Ry
     Harris-Foulkes estimate   =   -1719.51341143 Ry
     estimated scf accuracy    <       0.01014625 Ry

     iteration #  8     ecut=    36.75 Ry     beta=0.30
     Davidson diagonalization with overlap
     ethr =  6.46E-06,  avg # of iterations =  5.5

     negative rho (up, down):  1.173E+00 0.000E+00
 
     Adding external electric field

     Computed dipole along edir(3) : 
        Dipole                0.0174 Ry au,          0.0442 Debye
        Dipole field          0.0000 Ry au
 
        Potential amp.       -0.0039 Ry
        Total length         45.8339 bohr
 

     total cpu time spent up to now is      272.5 secs

     total energy              =   -1719.51303476 Ry
     Harris-Foulkes estimate   =   -1719.51324735 Ry
     estimated scf accuracy    <       0.00291934 Ry

     iteration #  9     ecut=    36.75 Ry     beta=0.30
     Davidson diagonalization with overlap
     ethr =  1.86E-06,  avg # of iterations =  4.3

     negative rho (up, down):  1.175E+00 0.000E+00
 
     Adding external electric field

     Computed dipole along edir(3) : 
        Dipole                0.0109 Ry au,          0.0276 Debye
        Dipole field          0.0000 Ry au
 
        Potential amp.       -0.0024 Ry
        Total length         45.8339 bohr
 

     total cpu time spent up to now is      300.0 secs

     total energy              =   -1719.51329542 Ry
     Harris-Foulkes estimate   =   -1719.51324274 Ry
     estimated scf accuracy    <       0.00045917 Ry

     iteration # 10     ecut=    36.75 Ry     beta=0.30
     Davidson diagonalization with overlap
     ethr =  2.92E-07,  avg # of iterations =  4.8

     negative rho (up, down):  1.176E+00 0.000E+00
 
     Adding external electric field

     Computed dipole along edir(3) : 
        Dipole                0.0075 Ry au,          0.0190 Debye
        Dipole field          0.0000 Ry au
 
        Potential amp.       -0.0017 Ry
        Total length         45.8339 bohr
 

     total cpu time spent up to now is      329.5 secs

     total energy              =   -1719.51336717 Ry
     Harris-Foulkes estimate   =   -1719.51339531 Ry
     estimated scf accuracy    <       0.00052462 Ry

     iteration # 11     ecut=    36.75 Ry     beta=0.30
     Davidson diagonalization with overlap
     ethr =  2.92E-07,  avg # of iterations =  2.5

     negative rho (up, down):  1.177E+00 0.000E+00
 
     Adding external electric field

     Computed dipole along edir(3) : 
        Dipole                0.0070 Ry au,          0.0179 Debye
        Dipole field          0.0000 Ry au
 
        Potential amp.       -0.0016 Ry
        Total length         45.8339 bohr
 

     total cpu time spent up to now is      355.3 secs

     total energy              =   -1719.51339813 Ry
     Harris-Foulkes estimate   =   -1719.51339703 Ry
     estimated scf accuracy    <       0.00006317 Ry

     iteration # 12     ecut=    36.75 Ry     beta=0.30
     Davidson diagonalization with overlap
     ethr =  4.02E-08,  avg # of iterations =  5.8

     negative rho (up, down):  1.177E+00 0.000E+00
 
     Adding external electric field

     Computed dipole along edir(3) : 
        Dipole                0.0064 Ry au,          0.0161 Debye
        Dipole field          0.0000 Ry au
 
        Potential amp.       -0.0014 Ry
        Total length         45.8339 bohr
 

     total cpu time spent up to now is      385.6 secs

     total energy              =   -1719.51340990 Ry
     Harris-Foulkes estimate   =   -1719.51340927 Ry
     estimated scf accuracy    <       0.00001643 Ry

     iteration # 13     ecut=    36.75 Ry     beta=0.30
     Davidson diagonalization with overlap
     ethr =  1.05E-08,  avg # of iterations =  3.1

     negative rho (up, down):  1.177E+00 0.000E+00

     negative rho (up, down):  1.177E+00 0.000E+00

     negative rho (up, down):  1.177E+00 0.000E+00

     negative rho (up, down):  1.177E+00 0.000E+00

     negative rho (up, down):  1.177E+00 0.000E+00

     negative rho (up, down):  1.177E+00 0.000E+00

     negative rho (up, down):  1.177E+00 0.000E+00

     negative rho (up, down):  1.177E+00 0.000E+00

     negative rho (up, down):  1.177E+00 0.000E+00

     negative rho (up, down):  1.177E+00 0.000E+00

     negative rho (up, down):  1.177E+00 0.000E+00

     negative rho (up, down):  1.177E+00 0.000E+00

     negative rho (up, down):  1.177E+00 0.000E+00

     negative rho (up, down):  1.177E+00 0.000E+00

     negative rho (up, down):  1.177E+00 0.000E+00

     negative rho (up, down):  1.177E+00 0.000E+00

     negative rho (up, down):  1.177E+00 0.000E+00

     negative rho (up, down):  1.177E+00 0.000E+00

     negative rho (up, down):  1.177E+00 0.000E+00

     negative rho (up, down):  1.177E+00 0.000E+00

     negative rho (up, down):  1.177E+00 0.000E+00

     negative rho (up, down):  1.177E+00 0.000E+00

     negative rho (up, down):  1.177E+00 0.000E+00

     negative rho (up, down):  1.177E+00 0.000E+00

     negative rho (up, down):  1.177E+00 0.000E+00

     negative rho (up, down):  1.177E+00 0.000E+00

     negative rho (up, down):  1.177E+00 0.000E+00

     negative rho (up, down):  1.177E+00 0.000E+00

     negative rho (up, down):  1.177E+00 0.000E+00

     negative rho (up, down):  1.177E+00 0.000E+00

     negative rho (up, down):  1.177E+00 0.000E+00

     negative rho (up, down):  1.177E+00 0.000E+00

     negative rho (up, down):  1.177E+00 0.000E+00

     negative rho (up, down):  1.177E+00 0.000E+00

     negative rho (up, down):  1.177E+00 0.000E+00
 
     Adding external electric field

     Computed dipole along edir(3) : 
        Dipole               -0.0154 Ry au,         -0.0390 Debye
        Dipole field         -0.0000 Ry au
 
        Potential amp.        0.0034 Ry
        Total length         45.8339 bohr
 

     total cpu time spent up to now is      463.0 secs

     End of self-consistent calculation

          k = 0.0000 0.0000 0.0000 ( 19447 PWs)   bands (ev):

   -66.3657 -66.3424 -66.3085 -66.3085 -66.2985 -66.2838 -66.2838 -66.2830
   -66.2662 -66.2259 -66.2259 -66.1934 -33.0938 -33.0793 -33.0793 -33.0594
   -33.0398 -33.0223 -33.0223 -32.9824 -32.9670 -32.9670 -32.7946 -32.6914
   -32.6914 -32.6860 -32.6238 -32.6238 -32.6211 -32.4921 -32.4921 -32.4878
   -32.4235 -32.4235 -32.4211 -32.4210 -32.4100 -32.3993 -32.3584 -32.3369
   -32.3369 -32.3341 -32.2839 -32.2839 -32.2457 -32.2457 -32.1935 -32.1935
    -5.5934  -4.3018  -3.1266  -2.4282  -2.1174  -2.1174  -2.0165  -1.9231
    -1.9231  -1.6897  -1.2310  -1.2310  -1.0974  -0.9792  -0.9792  -0.5157
     0.2158   0.2158   0.7108   1.3084   1.4981   1.4981   1.5485   1.8701
     1.9107   2.0145   2.0145   2.1410   2.3288   2.3288   2.5748   2.6217
     2.6217   2.6934   2.6934   2.7013   2.8047   2.8047   2.9614   2.9614

          k = 0.0000 0.0322 0.0000 ( 19481 PWs)   bands (ev):

   -66.3617 -66.3385 -66.3114 -66.3085 -66.2995 -66.2876 -66.2838 -66.2833
   -66.2633 -66.2279 -66.2259 -66.1941 -33.0648 -33.0535 -33.0438 -33.0389
   -33.0135 -32.9994 -32.9926 -32.9537 -32.9411 -32.9239 -32.7921 -32.7194
   -32.7044 -32.7012 -32.6144 -32.6132 -32.6103 -32.5145 -32.5118 -32.4792
   -32.4710 -32.4685 -32.4083 -32.4060 -32.3957 -32.3939 -32.3706 -32.3629
   -32.3628 -32.3297 -32.3273 -32.2976 -32.2784 -32.2573 -32.2417 -32.2023
    -5.3605  -4.1075  -2.9343  -2.3321  -2.1528  -1.9660  -1.9137  -1.8037
    -1.7429  -1.5764  -1.1154  -0.9954  -0.9349  -0.8334  -0.8268  -0.4332
     0.2598   0.2732   0.7030   1.1994   1.4871   1.5318   1.5577   1.7202
     1.7771   1.8097   1.8874   1.9226   2.0755   2.4416   2.5027   2.5093
     2.5411   2.5455   2.6621   2.6842   2.7156   2.7733   2.7827   3.0701

          k = 0.0000 0.0645 0.0000 ( 19517 PWs)   bands (ev):

   -66.3509 -66.3280 -66.3211 -66.3085 -66.3007 -66.2985 -66.2838 -66.2833
   -66.2556 -66.2340 -66.2259 -66.1956 -33.0013 -32.9991 -32.9884 -32.9572
   -32.9462 -32.9364 -32.9247 -32.8904 -32.8776 -32.7994 -32.7909 -32.7463
   -32.7391 -32.7362 -32.5973 -32.5942 -32.5862 -32.5596 -32.5589 -32.5418
   -32.5415 -32.4933 -32.4541 -32.4453 -32.4346 -32.4328 -32.3839 -32.3824
   -32.3760 -32.3719 -32.3627 -32.3396 -32.3178 -32.2983 -32.2885 -32.2273
    -4.7162  -3.6552  -2.8063  -2.4439  -1.8668  -1.6652  -1.6038  -1.4589
    -1.3015  -1.2645  -0.8975  -0.4731  -0.4702  -0.4002  -0.2981  -0.1340
     0.3460   0.4140   0.6489   0.8329   1.0611   1.0854   1.1676   1.3002
     1.4951   1.7707   1.7724   1.8606   1.8857   1.8890   1.9546   2.0282
     2.1244   2.2097   2.2155   2.3638   2.5886   2.6379   2.7504   2.9777

          k = 0.0000-0.0967 0.0000 ( 19532 PWs)   bands (ev):

   -66.3382 -66.3335 -66.3136 -66.3132 -66.3085 -66.3008 -66.2838 -66.2833
   -66.2483 -66.2406 -66.2259 -66.1963 -32.9519 -32.9494 -32.9435 -32.9394
   -32.9284 -32.9185 -32.8444 -32.8289 -32.8238 -32.8211 -32.7746 -32.7731
   -32.6626 -32.6505 -32.6271 -32.6183 -32.6040 -32.6022 -32.5947 -32.5943
   -32.5352 -32.5336 -32.5126 -32.5114 -32.5042 -32.4882 -32.3936 -32.3898
   -32.3810 -32.3728 -32.3547 -32.3385 -32.3348 -32.3268 -32.2650 -32.2594
    -3.9826  -3.6662  -3.1724  -2.2399  -1.7774  -1.3729  -1.3680  -1.1480
    -1.0259  -1.0021  -0.8579  -0.1434  -0.1381   0.1512   0.1547   0.1658
     0.2382   0.5161   0.5892   0.6561   0.7196   0.8244   0.9056   1.1787
     1.2057   1.2320   1.3593   1.4259   1.5023   1.5693   1.6520   1.6647
     2.1337   2.1385   2.2376   2.2649   2.2825   2.3488   3.2002   3.2742

          k = 0.0279-0.0161 0.0000 ( 19481 PWs)   bands (ev):

   -66.3617 -66.3385 -66.3114 -66.3085 -66.2995 -66.2876 -66.2838 -66.2833
   -66.2633 -66.2279 -66.2259 -66.1941 -33.0648 -33.0535 -33.0438 -33.0389
   -33.0135 -32.9994 -32.9926 -32.9537 -32.9412 -32.9239 -32.7921 -32.7194
   -32.7044 -32.7012 -32.6144 -32.6132 -32.6103 -32.5146 -32.5118 -32.4792
   -32.4710 -32.4685 -32.4083 -32.4060 -32.3957 -32.3939 -32.3706 -32.3629
   -32.3628 -32.3297 -32.3273 -32.2976 -32.2784 -32.2573 -32.2417 -32.2023
    -5.3605  -4.1075  -2.9343  -2.3321  -2.1528  -1.9660  -1.9137  -1.8037
    -1.7429  -1.5764  -1.1154  -0.9954  -0.9349  -0.8334  -0.8268  -0.4332
     0.2598   0.2732   0.7030   1.1994   1.4871   1.5318   1.5577   1.7202
     1.7771   1.8097   1.8874   1.9226   2.0755   2.4416   2.5027   2.5093
     2.5411   2.5455   2.6621   2.6842   2.7156   2.7733   2.7827   3.0288

          k = 0.0279 0.0161 0.0000 ( 19481 PWs)   bands (ev):

   -66.3617 -66.3385 -66.3114 -66.3085 -66.2995 -66.2876 -66.2838 -66.2833
   -66.2633 -66.2279 -66.2259 -66.1941 -33.0648 -33.0535 -33.0438 -33.0389
   -33.0135 -32.9994 -32.9926 -32.9537 -32.9412 -32.9239 -32.7921 -32.7194
   -32.7044 -32.7012 -32.6144 -32.6132 -32.6103 -32.5145 -32.5118 -32.4792
   -32.4710 -32.4685 -32.4083 -32.4060 -32.3957 -32.3939 -32.3706 -32.3629
   -32.3628 -32.3297 -32.3273 -32.2976 -32.2784 -32.2573 -32.2417 -32.2023
    -5.3605  -4.1075  -2.9343  -2.3321  -2.1528  -1.9660  -1.9137  -1.8037
    -1.7429  -1.5764  -1.1154  -0.9954  -0.9349  -0.8334  -0.8268  -0.4332
     0.2598   0.2732   0.7030   1.1994   1.4871   1.5318   1.5577   1.7202
     1.7771   1.8097   1.8874   1.9226   2.0755   2.4416   2.5027   2.5093
     2.5411   2.5455   2.6621   2.6842   2.7156   2.7733   2.7827   3.0701

          k = 0.0279 0.0483 0.0000 ( 19485 PWs)   bands (ev):

   -66.3543 -66.3313 -66.3159 -66.3115 -66.2994 -66.2913 -66.2909 -66.2800
   -66.2580 -66.2314 -66.2265 -66.1952 -33.0259 -33.0146 -32.9827 -32.9783
   -32.9713 -32.9536 -32.9494 -32.9160 -32.8678 -32.8583 -32.7905 -32.7445
   -32.7396 -32.7184 -32.6033 -32.5991 -32.5957 -32.5786 -32.5676 -32.4877
   -32.4812 -32.4521 -32.4474 -32.4436 -32.4361 -32.4112 -32.3916 -32.3819
   -32.3659 -32.3458 -32.3415 -32.3381 -32.3268 -32.2997 -32.2721 -32.2265
    -4.9195  -3.7758  -2.6387  -2.2932  -2.2475  -1.8659  -1.6692  -1.5510
    -1.4015  -1.2717  -0.8565  -0.7891  -0.5510  -0.5292  -0.4618  -0.2561
     0.3327   0.3551   0.6702   0.9771   1.2415   1.2730   1.2762   1.3564
     1.5693   1.6719   1.8512   1.9301   1.9567   2.0620   2.0821   2.1403
     2.2247   2.3571   2.3701   2.4842   2.5197   2.8300   2.8620   2.8882

          k = 0.0279-0.1128 0.0000 ( 19521 PWs)   bands (ev):

   -66.3417 -66.3265 -66.3188 -66.3146 -66.3040 -66.2982 -66.2931 -66.2780
   -66.2495 -66.2379 -66.2274 -66.1961 -32.9652 -32.9572 -32.9226 -32.9189
   -32.9148 -32.9083 -32.8671 -32.8519 -32.8047 -32.7972 -32.7778 -32.7613
   -32.7262 -32.7135 -32.6674 -32.6470 -32.5898 -32.5848 -32.5752 -32.5621
   -32.5487 -32.5214 -32.5056 -32.4740 -32.4664 -32.4305 -32.4122 -32.3999
   -32.3903 -32.3733 -32.3538 -32.3470 -32.3320 -32.3162 -32.3029 -32.2641
    -4.1553  -3.4260  -2.9632  -2.2331  -2.1334  -1.6686  -1.3226  -1.1163
    -0.9246  -0.7956  -0.6586  -0.2568  -0.1162  -0.0402  -0.0152   0.1059
     0.3840   0.4642   0.5162   0.5969   0.7444   0.8497   0.9496   1.0324
     1.0805   1.2679   1.3554   1.5244   1.5698   1.6172   1.6684   1.7654
     1.8944   2.1407   2.2758   2.2889   2.4595   2.7229   2.8643   3.0985

          k = 0.0279-0.0806 0.0000 ( 19521 PWs)   bands (ev):

   -66.3417 -66.3265 -66.3188 -66.3146 -66.3040 -66.2982 -66.2931 -66.2780
   -66.2495 -66.2379 -66.2274 -66.1961 -32.9652 -32.9572 -32.9226 -32.9189
   -32.9148 -32.9083 -32.8671 -32.8519 -32.8047 -32.7972 -32.7778 -32.7613
   -32.7262 -32.7135 -32.6674 -32.6470 -32.5898 -32.5848 -32.5752 -32.5621
   -32.5487 -32.5214 -32.5056 -32.4740 -32.4664 -32.4305 -32.4122 -32.3998
   -32.3903 -32.3733 -32.3538 -32.3470 -32.3320 -32.3162 -32.3029 -32.2641
    -4.1553  -3.4260  -2.9632  -2.2331  -2.1334  -1.6686  -1.3226  -1.1163
    -0.9246  -0.7956  -0.6586  -0.2568  -0.1162  -0.0402  -0.0152   0.1059
     0.3840   0.4642   0.5162   0.5969   0.7444   0.8497   0.9496   1.0324
     1.0805   1.2679   1.3554   1.5244   1.5698   1.6172   1.6684   1.7654
     1.8944   2.1407   2.2758   2.2889   2.4595   2.7229   2.8643   3.0985

          k = 0.0279-0.0483 0.0000 ( 19485 PWs)   bands (ev):

   -66.3543 -66.3313 -66.3159 -66.3115 -66.2994 -66.2913 -66.2909 -66.2800
   -66.2580 -66.2314 -66.2265 -66.1952 -33.0259 -33.0146 -32.9827 -32.9783
   -32.9713 -32.9536 -32.9494 -32.9160 -32.8678 -32.8583 -32.7905 -32.7445
   -32.7396 -32.7184 -32.6033 -32.5991 -32.5957 -32.5786 -32.5676 -32.4877
   -32.4812 -32.4521 -32.4474 -32.4436 -32.4361 -32.4112 -32.3916 -32.3819
   -32.3659 -32.3458 -32.3415 -32.3381 -32.3268 -32.2997 -32.2721 -32.2265
    -4.9195  -3.7758  -2.6387  -2.2932  -2.2475  -1.8659  -1.6692  -1.5510
    -1.4015  -1.2717  -0.8565  -0.7891  -0.5510  -0.5292  -0.4618  -0.2561
     0.3327   0.3551   0.6702   0.9771   1.2415   1.2730   1.2762   1.3564
     1.5693   1.6719   1.8512   1.9301   1.9567   2.0620   2.0821   2.1403
     2.2247   2.3571   2.3701   2.4842   2.5197   2.8300   2.8620   2.8882

          k = 0.0558-0.0322 0.0000 ( 19517 PWs)   bands (ev):

   -66.3509 -66.3280 -66.3211 -66.3085 -66.3007 -66.2985 -66.2838 -66.2833
   -66.2556 -66.2340 -66.2259 -66.1956 -33.0013 -32.9991 -32.9884 -32.9572
   -32.9462 -32.9364 -32.9247 -32.8904 -32.8776 -32.7994 -32.7909 -32.7463
   -32.7391 -32.7362 -32.5973 -32.5942 -32.5862 -32.5596 -32.5589 -32.5418
   -32.5415 -32.4933 -32.4541 -32.4453 -32.4346 -32.4328 -32.3839 -32.3824
   -32.3760 -32.3719 -32.3627 -32.3396 -32.3178 -32.2983 -32.2885 -32.2273
    -4.7162  -3.6552  -2.8063  -2.4439  -1.8668  -1.6652  -1.6038  -1.4589
    -1.3015  -1.2645  -0.8975  -0.4731  -0.4702  -0.4002  -0.2981  -0.1340
     0.3460   0.4140   0.6489   0.8329   1.0611   1.0854   1.1676   1.3002
     1.4951   1.7707   1.7724   1.8606   1.8857   1.8890   1.9546   2.0282
     2.1244   2.2097   2.2155   2.3638   2.5886   2.6379   2.7504   2.9777

          k = 0.0558 0.0000 0.0000 ( 19485 PWs)   bands (ev):

   -66.3543 -66.3313 -66.3159 -66.3115 -66.2994 -66.2913 -66.2909 -66.2800
   -66.2580 -66.2314 -66.2265 -66.1952 -33.0259 -33.0146 -32.9827 -32.9783
   -32.9713 -32.9536 -32.9494 -32.9160 -32.8678 -32.8583 -32.7905 -32.7445
   -32.7396 -32.7184 -32.6033 -32.5991 -32.5957 -32.5786 -32.5676 -32.4877
   -32.4812 -32.4521 -32.4474 -32.4436 -32.4361 -32.4112 -32.3916 -32.3819
   -32.3659 -32.3458 -32.3415 -32.3380 -32.3268 -32.2997 -32.2721 -32.2265
    -4.9195  -3.7758  -2.6387  -2.2932  -2.2475  -1.8659  -1.6692  -1.5510
    -1.4015  -1.2717  -0.8565  -0.7891  -0.5510  -0.5292  -0.4618  -0.2561
     0.3327   0.3551   0.6702   0.9771   1.2415   1.2730   1.2762   1.3564
     1.5693   1.6719   1.8512   1.9301   1.9567   2.0620   2.0821   2.1403
     2.2247   2.3571   2.3701   2.4842   2.5197   2.8300   2.8620   2.8882

          k = 0.0558 0.0322 0.0000 ( 19517 PWs)   bands (ev):

   -66.3509 -66.3280 -66.3211 -66.3085 -66.3007 -66.2985 -66.2838 -66.2833
   -66.2556 -66.2339 -66.2259 -66.1956 -33.0013 -32.9991 -32.9884 -32.9572
   -32.9462 -32.9364 -32.9247 -32.8904 -32.8776 -32.7994 -32.7909 -32.7463
   -32.7391 -32.7362 -32.5973 -32.5942 -32.5862 -32.5596 -32.5589 -32.5418
   -32.5415 -32.4933 -32.4541 -32.4453 -32.4346 -32.4328 -32.3839 -32.3824
   -32.3760 -32.3719 -32.3627 -32.3396 -32.3178 -32.2983 -32.2885 -32.2273
    -4.7162  -3.6552  -2.8063  -2.4439  -1.8668  -1.6652  -1.6038  -1.4589
    -1.3015  -1.2645  -0.8975  -0.4731  -0.4702  -0.4002  -0.2981  -0.1340
     0.3460   0.4140   0.6489   0.8329   1.0611   1.0854   1.1676   1.3002
     1.4951   1.7707   1.7724   1.8606   1.8857   1.8890   1.9546   2.0282
     2.1244   2.2097   2.2155   2.3638   2.5886   2.6379   2.7504   2.9777

          k = 0.0558-0.1289 0.0000 ( 19521 PWs)   bands (ev):

   -66.3417 -66.3265 -66.3188 -66.3146 -66.3040 -66.2982 -66.2931 -66.2780
   -66.2495 -66.2379 -66.2275 -66.1961 -32.9652 -32.9572 -32.9226 -32.9189
   -32.9148 -32.9083 -32.8671 -32.8519 -32.8047 -32.7972 -32.7778 -32.7613
   -32.7262 -32.7136 -32.6674 -32.6470 -32.5898 -32.5848 -32.5752 -32.5621
   -32.5487 -32.5214 -32.5056 -32.4740 -32.4664 -32.4305 -32.4122 -32.3998
   -32.3903 -32.3733 -32.3538 -32.3470 -32.3320 -32.3162 -32.3029 -32.2641
    -4.1553  -3.4260  -2.9632  -2.2332  -2.1334  -1.6686  -1.3226  -1.1163
    -0.9246  -0.7956  -0.6586  -0.2568  -0.1162  -0.0402  -0.0152   0.1059
     0.3840   0.4642   0.5162   0.5969   0.7444   0.8497   0.9496   1.0324
     1.0805   1.2679   1.3554   1.5243   1.5698   1.6172   1.6684   1.7654
     1.8944   2.1407   2.2758   2.2889   2.4595   2.7229   2.8643   3.0985

          k = 0.0558-0.0967 0.0000 ( 19521 PWs)   bands (ev):

   -66.3314 -66.3302 -66.3230 -66.3064 -66.3059 -66.3057 -66.2966 -66.2759
   -66.2428 -66.2425 -66.2295 -66.1962 -32.9244 -32.9211 -32.9145 -32.8831
   -32.8801 -32.8657 -32.8452 -32.8444 -32.8401 -32.7594 -32.7531 -32.7362
   -32.7079 -32.6995 -32.6918 -32.6755 -32.6736 -32.6671 -32.5667 -32.5597
   -32.5588 -32.5526 -32.5474 -32.4479 -32.4336 -32.4316 -32.4052 -32.3871
   -32.3777 -32.3753 -32.3696 -32.3690 -32.3606 -32.3167 -32.3142 -32.3100
    -3.6608  -3.1180  -3.1045  -2.8247  -1.7505  -1.7441  -1.3495  -0.4633
    -0.4509  -0.4301  -0.4061  -0.3945  -0.2616   0.2227   0.2317   0.2435
     0.2455   0.2687   0.4536   0.4644   0.4722   0.5394   0.5540   0.9155
     1.1955   1.2137   1.2159   1.2202   1.2378   1.3648   1.5329   1.7321
     1.7323   1.8409   2.4889   2.5481   2.5876   2.9636   2.9890   3.0120

          k = 0.0558-0.0645 0.0000 ( 19521 PWs)   bands (ev):

   -66.3417 -66.3265 -66.3188 -66.3146 -66.3040 -66.2982 -66.2931 -66.2780
   -66.2495 -66.2379 -66.2274 -66.1961 -32.9652 -32.9572 -32.9226 -32.9189
   -32.9148 -32.9083 -32.8671 -32.8519 -32.8047 -32.7972 -32.7778 -32.7613
   -32.7262 -32.7135 -32.6674 -32.6470 -32.5898 -32.5848 -32.5752 -32.5621
   -32.5487 -32.5214 -32.5056 -32.4740 -32.4664 -32.4305 -32.4122 -32.3998
   -32.3903 -32.3733 -32.3538 -32.3470 -32.3320 -32.3162 -32.3029 -32.2641
    -4.1553  -3.4260  -2.9632  -2.2331  -2.1334  -1.6686  -1.3226  -1.1163
    -0.9246  -0.7956  -0.6586  -0.2568  -0.1162  -0.0402  -0.0152   0.1059
     0.3840   0.4642   0.5162   0.5969   0.7444   0.8497   0.9496   1.0324
     1.0805   1.2679   1.3554   1.5244   1.5698   1.6172   1.6684   1.7654
     1.8944   2.1407   2.2758   2.2889   2.4595   2.7229   2.8643   3.0985

          k =-0.0837 0.0483 0.0000 ( 19532 PWs)   bands (ev):

   -66.3382 -66.3335 -66.3136 -66.3132 -66.3085 -66.3008 -66.2838 -66.2833
   -66.2483 -66.2405 -66.2259 -66.1963 -32.9520 -32.9494 -32.9435 -32.9394
   -32.9284 -32.9185 -32.8444 -32.8289 -32.8238 -32.8211 -32.7746 -32.7731
   -32.6626 -32.6505 -32.6271 -32.6183 -32.6040 -32.6021 -32.5947 -32.5943
   -32.5352 -32.5336 -32.5126 -32.5114 -32.5042 -32.4881 -32.3936 -32.3898
   -32.3810 -32.3727 -32.3548 -32.3385 -32.3348 -32.3268 -32.2650 -32.2594
    -3.9826  -3.6662  -3.1724  -2.2399  -1.7773  -1.3729  -1.3680  -1.1480
    -1.0259  -1.0021  -0.8579  -0.1434  -0.1381   0.1512   0.1546   0.1658
     0.2382   0.5161   0.5892   0.6561   0.7196   0.8244   0.9056   1.1787
     1.2057   1.2320   1.3593   1.4259   1.5023   1.5693   1.6520   1.6647
     2.1337   2.1385   2.2376   2.2649   2.2825   2.3488   3.2024   3.2734

          k =-0.0837 0.0806 0.0000 ( 19521 PWs)   bands (ev):

   -66.3417 -66.3265 -66.3188 -66.3146 -66.3040 -66.2982 -66.2931 -66.2780
   -66.2495 -66.2379 -66.2275 -66.1961 -32.9652 -32.9572 -32.9226 -32.9189
   -32.9148 -32.9083 -32.8671 -32.8519 -32.8047 -32.7972 -32.7778 -32.7613
   -32.7262 -32.7135 -32.6675 -32.6470 -32.5898 -32.5848 -32.5752 -32.5621
   -32.5487 -32.5214 -32.5056 -32.4740 -32.4664 -32.4305 -32.4122 -32.3998
   -32.3903 -32.3733 -32.3538 -32.3471 -32.3320 -32.3162 -32.3029 -32.2641
    -4.1553  -3.4260  -2.9632  -2.2331  -2.1334  -1.6686  -1.3226  -1.1163
    -0.9246  -0.7956  -0.6586  -0.2568  -0.1162  -0.0402  -0.0152   0.1059
     0.3840   0.4642   0.5162   0.5969   0.7444   0.8497   0.9496   1.0324
     1.0804   1.2679   1.3554   1.5243   1.5698   1.6172   1.6684   1.7654
     1.8944   2.1407   2.2758   2.2889   2.4595   2.7229   2.8643   3.0985

          k =-0.0837 0.1128 0.0000 ( 19521 PWs)   bands (ev):

   -66.3417 -66.3265 -66.3188 -66.3146 -66.3040 -66.2982 -66.2931 -66.2780
   -66.2495 -66.2379 -66.2275 -66.1961 -32.9652 -32.9572 -32.9226 -32.9189
   -32.9148 -32.9083 -32.8671 -32.8519 -32.8047 -32.7972 -32.7778 -32.7613
   -32.7262 -32.7135 -32.6675 -32.6470 -32.5898 -32.5848 -32.5752 -32.5621
   -32.5487 -32.5214 -32.5056 -32.4740 -32.4664 -32.4305 -32.4122 -32.3998
   -32.3903 -32.3733 -32.3538 -32.3470 -32.3320 -32.3162 -32.3029 -32.2641
    -4.1553  -3.4260  -2.9632  -2.2331  -2.1334  -1.6686  -1.3226  -1.1163
    -0.9246  -0.7956  -0.6586  -0.2568  -0.1162  -0.0402  -0.0152   0.1059
     0.3840   0.4642   0.5162   0.5969   0.7444   0.8497   0.9496   1.0324
     1.0805   1.2679   1.3554   1.5243   1.5698   1.6172   1.6684   1.7654
     1.8944   2.1407   2.2758   2.2889   2.4595   2.7229   2.8643   3.0985

          k =-0.0837-0.0483 0.0000 ( 19532 PWs)   bands (ev):

   -66.3382 -66.3335 -66.3136 -66.3132 -66.3085 -66.3008 -66.2838 -66.2833
   -66.2483 -66.2405 -66.2259 -66.1963 -32.9520 -32.9494 -32.9435 -32.9394
   -32.9284 -32.9185 -32.8444 -32.8289 -32.8238 -32.8211 -32.7746 -32.7731
   -32.6626 -32.6505 -32.6271 -32.6183 -32.6040 -32.6021 -32.5947 -32.5943
   -32.5352 -32.5336 -32.5126 -32.5114 -32.5042 -32.4881 -32.3936 -32.3898
   -32.3811 -32.3727 -32.3548 -32.3385 -32.3348 -32.3268 -32.2650 -32.2594
    -3.9826  -3.6662  -3.1724  -2.2399  -1.7773  -1.3729  -1.3680  -1.1480
    -1.0259  -1.0021  -0.8579  -0.1434  -0.1381   0.1512   0.1546   0.1658
     0.2382   0.5161   0.5892   0.6561   0.7196   0.8244   0.9056   1.1787
     1.2057   1.2320   1.3593   1.4259   1.5023   1.5693   1.6520   1.6647
     2.1337   2.1385   2.2376   2.2649   2.2825   2.3488   3.1989   3.2743

     the Fermi energy is     1.9764 ev

!    total energy              =   -1719.51341068 Ry
     Harris-Foulkes estimate   =   -1719.51341135 Ry
     estimated scf accuracy    <       0.00000656 Ry

     The total energy is the sum of the following terms:

     one-electron contribution =  -11432.19881041 Ry
     hartree contribution      =    5698.29704476 Ry
     xc contribution           =    -523.42343959 Ry
     ewald contribution        =    4537.91773433 Ry
     electric field correction =       0.00000057 Ry
     smearing contrib. (-TS)   =      -0.10594035 Ry

     convergence has been achieved in  13 iterations
 
 BEEF-vdW xc energy contributions
           1 :   -460.885229730294     
           2 :    425.510600967850     
           3 :   -363.706483120535     
           4 :    289.744511448742     
           5 :   -217.996096471655     
           6 :    158.473477277409     
           7 :   -114.796072888562     
           8 :    84.9956498562531     
           9 :   -64.2471457271743     
          10 :    47.9057000097452     
          11 :   -33.4191435637896     
          12 :    20.5451229893221     
          13 :   -10.2750132896140     
          14 :    3.41941791079029     
          15 :   0.260776657735562     
          16 :   -2.01196782079484     
          17 :    3.36021096361281     
          18 :   -5.26652993608099     
          19 :    7.70045629379337     
          20 :   -9.84545076441179     
          21 :    10.7555848748316     
          22 :   -10.0352092892574     
          23 :    8.13127437689656     
          24 :   -6.08594776726352     
          25 :    4.93177479867137     
          26 :   -5.11554874244820     
          27 :    6.29422051149260     
          28 :   -7.59951412424186     
          29 :    8.18061934628241     
          30 :   -7.68362519618171     
          31 :   -41.1185579968423     
          32 :   -30.5218957907414     

     Forces acting on atoms (Ry/au):


     negative rho (up, down):  1.177E+00 0.000E+00
     atom    1 type  1   force =    -0.00000716   -0.00000347    0.00265835
     atom    2 type  1   force =     0.00000187    0.00043625    0.00431562
     atom    3 type  1   force =     0.00038149   -0.00021499    0.00431769
     atom    4 type  1   force =    -0.00038156   -0.00021694    0.00431881
     atom    5 type  1   force =     0.00036533   -0.00020813    0.00157981
     atom    6 type  1   force =    -0.00036041   -0.00020310    0.00158247
     atom    7 type  1   force =     0.00000157   -0.00000052   -0.00886034
     atom    8 type  1   force =    -0.00000354    0.00041391    0.00157716
     atom    9 type  1   force =    -0.00407441   -0.00235427    0.01102653
     atom   10 type  1   force =     0.00407371   -0.00235709    0.01102718
     atom   11 type  1   force =     0.00000053    0.00470567    0.01102960
     atom   12 type  1   force =     0.00000205    0.00000300   -0.01174687
     atom   13 type  2   force =     0.00000052   -0.00000032   -0.03282601

     Total force =     0.040581     Total SCF correction =     0.004271
     SCF correction compared to forces is large: reduce conv_thr to get better values


     entering subroutine stress ...


     negative rho (up, down):  1.177E+00 0.000E+00
          total   stress  (Ry/bohr**3)                   (kbar)     P=  -32.84
  -0.00029287   0.00000001  -0.00000000        -43.08      0.00     -0.00
   0.00000001  -0.00029285   0.00000000          0.00    -43.08      0.00
  -0.00000000   0.00000000  -0.00008400         -0.00      0.00    -12.36


     BFGS Geometry Optimization

     number of scf cycles    =   1
     number of bfgs steps    =   0

     energy   new            =   -1719.5134106839 Ry

     new trust radius        =       0.0328260097 bohr
     new conv_thr            =       0.0000099958 Ry


ATOMIC_POSITIONS (crystal)
Ta1      0.166666667   0.166666667   0.401991699    0   0   0
Ta1      0.666666667   0.166666667   0.401991699    0   0   0
Ta1      0.166666667   0.666666667   0.401991699    0   0   0
Ta1      0.666666667   0.666666667   0.401991699    0   0   0
Ta1      0.833333333   0.333333333   0.500000000    0   0   0
Ta1      0.333333333   0.333333333   0.500000000    0   0   0
Ta1      0.833333333   0.833333333   0.500000000    0   0   0
Ta1      0.333333333   0.833333333   0.500000000    0   0   0
Ta1     -0.000240590  -0.000240883   0.598242863
Ta1      0.500481554  -0.000241171   0.598242877
Ta1     -0.000240688   0.500481472   0.598242928
Ta1      0.500000028   0.500000307   0.597758416
H1       0.166666729   0.166666634   0.649830226



     Writing output data file calc.save
     Check: negative starting charge=   -1.121610
     NEW-OLD atomic charge density approx. for the potential
     Check: negative starting charge=   -1.120697

     negative rho (up, down):  1.176E+00 0.000E+00
 
     Adding external electric field

     Computed dipole along edir(3) : 
        Dipole               -0.0153 Ry au,         -0.0390 Debye
        Dipole field         -0.0000 Ry au
 
        Potential amp.        0.0034 Ry
        Total length         45.8339 bohr
 

     total cpu time spent up to now is      574.1 secs

     per-process dynamical memory:    88.4 Mb

     Self-consistent Calculation

     iteration #  1     ecut=    36.75 Ry     beta=0.30
     Davidson diagonalization with overlap
     ethr =  1.00E-06,  avg # of iterations =  6.1

     negative rho (up, down):  1.176E+00 0.000E+00
 
     Adding external electric field

     Computed dipole along edir(3) : 
        Dipole                0.5853 Ry au,          1.4877 Debye
        Dipole field          0.0014 Ry au
 
        Potential amp.       -0.1300 Ry
        Total length         45.8339 bohr
 

     total cpu time spent up to now is      610.6 secs

     total energy              =   -1719.49641883 Ry
     Harris-Foulkes estimate   =   -1719.51453051 Ry
     estimated scf accuracy    <       0.03751930 Ry

     iteration #  2     ecut=    36.75 Ry     beta=0.30
     Davidson diagonalization with overlap
     ethr =  2.39E-05,  avg # of iterations =  6.6

     negative rho (up, down):  1.176E+00 0.000E+00
 
     Adding external electric field

     Computed dipole along edir(3) : 
        Dipole                0.0080 Ry au,          0.0203 Debye
        Dipole field          0.0000 Ry au
 
        Potential amp.       -0.0018 Ry
        Total length         45.8339 bohr
 

     total cpu time spent up to now is      642.9 secs

     total energy              =   -1719.25416938 Ry
     Harris-Foulkes estimate   =   -1719.81743763 Ry
     estimated scf accuracy    <      26.16216210 Ry

     iteration #  3     ecut=    36.75 Ry     beta=0.30
     Davidson diagonalization with overlap
     ethr =  2.39E-05,  avg # of iterations =  6.3

     negative rho (up, down):  1.176E+00 0.000E+00
 
     Adding external electric field

     Computed dipole along edir(3) : 
        Dipole                0.0098 Ry au,          0.0249 Debye
        Dipole field          0.0000 Ry au
 
        Potential amp.       -0.0022 Ry
        Total length         45.8339 bohr
 

     total cpu time spent up to now is      674.7 secs

     total energy              =   -1719.51466767 Ry
     Harris-Foulkes estimate   =   -1719.51521916 Ry
     estimated scf accuracy    <       0.00548663 Ry

     iteration #  4     ecut=    36.75 Ry     beta=0.30
     Davidson diagonalization with overlap
     ethr =  3.49E-06,  avg # of iterations =  2.0

     negative rho (up, down):  1.176E+00 0.000E+00
 
     Adding external electric field

     Computed dipole along edir(3) : 
        Dipole                0.0071 Ry au,          0.0180 Debye
        Dipole field          0.0000 Ry au
 
        Potential amp.       -0.0016 Ry
        Total length         45.8339 bohr
 

     total cpu time spent up to now is      700.7 secs

     total energy              =   -1719.51491639 Ry
     Harris-Foulkes estimate   =   -1719.51493621 Ry
     estimated scf accuracy    <       0.00066335 Ry

     iteration #  5     ecut=    36.75 Ry     beta=0.30
     Davidson diagonalization with overlap
     ethr =  4.23E-07,  avg # of iterations =  4.2

     negative rho (up, down):  1.176E+00 0.000E+00
 
     Adding external electric field

     Computed dipole along edir(3) : 
        Dipole                0.0047 Ry au,          0.0118 Debye
        Dipole field          0.0000 Ry au
 
        Potential amp.       -0.0010 Ry
        Total length         45.8339 bohr
 

     total cpu time spent up to now is      728.7 secs

     total energy              =   -1719.51496792 Ry
     Harris-Foulkes estimate   =   -1719.51497500 Ry
     estimated scf accuracy    <       0.00015110 Ry

     iteration #  6     ecut=    36.75 Ry     beta=0.30
     Davidson diagonalization with overlap
     ethr =  9.62E-08,  avg # of iterations =  2.5

     negative rho (up, down):  1.176E+00 0.000E+00
 
     Adding external electric field

     Computed dipole along edir(3) : 
        Dipole                0.0067 Ry au,          0.0171 Debye
        Dipole field          0.0000 Ry au
 
        Potential amp.       -0.0015 Ry
        Total length         45.8339 bohr
 

     total cpu time spent up to now is      754.0 secs

     total energy              =   -1719.51497400 Ry
     Harris-Foulkes estimate   =   -1719.51497615 Ry
     estimated scf accuracy    <       0.00011823 Ry

     iteration #  7     ecut=    36.75 Ry     beta=0.30
     Davidson diagonalization with overlap
     ethr =  7.53E-08,  avg # of iterations =  1.0

     negative rho (up, down):  1.176E+00 0.000E+00
 
     Adding external electric field

     Computed dipole along edir(3) : 
        Dipole                0.0075 Ry au,          0.0191 Debye
        Dipole field          0.0000 Ry au
 
        Potential amp.       -0.0017 Ry
        Total length         45.8339 bohr
 

     total cpu time spent up to now is      778.8 secs

     total energy              =   -1719.51497353 Ry
     Harris-Foulkes estimate   =   -1719.51497546 Ry
     estimated scf accuracy    <       0.00003353 Ry

     iteration #  8     ecut=    36.75 Ry     beta=0.30
     Davidson diagonalization with overlap
     ethr =  2.14E-08,  avg # of iterations =  1.6

     negative rho (up, down):  1.176E+00 0.000E+00

     negative rho (up, down):  1.176E+00 0.000E+00

     negative rho (up, down):  1.176E+00 0.000E+00

     negative rho (up, down):  1.176E+00 0.000E+00

     negative rho (up, down):  1.176E+00 0.000E+00

     negative rho (up, down):  1.176E+00 0.000E+00

     negative rho (up, down):  1.176E+00 0.000E+00

     negative rho (up, down):  1.176E+00 0.000E+00

     negative rho (up, down):  1.176E+00 0.000E+00

     negative rho (up, down):  1.176E+00 0.000E+00

     negative rho (up, down):  1.176E+00 0.000E+00

     negative rho (up, down):  1.176E+00 0.000E+00

     negative rho (up, down):  1.176E+00 0.000E+00

     negative rho (up, down):  1.176E+00 0.000E+00

     negative rho (up, down):  1.176E+00 0.000E+00

     negative rho (up, down):  1.176E+00 0.000E+00

     negative rho (up, down):  1.176E+00 0.000E+00

     negative rho (up, down):  1.176E+00 0.000E+00

     negative rho (up, down):  1.176E+00 0.000E+00

     negative rho (up, down):  1.176E+00 0.000E+00

     negative rho (up, down):  1.176E+00 0.000E+00

     negative rho (up, down):  1.176E+00 0.000E+00

     negative rho (up, down):  1.176E+00 0.000E+00

     negative rho (up, down):  1.176E+00 0.000E+00

     negative rho (up, down):  1.176E+00 0.000E+00

     negative rho (up, down):  1.176E+00 0.000E+00

     negative rho (up, down):  1.176E+00 0.000E+00

     negative rho (up, down):  1.176E+00 0.000E+00

     negative rho (up, down):  1.176E+00 0.000E+00

     negative rho (up, down):  1.176E+00 0.000E+00

     negative rho (up, down):  1.176E+00 0.000E+00

     negative rho (up, down):  1.176E+00 0.000E+00

     negative rho (up, down):  1.176E+00 0.000E+00

     negative rho (up, down):  1.176E+00 0.000E+00

     negative rho (up, down):  1.176E+00 0.000E+00
 
     Adding external electric field

     Computed dipole along edir(3) : 
        Dipole               -0.0005 Ry au,         -0.0013 Debye
        Dipole field         -0.0000 Ry au
 
        Potential amp.        0.0001 Ry
        Total length         45.8339 bohr
 

     total cpu time spent up to now is      854.1 secs

     End of self-consistent calculation

          k = 0.0000 0.0000 0.0000 ( 19447 PWs)   bands (ev):

   -66.3620 -66.3406 -66.3064 -66.3064 -66.2887 -66.2819 -66.2818 -66.2817
   -66.2629 -66.2227 -66.2227 -66.1922 -33.0893 -33.0757 -33.0757 -33.0553
   -33.0360 -33.0182 -33.0182 -32.9796 -32.9638 -32.9638 -32.7922 -32.6905
   -32.6904 -32.6795 -32.6223 -32.6223 -32.6172 -32.4878 -32.4878 -32.4842
   -32.4198 -32.4198 -32.4189 -32.4189 -32.4082 -32.3951 -32.3573 -32.3340
   -32.3340 -32.3321 -32.2802 -32.2802 -32.2423 -32.2423 -32.1908 -32.1908
    -5.5935  -4.3189  -3.1353  -2.4279  -2.1120  -2.1120  -2.0105  -1.9186
    -1.9186  -1.6910  -1.2278  -1.2278  -1.0934  -0.9728  -0.9728  -0.4981
     0.2190   0.2190   0.7315   1.3079   1.4992   1.4992   1.5447   1.8688
     1.9109   2.0180   2.0180   2.1381   2.3342   2.3342   2.5743   2.6270
     2.6270   2.6986   2.6986   2.7119   2.8074   2.8074   2.9637   2.9637

          k = 0.0000 0.0322 0.0000 ( 19481 PWs)   bands (ev):

   -66.3581 -66.3367 -66.3092 -66.3064 -66.2897 -66.2858 -66.2818 -66.2817
   -66.2600 -66.2247 -66.2227 -66.1930 -33.0605 -33.0498 -33.0397 -33.0351
   -33.0096 -32.9954 -32.9885 -32.9508 -32.9379 -32.9207 -32.7897 -32.7171
   -32.7030 -32.6963 -32.6131 -32.6117 -32.6061 -32.5100 -32.5081 -32.4749
   -32.4675 -32.4664 -32.4048 -32.4037 -32.3920 -32.3918 -32.3687 -32.3607
   -32.3600 -32.3261 -32.3246 -32.2939 -32.2754 -32.2540 -32.2390 -32.1995
    -5.3609  -4.1264  -2.9437  -2.3282  -2.1495  -1.9605  -1.9081  -1.7995
    -1.7383  -1.5749  -1.1115  -0.9918  -0.9306  -0.8277  -0.8209  -0.4177
     0.2628   0.2762   0.7202   1.1995   1.4880   1.5349   1.5557   1.7204
     1.7815   1.8123   1.8897   1.9247   2.0743   2.4452   2.5070   2.5130
     2.5472   2.5505   2.6632   2.6863   2.7194   2.7807   2.7883   3.0319

          k = 0.0000 0.0645 0.0000 ( 19517 PWs)   bands (ev):

   -66.3475 -66.3263 -66.3182 -66.3064 -66.2970 -66.2910 -66.2819 -66.2818
   -66.2524 -66.2308 -66.2227 -66.1945 -32.9973 -32.9949 -32.9849 -32.9531
   -32.9423 -32.9322 -32.9210 -32.8876 -32.8742 -32.7963 -32.7880 -32.7438
   -32.7366 -32.7321 -32.5948 -32.5935 -32.5824 -32.5556 -32.5542 -32.5394
   -32.5388 -32.4899 -32.4510 -32.4409 -32.4326 -32.4301 -32.3817 -32.3791
   -32.3733 -32.3693 -32.3599 -32.3360 -32.3160 -32.2959 -32.2849 -32.2245
    -4.7184  -3.6795  -2.8028  -2.4492  -1.8621  -1.6594  -1.5982  -1.4556
    -1.2970  -1.2578  -0.8926  -0.4662  -0.4658  -0.3948  -0.2961  -0.1247
     0.3485   0.4176   0.6579   0.8365   1.0678   1.0883   1.1698   1.3018
     1.4987   1.7736   1.7760   1.8605   1.8890   1.8922   1.9576   2.0298
     2.1241   2.2140   2.2179   2.3664   2.5872   2.6446   2.7533   2.9851

          k = 0.0000-0.0967 0.0000 ( 19532 PWs)   bands (ev):

   -66.3360 -66.3291 -66.3120 -66.3113 -66.3064 -66.2916 -66.2819 -66.2818
   -66.2450 -66.2374 -66.2227 -66.1952 -32.9473 -32.9455 -32.9397 -32.9359
   -32.9242 -32.9147 -32.8416 -32.8251 -32.8208 -32.8178 -32.7714 -32.7695
   -32.6575 -32.6482 -32.6246 -32.6162 -32.6014 -32.5994 -32.5915 -32.5896
   -32.5319 -32.5312 -32.5107 -32.5074 -32.5011 -32.4870 -32.3896 -32.3861
   -32.3793 -32.3692 -32.3515 -32.3358 -32.3341 -32.3231 -32.2616 -32.2571
    -3.9980  -3.6625  -3.1896  -2.2372  -1.7766  -1.3671  -1.3631  -1.1430
    -1.0186  -0.9976  -0.8513  -0.1371  -0.1341   0.1576   0.1588   0.1703
     0.2440   0.5209   0.5908   0.6635   0.7217   0.8293   0.9088   1.1824
     1.2088   1.2308   1.3608   1.4273   1.5054   1.5766   1.6543   1.6693
     2.1207   2.1513   2.2372   2.2721   2.2865   2.3501   3.2044   3.2119

          k = 0.0279-0.0161 0.0000 ( 19481 PWs)   bands (ev):

   -66.3581 -66.3367 -66.3092 -66.3064 -66.2897 -66.2858 -66.2819 -66.2817
   -66.2600 -66.2247 -66.2227 -66.1930 -33.0605 -33.0498 -33.0397 -33.0351
   -33.0096 -32.9954 -32.9885 -32.9508 -32.9379 -32.9207 -32.7897 -32.7171
   -32.7030 -32.6963 -32.6131 -32.6117 -32.6061 -32.5100 -32.5081 -32.4749
   -32.4675 -32.4664 -32.4048 -32.4037 -32.3919 -32.3918 -32.3687 -32.3607
   -32.3600 -32.3261 -32.3246 -32.2939 -32.2754 -32.2540 -32.2390 -32.1995
    -5.3609  -4.1264  -2.9437  -2.3282  -2.1495  -1.9605  -1.9081  -1.7995
    -1.7383  -1.5749  -1.1115  -0.9918  -0.9306  -0.8277  -0.8209  -0.4177
     0.2628   0.2762   0.7202   1.1995   1.4880   1.5349   1.5557   1.7204
     1.7815   1.8123   1.8897   1.9247   2.0743   2.4452   2.5070   2.5130
     2.5472   2.5505   2.6632   2.6863   2.7194   2.7807   2.7883   3.0319

          k = 0.0279 0.0161 0.0000 ( 19481 PWs)   bands (ev):

   -66.3581 -66.3367 -66.3092 -66.3064 -66.2897 -66.2858 -66.2818 -66.2818
   -66.2600 -66.2247 -66.2227 -66.1930 -33.0605 -33.0498 -33.0397 -33.0351
   -33.0096 -32.9953 -32.9885 -32.9508 -32.9379 -32.9207 -32.7897 -32.7171
   -32.7030 -32.6963 -32.6131 -32.6117 -32.6061 -32.5100 -32.5081 -32.4749
   -32.4675 -32.4664 -32.4048 -32.4037 -32.3920 -32.3918 -32.3687 -32.3607
   -32.3600 -32.3261 -32.3246 -32.2939 -32.2754 -32.2540 -32.2390 -32.1995
    -5.3609  -4.1264  -2.9437  -2.3282  -2.1495  -1.9605  -1.9081  -1.7995
    -1.7383  -1.5749  -1.1115  -0.9918  -0.9306  -0.8277  -0.8209  -0.4177
     0.2628   0.2762   0.7202   1.1995   1.4880   1.5349   1.5557   1.7204
     1.7814   1.8123   1.8897   1.9247   2.0743   2.4452   2.5070   2.5130
     2.5472   2.5505   2.6632   2.6863   2.7194   2.7807   2.7883   3.0319

          k = 0.0279 0.0483 0.0000 ( 19485 PWs)   bands (ev):

   -66.3508 -66.3296 -66.3138 -66.3082 -66.2909 -66.2895 -66.2887 -66.2783
   -66.2547 -66.2282 -66.2233 -66.1941 -33.0219 -33.0105 -32.9787 -32.9746
   -32.9673 -32.9497 -32.9452 -32.9130 -32.8645 -32.8551 -32.7879 -32.7422
   -32.7363 -32.7151 -32.6013 -32.5979 -32.5916 -32.5748 -32.5648 -32.4833
   -32.4775 -32.4494 -32.4449 -32.4393 -32.4338 -32.4081 -32.3893 -32.3790
   -32.3631 -32.3428 -32.3384 -32.3358 -32.3239 -32.2970 -32.2689 -32.2238
    -4.9209  -3.7985  -2.6462  -2.2875  -2.2439  -1.8622  -1.6644  -1.5439
    -1.3980  -1.2669  -0.8520  -0.7840  -0.5459  -0.5237  -0.4587  -0.2446
     0.3358   0.3577   0.6822   0.9792   1.2444   1.2745   1.2805   1.3607
     1.5719   1.6739   1.8527   1.9321   1.9575   2.0641   2.0866   2.1432
     2.2265   2.3600   2.3735   2.4866   2.5226   2.8324   2.8661   2.8940

          k = 0.0279-0.1128 0.0000 ( 19521 PWs)   bands (ev):

   -66.3387 -66.3235 -66.3170 -66.3107 -66.3023 -66.2917 -66.2900 -66.2763
   -66.2463 -66.2347 -66.2243 -66.1950 -32.9611 -32.9533 -32.9184 -32.9146
   -32.9110 -32.9047 -32.8637 -32.8488 -32.8016 -32.7936 -32.7743 -32.7583
   -32.7222 -32.7112 -32.6637 -32.6441 -32.5869 -32.5822 -32.5728 -32.5596
   -32.5456 -32.5187 -32.5016 -32.4714 -32.4635 -32.4268 -32.4095 -32.3967
   -32.3878 -32.3702 -32.3506 -32.3438 -32.3305 -32.3134 -32.3001 -32.2614
    -4.1622  -3.4474  -2.9628  -2.2308  -2.1314  -1.6655  -1.3175  -1.1096
    -0.9197  -0.7901  -0.6526  -0.2517  -0.1106  -0.0331  -0.0119   0.1108
     0.3880   0.4685   0.5215   0.6025   0.7477   0.8536   0.9536   1.0342
     1.0837   1.2698   1.3588   1.5251   1.5742   1.6219   1.6708   1.7678
     1.8954   2.1414   2.2786   2.2905   2.4632   2.7268   2.8676   3.1048

          k = 0.0279-0.0806 0.0000 ( 19521 PWs)   bands (ev):

   -66.3387 -66.3235 -66.3170 -66.3107 -66.3023 -66.2917 -66.2900 -66.2763
   -66.2463 -66.2347 -66.2243 -66.1950 -32.9611 -32.9533 -32.9184 -32.9146
   -32.9110 -32.9047 -32.8637 -32.8488 -32.8016 -32.7936 -32.7743 -32.7583
   -32.7222 -32.7112 -32.6637 -32.6441 -32.5869 -32.5822 -32.5728 -32.5596
   -32.5456 -32.5187 -32.5016 -32.4714 -32.4635 -32.4268 -32.4095 -32.3967
   -32.3878 -32.3702 -32.3506 -32.3438 -32.3305 -32.3134 -32.3001 -32.2614
    -4.1622  -3.4474  -2.9628  -2.2308  -2.1314  -1.6655  -1.3175  -1.1096
    -0.9197  -0.7901  -0.6526  -0.2517  -0.1106  -0.0331  -0.0119   0.1108
     0.3880   0.4685   0.5215   0.6025   0.7477   0.8536   0.9536   1.0342
     1.0837   1.2698   1.3588   1.5251   1.5742   1.6219   1.6708   1.7678
     1.8954   2.1414   2.2786   2.2905   2.4632   2.7268   2.8676   3.1048

          k = 0.0279-0.0483 0.0000 ( 19485 PWs)   bands (ev):

   -66.3508 -66.3296 -66.3138 -66.3082 -66.2909 -66.2895 -66.2887 -66.2783
   -66.2547 -66.2282 -66.2233 -66.1941 -33.0219 -33.0105 -32.9787 -32.9746
   -32.9673 -32.9497 -32.9452 -32.9130 -32.8645 -32.8551 -32.7879 -32.7422
   -32.7363 -32.7151 -32.6013 -32.5980 -32.5916 -32.5748 -32.5648 -32.4833
   -32.4775 -32.4494 -32.4449 -32.4393 -32.4338 -32.4081 -32.3893 -32.3790
   -32.3631 -32.3428 -32.3384 -32.3358 -32.3239 -32.2970 -32.2689 -32.2238
    -4.9209  -3.7985  -2.6462  -2.2875  -2.2439  -1.8622  -1.6644  -1.5439
    -1.3980  -1.2669  -0.8520  -0.7840  -0.5459  -0.5237  -0.4587  -0.2446
     0.3358   0.3577   0.6822   0.9792   1.2444   1.2745   1.2805   1.3607
     1.5719   1.6739   1.8527   1.9321   1.9575   2.0641   2.0866   2.1432
     2.2265   2.3600   2.3735   2.4866   2.5226   2.8324   2.8661   2.8940

          k = 0.0558-0.0322 0.0000 ( 19517 PWs)   bands (ev):

   -66.3475 -66.3263 -66.3182 -66.3064 -66.2970 -66.2910 -66.2819 -66.2818
   -66.2524 -66.2308 -66.2227 -66.1945 -32.9973 -32.9949 -32.9849 -32.9531
   -32.9423 -32.9322 -32.9210 -32.8876 -32.8742 -32.7963 -32.7880 -32.7438
   -32.7366 -32.7321 -32.5948 -32.5935 -32.5824 -32.5556 -32.5542 -32.5394
   -32.5388 -32.4899 -32.4510 -32.4409 -32.4326 -32.4301 -32.3817 -32.3791
   -32.3733 -32.3693 -32.3599 -32.3360 -32.3160 -32.2959 -32.2848 -32.2245
    -4.7184  -3.6795  -2.8028  -2.4492  -1.8621  -1.6594  -1.5982  -1.4556
    -1.2970  -1.2578  -0.8926  -0.4662  -0.4658  -0.3948  -0.2961  -0.1247
     0.3485   0.4176   0.6579   0.8365   1.0678   1.0883   1.1698   1.3018
     1.4987   1.7736   1.7760   1.8605   1.8890   1.8922   1.9576   2.0298
     2.1241   2.2140   2.2179   2.3664   2.5872   2.6446   2.7533   2.9851

          k = 0.0558 0.0000 0.0000 ( 19485 PWs)   bands (ev):

   -66.3508 -66.3296 -66.3138 -66.3082 -66.2909 -66.2895 -66.2887 -66.2783
   -66.2547 -66.2282 -66.2233 -66.1941 -33.0219 -33.0105 -32.9787 -32.9746
   -32.9673 -32.9497 -32.9452 -32.9130 -32.8645 -32.8551 -32.7879 -32.7422
   -32.7363 -32.7151 -32.6013 -32.5979 -32.5916 -32.5748 -32.5648 -32.4833
   -32.4775 -32.4494 -32.4449 -32.4393 -32.4338 -32.4081 -32.3893 -32.3790
   -32.3631 -32.3428 -32.3384 -32.3358 -32.3239 -32.2970 -32.2689 -32.2238
    -4.9209  -3.7985  -2.6462  -2.2875  -2.2439  -1.8622  -1.6644  -1.5439
    -1.3980  -1.2669  -0.8520  -0.7840  -0.5459  -0.5237  -0.4587  -0.2446
     0.3358   0.3577   0.6822   0.9792   1.2444   1.2745   1.2805   1.3607
     1.5719   1.6739   1.8527   1.9321   1.9575   2.0641   2.0866   2.1432
     2.2265   2.3600   2.3735   2.4866   2.5226   2.8324   2.8661   2.8940

          k = 0.0558 0.0322 0.0000 ( 19517 PWs)   bands (ev):

   -66.3475 -66.3263 -66.3181 -66.3064 -66.2970 -66.2910 -66.2818 -66.2818
   -66.2524 -66.2308 -66.2227 -66.1945 -32.9973 -32.9949 -32.9849 -32.9531
   -32.9423 -32.9322 -32.9210 -32.8876 -32.8742 -32.7963 -32.7880 -32.7438
   -32.7366 -32.7321 -32.5948 -32.5935 -32.5824 -32.5556 -32.5542 -32.5394
   -32.5388 -32.4899 -32.4510 -32.4409 -32.4326 -32.4301 -32.3817 -32.3792
   -32.3733 -32.3693 -32.3599 -32.3360 -32.3160 -32.2959 -32.2848 -32.2245
    -4.7184  -3.6795  -2.8028  -2.4492  -1.8621  -1.6594  -1.5982  -1.4556
    -1.2970  -1.2578  -0.8926  -0.4662  -0.4658  -0.3948  -0.2961  -0.1247
     0.3485   0.4176   0.6579   0.8365   1.0678   1.0883   1.1698   1.3018
     1.4987   1.7736   1.7760   1.8605   1.8890   1.8922   1.9576   2.0298
     2.1241   2.2140   2.2179   2.3664   2.5872   2.6446   2.7533   2.9851

          k = 0.0558-0.1289 0.0000 ( 19521 PWs)   bands (ev):

   -66.3387 -66.3235 -66.3170 -66.3107 -66.3023 -66.2917 -66.2900 -66.2763
   -66.2462 -66.2347 -66.2243 -66.1950 -32.9611 -32.9533 -32.9184 -32.9146
   -32.9110 -32.9047 -32.8637 -32.8488 -32.8016 -32.7936 -32.7743 -32.7583
   -32.7222 -32.7112 -32.6637 -32.6441 -32.5869 -32.5822 -32.5728 -32.5596
   -32.5456 -32.5187 -32.5016 -32.4714 -32.4635 -32.4268 -32.4095 -32.3967
   -32.3878 -32.3702 -32.3506 -32.3438 -32.3305 -32.3134 -32.3001 -32.2614
    -4.1622  -3.4474  -2.9628  -2.2308  -2.1314  -1.6655  -1.3175  -1.1096
    -0.9197  -0.7901  -0.6526  -0.2517  -0.1106  -0.0331  -0.0119   0.1108
     0.3880   0.4685   0.5215   0.6025   0.7477   0.8536   0.9536   1.0342
     1.0837   1.2698   1.3588   1.5251   1.5742   1.6219   1.6708   1.7678
     1.8954   2.1414   2.2786   2.2905   2.4632   2.7268   2.8676   3.1048

          k = 0.0558-0.0967 0.0000 ( 19521 PWs)   bands (ev):

   -66.3288 -66.3284 -66.3168 -66.3048 -66.3042 -66.3037 -66.2892 -66.2742
   -66.2397 -66.2390 -66.2265 -66.1950 -32.9201 -32.9161 -32.9116 -32.8790
   -32.8764 -32.8615 -32.8424 -32.8413 -32.8366 -32.7565 -32.7484 -32.7337
   -32.7026 -32.6956 -32.6893 -32.6730 -32.6702 -32.6653 -32.5631 -32.5582
   -32.5577 -32.5489 -32.5455 -32.4428 -32.4303 -32.4288 -32.4026 -32.3846
   -32.3751 -32.3723 -32.3662 -32.3662 -32.3576 -32.3137 -32.3117 -32.3084
    -3.6885  -3.1149  -3.0995  -2.8317  -1.7476  -1.7412  -1.3443  -0.4565
    -0.4464  -0.4275  -0.3993  -0.3916  -0.2503   0.2308   0.2363   0.2461
     0.2515   0.2731   0.4594   0.4653   0.4808   0.5473   0.5526   0.9150
     1.2041   1.2120   1.2187   1.2199   1.2419   1.3685   1.5317   1.7341
     1.7356   1.8428   2.4988   2.5467   2.5879   2.9661   2.9951   3.0126

          k = 0.0558-0.0645 0.0000 ( 19521 PWs)   bands (ev):

   -66.3387 -66.3235 -66.3170 -66.3107 -66.3023 -66.2917 -66.2900 -66.2763
   -66.2463 -66.2347 -66.2243 -66.1950 -32.9611 -32.9533 -32.9184 -32.9146
   -32.9110 -32.9047 -32.8637 -32.8488 -32.8016 -32.7936 -32.7743 -32.7583
   -32.7222 -32.7112 -32.6637 -32.6441 -32.5869 -32.5822 -32.5728 -32.5596
   -32.5456 -32.5187 -32.5016 -32.4714 -32.4635 -32.4268 -32.4095 -32.3967
   -32.3878 -32.3702 -32.3506 -32.3438 -32.3305 -32.3134 -32.3001 -32.2614
    -4.1622  -3.4474  -2.9628  -2.2308  -2.1314  -1.6655  -1.3175  -1.1096
    -0.9197  -0.7901  -0.6526  -0.2517  -0.1106  -0.0331  -0.0119   0.1108
     0.3880   0.4685   0.5215   0.6025   0.7477   0.8536   0.9536   1.0342
     1.0837   1.2698   1.3588   1.5251   1.5742   1.6219   1.6708   1.7678
     1.8954   2.1414   2.2786   2.2905   2.4632   2.7268   2.8676   3.1048

          k =-0.0837 0.0483 0.0000 ( 19532 PWs)   bands (ev):

   -66.3360 -66.3291 -66.3120 -66.3113 -66.3064 -66.2916 -66.2819 -66.2818
   -66.2450 -66.2374 -66.2227 -66.1952 -32.9473 -32.9455 -32.9397 -32.9360
   -32.9242 -32.9147 -32.8416 -32.8251 -32.8208 -32.8178 -32.7714 -32.7695
   -32.6575 -32.6482 -32.6246 -32.6162 -32.6014 -32.5994 -32.5915 -32.5896
   -32.5319 -32.5312 -32.5107 -32.5074 -32.5011 -32.4870 -32.3896 -32.3861
   -32.3793 -32.3692 -32.3514 -32.3358 -32.3341 -32.3231 -32.2616 -32.2571
    -3.9980  -3.6625  -3.1896  -2.2372  -1.7766  -1.3671  -1.3631  -1.1430
    -1.0186  -0.9976  -0.8513  -0.1371  -0.1341   0.1576   0.1588   0.1703
     0.2440   0.5209   0.5908   0.6635   0.7217   0.8293   0.9088   1.1824
     1.2088   1.2308   1.3608   1.4273   1.5054   1.5766   1.6543   1.6693
     2.1207   2.1513   2.2372   2.2721   2.2865   2.3501   3.2045   3.2119

          k =-0.0837 0.0806 0.0000 ( 19521 PWs)   bands (ev):

   -66.3387 -66.3235 -66.3170 -66.3107 -66.3023 -66.2917 -66.2900 -66.2763
   -66.2462 -66.2347 -66.2243 -66.1950 -32.9611 -32.9533 -32.9184 -32.9146
   -32.9110 -32.9047 -32.8637 -32.8488 -32.8016 -32.7936 -32.7743 -32.7583
   -32.7222 -32.7112 -32.6637 -32.6441 -32.5869 -32.5822 -32.5728 -32.5596
   -32.5456 -32.5187 -32.5016 -32.4714 -32.4635 -32.4268 -32.4095 -32.3967
   -32.3878 -32.3702 -32.3506 -32.3438 -32.3305 -32.3134 -32.3001 -32.2614
    -4.1622  -3.4474  -2.9628  -2.2308  -2.1314  -1.6655  -1.3175  -1.1096
    -0.9197  -0.7901  -0.6526  -0.2517  -0.1106  -0.0331  -0.0119   0.1108
     0.3880   0.4685   0.5215   0.6025   0.7477   0.8536   0.9536   1.0342
     1.0837   1.2698   1.3588   1.5251   1.5742   1.6219   1.6708   1.7678
     1.8954   2.1414   2.2786   2.2905   2.4632   2.7268   2.8676   3.1048

          k =-0.0837 0.1128 0.0000 ( 19521 PWs)   bands (ev):

   -66.3387 -66.3235 -66.3170 -66.3107 -66.3023 -66.2917 -66.2900 -66.2763
   -66.2462 -66.2347 -66.2243 -66.1950 -32.9611 -32.9533 -32.9184 -32.9146
   -32.9110 -32.9047 -32.8637 -32.8488 -32.8016 -32.7936 -32.7743 -32.7583
   -32.7222 -32.7112 -32.6637 -32.6441 -32.5869 -32.5822 -32.5728 -32.5596
   -32.5456 -32.5187 -32.5016 -32.4714 -32.4635 -32.4268 -32.4095 -32.3967
   -32.3878 -32.3702 -32.3506 -32.3438 -32.3305 -32.3134 -32.3001 -32.2614
    -4.1622  -3.4474  -2.9628  -2.2308  -2.1314  -1.6655  -1.3175  -1.1096
    -0.9197  -0.7901  -0.6526  -0.2517  -0.1106  -0.0331  -0.0119   0.1108
     0.3880   0.4685   0.5215   0.6025   0.7477   0.8536   0.9536   1.0342
     1.0837   1.2698   1.3588   1.5251   1.5742   1.6219   1.6708   1.7678
     1.8954   2.1414   2.2786   2.2905   2.4632   2.7268   2.8676   3.1048

          k =-0.0837-0.0483 0.0000 ( 19532 PWs)   bands (ev):

   -66.3360 -66.3291 -66.3119 -66.3113 -66.3064 -66.2916 -66.2818 -66.2818
   -66.2450 -66.2375 -66.2227 -66.1952 -32.9473 -32.9455 -32.9397 -32.9360
   -32.9242 -32.9147 -32.8416 -32.8251 -32.8208 -32.8178 -32.7714 -32.7695
   -32.6575 -32.6482 -32.6246 -32.6162 -32.6014 -32.5994 -32.5915 -32.5896
   -32.5319 -32.5312 -32.5107 -32.5074 -32.5011 -32.4870 -32.3896 -32.3861
   -32.3793 -32.3692 -32.3514 -32.3358 -32.3341 -32.3231 -32.2616 -32.2572
    -3.9980  -3.6625  -3.1896  -2.2372  -1.7766  -1.3671  -1.3631  -1.1430
    -1.0186  -0.9976  -0.8513  -0.1371  -0.1341   0.1576   0.1588   0.1703
     0.2440   0.5209   0.5908   0.6635   0.7217   0.8293   0.9087   1.1824
     1.2088   1.2308   1.3608   1.4273   1.5054   1.5766   1.6543   1.6693
     2.1207   2.1513   2.2372   2.2721   2.2865   2.3501   3.2056   3.2798

     the Fermi energy is     1.9785 ev

!    total energy              =   -1719.51497388 Ry
     Harris-Foulkes estimate   =   -1719.51497451 Ry
     estimated scf accuracy    <       0.00000081 Ry

     The total energy is the sum of the following terms:

     one-electron contribution =  -11428.35905628 Ry
     hartree contribution      =    5696.35559992 Ry
     xc contribution           =    -523.42183250 Ry
     ewald contribution        =    4536.01625125 Ry
     electric field correction =       0.00000000 Ry
     smearing contrib. (-TS)   =      -0.10593627 Ry

     convergence has been achieved in   8 iterations
 
 BEEF-vdW xc energy contributions
           1 :   -460.883495164709     
           2 :    425.507705529234     
           3 :   -363.701853546070     
           4 :    289.738639912632     
           5 :   -217.990263601355     
           6 :    158.468753177998     
           7 :   -114.792528787156     
           8 :    84.9922770523604     
           9 :   -64.2425245249641     
          10 :    47.8989902518707     
          11 :   -33.4106905582311     
          12 :    20.5364143990535     
          13 :   -10.2680081725393     
          14 :    3.41550856866746     
          15 :   0.261637212161304     
          16 :   -2.01142947403889     
          17 :    3.36071559781271     
          18 :   -5.26987631607665     
          19 :    7.70659604034125     
          20 :   -9.85236689325245     
          21 :    10.7605438936585     
          22 :   -10.0366260746229     
          23 :    8.12982445257455     
          24 :   -6.08409744783432     
          25 :    4.93203440828472     
          26 :   -5.11870031260969     
          27 :    6.29879294929322     
          28 :   -7.60282499862564     
          29 :    8.18059373511073     
          30 :   -7.68012353619974     
          31 :   -41.1184613563245     
          32 :   -30.5215353141690     

     Forces acting on atoms (Ry/au):


     negative rho (up, down):  1.176E+00 0.000E+00
     atom    1 type  1   force =    -0.00000028    0.00000131    0.00218237
     atom    2 type  1   force =     0.00000083    0.00032168    0.00375551
     atom    3 type  1   force =     0.00027777   -0.00016052    0.00375385
     atom    4 type  1   force =    -0.00027810   -0.00016185    0.00375359
     atom    5 type  1   force =     0.00116738   -0.00067479    0.00200205
     atom    6 type  1   force =    -0.00116724   -0.00067392    0.00200055
     atom    7 type  1   force =     0.00000127    0.00000002   -0.00722892
     atom    8 type  1   force =    -0.00000065    0.00134839    0.00200130
     atom    9 type  1   force =    -0.00398011   -0.00229649    0.00949172
     atom   10 type  1   force =     0.00398031   -0.00229776    0.00949134
     atom   11 type  1   force =    -0.00000086    0.00459503    0.00949105
     atom   12 type  1   force =    -0.00000057   -0.00000129   -0.01087966
     atom   13 type  2   force =     0.00000026    0.00000020   -0.02981474

     Total force =     0.036618     Total SCF correction =     0.003553


     entering subroutine stress ...


     negative rho (up, down):  1.176E+00 0.000E+00
          total   stress  (Ry/bohr**3)                   (kbar)     P=  -32.85
  -0.00029224   0.00000000  -0.00000000        -42.99      0.00     -0.00
   0.00000000  -0.00029224  -0.00000000          0.00    -42.99     -0.00
  -0.00000000  -0.00000000  -0.00008536         -0.00     -0.00    -12.56


     number of scf cycles    =   2
     number of bfgs steps    =   1

     energy   old            =   -1719.5134106839 Ry
     energy   new            =   -1719.5149738809 Ry

     CASE: energy  _new < energy  _old


     WARNING: bfgs curvature condition failed, Theta= 0.887
     new trust radius        =       0.0361086107 bohr
     new conv_thr            =       0.0000001000 Ry


ATOMIC_POSITIONS (crystal)
Ta1      0.166666667   0.166666667   0.401991699    0   0   0
Ta1      0.666666667   0.166666667   0.401991699    0   0   0
Ta1      0.166666667   0.666666667   0.401991699    0   0   0
Ta1      0.666666667   0.666666667   0.401991699    0   0   0
Ta1      0.833333333   0.333333333   0.500000000    0   0   0
Ta1      0.333333333   0.333333333   0.500000000    0   0   0
Ta1      0.833333333   0.833333333   0.500000000    0   0   0
Ta1      0.333333333   0.833333333   0.500000000    0   0   0
Ta1     -0.000521562  -0.000521703   0.598489981
Ta1      0.501043444  -0.000522179   0.598489989
Ta1     -0.000521645   0.501043254   0.598490046
Ta1      0.500000049   0.500000242   0.597479161
H1       0.166666755   0.166666648   0.649062106



     Writing output data file calc.save
     Check: negative starting charge=   -1.120697
     NEW-OLD atomic charge density approx. for the potential
     Check: negative starting charge=   -1.120188

     negative rho (up, down):  1.176E+00 0.000E+00
 
     Adding external electric field

     Computed dipole along edir(3) : 
        Dipole               -0.0005 Ry au,         -0.0012 Debye
        Dipole field         -0.0000 Ry au
 
        Potential amp.        0.0001 Ry
        Total length         45.8339 bohr
 

     total cpu time spent up to now is      966.6 secs

     per-process dynamical memory:    88.4 Mb

     Self-consistent Calculation

     iteration #  1     ecut=    36.75 Ry     beta=0.30
     Davidson diagonalization with overlap
     ethr =  1.00E-06,  avg # of iterations =  4.8

     negative rho (up, down):  1.176E+00 0.000E+00
 
     Adding external electric field

     Computed dipole along edir(3) : 
        Dipole                0.1583 Ry au,          0.4023 Debye
        Dipole field          0.0004 Ry au
 
        Potential amp.       -0.0352 Ry
        Total length         45.8339 bohr
 

     total cpu time spent up to now is     1002.1 secs

     total energy              =   -1719.51524027 Ry
     Harris-Foulkes estimate   =   -1719.51647538 Ry
     estimated scf accuracy    <       0.00260643 Ry

     iteration #  2     ecut=    36.75 Ry     beta=0.30
     Davidson diagonalization with overlap
     ethr =  1.66E-06,  avg # of iterations =  6.4

     negative rho (up, down):  1.176E+00 0.000E+00
 
     Adding external electric field

     Computed dipole along edir(3) : 
        Dipole                0.0065 Ry au,          0.0165 Debye
        Dipole field          0.0000 Ry au
 
        Potential amp.       -0.0014 Ry
        Total length         45.8339 bohr
 

     total cpu time spent up to now is     1034.8 secs

     total energy              =   -1719.49492378 Ry
     Harris-Foulkes estimate   =   -1719.53876380 Ry
     estimated scf accuracy    <       2.31434459 Ry

     iteration #  3     ecut=    36.75 Ry     beta=0.30
     Davidson diagonalization with overlap
     ethr =  1.66E-06,  avg # of iterations =  6.0

     negative rho (up, down):  1.176E+00 0.000E+00
 
     Adding external electric field

     Computed dipole along edir(3) : 
        Dipole                0.0075 Ry au,          0.0190 Debye
        Dipole field          0.0000 Ry au
 
        Potential amp.       -0.0017 Ry
        Total length         45.8339 bohr
 

     total cpu time spent up to now is     1067.3 secs

     total energy              =   -1719.51648219 Ry
     Harris-Foulkes estimate   =   -1719.51650122 Ry
     estimated scf accuracy    <       0.00009716 Ry

     iteration #  4     ecut=    36.75 Ry     beta=0.30
     Davidson diagonalization with overlap
     ethr =  6.19E-08,  avg # of iterations =  3.5

     negative rho (up, down):  1.176E+00 0.000E+00
 
     Adding external electric field

     Computed dipole along edir(3) : 
        Dipole                0.0081 Ry au,          0.0206 Debye
        Dipole field          0.0000 Ry au
 
        Potential amp.       -0.0018 Ry
        Total length         45.8339 bohr
 

     total cpu time spent up to now is     1096.0 secs

     total energy              =   -1719.51648596 Ry
     Harris-Foulkes estimate   =   -1719.51650781 Ry
     estimated scf accuracy    <       0.00021480 Ry

     iteration #  5     ecut=    36.75 Ry     beta=0.30
     Davidson diagonalization with overlap
     ethr =  6.19E-08,  avg # of iterations =  3.0

     negative rho (up, down):  1.176E+00 0.000E+00
 
     Adding external electric field

     Computed dipole along edir(3) : 
        Dipole                0.0084 Ry au,          0.0213 Debye
        Dipole field          0.0000 Ry au
 
        Potential amp.       -0.0019 Ry
        Total length         45.8339 bohr
 

     total cpu time spent up to now is     1123.3 secs

     total energy              =   -1719.51649609 Ry
     Harris-Foulkes estimate   =   -1719.51649922 Ry
     estimated scf accuracy    <       0.00002040 Ry

     iteration #  6     ecut=    36.75 Ry     beta=0.30
     Davidson diagonalization with overlap
     ethr =  1.30E-08,  avg # of iterations =  3.2

     negative rho (up, down):  1.176E+00 0.000E+00
 
     Adding external electric field

     Computed dipole along edir(3) : 
        Dipole                0.0083 Ry au,          0.0210 Debye
        Dipole field          0.0000 Ry au
 
        Potential amp.       -0.0018 Ry
        Total length         45.8339 bohr
 

     total cpu time spent up to now is     1160.5 secs

     total energy              =   -1719.51649863 Ry
     Harris-Foulkes estimate   =   -1719.51649829 Ry
     estimated scf accuracy    <       0.00000260 Ry

     iteration #  7     ecut=    36.75 Ry     beta=0.30
     Davidson diagonalization with overlap
     ethr =  1.66E-09,  avg # of iterations =  3.8

     negative rho (up, down):  1.176E+00 0.000E+00
 
     Adding external electric field

     Computed dipole along edir(3) : 
        Dipole                0.0083 Ry au,          0.0212 Debye
        Dipole field          0.0000 Ry au
 
        Potential amp.       -0.0019 Ry
        Total length         45.8339 bohr
 

     total cpu time spent up to now is     1194.3 secs

     total energy              =   -1719.51649887 Ry
     Harris-Foulkes estimate   =   -1719.51649890 Ry
     estimated scf accuracy    <       0.00000070 Ry

     iteration #  8     ecut=    36.75 Ry     beta=0.30
     Davidson diagonalization with overlap
     ethr =  4.47E-10,  avg # of iterations =  3.9

[...]
    -0.9366  -0.7872  -0.6205  -0.2623  -0.1257  -0.0308   0.0062   0.1241
     0.3813   0.4519   0.5318   0.6212   0.7233   0.8467   0.9611   1.0185
     1.1188   1.2734   1.3495   1.5105   1.5724   1.6514   1.7349   1.7750
     1.9004   2.1293   2.3379   2.3533   2.5313   2.7462   2.9311   3.0902

          k = 0.0279-0.0483 0.0000 ( 19485 PWs)   bands (ev):

   -66.3172 -66.3084 -66.2795 -66.2728 -66.2703 -66.2692 -66.2588 -66.2322
   -66.2027 -66.1963 -66.1746 -66.1551 -33.0108 -32.9893 -32.9613 -32.9553
   -32.9477 -32.9269 -32.9196 -32.8848 -32.8356 -32.8262 -32.7623 -32.7191
   -32.7072 -32.6859 -32.5856 -32.5790 -32.5540 -32.5332 -32.5242 -32.4551
   -32.4495 -32.4365 -32.4185 -32.4013 -32.3837 -32.3768 -32.3619 -32.3420
   -32.3188 -32.3133 -32.3058 -32.2851 -32.2817 -32.2487 -32.2283 -32.1864
    -4.9999  -4.0176  -2.7120  -2.2763  -2.2466  -1.8473  -1.6688  -1.4913
    -1.4239  -1.2454  -0.8460  -0.7647  -0.5373  -0.5102  -0.4491  -0.1414
     0.3479   0.3651   0.7398   0.9962   1.2121   1.2587   1.3012   1.3695
     1.5664   1.6810   1.8400   1.9602   1.9963   2.0601   2.1295   2.1762
     2.2048   2.3631   2.4399   2.5338   2.5679   2.8018   2.8385   2.9128

          k = 0.0558-0.0322 0.0000 ( 19517 PWs)   bands (ev):

   -66.3143 -66.3055 -66.2822 -66.2770 -66.2723 -66.2628 -66.2618 -66.2299
   -66.2057 -66.1954 -66.1748 -66.1553 -32.9916 -32.9667 -32.9662 -32.9386
   -32.9174 -32.9087 -32.9007 -32.8620 -32.8415 -32.7721 -32.7602 -32.7196
   -32.7122 -32.7006 -32.5765 -32.5764 -32.5377 -32.5297 -32.5222 -32.5122
   -32.4945 -32.4514 -32.4176 -32.4169 -32.4057 -32.3972 -32.3591 -32.3503
   -32.3327 -32.3168 -32.3081 -32.3016 -32.2666 -32.2607 -32.2398 -32.1863
    -4.8078  -3.9034  -2.8104  -2.4861  -1.8460  -1.6435  -1.5899  -1.4526
    -1.3107  -1.2100  -0.8700  -0.4748  -0.4448  -0.3696  -0.3087  -0.0500
     0.3552   0.4236   0.6796   0.8619   1.0603   1.0984   1.1373   1.3056
     1.5111   1.7348   1.7786   1.8345   1.9285   1.9288   1.9761   2.0556
     2.1507   2.2519   2.2712   2.4138   2.5572   2.6920   2.8111   2.9511

          k = 0.0558 0.0000 0.0000 ( 19485 PWs)   bands (ev):

   -66.3172 -66.3084 -66.2794 -66.2728 -66.2703 -66.2692 -66.2588 -66.2322
   -66.2027 -66.1963 -66.1746 -66.1551 -33.0108 -32.9893 -32.9613 -32.9553
   -32.9477 -32.9269 -32.9196 -32.8848 -32.8355 -32.8262 -32.7623 -32.7191
   -32.7072 -32.6859 -32.5856 -32.5790 -32.5540 -32.5332 -32.5242 -32.4551
   -32.4495 -32.4365 -32.4185 -32.4013 -32.3837 -32.3768 -32.3619 -32.3420
   -32.3188 -32.3133 -32.3058 -32.2851 -32.2817 -32.2487 -32.2283 -32.1864
    -4.9999  -4.0176  -2.7120  -2.2763  -2.2466  -1.8473  -1.6688  -1.4913
    -1.4239  -1.2454  -0.8460  -0.7647  -0.5373  -0.5102  -0.4491  -0.1414
     0.3479   0.3651   0.7398   0.9962   1.2121   1.2587   1.3012   1.3695
     1.5664   1.6809   1.8399   1.9602   1.9963   2.0601   2.1295   2.1762
     2.2048   2.3631   2.4399   2.5338   2.5679   2.8018   2.8385   2.9128

          k = 0.0558 0.0322 0.0000 ( 19517 PWs)   bands (ev):

   -66.3143 -66.3055 -66.2821 -66.2770 -66.2723 -66.2628 -66.2618 -66.2299
   -66.2057 -66.1954 -66.1748 -66.1553 -32.9916 -32.9667 -32.9662 -32.9386
   -32.9174 -32.9087 -32.9007 -32.8620 -32.8415 -32.7722 -32.7602 -32.7195
   -32.7122 -32.7006 -32.5765 -32.5764 -32.5377 -32.5297 -32.5222 -32.5122
   -32.4945 -32.4514 -32.4176 -32.4169 -32.4057 -32.3972 -32.3591 -32.3503
   -32.3327 -32.3168 -32.3081 -32.3016 -32.2666 -32.2607 -32.2398 -32.1863
    -4.8078  -3.9034  -2.8104  -2.4861  -1.8460  -1.6435  -1.5899  -1.4526
    -1.3107  -1.2100  -0.8700  -0.4748  -0.4448  -0.3696  -0.3087  -0.0500
     0.3552   0.4236   0.6796   0.8619   1.0603   1.0984   1.1373   1.3056
     1.5111   1.7348   1.7786   1.8345   1.9285   1.9288   1.9761   2.0556
     2.1507   2.2519   2.2712   2.4138   2.5571   2.6920   2.8111   2.9511

          k = 0.0558-0.1289 0.0000 ( 19521 PWs)   bands (ev):

   -66.3076 -66.2974 -66.2864 -66.2823 -66.2736 -66.2714 -66.2568 -66.2239
   -66.2100 -66.1976 -66.1742 -66.1559 -32.9512 -32.9309 -32.9077 -32.8939
   -32.8870 -32.8808 -32.8435 -32.8225 -32.7773 -32.7671 -32.7491 -32.7304
   -32.6948 -32.6898 -32.6341 -32.6099 -32.5634 -32.5583 -32.5473 -32.5259
   -32.5040 -32.4869 -32.4642 -32.4457 -32.4183 -32.4000 -32.3800 -32.3648
   -32.3418 -32.3388 -32.3089 -32.3019 -32.2845 -32.2690 -32.2536 -32.2210
    -4.3138  -3.6246  -2.9742  -2.2406  -2.1242  -1.6458  -1.3005  -1.0504
    -0.9366  -0.7872  -0.6205  -0.2624  -0.1257  -0.0308   0.0062   0.1241
     0.3813   0.4519   0.5318   0.6212   0.7233   0.8467   0.9611   1.0185
     1.1188   1.2734   1.3495   1.5105   1.5724   1.6514   1.7349   1.7750
     1.9004   2.1293   2.3379   2.3533   2.5313   2.7462   2.9311   3.0902

          k = 0.0558-0.0967 0.0000 ( 19521 PWs)   bands (ev):

   -66.3034 -66.2899 -66.2850 -66.2847 -66.2837 -66.2739 -66.2548 -66.2191
   -66.2127 -66.2003 -66.1734 -66.1563 -32.9128 -32.8979 -32.8935 -32.8599
   -32.8516 -32.8411 -32.8194 -32.8184 -32.8182 -32.7409 -32.7122 -32.7063
   -32.6769 -32.6671 -32.6659 -32.6494 -32.6436 -32.6052 -32.5412 -32.5397
   -32.5389 -32.5238 -32.4817 -32.4072 -32.4015 -32.3889 -32.3747 -32.3469
   -32.3463 -32.3432 -32.3287 -32.3231 -32.3062 -32.2714 -32.2681 -32.2514
    -3.9924  -3.1254  -3.0969  -2.8654  -1.7416  -1.7390  -1.2720  -0.4639
    -0.4524  -0.4449  -0.4351  -0.3773  -0.1645   0.1519   0.2296   0.2450
     0.2714   0.2892   0.4324   0.4632   0.4802   0.5493   0.6247   0.9018
     1.1285   1.1915   1.2315   1.2705   1.2868   1.4097   1.5187   1.7359
     1.7533   1.8575   2.5591   2.6247   2.6273   3.0179   3.0180   3.0460

          k = 0.0558-0.0645 0.0000 ( 19521 PWs)   bands (ev):

   -66.3076 -66.2974 -66.2865 -66.2823 -66.2735 -66.2714 -66.2568 -66.2239
   -66.2100 -66.1976 -66.1742 -66.1559 -32.9511 -32.9309 -32.9077 -32.8939
   -32.8870 -32.8808 -32.8435 -32.8225 -32.7773 -32.7671 -32.7491 -32.7304
   -32.6948 -32.6898 -32.6341 -32.6099 -32.5634 -32.5583 -32.5473 -32.5259
   -32.5040 -32.4869 -32.4643 -32.4457 -32.4183 -32.4000 -32.3800 -32.3648
   -32.3418 -32.3388 -32.3089 -32.3019 -32.2845 -32.2690 -32.2536 -32.2210
    -4.3138  -3.6246  -2.9742  -2.2406  -2.1242  -1.6458  -1.3005  -1.0504
    -0.9366  -0.7872  -0.6205  -0.2624  -0.1257  -0.0308   0.0062   0.1241
     0.3813   0.4519   0.5318   0.6212   0.7233   0.8467   0.9611   1.0185
     1.1188   1.2734   1.3495   1.5105   1.5724   1.6514   1.7349   1.7750
     1.9004   2.1293   2.3379   2.3533   2.5313   2.7462   2.9311   3.0902

          k =-0.0837 0.0483 0.0000 ( 19532 PWs)   bands (ev):

   -66.3068 -66.2941 -66.2913 -66.2862 -66.2723 -66.2628 -66.2618 -66.2229
   -66.2127 -66.1954 -66.1750 -66.1558 -32.9403 -32.9331 -32.9180 -32.9121
   -32.8987 -32.8917 -32.8193 -32.7980 -32.7943 -32.7893 -32.7491 -32.7451
   -32.6533 -32.6211 -32.6094 -32.5861 -32.5685 -32.5610 -32.5551 -32.5463
   -32.5135 -32.4974 -32.4760 -32.4672 -32.4621 -32.4453 -32.3670 -32.3586
   -32.3497 -32.3165 -32.3070 -32.3008 -32.2842 -32.2716 -32.2320 -32.2102
    -4.2229  -3.6692  -3.3025  -2.2319  -1.7583  -1.3690  -1.3523  -1.1190
    -1.0125  -0.9862  -0.7877  -0.1697  -0.1380   0.1348   0.1434   0.1989
     0.2735   0.5182   0.5428   0.6748   0.7134   0.8747   0.8791   1.1507
     1.2044   1.2722   1.3760   1.4298   1.4797   1.6312   1.6769   1.7705
     1.9235   2.2276   2.2490   2.3460   2.4040   2.4161   3.1588   3.1979

          k =-0.0837 0.0806 0.0000 ( 19521 PWs)   bands (ev):

   -66.3076 -66.2974 -66.2865 -66.2823 -66.2735 -66.2714 -66.2568 -66.2239
   -66.2100 -66.1976 -66.1742 -66.1559 -32.9512 -32.9309 -32.9077 -32.8939
   -32.8870 -32.8808 -32.8435 -32.8225 -32.7773 -32.7671 -32.7491 -32.7304
   -32.6948 -32.6898 -32.6341 -32.6099 -32.5634 -32.5583 -32.5473 -32.5259
   -32.5040 -32.4869 -32.4643 -32.4457 -32.4183 -32.4000 -32.3800 -32.3648
   -32.3418 -32.3388 -32.3089 -32.3019 -32.2845 -32.2690 -32.2536 -32.2210
    -4.3138  -3.6246  -2.9742  -2.2406  -2.1242  -1.6458  -1.3005  -1.0504
    -0.9366  -0.7872  -0.6205  -0.2624  -0.1257  -0.0308   0.0062   0.1241
     0.3813   0.4519   0.5318   0.6212   0.7233   0.8467   0.9611   1.0185
     1.1188   1.2734   1.3495   1.5105   1.5724   1.6514   1.7349   1.7750
     1.9004   2.1293   2.3379   2.3533   2.5313   2.7462   2.9311   3.0902

          k =-0.0837 0.1128 0.0000 ( 19521 PWs)   bands (ev):

   -66.3076 -66.2974 -66.2864 -66.2823 -66.2736 -66.2714 -66.2568 -66.2239
   -66.2100 -66.1976 -66.1742 -66.1559 -32.9512 -32.9309 -32.9077 -32.8939
   -32.8870 -32.8808 -32.8435 -32.8225 -32.7773 -32.7671 -32.7491 -32.7304
   -32.6948 -32.6898 -32.6341 -32.6099 -32.5634 -32.5583 -32.5473 -32.5259
   -32.5040 -32.4869 -32.4642 -32.4457 -32.4183 -32.4000 -32.3800 -32.3648
   -32.3418 -32.3388 -32.3089 -32.3019 -32.2845 -32.2690 -32.2536 -32.2210
    -4.3138  -3.6246  -2.9742  -2.2406  -2.1242  -1.6458  -1.3005  -1.0504
    -0.9366  -0.7872  -0.6205  -0.2624  -0.1257  -0.0308   0.0062   0.1241
     0.3813   0.4519   0.5318   0.6212   0.7233   0.8467   0.9611   1.0185
     1.1188   1.2734   1.3495   1.5105   1.5724   1.6514   1.7348   1.7750
     1.9004   2.1293   2.3379   2.3533   2.5313   2.7462   2.9311   3.0902

          k =-0.0837-0.0483 0.0000 ( 19532 PWs)   bands (ev):

   -66.3069 -66.2941 -66.2913 -66.2861 -66.2724 -66.2629 -66.2618 -66.2229
   -66.2127 -66.1954 -66.1750 -66.1558 -32.9403 -32.9331 -32.9180 -32.9121
   -32.8987 -32.8917 -32.8194 -32.7980 -32.7943 -32.7892 -32.7491 -32.7452
   -32.6533 -32.6211 -32.6094 -32.5861 -32.5686 -32.5610 -32.5551 -32.5462
   -32.5135 -32.4974 -32.4760 -32.4672 -32.4621 -32.4453 -32.3670 -32.3586
   -32.3497 -32.3165 -32.3070 -32.3008 -32.2842 -32.2716 -32.2320 -32.2102
    -4.2229  -3.6692  -3.3025  -2.2319  -1.7583  -1.3690  -1.3523  -1.1190
    -1.0125  -0.9862  -0.7877  -0.1697  -0.1380   0.1348   0.1435   0.1989
     0.2735   0.5182   0.5428   0.6748   0.7134   0.8747   0.8791   1.1507
     1.2044   1.2722   1.3760   1.4298   1.4797   1.6312   1.6769   1.7705
     1.9235   2.2276   2.2490   2.3460   2.4040   2.4161   3.1588   3.1979

     the Fermi energy is     1.9945 ev

!    total energy              =   -1719.52426315 Ry
     Harris-Foulkes estimate   =   -1719.52426317 Ry
     estimated scf accuracy    <       0.00000002 Ry

     The total energy is the sum of the following terms:

     one-electron contribution =  -11475.59670187 Ry
     hartree contribution      =    5720.13965134 Ry
     xc contribution           =    -523.52835935 Ry
     ewald contribution        =    4559.56477724 Ry
     electric field correction =       0.00000253 Ry
     smearing contrib. (-TS)   =      -0.10363304 Ry

     convergence has been achieved in   9 iterations
 
 BEEF-vdW xc energy contributions
           1 :   -460.988724651113     
           2 :    425.633442133610     
           3 :   -363.845547471946     
           4 :    289.871975176479     
           5 :   -218.074018770622     
           6 :    158.474946162588     
           7 :   -114.723039348756     
           8 :    84.8819458113667     
           9 :   -64.1425319792635     
          10 :    47.8490122236128     
          11 :   -33.4168628981031     
          12 :    20.5696650541476     
          13 :   -10.2842403171261     
          14 :    3.38428939819636     
          15 :   0.338788228825990     
          16 :   -2.10434321573609     
          17 :    3.43193077962326     
          18 :   -5.29916631320901     
          19 :    7.70274748820361     
          20 :   -9.84538807120896     
          21 :    10.7807549444297     
          22 :   -10.0950445798701     
          23 :    8.21171762527848     
          24 :   -6.15838220059044     
          25 :    4.96999028114971     
          26 :   -5.11069355805517     
          27 :    6.25948328084456     
          28 :   -7.56234213854788     
          29 :    8.16723069695320     
          30 :   -7.70468151664585     
          31 :   -41.1256518725518     
          32 :   -30.5317831617408     

     Forces acting on atoms (Ry/au):


     negative rho (up, down):  1.179E+00 0.000E+00
     atom    1 type  1   force =    -0.00000035   -0.00000024    0.00453075
     atom    2 type  1   force =     0.00000051   -0.00006569    0.00381252
     atom    3 type  1   force =    -0.00005712    0.00003355    0.00381325
     atom    4 type  1   force =     0.00005666    0.00003270    0.00381265
     atom    5 type  1   force =     0.01102872   -0.00636439   -0.00356830
     atom    6 type  1   force =    -0.01102863   -0.00636856   -0.00356072
     atom    7 type  1   force =    -0.00000265   -0.00000083   -0.00506698
     atom    8 type  1   force =     0.00000360    0.01273403   -0.00356547
     atom    9 type  1   force =     0.00086215    0.00049770    0.00014206
     atom   10 type  1   force =    -0.00086433    0.00049668    0.00014595
     atom   11 type  1   force =    -0.00000189   -0.00099588    0.00014399
     atom   12 type  1   force =     0.00000154    0.00000068    0.00110186
     atom   13 type  2   force =     0.00000180    0.00000026   -0.00174158

     Total force =     0.002699     Total SCF correction =     0.000288
     SCF correction compared to forces is large: reduce conv_thr to get better values


     entering subroutine stress ...


     negative rho (up, down):  1.179E+00 0.000E+00
          total   stress  (Ry/bohr**3)                   (kbar)     P=  -28.88
  -0.00026287   0.00000000   0.00000000        -38.67      0.00      0.00
   0.00000000  -0.00026287  -0.00000000          0.00    -38.67     -0.00
   0.00000000  -0.00000000  -0.00006332          0.00     -0.00     -9.31


     bfgs converged in  12 scf cycles and  11 bfgs steps
     (criteria: energy <  1.0E+00, force <  1.9E-03)

     End of BFGS Geometry Optimization

     Final energy   =   -1719.5242631484 Ry
Begin final coordinates

ATOMIC_POSITIONS (crystal)
Ta1      0.166666667   0.166666667   0.401991699    0   0   0
Ta1      0.666666667   0.166666667   0.401991699    0   0   0
Ta1      0.166666667   0.666666667   0.401991699    0   0   0
Ta1      0.666666667   0.666666667   0.401991699    0   0   0
Ta1      0.833333333   0.333333333   0.500000000    0   0   0
Ta1      0.333333333   0.333333333   0.500000000    0   0   0
Ta1      0.833333333   0.833333333   0.500000000    0   0   0
Ta1      0.333333333   0.833333333   0.500000000    0   0   0
Ta1     -0.004758647  -0.004760019   0.598664003
Ta1      0.509520892  -0.004760655   0.598664435
Ta1     -0.004758816   0.509519260   0.598664296
Ta1      0.500000509   0.499999962   0.592835293
H1       0.166666276   0.166666310   0.639915155
End final coordinates



     Writing output data file calc.save
 
     init_run     :     15.55s CPU     16.00s WALL (       1 calls)
     electrons    :   4156.70s CPU   4399.09s WALL (      12 calls)
     update_pot   :     30.81s CPU     33.71s WALL (      11 calls)
     forces       :    309.17s CPU    326.84s WALL (      12 calls)
     stress       :   1028.46s CPU   1071.48s WALL (      12 calls)

     Called by init_run:
     wfcinit      :      5.48s CPU      5.61s WALL (       1 calls)
     potinit      :      1.77s CPU      1.93s WALL (       1 calls)

     Called by electrons:
     c_bands      :   1347.00s CPU   1399.89s WALL (     119 calls)
     sum_band     :    982.12s CPU   1030.22s WALL (     119 calls)
     v_of_rho     :    231.40s CPU    269.03s WALL (     131 calls)
     newd         :   1051.62s CPU   1071.30s WALL (     131 calls)
     mix_rho      :      7.54s CPU      7.97s WALL (     119 calls)
     vdW_energy   :    130.01s CPU    143.58s WALL (     563 calls)
     vdW_ffts     :    306.76s CPU    320.59s WALL (    1150 calls)
     vdW_v        :    114.69s CPU    120.13s WALL (     563 calls)

     Called by c_bands:
     init_us_2    :     11.51s CPU     11.57s WALL (    1315 calls)
     cegterg      :   1212.40s CPU   1239.31s WALL (     595 calls)

     Called by *egterg:
     h_psi        :    812.93s CPU    831.51s WALL (    3029 calls)
     s_psi        :     91.67s CPU     91.92s WALL (    3029 calls)
     g_psi        :      4.40s CPU      4.42s WALL (    2429 calls)
     cdiaghg      :     99.72s CPU    100.94s WALL (    2969 calls)

     Called by h_psi:
     add_vuspsi   :     93.54s CPU     93.83s WALL (    3029 calls)

     General routines
     calbec       :    143.97s CPU    146.89s WALL (    3744 calls)
     fft          :    486.73s CPU    531.39s WALL (   33893 calls)
     ffts         :      0.53s CPU      0.64s WALL (     250 calls)
     fftw         :    471.84s CPU    491.65s WALL (  326940 calls)
     interpolate  :      4.82s CPU      5.11s WALL (     250 calls)
     davcio       :      0.00s CPU      0.02s WALL (       5 calls)
 
     Parallel routines
     fft_scatter  :    567.36s CPU    628.29s WALL (  361083 calls)
 
     PWSCF        :     1h34m CPU        1h39m WALL

 
   This run was terminated on:   8:29:50   3May2018            

=------------------------------------------------------------------------------=
   JOB DONE.
=------------------------------------------------------------------------------=
Job  /afs/slac/g/suncat/bin/suncat-tsmpirun -x LD_LIBRARY_PATH -wdir /scratch/qe651638_xHtL8 pw.x -npool 4 -in pw.inp

TID   HOST_NAME   COMMAND_LINE            STATUS            TERMINATION_TIME
===== ========== ================  =======================  ===================
00000 suncat0251 pw.x -npool 4 -i  Done                     05/03/2018 08:29:50
00001 suncat0251 pw.x -npool 4 -i  Done                     05/03/2018 08:29:50
00002 suncat0251 pw.x -npool 4 -i  Done                     05/03/2018 08:29:50
00003 suncat0251 pw.x -npool 4 -i  Done                     05/03/2018 08:29:50
00004 suncat0251 pw.x -npool 4 -i  Done                     05/03/2018 08:29:50
00005 suncat0251 pw.x -npool 4 -i  Done                     05/03/2018 08:29:50
00006 suncat0251 pw.x -npool 4 -i  Done                     05/03/2018 08:29:50
00007 suncat0251 pw.x -npool 4 -i  Done                     05/03/2018 08:29:50
00008 suncat0249 pw.x -npool 4 -i  Done                     05/03/2018 08:29:50
00009 suncat0249 pw.x -npool 4 -i  Done                     05/03/2018 08:29:50
00010 suncat0249 pw.x -npool 4 -i  Done                     05/03/2018 08:29:50
00011 suncat0249 pw.x -npool 4 -i  Done                     05/03/2018 08:29:50
00012 suncat0249 pw.x -npool 4 -i  Done                     05/03/2018 08:29:50
00013 suncat0249 pw.x -npool 4 -i  Done                     05/03/2018 08:29:50
00014 suncat0249 pw.x -npool 4 -i  Done                     05/03/2018 08:29:50
00015 suncat0249 pw.x -npool 4 -i  Done                     05/03/2018 08:29:50
00016 suncat0244 pw.x -npool 4 -i  Done                     05/03/2018 08:29:50
00017 suncat0244 pw.x -npool 4 -i  Done                     05/03/2018 08:29:50
00018 suncat0244 pw.x -npool 4 -i  Done                     05/03/2018 08:29:50
00019 suncat0244 pw.x -npool 4 -i  Done                     05/03/2018 08:29:50
00020 suncat0244 pw.x -npool 4 -i  Done                     05/03/2018 08:29:50
00021 suncat0244 pw.x -npool 4 -i  Done                     05/03/2018 08:29:50
00022 suncat0244 pw.x -npool 4 -i  Done                     05/03/2018 08:29:50
00023 suncat0244 pw.x -npool 4 -i  Done                     05/03/2018 08:29:50
00024 suncat0243 pw.x -npool 4 -i  Done                     05/03/2018 08:29:50
00025 suncat0243 pw.x -npool 4 -i  Done                     05/03/2018 08:29:50
00026 suncat0243 pw.x -npool 4 -i  Done                     05/03/2018 08:29:50
00027 suncat0243 pw.x -npool 4 -i  Done                     05/03/2018 08:29:50
00028 suncat0243 pw.x -npool 4 -i  Done                     05/03/2018 08:29:50
00029 suncat0243 pw.x -npool 4 -i  Done                     05/03/2018 08:29:50
00030 suncat0243 pw.x -npool 4 -i  Done                     05/03/2018 08:29:50
00031 suncat0243 pw.x -npool 4 -i  Done                     05/03/2018 08:29:50
