  python dir          : /u/if/mamunm/src/espresso
  espresso dir        : /nfs/slac/g/suncatfs/sw/espv18/espresso-dynpy-beef/bin
  pseudo dir          : /u/if/mamunm/psp/gbrv1.5pbe
  ase-espresso py git : GITVERSION



     Program PWSCF v.5.1rc2 (svn rev. 11289) starts on  2May2018 at 17:59:27 

     This program is part of the open-source Quantum ESPRESSO suite
     for quantum simulation of materials; please cite
         "P. Giannozzi et al., J. Phys.:Condens. Matter 21 395502 (2009);
          URL http://www.quantum-espresso.org", 
     in publications or presentations arising from this work. More details at
     http://www.quantum-espresso.org/quote

     Parallel version (MPI), running on    32 processors
     K-points division:     npool     =       4
     R & G space division:  proc/nbgrp/npool/nimage =       8
     Reading input from pw.inp
     Message from routine read_cards :
     DEPRECATED: no units specified in CELL_PARAMETERS card

     Current dimensions of program PWSCF are:
     Max number of different atomic species (ntypx) = 10
     Max number of k-points (npk) =  40000
     Max angular momentum in pseudopotentials (lmaxx) =  3
     Presently stress not available with electric field


     **************************************************************************
     Initializing libbeef V0.1.1 with the BEEF-vdW functional.
     Citation: Wellendorff et al., PRB 85, 235149 (2012).
     **************************************************************************


     IMPORTANT: XC functional enforced from input :
     Exchange-correlation      = BEEF-VDW ( 1  4 27 13 2)
     Any further DFT definition will be discarded
     Please, verify this is what you really want


     Subspace diagonalization in iterative solution of the eigenvalue problem:
     a serial algorithm will be used

 
     Parallelization info
     --------------------
     sticks:   dense  smooth     PW     G-vecs:    dense   smooth      PW
     Min         329     130     39                61797    15613    2499
     Max         330     131     40                61814    15645    2512
     Sum        2635    1045    313               494447   125015   20053
 


     bravais-lattice index     =            0
     lattice parameter (alat)  =       1.8897  a.u.
     unit-cell volume          =    4158.3597 (a.u.)^3
     number of atoms/cell      =           13
     number of atomic types    =            2
     number of electrons       =       162.00
     number of Kohn-Sham states=           91
     kinetic-energy cutoff     =      36.7493  Ry
     charge density cutoff     =     367.4932  Ry
     convergence threshold     =      1.0E-05
     mixing beta               =       0.3000
     number of iterations used =           10  plain     mixing
     Exchange-correlation      = BEEF-VDW ( 1  4 27 13 2)
     nstep                     =           50


     celldm(1)=   1.889726  celldm(2)=   0.000000  celldm(3)=   0.000000
     celldm(4)=   0.000000  celldm(5)=   0.000000  celldm(6)=   0.000000

     crystal axes: (cart. coord. in units of alat)
               a(1) = (   5.399178   0.000000   0.000000 )  
               a(2) = (   2.699589   4.675825   0.000000 )  
               a(3) = (   0.000000   0.000000  24.408411 )  

     reciprocal axes: (cart. coord. in units 2 pi/alat)
               b(1) = (  0.185213 -0.106933  0.000000 )  
               b(2) = (  0.000000  0.213866  0.000000 )  
               b(3) = (  0.000000  0.000000  0.040969 )  


     PseudoPot. # 1 for V  read from file:
     /u/if/mamunm/psp/gbrv1.5pbe/V.UPF
     MD5 check sum: 22b79981416ebb76fdaf5b1b8640f6fb
     Pseudo is Ultrasoft + core correction, Zval = 13.0
     Generated by new atomic code, or converted to UPF format
     Using radial grid of  853 points,  6 beta functions with: 
                l(1) =   0
                l(2) =   0
                l(3) =   1
                l(4) =   1
                l(5) =   2
                l(6) =   2
     Q(r) pseudized with  8 coefficients,  rinner =    1.100   1.100   1.100
                                                       1.100   1.100

     PseudoPot. # 2 for S  read from file:
     /u/if/mamunm/psp/gbrv1.5pbe/S.UPF
     MD5 check sum: 88d86576ff6df21479756cfb9bdac1df
     Pseudo is Ultrasoft + core correction, Zval =  6.0
     Generated by new atomic code, or converted to UPF format
     Using radial grid of  907 points,  6 beta functions with: 
                l(1) =   0
                l(2) =   0
                l(3) =   1
                l(4) =   1
                l(5) =   2
                l(6) =   2
     Q(r) pseudized with  8 coefficients,  rinner =    1.300   1.300   1.300
                                                       1.300   1.300

     vdW kernel table read from file vdW_kernel_table
     MD5 check sum: 095c7af220d748ca6e76c0b4c6cfb241

     atomic species   valence    mass     pseudopotential
        V1            13.00    50.94150     V ( 1.00)
        S1             6.00    32.06000     S ( 1.00)

     No symmetry found



   Cartesian axes

     site n.     atom                  positions (alat units)
         1           V1  tau(   1) = (   1.3497945   0.7793042  10.0000000  )
         2           V1  tau(   2) = (   4.0493836   0.7793042  10.0000000  )
         3           V1  tau(   3) = (   2.6995891   3.1172170  10.0000000  )
         4           V1  tau(   4) = (   5.3991782   3.1172170  10.0000000  )
         5           V1  tau(   5) = (   5.3991782   1.5586085  12.2042053  )
         6           V1  tau(   6) = (   2.6995891   1.5586085  12.2042053  )
         7           V1  tau(   7) = (   6.7489727   3.8965212  12.2042053  )
         8           V1  tau(   8) = (   4.0493836   3.8965212  12.2042053  )
         9           V1  tau(   9) = (   0.0000000   0.0000000  14.4084105  )
        10           V1  tau(  10) = (   2.6995891   0.0000000  14.4084105  )
        11           V1  tau(  11) = (   1.3497945   2.3379127  14.4084105  )
        12           V1  tau(  12) = (   4.0493836   2.3379127  14.4084105  )
        13           S1  tau(  13) = (   2.6995891   1.5586085  16.0854105  )

     number of k points=    20  Fermi-Dirac smearing, width (Ry)=  0.0110
                       cart. coord. in units 2pi/alat
        k(    1) = (   0.0000000   0.0000000   0.0000000), wk =   0.0555556
        k(    2) = (   0.0000000   0.0356443   0.0000000), wk =   0.1111111
        k(    3) = (   0.0000000   0.0712887   0.0000000), wk =   0.1111111
        k(    4) = (   0.0000000  -0.1069330   0.0000000), wk =   0.0555556
        k(    5) = (   0.0308689  -0.0178222   0.0000000), wk =   0.1111111
        k(    6) = (   0.0308689   0.0178222   0.0000000), wk =   0.1111111
        k(    7) = (   0.0308689   0.0534665   0.0000000), wk =   0.1111111
        k(    8) = (   0.0308689  -0.1247552   0.0000000), wk =   0.1111111
        k(    9) = (   0.0308689  -0.0891108   0.0000000), wk =   0.1111111
        k(   10) = (   0.0308689  -0.0534665   0.0000000), wk =   0.1111111
        k(   11) = (   0.0617378  -0.0356443   0.0000000), wk =   0.1111111
        k(   12) = (   0.0617378   0.0000000   0.0000000), wk =   0.1111111
        k(   13) = (   0.0617378   0.0356443   0.0000000), wk =   0.1111111
        k(   14) = (   0.0617378  -0.1425773   0.0000000), wk =   0.1111111
        k(   15) = (   0.0617378  -0.1069330   0.0000000), wk =   0.1111111
        k(   16) = (   0.0617378  -0.0712887   0.0000000), wk =   0.1111111
        k(   17) = (  -0.0926067   0.0534665   0.0000000), wk =   0.0555556
        k(   18) = (  -0.0926067   0.0891108   0.0000000), wk =   0.1111111
        k(   19) = (  -0.0926067   0.1247552   0.0000000), wk =   0.1111111
        k(   20) = (  -0.0926067  -0.0534665   0.0000000), wk =   0.0555556

     Dense  grid:   494447 G-vectors     FFT dimensions: (  64,  64, 288)

     Smooth grid:   125015 G-vectors     FFT dimensions: (  40,  40, 180)

     Largest allocated arrays     est. size (Mb)     dimensions
        Kohn-Sham Wavefunctions         2.84 Mb     (    2047,   91)
        NL pseudopotentials             7.31 Mb     (    2047,  234)
        Each V/rho on FFT grid          2.25 Mb     (  147456)
        Each G-vector array             0.47 Mb     (   61814)
        G-vector shells                 0.12 Mb     (   16161)
     Largest temporary arrays     est. size (Mb)     dimensions
        Auxiliary wavefunctions        11.37 Mb     (    2047,  364)
        Each subspace H/S matrix        2.02 Mb     (     364,  364)
        Each <psi_i|beta_j> matrix      0.32 Mb     (     234,   91)
        Arrays for rho mixing          22.50 Mb     (  147456,   10)

     Check: negative/imaginary core charge=   -0.000001    0.000000

     Initial potential from superposition of free atoms
     Check: negative starting charge=   -0.011610

     starting charge  161.98523, renormalised to  162.00000

     negative rho (up, down):  1.161E-02 0.000E+00


     ************************************************************************
     *
     * You are using vdW-DF for exchange-correlation in this calculation.
     * Please cite the following three references that made this development
     * possible:
     *
     *   M. Dion, H. Rydberg, E. Schroder, D. C. Langreth, and
     *   B. I. Lundqvist, Phys. Rev. Lett. 92, 246401 (2004).
     *
     *   T. Thonhauser, V. R. Cooper, S. Li, A. Puzder, P. Hyldgaard, and
     *   D. C. Langreth, Phys. Rev. B 76, 125112 (2007).
     *
     *   G. Roman-Perez and J. M. Soler, Phys. Rev. Lett. 103, 096102 (2009).
     *
     *
     * If you are using vdW-DF2, please also cite:
     *
     *   K. Lee, E. D. Murray, L. Kong, B. I. Lundqvist, and
     *   D. C. Langreth, Phys. Rev. B 82, 081101(R) (2010).
     *
     *
     * If you are calculating the stress with vdW-DF, please also cite:
     *
     *   R. Sabatini, E. Kucukbenli, B. Kolb, T. Thonhauser, and
     *   S. de Gironcoli, J. Phys.: Condens. Matter 24, 424209 (2012).
     *
     ************************************************************************

     Carrying out vdW-DF run using the following parameters:

     Nqs =      20    Nr_points =    1024   r_max =   100.000
     q_mesh =
               0.00001000     0.04494208     0.09755937     0.15916263
               0.23128650     0.31572767     0.41458969     0.53033537
               0.66584808     0.82450364     1.01025438     1.22772762
               1.48234092     1.78043706     2.12944203     2.53805004
               3.01644009     3.57652955     4.23227104     5.00000000

     Gradients computed in reciprocal space

     ************************************************************************


 
     Adding external electric field

     Computed dipole along edir(3) : 
        Dipole               -0.0037 Ry au,         -0.0095 Debye
        Dipole field         -0.0000 Ry au
 
        Potential amp.        0.0010 Ry
        Total length         44.9721 bohr
 
     Starting wfc are  124 randomized atomic wfcs

     total cpu time spent up to now is        9.8 secs

     per-process dynamical memory:    70.2 Mb

     Self-consistent Calculation

     iteration #  1     ecut=    36.75 Ry     beta=0.30
     Davidson diagonalization with overlap
     ethr =  1.00E-02,  avg # of iterations =  2.4

     negative rho (up, down):  1.212E-02 0.000E+00
 
     Adding external electric field

     Computed dipole along edir(3) : 
        Dipole               -1.6210 Ry au,         -4.1200 Debye
        Dipole field         -0.0049 Ry au
 
        Potential amp.        0.4406 Ry
        Total length         44.9721 bohr
 

     total cpu time spent up to now is       24.7 secs

     total energy              =   -1767.95850124 Ry
     Harris-Foulkes estimate   =   -1774.17972164 Ry
     estimated scf accuracy    <      12.73798228 Ry

     iteration #  2     ecut=    36.75 Ry     beta=0.30
     Davidson diagonalization with overlap
     ethr =  7.86E-03,  avg # of iterations =  9.9

     negative rho (up, down):  1.100E-02 0.000E+00
 
     Adding external electric field

     Computed dipole along edir(3) : 
        Dipole                4.3928 Ry au,         11.1653 Debye
        Dipole field          0.0133 Ry au
 
        Potential amp.       -1.1940 Ry
        Total length         44.9721 bohr
 

     total cpu time spent up to now is       47.5 secs

     total energy              =   -1756.55128577 Ry
     Harris-Foulkes estimate   =   -1793.00739860 Ry
     estimated scf accuracy    <     775.39893129 Ry

     iteration #  3     ecut=    36.75 Ry     beta=0.30
     Davidson diagonalization with overlap
     ethr =  7.86E-03,  avg # of iterations = 10.4

     negative rho (up, down):  1.037E-02 0.000E+00
 
     Adding external electric field

     Computed dipole along edir(3) : 
        Dipole               -0.3463 Ry au,         -0.8803 Debye
        Dipole field         -0.0010 Ry au
 
        Potential amp.        0.0941 Ry
        Total length         44.9721 bohr
 

     total cpu time spent up to now is       71.1 secs

     total energy              =   -1758.78588113 Ry
     Harris-Foulkes estimate   =   -1796.03318673 Ry
     estimated scf accuracy    <    1267.65109449 Ry

     iteration #  4     ecut=    36.75 Ry     beta=0.30
     Davidson diagonalization with overlap
     ethr =  7.86E-03,  avg # of iterations =  6.7

     negative rho (up, down):  1.064E-02 0.000E+00
 
     Adding external electric field

     Computed dipole along edir(3) : 
        Dipole                0.2319 Ry au,          0.5893 Debye
        Dipole field          0.0007 Ry au
 
        Potential amp.       -0.0630 Ry
        Total length         44.9721 bohr
 

     total cpu time spent up to now is       91.3 secs

     total energy              =   -1773.04448655 Ry
     Harris-Foulkes estimate   =   -1773.93427772 Ry
     estimated scf accuracy    <      40.35260226 Ry

     iteration #  5     ecut=    36.75 Ry     beta=0.30
     Davidson diagonalization with overlap
     ethr =  7.86E-03,  avg # of iterations =  1.9

     negative rho (up, down):  1.091E-02 0.000E+00
 
     Adding external electric field

     Computed dipole along edir(3) : 
        Dipole                0.2543 Ry au,          0.6463 Debye
        Dipole field          0.0008 Ry au
 
        Potential amp.       -0.0691 Ry
        Total length         44.9721 bohr
 

     total cpu time spent up to now is      105.2 secs

     total energy              =   -1773.16712870 Ry
     Harris-Foulkes estimate   =   -1773.36270149 Ry
     estimated scf accuracy    <       8.45653135 Ry

     iteration #  6     ecut=    36.75 Ry     beta=0.30
     Davidson diagonalization with overlap
     ethr =  5.22E-03,  avg # of iterations =  2.2

     negative rho (up, down):  1.149E-02 0.000E+00
 
     Adding external electric field

     Computed dipole along edir(3) : 
        Dipole               -0.0888 Ry au,         -0.2256 Debye
        Dipole field         -0.0003 Ry au
 
        Potential amp.        0.0241 Ry
        Total length         44.9721 bohr
 

     total cpu time spent up to now is      119.4 secs

     total energy              =   -1773.16065206 Ry
     Harris-Foulkes estimate   =   -1773.35243269 Ry
     estimated scf accuracy    <       5.24903244 Ry

     iteration #  7     ecut=    36.75 Ry     beta=0.30
     Davidson diagonalization with overlap
     ethr =  3.24E-03,  avg # of iterations =  3.1

     negative rho (up, down):  1.239E-02 0.000E+00
 
     Adding external electric field

     Computed dipole along edir(3) : 
        Dipole               -0.3468 Ry au,         -0.8816 Debye
        Dipole field         -0.0010 Ry au
 
        Potential amp.        0.0943 Ry
        Total length         44.9721 bohr
 

     total cpu time spent up to now is      134.7 secs

     total energy              =   -1773.27627930 Ry
     Harris-Foulkes estimate   =   -1773.36768958 Ry
     estimated scf accuracy    <       1.82769280 Ry

     iteration #  8     ecut=    36.75 Ry     beta=0.30
     Davidson diagonalization with overlap
     ethr =  1.13E-03,  avg # of iterations =  7.1

     negative rho (up, down):  1.240E-02 0.000E+00
 
     Adding external electric field

     Computed dipole along edir(3) : 
        Dipole               -0.1137 Ry au,         -0.2891 Debye
        Dipole field         -0.0003 Ry au
 
        Potential amp.        0.0309 Ry
        Total length         44.9721 bohr
 

     total cpu time spent up to now is      152.3 secs

     total energy              =   -1773.43194182 Ry
     Harris-Foulkes estimate   =   -1773.50315010 Ry
     estimated scf accuracy    <       1.02654471 Ry

     iteration #  9     ecut=    36.75 Ry     beta=0.30
     Davidson diagonalization with overlap
     ethr =  6.34E-04,  avg # of iterations =  5.0

     negative rho (up, down):  1.244E-02 0.000E+00
 
     Adding external electric field

     Computed dipole along edir(3) : 
        Dipole               -0.1006 Ry au,         -0.2557 Debye
        Dipole field         -0.0003 Ry au
 
        Potential amp.        0.0273 Ry
        Total length         44.9721 bohr
 

     total cpu time spent up to now is      168.1 secs

     total energy              =   -1773.48437177 Ry
     Harris-Foulkes estimate   =   -1773.49547046 Ry
     estimated scf accuracy    <       0.51358953 Ry

     iteration # 10     ecut=    36.75 Ry     beta=0.30
     Davidson diagonalization with overlap
     ethr =  3.17E-04,  avg # of iterations =  6.8

     negative rho (up, down):  1.250E-02 0.000E+00
 
     Adding external electric field

     Computed dipole along edir(3) : 
        Dipole               -0.1659 Ry au,         -0.4216 Debye
        Dipole field         -0.0005 Ry au
 
        Potential amp.        0.0451 Ry
        Total length         44.9721 bohr
 

     total cpu time spent up to now is      186.0 secs

     total energy              =   -1773.53750325 Ry
     Harris-Foulkes estimate   =   -1773.54610853 Ry
     estimated scf accuracy    <       2.18353092 Ry

     iteration # 11     ecut=    36.75 Ry     beta=0.30
     Davidson diagonalization with overlap
     ethr =  3.17E-04,  avg # of iterations =  1.0

     negative rho (up, down):  1.300E-02 0.000E+00
 
     Adding external electric field

     Computed dipole along edir(3) : 
        Dipole               -0.3829 Ry au,         -0.9732 Debye
        Dipole field         -0.0012 Ry au
 
        Potential amp.        0.1041 Ry
        Total length         44.9721 bohr
 

     total cpu time spent up to now is      199.3 secs

     total energy              =   -1773.45250368 Ry
     Harris-Foulkes estimate   =   -1773.53966714 Ry
     estimated scf accuracy    <       1.81504996 Ry

     iteration # 12     ecut=    36.75 Ry     beta=0.30
     Davidson diagonalization with overlap
     ethr =  3.17E-04,  avg # of iterations =  1.2

     negative rho (up, down):  1.334E-02 0.000E+00
 
     Adding external electric field

     Computed dipole along edir(3) : 
        Dipole               -0.3781 Ry au,         -0.9611 Debye
        Dipole field         -0.0011 Ry au
 
        Potential amp.        0.1028 Ry
        Total length         44.9721 bohr
 

     total cpu time spent up to now is      213.1 secs

     total energy              =   -1773.44579926 Ry
     Harris-Foulkes estimate   =   -1773.48003938 Ry
     estimated scf accuracy    <       1.02711123 Ry

     iteration # 13     ecut=    36.75 Ry     beta=0.30
     Davidson diagonalization with overlap
     ethr =  3.17E-04,  avg # of iterations =  3.8

     negative rho (up, down):  1.351E-02 0.000E+00
 
     Adding external electric field

     Computed dipole along edir(3) : 
        Dipole               -0.3756 Ry au,         -0.9546 Debye
        Dipole field         -0.0011 Ry au
 
        Potential amp.        0.1021 Ry
        Total length         44.9721 bohr
 

     total cpu time spent up to now is      228.0 secs

     total energy              =   -1773.45392949 Ry
     Harris-Foulkes estimate   =   -1773.46316369 Ry
     estimated scf accuracy    <       0.43865523 Ry

     iteration # 14     ecut=    36.75 Ry     beta=0.30
     Davidson diagonalization with overlap
     ethr =  2.71E-04,  avg # of iterations =  4.6

     negative rho (up, down):  1.358E-02 0.000E+00
 
     Adding external electric field

     Computed dipole along edir(3) : 
        Dipole               -0.2605 Ry au,         -0.6621 Debye
        Dipole field         -0.0008 Ry au
 
        Potential amp.        0.0708 Ry
        Total length         44.9721 bohr
 

     total cpu time spent up to now is      244.2 secs

     total energy              =   -1773.46110090 Ry
     Harris-Foulkes estimate   =   -1773.46345656 Ry
     estimated scf accuracy    <       0.29423044 Ry

     iteration # 15     ecut=    36.75 Ry     beta=0.30
     Davidson diagonalization with overlap
     ethr =  1.82E-04,  avg # of iterations =  4.5

     negative rho (up, down):  1.359E-02 0.000E+00
 
     Adding external electric field

     Computed dipole along edir(3) : 
        Dipole               -0.1370 Ry au,         -0.3482 Debye
        Dipole field         -0.0004 Ry au
 
        Potential amp.        0.0372 Ry
        Total length         44.9721 bohr
 

     total cpu time spent up to now is      260.2 secs

     total energy              =   -1773.45916174 Ry
     Harris-Foulkes estimate   =   -1773.46782391 Ry
     estimated scf accuracy    <       0.38937660 Ry

     iteration # 16     ecut=    36.75 Ry     beta=0.30
     Davidson diagonalization with overlap
     ethr =  1.82E-04,  avg # of iterations =  1.6

     negative rho (up, down):  1.360E-02 0.000E+00
 
     Adding external electric field

     Computed dipole along edir(3) : 
        Dipole               -0.1100 Ry au,         -0.2796 Debye
        Dipole field         -0.0003 Ry au
 
        Potential amp.        0.0299 Ry
        Total length         44.9721 bohr
 

     total cpu time spent up to now is      274.5 secs

     total energy              =   -1773.46315194 Ry
     Harris-Foulkes estimate   =   -1773.46400136 Ry
     estimated scf accuracy    <       0.01779546 Ry

     iteration # 17     ecut=    36.75 Ry     beta=0.30
     Davidson diagonalization with overlap
     ethr =  1.10E-05,  avg # of iterations =  7.8

     negative rho (up, down):  1.366E-02 0.000E+00
 
     Adding external electric field

     Computed dipole along edir(3) : 
        Dipole               -0.1004 Ry au,         -0.2552 Debye
        Dipole field         -0.0003 Ry au
 
        Potential amp.        0.0273 Ry
        Total length         44.9721 bohr
 

     total cpu time spent up to now is      295.0 secs

     total energy              =   -1773.46537262 Ry
     Harris-Foulkes estimate   =   -1773.46651709 Ry
     estimated scf accuracy    <       0.02301888 Ry

     iteration # 18     ecut=    36.75 Ry     beta=0.30
     Davidson diagonalization with overlap
     ethr =  1.10E-05,  avg # of iterations =  1.1

     negative rho (up, down):  1.380E-02 0.000E+00
 
     Adding external electric field

     Computed dipole along edir(3) : 
        Dipole               -0.0983 Ry au,         -0.2500 Debye
        Dipole field         -0.0003 Ry au
 
        Potential amp.        0.0267 Ry
        Total length         44.9721 bohr
 

     total cpu time spent up to now is      309.2 secs

     total energy              =   -1773.46542097 Ry
     Harris-Foulkes estimate   =   -1773.46585227 Ry
     estimated scf accuracy    <       0.00942923 Ry

     iteration # 19     ecut=    36.75 Ry     beta=0.30
     Davidson diagonalization with overlap
     ethr =  5.82E-06,  avg # of iterations =  5.2

     negative rho (up, down):  1.404E-02 0.000E+00
 
     Adding external electric field

     Computed dipole along edir(3) : 
        Dipole               -0.0924 Ry au,         -0.2349 Debye
        Dipole field         -0.0003 Ry au
 
        Potential amp.        0.0251 Ry
        Total length         44.9721 bohr
 

     total cpu time spent up to now is      325.5 secs

     total energy              =   -1773.46585037 Ry
     Harris-Foulkes estimate   =   -1773.46594735 Ry
     estimated scf accuracy    <       0.00187473 Ry

     iteration # 20     ecut=    36.75 Ry     beta=0.30
     Davidson diagonalization with overlap
     ethr =  1.16E-06,  avg # of iterations =  6.8

     negative rho (up, down):  1.399E-02 0.000E+00
 
     Adding external electric field

     Computed dipole along edir(3) : 
        Dipole               -0.0843 Ry au,         -0.2142 Debye
        Dipole field         -0.0003 Ry au
 
        Potential amp.        0.0229 Ry
        Total length         44.9721 bohr
 

     total cpu time spent up to now is      345.2 secs

     total energy              =   -1773.46592543 Ry
     Harris-Foulkes estimate   =   -1773.46618746 Ry
     estimated scf accuracy    <       0.00432683 Ry

     iteration # 21     ecut=    36.75 Ry     beta=0.30
     Davidson diagonalization with overlap
     ethr =  1.16E-06,  avg # of iterations =  4.0

     negative rho (up, down):  1.446E-02 0.000E+00
 
     Adding external electric field

     Computed dipole along edir(3) : 
        Dipole               -0.0812 Ry au,         -0.2063 Debye
        Dipole field         -0.0002 Ry au
 
        Potential amp.        0.0221 Ry
        Total length         44.9721 bohr
 

     total cpu time spent up to now is      361.1 secs

     total energy              =   -1773.46598207 Ry
     Harris-Foulkes estimate   =   -1773.46605052 Ry
     estimated scf accuracy    <       0.00240485 Ry

     iteration # 22     ecut=    36.75 Ry     beta=0.30
     Davidson diagonalization with overlap
     ethr =  1.16E-06,  avg # of iterations =  1.0

     negative rho (up, down):  1.452E-02 0.000E+00
 
     Adding external electric field

     Computed dipole along edir(3) : 
        Dipole               -0.0793 Ry au,         -0.2016 Debye
        Dipole field         -0.0002 Ry au
 
        Potential amp.        0.0216 Ry
        Total length         44.9721 bohr
 

     total cpu time spent up to now is      375.2 secs

     total energy              =   -1773.46597393 Ry
     Harris-Foulkes estimate   =   -1773.46603578 Ry
     estimated scf accuracy    <       0.00076335 Ry

     iteration # 23     ecut=    36.75 Ry     beta=0.30
     Davidson diagonalization with overlap
     ethr =  4.71E-07,  avg # of iterations =  6.2

     negative rho (up, down):  1.475E-02 0.000E+00
 
     Adding external electric field

     Computed dipole along edir(3) : 
        Dipole               -0.0804 Ry au,         -0.2043 Debye
        Dipole field         -0.0002 Ry au
 
        Potential amp.        0.0219 Ry
        Total length         44.9721 bohr
 

     total cpu time spent up to now is      393.9 secs

     total energy              =   -1773.46601511 Ry
     Harris-Foulkes estimate   =   -1773.46606537 Ry
     estimated scf accuracy    <       0.00057845 Ry

     iteration # 24     ecut=    36.75 Ry     beta=0.30
     Davidson diagonalization with overlap
     ethr =  3.57E-07,  avg # of iterations =  1.5

     negative rho (up, down):  1.497E-02 0.000E+00
 
     Adding external electric field

     Computed dipole along edir(3) : 
        Dipole               -0.0796 Ry au,         -0.2023 Debye
        Dipole field         -0.0002 Ry au
 
        Potential amp.        0.0216 Ry
        Total length         44.9721 bohr
 

     total cpu time spent up to now is      408.4 secs

     total energy              =   -1773.46602401 Ry
     Harris-Foulkes estimate   =   -1773.46603852 Ry
     estimated scf accuracy    <       0.00013912 Ry

     iteration # 25     ecut=    36.75 Ry     beta=0.30
     Davidson diagonalization with overlap
     ethr =  8.59E-08,  avg # of iterations =  6.0

     negative rho (up, down):  1.508E-02 0.000E+00
 
     Adding external electric field

     Computed dipole along edir(3) : 
        Dipole               -0.0793 Ry au,         -0.2015 Debye
        Dipole field         -0.0002 Ry au
 
        Potential amp.        0.0215 Ry
        Total length         44.9721 bohr
 

     total cpu time spent up to now is      427.4 secs

     total energy              =   -1773.46604172 Ry
     Harris-Foulkes estimate   =   -1773.46605820 Ry
     estimated scf accuracy    <       0.00032128 Ry

     iteration # 26     ecut=    36.75 Ry     beta=0.30
     Davidson diagonalization with overlap
     ethr =  8.59E-08,  avg # of iterations =  2.5

     negative rho (up, down):  1.519E-02 0.000E+00
 
     Adding external electric field

     Computed dipole along edir(3) : 
        Dipole               -0.0789 Ry au,         -0.2007 Debye
        Dipole field         -0.0002 Ry au
 
        Potential amp.        0.0215 Ry
        Total length         44.9721 bohr
 

     total cpu time spent up to now is      442.1 secs

     total energy              =   -1773.46603917 Ry
     Harris-Foulkes estimate   =   -1773.46604825 Ry
     estimated scf accuracy    <       0.00015177 Ry

     iteration # 27     ecut=    36.75 Ry     beta=0.30
     Davidson diagonalization with overlap
     ethr =  8.59E-08,  avg # of iterations =  1.4

     negative rho (up, down):  1.535E-02 0.000E+00
 
     Adding external electric field

     Computed dipole along edir(3) : 
        Dipole               -0.0787 Ry au,         -0.2001 Debye
        Dipole field         -0.0002 Ry au
 
        Potential amp.        0.0214 Ry
        Total length         44.9721 bohr
 

     total cpu time spent up to now is      456.5 secs

     total energy              =   -1773.46604003 Ry
     Harris-Foulkes estimate   =   -1773.46604322 Ry
     estimated scf accuracy    <       0.00005987 Ry

     iteration # 28     ecut=    36.75 Ry     beta=0.30
     Davidson diagonalization with overlap
     ethr =  3.70E-08,  avg # of iterations =  5.8

     negative rho (up, down):  1.540E-02 0.000E+00
 
     Adding external electric field

     Computed dipole along edir(3) : 
        Dipole               -0.0781 Ry au,         -0.1986 Debye
        Dipole field         -0.0002 Ry au
 
        Potential amp.        0.0212 Ry
        Total length         44.9721 bohr
 

     total cpu time spent up to now is      473.8 secs

     total energy              =   -1773.46604410 Ry
     Harris-Foulkes estimate   =   -1773.46604527 Ry
     estimated scf accuracy    <       0.00005108 Ry

     iteration # 29     ecut=    36.75 Ry     beta=0.30
     Davidson diagonalization with overlap
     ethr =  3.15E-08,  avg # of iterations =  1.6

     negative rho (up, down):  1.539E-02 0.000E+00
 
     Adding external electric field

     Computed dipole along edir(3) : 
        Dipole               -0.0787 Ry au,         -0.2000 Debye
        Dipole field         -0.0002 Ry au
 
        Potential amp.        0.0214 Ry
        Total length         44.9721 bohr
 

     total cpu time spent up to now is      488.4 secs

     total energy              =   -1773.46604351 Ry
     Harris-Foulkes estimate   =   -1773.46604492 Ry
     estimated scf accuracy    <       0.00001756 Ry

     iteration # 30     ecut=    36.75 Ry     beta=0.30
     Davidson diagonalization with overlap
     ethr =  1.08E-08,  avg # of iterations =  6.4

     negative rho (up, down):  1.543E-02 0.000E+00
 
     Adding external electric field

     Computed dipole along edir(3) : 
        Dipole               -0.0787 Ry au,         -0.2000 Debye
        Dipole field         -0.0002 Ry au
 
        Potential amp.        0.0214 Ry
        Total length         44.9721 bohr
 

     total cpu time spent up to now is      506.4 secs

     total energy              =   -1773.46604386 Ry
     Harris-Foulkes estimate   =   -1773.46604560 Ry
     estimated scf accuracy    <       0.00002501 Ry

     iteration # 31     ecut=    36.75 Ry     beta=0.30
     Davidson diagonalization with overlap
     ethr =  1.08E-08,  avg # of iterations =  1.0

     negative rho (up, down):  1.542E-02 0.000E+00

     negative rho (up, down):  1.542E-02 0.000E+00

     negative rho (up, down):  1.542E-02 0.000E+00

     negative rho (up, down):  1.542E-02 0.000E+00

     negative rho (up, down):  1.542E-02 0.000E+00

     negative rho (up, down):  1.542E-02 0.000E+00

     negative rho (up, down):  1.542E-02 0.000E+00

     negative rho (up, down):  1.542E-02 0.000E+00

     negative rho (up, down):  1.542E-02 0.000E+00

     negative rho (up, down):  1.542E-02 0.000E+00

     negative rho (up, down):  1.542E-02 0.000E+00

     negative rho (up, down):  1.542E-02 0.000E+00

     negative rho (up, down):  1.542E-02 0.000E+00

     negative rho (up, down):  1.542E-02 0.000E+00

     negative rho (up, down):  1.542E-02 0.000E+00

     negative rho (up, down):  1.542E-02 0.000E+00

     negative rho (up, down):  1.542E-02 0.000E+00

     negative rho (up, down):  1.542E-02 0.000E+00

     negative rho (up, down):  1.542E-02 0.000E+00

     negative rho (up, down):  1.542E-02 0.000E+00

     negative rho (up, down):  1.542E-02 0.000E+00

     negative rho (up, down):  1.542E-02 0.000E+00

     negative rho (up, down):  1.542E-02 0.000E+00

     negative rho (up, down):  1.542E-02 0.000E+00

     negative rho (up, down):  1.542E-02 0.000E+00

     negative rho (up, down):  1.542E-02 0.000E+00

     negative rho (up, down):  1.542E-02 0.000E+00

     negative rho (up, down):  1.542E-02 0.000E+00

     negative rho (up, down):  1.542E-02 0.000E+00

     negative rho (up, down):  1.542E-02 0.000E+00

     negative rho (up, down):  1.542E-02 0.000E+00

     negative rho (up, down):  1.542E-02 0.000E+00

     negative rho (up, down):  1.542E-02 0.000E+00

     negative rho (up, down):  1.542E-02 0.000E+00

     negative rho (up, down):  1.542E-02 0.000E+00
 
     Adding external electric field

     Computed dipole along edir(3) : 
        Dipole               -0.0798 Ry au,         -0.2029 Debye
        Dipole field         -0.0002 Ry au
 
        Potential amp.        0.0217 Ry
        Total length         44.9721 bohr
 

     total cpu time spent up to now is      560.2 secs

     End of self-consistent calculation

          k = 0.0000 0.0000 0.0000 ( 15569 PWs)   bands (ev):

   -63.1274 -63.0600 -63.0085 -62.9900 -62.9865 -62.9862 -62.9654 -62.9569
   -62.9565 -62.9327 -62.9324 -62.9299 -37.2239 -37.2165 -37.2163 -37.1764
   -37.1590 -37.1533 -37.1531 -37.0896 -37.0849 -37.0848 -36.9285 -36.8566
   -36.8331 -36.8325 -36.8063 -36.8024 -36.8022 -36.7266 -36.7210 -36.7209
   -36.6650 -36.6581 -36.6579 -36.6365 -36.6363 -36.6309 -36.6141 -36.5822
   -36.5793 -36.5792 -36.5597 -36.5597 -36.5007 -36.5007 -36.4594 -36.4594
   -11.8600  -4.8961  -3.5173  -2.7506  -2.7506  -2.7388  -2.1508  -1.8841
    -1.8840  -1.7675  -1.4654  -1.4403  -1.4403  -1.1265  -1.1265  -1.1252
    -0.9356  -0.9355  -0.7322  -0.1540  -0.1540   0.0756   0.6378   0.8222
     0.8222   1.0027   1.0570   1.2840   1.3046   1.3046   1.4468   1.4468
     1.4539   1.5137   1.5138   1.5628   1.5904   1.5904   1.6938   1.6938
     2.0160   2.0824   2.0826

          k = 0.0000 0.0356 0.0000 ( 15635 PWs)   bands (ev):

   -63.1188 -63.0532 -63.0033 -62.9986 -62.9884 -62.9865 -62.9683 -62.9596
   -62.9565 -62.9367 -62.9324 -62.9306 -37.2000 -37.1942 -37.1811 -37.1621
   -37.1380 -37.1331 -37.1251 -37.0669 -37.0635 -37.0483 -36.9272 -36.8759
   -36.8572 -36.8504 -36.7997 -36.7921 -36.7881 -36.7386 -36.7359 -36.7124
   -36.6887 -36.6832 -36.6502 -36.6361 -36.6327 -36.6274 -36.6248 -36.6026
   -36.6002 -36.5948 -36.5722 -36.5710 -36.5336 -36.5094 -36.4972 -36.4675
   -11.8502  -4.6913  -3.3788  -2.8480  -2.7149  -2.5502  -1.9859  -1.8716
    -1.7643  -1.7037  -1.4552  -1.3410  -1.2915  -1.0502  -1.0222  -1.0070
    -0.8596  -0.8107  -0.6285  -0.1123  -0.1055   0.0386   0.5700   0.8428
     0.8561   0.9328   1.0349   1.0881   1.1565   1.2588   1.2743   1.3569
     1.4240   1.4569   1.5124   1.5302   1.5720   1.6042   1.6162   1.7469
     1.7703   1.9307   1.9440

          k = 0.0000 0.0713 0.0000 ( 15669 PWs)   bands (ev):

   -63.0951 -63.0353 -63.0256 -62.9914 -62.9873 -62.9867 -62.9814 -62.9621
   -62.9565 -62.9495 -62.9323 -62.9308 -37.1446 -37.1388 -37.1256 -37.0939
   -37.0863 -37.0833 -37.0670 -37.0149 -37.0120 -36.9492 -36.9305 -36.8988
   -36.8929 -36.8879 -36.7870 -36.7757 -36.7752 -36.7636 -36.7632 -36.7411
   -36.7364 -36.7105 -36.6845 -36.6731 -36.6707 -36.6678 -36.6278 -36.6233
   -36.6229 -36.6193 -36.6015 -36.6006 -36.5668 -36.5501 -36.5337 -36.4896
   -11.8306  -4.1283  -3.0987  -2.9442  -2.6467  -2.2969  -2.0673  -1.5487
    -1.4918  -1.4637  -1.2962  -1.1515  -1.0299  -0.8604  -0.7217  -0.6999
    -0.5970  -0.4637  -0.3519  -0.0681   0.0164   0.0690   0.2955   0.5452
     0.6338   0.7124   0.7349   0.8274   1.0166   1.0329   1.0821   1.1181
     1.1807   1.1849   1.2420   1.3506   1.4129   1.5008   1.5683   1.6847
     1.7021   1.7892   1.8109

          k = 0.0000-0.1069 0.0000 ( 15660 PWs)   bands (ev):

   -63.0641 -63.0592 -63.0134 -63.0047 -62.9877 -62.9868 -62.9699 -62.9674
   -62.9617 -62.9564 -62.9323 -62.9308 -37.1034 -37.0985 -37.0825 -37.0781
   -37.0678 -37.0595 -36.9822 -36.9766 -36.9734 -36.9682 -36.9311 -36.9272
   -36.8438 -36.8260 -36.7949 -36.7937 -36.7894 -36.7816 -36.7779 -36.7709
   -36.7420 -36.7405 -36.7369 -36.7268 -36.7235 -36.7211 -36.6453 -36.6417
   -36.6250 -36.6220 -36.6005 -36.5978 -36.5688 -36.5657 -36.5202 -36.5195
   -11.8208  -3.5121  -3.2940  -2.7269  -2.7120  -2.6144  -1.7318  -1.5618
    -1.2236  -1.1982  -1.1076  -1.1010  -0.8867  -0.8076  -0.4211  -0.4175
    -0.2920  -0.2883  -0.2170  -0.1283   0.1801   0.1845   0.2364   0.2732
     0.3437   0.4210   0.5728   0.6780   0.7530   0.7679   0.8109   0.9312
     0.9460   0.9833   1.0484   1.1957   1.2956   1.3499   1.3822   1.4135
     1.5394   1.8704   1.8808

          k = 0.0309-0.0178 0.0000 ( 15635 PWs)   bands (ev):

   -63.1188 -63.0532 -63.0034 -62.9987 -62.9885 -62.9864 -62.9684 -62.9591
   -62.9569 -62.9366 -62.9326 -62.9305 -37.1999 -37.1943 -37.1811 -37.1620
   -37.1381 -37.1329 -37.1252 -37.0670 -37.0634 -37.0483 -36.9272 -36.8760
   -36.8568 -36.8507 -36.7997 -36.7922 -36.7881 -36.7386 -36.7359 -36.7124
   -36.6887 -36.6833 -36.6502 -36.6361 -36.6327 -36.6274 -36.6248 -36.6026
   -36.6001 -36.5948 -36.5722 -36.5710 -36.5336 -36.5094 -36.4971 -36.4675
   -11.8502  -4.6913  -3.3788  -2.8480  -2.7149  -2.5502  -1.9859  -1.8716
    -1.7643  -1.7037  -1.4552  -1.3410  -1.2915  -1.0502  -1.0222  -1.0070
    -0.8596  -0.8106  -0.6285  -0.1123  -0.1054   0.0385   0.5700   0.8428
     0.8562   0.9328   1.0349   1.0881   1.1566   1.2588   1.2742   1.3569
     1.4240   1.4569   1.5124   1.5302   1.5719   1.6042   1.6163   1.7469
     1.7703   1.9307   1.9440

          k = 0.0309 0.0178 0.0000 ( 15635 PWs)   bands (ev):

   -63.1188 -63.0532 -63.0033 -62.9986 -62.9883 -62.9866 -62.9682 -62.9595
   -62.9566 -62.9366 -62.9326 -62.9305 -37.2001 -37.1941 -37.1812 -37.1620
   -37.1380 -37.1331 -37.1251 -37.0670 -37.0635 -37.0483 -36.9272 -36.8759
   -36.8571 -36.8504 -36.7996 -36.7922 -36.7882 -36.7386 -36.7359 -36.7124
   -36.6886 -36.6833 -36.6502 -36.6361 -36.6327 -36.6274 -36.6248 -36.6027
   -36.6000 -36.5948 -36.5722 -36.5709 -36.5336 -36.5094 -36.4971 -36.4675
   -11.8502  -4.6913  -3.3788  -2.8480  -2.7149  -2.5502  -1.9859  -1.8716
    -1.7642  -1.7037  -1.4552  -1.3410  -1.2915  -1.0502  -1.0222  -1.0070
    -0.8596  -0.8107  -0.6285  -0.1123  -0.1055   0.0385   0.5700   0.8428
     0.8561   0.9329   1.0349   1.0881   1.1565   1.2589   1.2742   1.3569
     1.4240   1.4569   1.5124   1.5302   1.5720   1.6042   1.6162   1.7469
     1.7703   1.9307   1.9439

          k = 0.0309 0.0535 0.0000 ( 15620 PWs)   bands (ev):

   -63.1027 -63.0407 -63.0094 -63.0058 -62.9930 -62.9795 -62.9722 -62.9674
   -62.9547 -62.9413 -62.9396 -62.9274 -37.1682 -37.1398 -37.1298 -37.1279
   -37.1058 -37.0889 -37.0861 -37.0385 -37.0009 -36.9958 -36.9281 -36.8978
   -36.8877 -36.8782 -36.7979 -36.7830 -36.7774 -36.7694 -36.7546 -36.7179
   -36.7141 -36.6768 -36.6739 -36.6642 -36.6616 -36.6539 -36.6363 -36.6198
   -36.6154 -36.5969 -36.5890 -36.5844 -36.5818 -36.5488 -36.5253 -36.4868
   -11.8355  -4.3049  -3.1513  -2.9014  -2.7063  -2.2742  -1.9153  -1.8446
    -1.6036  -1.4807  -1.4328  -1.1566  -1.0391  -0.8721  -0.8600  -0.7843
    -0.6609  -0.5981  -0.4369  -0.0903  -0.0207   0.0549   0.4104   0.6715
     0.7180   0.7818   0.8328   0.8451   0.9895   1.0952   1.1352   1.1886
     1.2585   1.2863   1.3670   1.4295   1.5114   1.5492   1.5978   1.7186
     1.7660   1.7834   1.8157

          k = 0.0309-0.1248 0.0000 ( 15642 PWs)   bands (ev):

   -63.0742 -63.0398 -63.0193 -63.0118 -62.9927 -62.9765 -62.9736 -62.9690
   -62.9565 -62.9531 -62.9427 -62.9251 -37.1098 -37.0949 -37.0748 -37.0605
   -37.0592 -37.0514 -37.0243 -36.9891 -36.9538 -36.9459 -36.9404 -36.9079
   -36.8950 -36.8602 -36.8443 -36.8082 -36.7824 -36.7761 -36.7658 -36.7623
   -36.7406 -36.7350 -36.7222 -36.7058 -36.6879 -36.6739 -36.6484 -36.6427
   -36.6286 -36.6243 -36.5958 -36.5921 -36.5891 -36.5597 -36.5531 -36.5187
   -11.8208  -3.6491  -3.0566  -2.8149  -2.7319  -2.4052  -1.8541  -1.7205
    -1.4149  -1.2301  -1.0765  -0.9129  -0.7620  -0.6770  -0.4924  -0.4487
    -0.4103  -0.3107  -0.1975  -0.0054   0.0537   0.1292   0.2424   0.2826
     0.3325   0.4401   0.5017   0.5925   0.7353   0.7941   0.8318   0.8714
     0.9558   1.0037   1.0328   1.1348   1.3126   1.3610   1.4323   1.5573
     1.6275   1.8349   1.8713

          k = 0.0309-0.0891 0.0000 ( 15642 PWs)   bands (ev):

   -63.0742 -63.0398 -63.0192 -63.0119 -62.9927 -62.9763 -62.9739 -62.9689
   -62.9564 -62.9532 -62.9427 -62.9251 -37.1098 -37.0950 -37.0747 -37.0605
   -37.0592 -37.0514 -37.0243 -36.9892 -36.9537 -36.9461 -36.9404 -36.9079
   -36.8950 -36.8602 -36.8442 -36.8082 -36.7824 -36.7761 -36.7656 -36.7625
   -36.7406 -36.7350 -36.7222 -36.7057 -36.6880 -36.6739 -36.6484 -36.6428
   -36.6286 -36.6242 -36.5958 -36.5921 -36.5891 -36.5597 -36.5532 -36.5187
   -11.8208  -3.6491  -3.0566  -2.8149  -2.7319  -2.4051  -1.8541  -1.7205
    -1.4149  -1.2301  -1.0764  -0.9129  -0.7619  -0.6770  -0.4924  -0.4488
    -0.4103  -0.3107  -0.1975  -0.0054   0.0538   0.1291   0.2425   0.2825
     0.3324   0.4401   0.5018   0.5925   0.7353   0.7941   0.8318   0.8714
     0.9559   1.0037   1.0328   1.1348   1.3126   1.3608   1.4323   1.5572
     1.6275   1.8349   1.8713

          k = 0.0309-0.0535 0.0000 ( 15620 PWs)   bands (ev):

   -63.1027 -63.0406 -63.0097 -63.0055 -62.9930 -62.9793 -62.9726 -62.9671
   -62.9548 -62.9414 -62.9395 -62.9274 -37.1682 -37.1400 -37.1298 -37.1278
   -37.1058 -37.0888 -37.0863 -37.0385 -37.0008 -36.9958 -36.9281 -36.8979
   -36.8876 -36.8782 -36.7978 -36.7832 -36.7773 -36.7694 -36.7546 -36.7180
   -36.7140 -36.6768 -36.6739 -36.6640 -36.6618 -36.6539 -36.6363 -36.6198
   -36.6153 -36.5969 -36.5890 -36.5844 -36.5819 -36.5489 -36.5253 -36.4868
   -11.8355  -4.3049  -3.1513  -2.9014  -2.7063  -2.2742  -1.9154  -1.8446
    -1.6036  -1.4807  -1.4328  -1.1566  -1.0390  -0.8722  -0.8601  -0.7843
    -0.6609  -0.5981  -0.4369  -0.0903  -0.0207   0.0549   0.4104   0.6714
     0.7180   0.7817   0.8328   0.8450   0.9895   1.0952   1.1352   1.1886
     1.2585   1.2864   1.3669   1.4295   1.5114   1.5492   1.5978   1.7187
     1.7660   1.7834   1.8157

          k = 0.0617-0.0356 0.0000 ( 15669 PWs)   bands (ev):

   -63.0951 -63.0353 -63.0258 -62.9913 -62.9873 -62.9865 -62.9815 -62.9617
   -62.9568 -62.9494 -62.9325 -62.9306 -37.1444 -37.1390 -37.1256 -37.0940
   -37.0860 -37.0834 -37.0670 -37.0151 -37.0118 -36.9492 -36.9305 -36.8988
   -36.8930 -36.8878 -36.7869 -36.7756 -36.7754 -36.7634 -36.7633 -36.7411
   -36.7365 -36.7106 -36.6846 -36.6730 -36.6707 -36.6678 -36.6278 -36.6232
   -36.6229 -36.6194 -36.6014 -36.6007 -36.5668 -36.5500 -36.5337 -36.4896
   -11.8306  -4.1283  -3.0988  -2.9442  -2.6467  -2.2969  -2.0673  -1.5487
    -1.4918  -1.4636  -1.2963  -1.1514  -1.0298  -0.8605  -0.7218  -0.6999
    -0.5970  -0.4636  -0.3520  -0.0682   0.0165   0.0689   0.2955   0.5452
     0.6337   0.7124   0.7349   0.8274   1.0166   1.0329   1.0821   1.1181
     1.1807   1.1849   1.2419   1.3505   1.4130   1.5008   1.5684   1.6847
     1.7020   1.7892   1.8109

          k = 0.0617 0.0000 0.0000 ( 15620 PWs)   bands (ev):

   -63.1027 -63.0406 -63.0096 -63.0056 -62.9930 -62.9793 -62.9725 -62.9671
   -62.9548 -62.9412 -62.9398 -62.9274 -37.1681 -37.1400 -37.1298 -37.1278
   -37.1058 -37.0888 -37.0862 -37.0386 -37.0008 -36.9959 -36.9281 -36.8978
   -36.8876 -36.8781 -36.7978 -36.7831 -36.7774 -36.7693 -36.7546 -36.7180
   -36.7140 -36.6769 -36.6739 -36.6640 -36.6617 -36.6539 -36.6363 -36.6198
   -36.6154 -36.5969 -36.5890 -36.5843 -36.5819 -36.5489 -36.5253 -36.4868
   -11.8355  -4.3049  -3.1513  -2.9014  -2.7063  -2.2742  -1.9154  -1.8446
    -1.6036  -1.4807  -1.4328  -1.1566  -1.0390  -0.8722  -0.8601  -0.7843
    -0.6609  -0.5981  -0.4369  -0.0903  -0.0207   0.0549   0.4104   0.6714
     0.7180   0.7817   0.8328   0.8451   0.9895   1.0952   1.1352   1.1886
     1.2585   1.2863   1.3669   1.4295   1.5114   1.5492   1.5978   1.7187
     1.7660   1.7834   1.8157

          k = 0.0617 0.0356 0.0000 ( 15669 PWs)   bands (ev):

   -63.0951 -63.0353 -63.0256 -62.9914 -62.9872 -62.9868 -62.9814 -62.9620
   -62.9565 -62.9494 -62.9325 -62.9306 -37.1447 -37.1388 -37.1256 -37.0939
   -37.0863 -37.0833 -37.0670 -37.0150 -37.0119 -36.9492 -36.9305 -36.8988
   -36.8930 -36.8879 -36.7869 -36.7757 -36.7753 -36.7635 -36.7633 -36.7410
   -36.7365 -36.7105 -36.6845 -36.6730 -36.6707 -36.6679 -36.6278 -36.6234
   -36.6229 -36.6192 -36.6015 -36.6006 -36.5668 -36.5501 -36.5337 -36.4896
   -11.8306  -4.1283  -3.0987  -2.9442  -2.6467  -2.2969  -2.0673  -1.5488
    -1.4918  -1.4636  -1.2962  -1.1514  -1.0299  -0.8604  -0.7217  -0.6999
    -0.5970  -0.4637  -0.3520  -0.0681   0.0164   0.0690   0.2955   0.5452
     0.6338   0.7124   0.7349   0.8274   1.0167   1.0329   1.0821   1.1181
     1.1807   1.1849   1.2420   1.3506   1.4129   1.5008   1.5684   1.6847
     1.7021   1.7891   1.8110

          k = 0.0617-0.1426 0.0000 ( 15642 PWs)   bands (ev):

   -63.0742 -63.0398 -63.0194 -63.0118 -62.9927 -62.9765 -62.9737 -62.9689
   -62.9565 -62.9531 -62.9427 -62.9251 -37.1098 -37.0949 -37.0748 -37.0605
   -37.0592 -37.0514 -37.0243 -36.9891 -36.9538 -36.9460 -36.9404 -36.9079
   -36.8950 -36.8602 -36.8443 -36.8082 -36.7824 -36.7761 -36.7658 -36.7623
   -36.7406 -36.7351 -36.7222 -36.7058 -36.6880 -36.6739 -36.6484 -36.6427
   -36.6286 -36.6243 -36.5958 -36.5921 -36.5891 -36.5597 -36.5531 -36.5187
   -11.8208  -3.6491  -3.0566  -2.8149  -2.7319  -2.4052  -1.8541  -1.7205
    -1.4149  -1.2301  -1.0765  -0.9129  -0.7620  -0.6770  -0.4924  -0.4488
    -0.4103  -0.3107  -0.1975  -0.0054   0.0537   0.1292   0.2425   0.2826
     0.3325   0.4401   0.5017   0.5925   0.7353   0.7941   0.8318   0.8714
     0.9558   1.0037   1.0328   1.1348   1.3125   1.3610   1.4323   1.5573
     1.6275   1.8349   1.8713

          k = 0.0617-0.1069 0.0000 ( 15672 PWs)   bands (ev):

   -63.0491 -63.0426 -63.0414 -63.0033 -62.9928 -62.9910 -62.9622 -62.9611
   -62.9580 -62.9575 -62.9529 -62.9227 -37.0599 -37.0584 -37.0568 -37.0425
   -37.0404 -37.0210 -37.0029 -37.0006 -36.9917 -36.9115 -36.9113 -36.8896
   -36.8775 -36.8698 -36.8678 -36.8324 -36.8305 -36.8294 -36.7707 -36.7666
   -36.7584 -36.7579 -36.7412 -36.6749 -36.6691 -36.6685 -36.6569 -36.6266
   -36.6264 -36.6254 -36.6044 -36.6037 -36.6018 -36.5632 -36.5615 -36.5604
   -11.8160  -3.1634  -3.0167  -3.0049  -2.4984  -2.4587  -2.3377  -1.4157
    -1.3693  -1.2666  -0.6916  -0.6839  -0.5615  -0.4971  -0.4953  -0.3932
    -0.1303  -0.1110  -0.0996  -0.0922  -0.0781   0.0307   0.0514   0.0916
     0.2364   0.3640   0.4338   0.5164   0.5468   0.5676   0.5964   0.6233
     0.7762   0.8680   0.9513   1.0107   1.1387   1.4460   1.5304   1.5446
     1.7547   1.8105   1.8571

          k = 0.0617-0.0713 0.0000 ( 15642 PWs)   bands (ev):

   -63.0742 -63.0399 -63.0193 -63.0118 -62.9928 -62.9764 -62.9734 -62.9691
   -62.9565 -62.9531 -62.9427 -62.9251 -37.1098 -37.0950 -37.0748 -37.0606
   -37.0592 -37.0512 -37.0243 -36.9892 -36.9537 -36.9461 -36.9402 -36.9078
   -36.8950 -36.8602 -36.8442 -36.8082 -36.7825 -36.7761 -36.7659 -36.7623
   -36.7406 -36.7349 -36.7223 -36.7057 -36.6880 -36.6738 -36.6485 -36.6427
   -36.6286 -36.6242 -36.5958 -36.5921 -36.5891 -36.5597 -36.5532 -36.5187
   -11.8208  -3.6491  -3.0566  -2.8149  -2.7319  -2.4052  -1.8541  -1.7205
    -1.4149  -1.2301  -1.0764  -0.9128  -0.7619  -0.6770  -0.4924  -0.4487
    -0.4103  -0.3107  -0.1975  -0.0054   0.0538   0.1291   0.2425   0.2825
     0.3324   0.4401   0.5018   0.5925   0.7353   0.7941   0.8318   0.8714
     0.9558   1.0037   1.0328   1.1348   1.3125   1.3608   1.4323   1.5572
     1.6275   1.8349   1.8713

          k =-0.0926 0.0535 0.0000 ( 15660 PWs)   bands (ev):

   -63.0638 -63.0595 -63.0132 -63.0050 -62.9876 -62.9867 -62.9701 -62.9673
   -62.9613 -62.9568 -62.9325 -62.9306 -37.1031 -37.0989 -37.0827 -37.0781
   -37.0681 -37.0592 -36.9823 -36.9767 -36.9731 -36.9683 -36.9311 -36.9271
   -36.8435 -36.8263 -36.7949 -36.7938 -36.7890 -36.7820 -36.7774 -36.7713
   -36.7425 -36.7402 -36.7368 -36.7268 -36.7232 -36.7215 -36.6450 -36.6420
   -36.6250 -36.6219 -36.6008 -36.5976 -36.5685 -36.5661 -36.5201 -36.5196
   -11.8208  -3.5121  -3.2940  -2.7269  -2.7120  -2.6144  -1.7318  -1.5619
    -1.2235  -1.1983  -1.1077  -1.1009  -0.8866  -0.8077  -0.4210  -0.4176
    -0.2921  -0.2881  -0.2170  -0.1283   0.1801   0.1846   0.2365   0.2730
     0.3435   0.4211   0.5729   0.6780   0.7530   0.7680   0.8108   0.9312
     0.9461   0.9832   1.0483   1.1957   1.2956   1.3499   1.3822   1.4133
     1.5393   1.8705   1.8807

          k =-0.0926 0.0891 0.0000 ( 15642 PWs)   bands (ev):

   -63.0742 -63.0399 -63.0193 -63.0118 -62.9928 -62.9764 -62.9734 -62.9691
   -62.9565 -62.9531 -62.9427 -62.9251 -37.1098 -37.0950 -37.0748 -37.0607
   -37.0592 -37.0512 -37.0243 -36.9892 -36.9537 -36.9461 -36.9402 -36.9078
   -36.8950 -36.8602 -36.8442 -36.8082 -36.7824 -36.7760 -36.7660 -36.7622
   -36.7406 -36.7349 -36.7223 -36.7058 -36.6880 -36.6738 -36.6485 -36.6426
   -36.6286 -36.6242 -36.5958 -36.5921 -36.5891 -36.5597 -36.5532 -36.5187
   -11.8208  -3.6491  -3.0566  -2.8149  -2.7319  -2.4052  -1.8541  -1.7205
    -1.4149  -1.2301  -1.0764  -0.9128  -0.7619  -0.6770  -0.4924  -0.4487
    -0.4103  -0.3107  -0.1975  -0.0054   0.0538   0.1291   0.2425   0.2825
     0.3324   0.4401   0.5018   0.5925   0.7353   0.7941   0.8318   0.8714
     0.9558   1.0037   1.0328   1.1348   1.3125   1.3608   1.4323   1.5572
     1.6275   1.8349   1.8713

          k =-0.0926 0.1248 0.0000 ( 15642 PWs)   bands (ev):

   -63.0742 -63.0398 -63.0192 -63.0119 -62.9926 -62.9763 -62.9739 -62.9689
   -62.9564 -62.9532 -62.9427 -62.9251 -37.1098 -37.0950 -37.0747 -37.0604
   -37.0592 -37.0514 -37.0243 -36.9892 -36.9537 -36.9461 -36.9403 -36.9079
   -36.8950 -36.8602 -36.8442 -36.8082 -36.7824 -36.7761 -36.7657 -36.7625
   -36.7406 -36.7350 -36.7222 -36.7057 -36.6880 -36.6739 -36.6484 -36.6427
   -36.6286 -36.6242 -36.5958 -36.5921 -36.5891 -36.5597 -36.5531 -36.5187
   -11.8208  -3.6491  -3.0566  -2.8149  -2.7319  -2.4051  -1.8541  -1.7205
    -1.4149  -1.2301  -1.0764  -0.9129  -0.7620  -0.6770  -0.4924  -0.4488
    -0.4103  -0.3107  -0.1975  -0.0055   0.0538   0.1291   0.2425   0.2825
     0.3325   0.4401   0.5018   0.5925   0.7353   0.7941   0.8318   0.8714
     0.9559   1.0037   1.0328   1.1348   1.3126   1.3608   1.4323   1.5572
     1.6275   1.8349   1.8713

          k =-0.0926-0.0535 0.0000 ( 15660 PWs)   bands (ev):

   -63.0641 -63.0591 -63.0134 -63.0046 -62.9876 -62.9869 -62.9700 -62.9673
   -62.9617 -62.9565 -62.9325 -62.9305 -37.1035 -37.0984 -37.0825 -37.0781
   -37.0679 -37.0595 -36.9823 -36.9766 -36.9733 -36.9682 -36.9312 -36.9271
   -36.8438 -36.8260 -36.7949 -36.7938 -36.7893 -36.7817 -36.7778 -36.7709
   -36.7419 -36.7406 -36.7370 -36.7268 -36.7233 -36.7213 -36.6454 -36.6416
   -36.6249 -36.6221 -36.6005 -36.5979 -36.5689 -36.5657 -36.5201 -36.5195
   -11.8208  -3.5121  -3.2940  -2.7269  -2.7120  -2.6144  -1.7318  -1.5618
    -1.2236  -1.1982  -1.1076  -1.1010  -0.8867  -0.8076  -0.4212  -0.4174
    -0.2921  -0.2882  -0.2169  -0.1283   0.1802   0.1845   0.2364   0.2732
     0.3437   0.4210   0.5728   0.6780   0.7530   0.7680   0.8109   0.9312
     0.9460   0.9832   1.0484   1.1957   1.2955   1.3499   1.3822   1.4135
     1.5394   1.8704   1.8808

     the Fermi energy is     1.1741 ev

!    total energy              =   -1773.46603730 Ry
     Harris-Foulkes estimate   =   -1773.46604392 Ry
     estimated scf accuracy    <       0.00000773 Ry

     The total energy is the sum of the following terms:

     one-electron contribution =  -15349.65447124 Ry
     hartree contribution      =    7664.77135713 Ry
     xc contribution           =    -253.18651367 Ry
     ewald contribution        =    6164.74831207 Ry
     electric field correction =       0.00001925 Ry
     smearing contrib. (-TS)   =      -0.14474084 Ry

     convergence has been achieved in  31 iterations
 
 BEEF-vdW xc energy contributions
           1 :   -218.074101226961     
           2 :    195.616773468628     
           3 :   -158.479068889758     
           4 :    118.264480671214     
           5 :   -85.1319462959270     
           6 :    64.0012362222301     
           7 :   -53.8423356056204     
           8 :    49.8376175274917     
           9 :   -46.7920338229597     
          10 :    41.7996172679775     
          11 :   -34.9759619316231     
          12 :    28.3327008004389     
          13 :   -23.8708839100994     
          14 :    22.1693434485481     
          15 :   -22.2044381843716     
          16 :    22.2534897943058     
          17 :   -21.1096560939045     
          18 :    18.7674494284553     
          19 :   -16.2093147092233     
          20 :    14.5575557304852     
          21 :   -14.2480818822314     
          22 :    14.7829298973638     
          23 :   -15.1633387027456     
          24 :    14.6276466147447     
          25 :   -13.1549063269860     
          26 :    11.4099407635069     
          27 :   -10.2217268617390     
          28 :    9.99363477879342     
          29 :   -10.4570195188477     
          30 :    10.9084923297712     
          31 :   -22.7100264245787     
          32 :   -16.3672268131521     

     Forces acting on atoms (Ry/au):


     negative rho (up, down):  1.542E-02 0.000E+00
     atom    1 type  1   force =     0.00015933    0.00007878   -0.00012920
     atom    2 type  1   force =    -0.00015784    0.00008082   -0.00016109
     atom    3 type  1   force =     0.00000317   -0.00017054   -0.00013904
     atom    4 type  1   force =    -0.00000429    0.00001095   -0.00215737
     atom    5 type  1   force =     0.00000505   -0.00140204   -0.00326345
     atom    6 type  1   force =     0.00000469   -0.00000210   -0.00224409
     atom    7 type  1   force =     0.00122226    0.00069861   -0.00327637
     atom    8 type  1   force =    -0.00121597    0.00070210   -0.00329770
     atom    9 type  1   force =     0.00002225   -0.00001033   -0.01757736
     atom   10 type  1   force =    -0.00000467   -0.03454645    0.00058000
     atom   11 type  1   force =    -0.02992219    0.01728385    0.00060526
     atom   12 type  1   force =     0.02991618    0.01728642    0.00057264
     atom   13 type  2   force =    -0.00002798   -0.00001008    0.03048777

     Total force =     0.069432     Total SCF correction =     0.001936


     entering subroutine stress ...


     negative rho (up, down):  1.542E-02 0.000E+00
          total   stress  (Ry/bohr**3)                   (kbar)     P=  -12.47
  -0.00014367   0.00000001  -0.00000002        -21.13      0.00     -0.00
   0.00000001  -0.00014370  -0.00000002          0.00    -21.14     -0.00
  -0.00000002  -0.00000002   0.00003300         -0.00     -0.00      4.85


     BFGS Geometry Optimization

     number of scf cycles    =   1
     number of bfgs steps    =   0

     energy   new            =   -1773.4660372981 Ry

     new trust radius        =       0.0345606044 bohr
     new conv_thr            =       0.0000099958 Ry


ATOMIC_POSITIONS (crystal)
V1       0.166666667   0.166666667   0.409694847    0   0   0
V1       0.666666667   0.166666667   0.409694847    0   0   0
V1       0.166666667   0.666666667   0.409694847    0   0   0
V1       0.666666667   0.666666667   0.409694847    0   0   0
V1       0.833333333   0.333333333   0.500000000    0   0   0
V1       0.333333333   0.333333333   0.500000000    0   0   0
V1       0.833333333   0.833333333   0.500000000    0   0   0
V1       0.333333333   0.833333333   0.500000000    0   0   0
V1       0.000002765  -0.000001169   0.589924074
V1       0.501954405  -0.003909725   0.590317728
V1      -0.003910727   0.501956066   0.590318276
V1       0.501953928   0.501956356   0.590317568
S1       0.333331161   0.333332193   0.659671958



     Writing output data file calc.save
     Check: negative starting charge=   -0.011610
     NEW-OLD atomic charge density approx. for the potential

     Check: negative/imaginary core charge=   -0.000001    0.000000
     Check: negative starting charge=   -0.011385

     negative rho (up, down):  1.519E-02 0.000E+00
 
     Adding external electric field

     Computed dipole along edir(3) : 
        Dipole               -0.0798 Ry au,         -0.2029 Debye
        Dipole field         -0.0002 Ry au
 
        Potential amp.        0.0217 Ry
        Total length         44.9721 bohr
 

     total cpu time spent up to now is      617.8 secs

     per-process dynamical memory:   106.3 Mb

     Self-consistent Calculation

     iteration #  1     ecut=    36.75 Ry     beta=0.30
     Davidson diagonalization with overlap
     ethr =  1.00E-06,  avg # of iterations = 13.6

     negative rho (up, down):  1.518E-02 0.000E+00
 
     Adding external electric field

     Computed dipole along edir(3) : 
        Dipole               -0.1100 Ry au,         -0.2796 Debye
        Dipole field         -0.0003 Ry au
 
        Potential amp.        0.0299 Ry
        Total length         44.9721 bohr
 

     total cpu time spent up to now is      645.6 secs

     total energy              =   -1773.46807656 Ry
     Harris-Foulkes estimate   =   -1773.47056823 Ry
     estimated scf accuracy    <       0.00555959 Ry

     iteration #  2     ecut=    36.75 Ry     beta=0.30
     Davidson diagonalization with overlap
     ethr =  3.43E-06,  avg # of iterations =  5.8

     negative rho (up, down):  1.519E-02 0.000E+00
 
     Adding external electric field

     Computed dipole along edir(3) : 
        Dipole               -0.0661 Ry au,         -0.1681 Debye
        Dipole field         -0.0002 Ry au
 
        Potential amp.        0.0180 Ry
        Total length         44.9721 bohr
 

     total cpu time spent up to now is      665.6 secs

     total energy              =   -1773.46321958 Ry
     Harris-Foulkes estimate   =   -1773.47598599 Ry
     estimated scf accuracy    <       0.17721333 Ry

     iteration #  3     ecut=    36.75 Ry     beta=0.30
     Davidson diagonalization with overlap
     ethr =  3.43E-06,  avg # of iterations =  6.0

     negative rho (up, down):  1.519E-02 0.000E+00
 
     Adding external electric field

     Computed dipole along edir(3) : 
        Dipole               -0.1092 Ry au,         -0.2777 Debye
        Dipole field         -0.0003 Ry au
 
        Potential amp.        0.0297 Ry
        Total length         44.9721 bohr
 

     total cpu time spent up to now is      685.7 secs

     total energy              =   -1773.46627015 Ry
     Harris-Foulkes estimate   =   -1773.47287364 Ry
     estimated scf accuracy    <       0.43267602 Ry

     iteration #  4     ecut=    36.75 Ry     beta=0.30
     Davidson diagonalization with overlap
     ethr =  3.43E-06,  avg # of iterations =  8.2

     negative rho (up, down):  1.519E-02 0.000E+00
 
     Adding external electric field

     Computed dipole along edir(3) : 
        Dipole               -0.0955 Ry au,         -0.2427 Debye
        Dipole field         -0.0003 Ry au
 
        Potential amp.        0.0260 Ry
        Total length         44.9721 bohr
 

     total cpu time spent up to now is      704.7 secs

     total energy              =   -1773.46931813 Ry
     Harris-Foulkes estimate   =   -1773.47027170 Ry
     estimated scf accuracy    <       0.02332752 Ry

     iteration #  5     ecut=    36.75 Ry     beta=0.30
     Davidson diagonalization with overlap
     ethr =  3.43E-06,  avg # of iterations =  5.7

     negative rho (up, down):  1.519E-02 0.000E+00
 
     Adding external electric field

     Computed dipole along edir(3) : 
        Dipole               -0.0895 Ry au,         -0.2275 Debye
        Dipole field         -0.0003 Ry au
 
        Potential amp.        0.0243 Ry
        Total length         44.9721 bohr
 

     total cpu time spent up to now is      722.8 secs

     total energy              =   -1773.46954228 Ry
     Harris-Foulkes estimate   =   -1773.47034736 Ry
     estimated scf accuracy    <       0.01193459 Ry

     iteration #  6     ecut=    36.75 Ry     beta=0.30
     Davidson diagonalization with overlap
     ethr =  3.43E-06,  avg # of iterations =  3.7

     negative rho (up, down):  1.519E-02 0.000E+00
 
     Adding external electric field

     Computed dipole along edir(3) : 
        Dipole               -0.0909 Ry au,         -0.2310 Debye
        Dipole field         -0.0003 Ry au
 
        Potential amp.        0.0247 Ry
        Total length         44.9721 bohr
 

     total cpu time spent up to now is      738.1 secs

     total energy              =   -1773.46978425 Ry
     Harris-Foulkes estimate   =   -1773.46991322 Ry
     estimated scf accuracy    <       0.00125001 Ry

     iteration #  7     ecut=    36.75 Ry     beta=0.30
     Davidson diagonalization with overlap
     ethr =  7.72E-07,  avg # of iterations =  6.4

     negative rho (up, down):  1.518E-02 0.000E+00
 
     Adding external electric field

     Computed dipole along edir(3) : 
        Dipole               -0.0949 Ry au,         -0.2411 Debye
        Dipole field         -0.0003 Ry au
 
        Potential amp.        0.0258 Ry
        Total length         44.9721 bohr
 

     total cpu time spent up to now is      758.0 secs

     total energy              =   -1773.46995230 Ry
     Harris-Foulkes estimate   =   -1773.46998322 Ry
     estimated scf accuracy    <       0.00029216 Ry

     iteration #  8     ecut=    36.75 Ry     beta=0.30
     Davidson diagonalization with overlap
     ethr =  1.80E-07,  avg # of iterations =  3.9

     negative rho (up, down):  1.518E-02 0.000E+00
 
     Adding external electric field

     Computed dipole along edir(3) : 
        Dipole               -0.0944 Ry au,         -0.2398 Debye
        Dipole field         -0.0003 Ry au
 
        Potential amp.        0.0256 Ry
        Total length         44.9721 bohr
 

     total cpu time spent up to now is      773.3 secs

     total energy              =   -1773.46996158 Ry
     Harris-Foulkes estimate   =   -1773.46997058 Ry
     estimated scf accuracy    <       0.00012304 Ry

     iteration #  9     ecut=    36.75 Ry     beta=0.30
     Davidson diagonalization with overlap
     ethr =  7.59E-08,  avg # of iterations =  5.2

     negative rho (up, down):  1.518E-02 0.000E+00
 
     Adding external electric field

     Computed dipole along edir(3) : 
        Dipole               -0.0940 Ry au,         -0.2389 Debye
        Dipole field         -0.0003 Ry au
 
        Potential amp.        0.0255 Ry
        Total length         44.9721 bohr
 

     total cpu time spent up to now is      790.5 secs

     total energy              =   -1773.46996587 Ry
     Harris-Foulkes estimate   =   -1773.46997603 Ry
     estimated scf accuracy    <       0.00010120 Ry

     iteration # 10     ecut=    36.75 Ry     beta=0.30
     Davidson diagonalization with overlap
     ethr =  6.25E-08,  avg # of iterations =  4.8

     negative rho (up, down):  1.518E-02 0.000E+00
 
     Adding external electric field

     Computed dipole along edir(3) : 
        Dipole               -0.0942 Ry au,         -0.2395 Debye
        Dipole field         -0.0003 Ry au
 
        Potential amp.        0.0256 Ry
        Total length         44.9721 bohr
 

     total cpu time spent up to now is      806.9 secs

     total energy              =   -1773.46997068 Ry
     Harris-Foulkes estimate   =   -1773.46997240 Ry
     estimated scf accuracy    <       0.00003938 Ry

     iteration # 11     ecut=    36.75 Ry     beta=0.30
     Davidson diagonalization with overlap
     ethr =  2.43E-08,  avg # of iterations =  5.5

     negative rho (up, down):  1.518E-02 0.000E+00
 
     Adding external electric field

     Computed dipole along edir(3) : 
        Dipole               -0.0943 Ry au,         -0.2396 Debye
        Dipole field         -0.0003 Ry au
 
        Potential amp.        0.0256 Ry
        Total length         44.9721 bohr
 

     total cpu time spent up to now is      824.4 secs

     total energy              =   -1773.46997193 Ry
     Harris-Foulkes estimate   =   -1773.46997470 Ry
     estimated scf accuracy    <       0.00005435 Ry

     iteration # 12     ecut=    36.75 Ry     beta=0.30
     Davidson diagonalization with overlap
     ethr =  2.43E-08,  avg # of iterations =  1.0

     negative rho (up, down):  1.518E-02 0.000E+00
 
     Adding external electric field

     Computed dipole along edir(3) : 
        Dipole               -0.0937 Ry au,         -0.2383 Debye
        Dipole field         -0.0003 Ry au
 
        Potential amp.        0.0255 Ry
        Total length         44.9721 bohr
 

     total cpu time spent up to now is      838.6 secs

     total energy              =   -1773.46997089 Ry
     Harris-Foulkes estimate   =   -1773.46997322 Ry
     estimated scf accuracy    <       0.00002356 Ry

     iteration # 13     ecut=    36.75 Ry     beta=0.30
     Davidson diagonalization with overlap
     ethr =  1.45E-08,  avg # of iterations =  6.1

     negative rho (up, down):  1.518E-02 0.000E+00

     negative rho (up, down):  1.518E-02 0.000E+00

     negative rho (up, down):  1.518E-02 0.000E+00

     negative rho (up, down):  1.518E-02 0.000E+00

     negative rho (up, down):  1.518E-02 0.000E+00

     negative rho (up, down):  1.518E-02 0.000E+00

     negative rho (up, down):  1.518E-02 0.000E+00

     negative rho (up, down):  1.518E-02 0.000E+00

     negative rho (up, down):  1.518E-02 0.000E+00

     negative rho (up, down):  1.518E-02 0.000E+00

     negative rho (up, down):  1.518E-02 0.000E+00

     negative rho (up, down):  1.518E-02 0.000E+00

     negative rho (up, down):  1.518E-02 0.000E+00

     negative rho (up, down):  1.518E-02 0.000E+00

     negative rho (up, down):  1.518E-02 0.000E+00

     negative rho (up, down):  1.518E-02 0.000E+00

     negative rho (up, down):  1.518E-02 0.000E+00

     negative rho (up, down):  1.518E-02 0.000E+00

     negative rho (up, down):  1.518E-02 0.000E+00

     negative rho (up, down):  1.518E-02 0.000E+00

     negative rho (up, down):  1.518E-02 0.000E+00

     negative rho (up, down):  1.518E-02 0.000E+00

     negative rho (up, down):  1.518E-02 0.000E+00

     negative rho (up, down):  1.518E-02 0.000E+00

     negative rho (up, down):  1.518E-02 0.000E+00

     negative rho (up, down):  1.518E-02 0.000E+00

     negative rho (up, down):  1.518E-02 0.000E+00

     negative rho (up, down):  1.518E-02 0.000E+00

     negative rho (up, down):  1.518E-02 0.000E+00

     negative rho (up, down):  1.518E-02 0.000E+00

     negative rho (up, down):  1.518E-02 0.000E+00

     negative rho (up, down):  1.518E-02 0.000E+00

     negative rho (up, down):  1.518E-02 0.000E+00

     negative rho (up, down):  1.518E-02 0.000E+00

     negative rho (up, down):  1.518E-02 0.000E+00
 
     Adding external electric field

     Computed dipole along edir(3) : 
        Dipole               -0.0941 Ry au,         -0.2391 Debye
        Dipole field         -0.0003 Ry au
 
        Potential amp.        0.0256 Ry
        Total length         44.9721 bohr
 

     total cpu time spent up to now is      896.3 secs

     End of self-consistent calculation

          k = 0.0000 0.0000 0.0000 ( 15569 PWs)   bands (ev):

   -63.1496 -63.0816 -63.0310 -63.0139 -63.0072 -63.0061 -62.9912 -62.9738
   -62.9737 -62.9543 -62.9541 -62.9514 -37.2447 -37.2394 -37.2389 -37.1978
   -37.1780 -37.1779 -37.1734 -37.1097 -37.1068 -37.1066 -36.9475 -36.8744
   -36.8491 -36.8489 -36.8278 -36.8238 -36.8237 -36.7470 -36.7442 -36.7437
   -36.6891 -36.6773 -36.6764 -36.6578 -36.6578 -36.6514 -36.6335 -36.6031
   -36.6016 -36.6014 -36.5818 -36.5817 -36.5205 -36.5205 -36.4810 -36.4810
   -11.7871  -4.9178  -3.5177  -2.7147  -2.6849  -2.6849  -2.1686  -1.9060
    -1.9058  -1.7882  -1.4817  -1.4597  -1.4595  -1.1482  -1.1482  -1.1451
    -0.9518  -0.9517  -0.7359  -0.1726  -0.1725   0.0395   0.6192   0.7957
     0.7958   0.9841   1.0335   1.2604   1.2846   1.2846   1.4229   1.4229
     1.4359   1.4960   1.4961   1.5402   1.5651   1.5653   1.6707   1.6709
     1.9892   2.0630   2.0632

          k = 0.0000 0.0356 0.0000 ( 15635 PWs)   bands (ev):

   -63.1411 -63.0750 -63.0271 -63.0195 -63.0111 -63.0062 -62.9931 -62.9772
   -62.9738 -62.9584 -62.9541 -62.9520 -37.2211 -37.2172 -37.2032 -37.1837
   -37.1581 -37.1555 -37.1466 -37.0874 -37.0852 -37.0697 -36.9464 -36.8942
   -36.8753 -36.8684 -36.8204 -36.8121 -36.8084 -36.7594 -36.7585 -36.7346
   -36.7116 -36.7020 -36.6710 -36.6587 -36.6542 -36.6459 -36.6450 -36.6237
   -36.6227 -36.6163 -36.5951 -36.5918 -36.5534 -36.5292 -36.5187 -36.4891
   -11.7772  -4.7123  -3.3735  -2.7873  -2.6463  -2.5271  -2.0089  -1.8918
    -1.7857  -1.7218  -1.4727  -1.3605  -1.3059  -1.0713  -1.0431  -1.0261
    -0.8754  -0.8302  -0.6364  -0.1333  -0.1255   0.0037   0.5523   0.8177
     0.8299   0.9121   1.0084   1.0688   1.1327   1.2383   1.2487   1.3365
     1.4021   1.4367   1.4887   1.5074   1.5501   1.5857   1.5922   1.7299
     1.7482   1.9041   1.9241

          k = 0.0000 0.0713 0.0000 ( 15669 PWs)   bands (ev):

   -63.1175 -63.0591 -63.0462 -63.0157 -63.0084 -63.0064 -63.0025 -62.9828
   -62.9737 -62.9709 -62.9541 -62.9522 -37.1660 -37.1619 -37.1471 -37.1125
   -37.1105 -37.1049 -37.0889 -37.0353 -37.0336 -36.9695 -36.9506 -36.9184
   -36.9120 -36.9076 -36.8073 -36.7970 -36.7942 -36.7839 -36.7836 -36.7645
   -36.7548 -36.7316 -36.7060 -36.6951 -36.6913 -36.6898 -36.6490 -36.6435
   -36.6432 -36.6402 -36.6271 -36.6183 -36.5872 -36.5718 -36.5532 -36.5112
   -11.7573  -4.1452  -3.0713  -2.9007  -2.5724  -2.3021  -2.0639  -1.5679
    -1.5146  -1.4844  -1.3123  -1.1713  -1.0431  -0.8790  -0.7437  -0.7181
    -0.6131  -0.4862  -0.3710  -0.0945  -0.0081   0.0416   0.2789   0.5229
     0.6077   0.6879   0.7129   0.8021   0.9843   1.0042   1.0600   1.0977
     1.1577   1.1674   1.2180   1.3325   1.3959   1.4729   1.5548   1.6687
     1.6846   1.7630   1.7967

          k = 0.0000-0.1069 0.0000 ( 15660 PWs)   bands (ev):

   -63.0873 -63.0812 -63.0377 -63.0238 -63.0099 -63.0065 -62.9922 -62.9889
   -62.9825 -62.9737 -62.9540 -62.9522 -37.1257 -37.1214 -37.1039 -37.1002
   -37.0872 -37.0814 -37.0000 -36.9990 -36.9951 -36.9899 -36.9502 -36.9489
   -36.8624 -36.8507 -36.8182 -36.8152 -36.8071 -36.8016 -36.7944 -36.7881
   -36.7650 -36.7594 -36.7558 -36.7517 -36.7445 -36.7430 -36.6675 -36.6638
   -36.6468 -36.6427 -36.6210 -36.6173 -36.5930 -36.5817 -36.5417 -36.5410
   -11.7474  -3.5014  -3.3034  -2.6984  -2.6863  -2.5374  -1.7366  -1.5652
    -1.2473  -1.2180  -1.1336  -1.1234  -0.9067  -0.8190  -0.4457  -0.4384
    -0.3171  -0.3083  -0.2338  -0.1476   0.1560   0.1666   0.2123   0.2468
     0.3170   0.3942   0.5505   0.6535   0.7321   0.7372   0.7951   0.8956
     0.9173   0.9662   1.0385   1.1619   1.2767   1.3299   1.3628   1.4070
     1.5140   1.8378   1.8673

          k = 0.0309-0.0178 0.0000 ( 15635 PWs)   bands (ev):

   -63.1411 -63.0750 -63.0270 -63.0199 -63.0103 -63.0070 -62.9929 -62.9773
   -62.9737 -62.9583 -62.9543 -62.9519 -37.2214 -37.2168 -37.2033 -37.1837
   -37.1582 -37.1554 -37.1466 -37.0873 -37.0853 -37.0697 -36.9464 -36.8941
   -36.8755 -36.8683 -36.8202 -36.8122 -36.8084 -36.7597 -36.7582 -36.7346
   -36.7114 -36.7023 -36.6709 -36.6586 -36.6544 -36.6457 -36.6451 -36.6239
   -36.6226 -36.6162 -36.5947 -36.5922 -36.5535 -36.5292 -36.5187 -36.4891
   -11.7772  -4.7123  -3.3735  -2.7873  -2.6463  -2.5271  -2.0089  -1.8919
    -1.7856  -1.7219  -1.4727  -1.3604  -1.3060  -1.0713  -1.0431  -1.0261
    -0.8754  -0.8302  -0.6364  -0.1333  -0.1254   0.0037   0.5523   0.8177
     0.8299   0.9121   1.0084   1.0688   1.1327   1.2384   1.2486   1.3366
     1.4021   1.4367   1.4886   1.5075   1.5503   1.5858   1.5920   1.7299
     1.7482   1.9042   1.9240

          k = 0.0309 0.0178 0.0000 ( 15635 PWs)   bands (ev):

   -63.1411 -63.0750 -63.0269 -63.0199 -63.0102 -63.0071 -62.9929 -62.9772
   -62.9738 -62.9584 -62.9541 -62.9520 -37.2214 -37.2168 -37.2033 -37.1837
   -37.1582 -37.1554 -37.1466 -37.0873 -37.0853 -37.0697 -36.9464 -36.8942
   -36.8755 -36.8683 -36.8203 -36.8122 -36.8084 -36.7597 -36.7582 -36.7346
   -36.7113 -36.7023 -36.6708 -36.6586 -36.6544 -36.6457 -36.6451 -36.6238
   -36.6227 -36.6162 -36.5947 -36.5923 -36.5535 -36.5292 -36.5187 -36.4891
   -11.7772  -4.7123  -3.3735  -2.7873  -2.6463  -2.5271  -2.0089  -1.8919
    -1.7856  -1.7219  -1.4727  -1.3603  -1.3060  -1.0713  -1.0431  -1.0261
    -0.8753  -0.8302  -0.6364  -0.1333  -0.1255   0.0037   0.5523   0.8177
     0.8299   0.9121   1.0084   1.0688   1.1327   1.2384   1.2486   1.3366
     1.4021   1.4367   1.4886   1.5075   1.5503   1.5858   1.5920   1.7299
     1.7482   1.9042   1.9240

          k = 0.0309 0.0535 0.0000 ( 15620 PWs)   bands (ev):

   -63.1250 -63.0632 -63.0324 -63.0267 -63.0145 -63.0012 -62.9955 -62.9848
   -62.9730 -62.9631 -62.9608 -62.9490 -37.1903 -37.1606 -37.1523 -37.1500
   -37.1270 -37.1109 -37.1076 -37.0596 -37.0208 -37.0178 -36.9477 -36.9162
   -36.9068 -36.8980 -36.8182 -36.8029 -36.7980 -36.7894 -36.7744 -36.7402
   -36.7358 -36.6995 -36.6954 -36.6868 -36.6796 -36.6751 -36.6566 -36.6424
   -36.6353 -36.6168 -36.6105 -36.6058 -36.6036 -36.5695 -36.5452 -36.5084
   -11.7623  -4.3236  -3.1342  -2.8414  -2.6392  -2.2612  -1.9346  -1.8663
    -1.6233  -1.4990  -1.4496  -1.1675  -1.0587  -0.8934  -0.8796  -0.8022
    -0.6776  -0.6210  -0.4511  -0.1182  -0.0446   0.0271   0.3934   0.6494
     0.6945   0.7580   0.8065   0.8219   0.9579   1.0736   1.1139   1.1665
     1.2353   1.2627   1.3501   1.4098   1.4882   1.5299   1.5759   1.6979
     1.7460   1.7583   1.7977

          k = 0.0309-0.1248 0.0000 ( 15642 PWs)   bands (ev):

   -63.0968 -63.0631 -63.0424 -63.0322 -63.0134 -62.9980 -62.9925 -62.9911
   -62.9781 -62.9715 -62.9640 -62.9467 -37.1321 -37.1165 -37.0970 -37.0832
   -37.0789 -37.0726 -37.0463 -37.0105 -36.9725 -36.9666 -36.9617 -36.9275
   -36.9162 -36.8810 -36.8653 -36.8280 -36.8037 -36.7957 -36.7846 -36.7820
   -36.7609 -36.7562 -36.7438 -36.7274 -36.7095 -36.6954 -36.6692 -36.6644
   -36.6510 -36.6443 -36.6170 -36.6127 -36.6088 -36.5795 -36.5744 -36.5402
   -11.7475  -3.6562  -3.0269  -2.7798  -2.6688  -2.4003  -1.8662  -1.7248
    -1.4256  -1.2480  -1.1007  -0.9295  -0.7832  -0.6955  -0.5148  -0.4697
    -0.4318  -0.3275  -0.2235  -0.0257   0.0293   0.1059   0.2138   0.2642
     0.3079   0.4183   0.4770   0.5684   0.7073   0.7796   0.8098   0.8360
     0.9390   0.9814   1.0111   1.1165   1.2900   1.3403   1.4151   1.5359
     1.6051   1.8125   1.8499

          k = 0.0309-0.0891 0.0000 ( 15642 PWs)   bands (ev):

   -63.0968 -63.0631 -63.0424 -63.0322 -63.0134 -62.9980 -62.9925 -62.9911
   -62.9781 -62.9715 -62.9640 -62.9467 -37.1321 -37.1165 -37.0970 -37.0832
   -37.0789 -37.0726 -37.0464 -37.0105 -36.9725 -36.9666 -36.9617 -36.9275
   -36.9162 -36.8810 -36.8653 -36.8280 -36.8037 -36.7956 -36.7846 -36.7820
   -36.7609 -36.7562 -36.7438 -36.7274 -36.7095 -36.6954 -36.6693 -36.6644
   -36.6510 -36.6443 -36.6170 -36.6127 -36.6088 -36.5795 -36.5744 -36.5402
   -11.7475  -3.6562  -3.0269  -2.7798  -2.6688  -2.4003  -1.8662  -1.7248
    -1.4256  -1.2480  -1.1007  -0.9295  -0.7832  -0.6955  -0.5148  -0.4697
    -0.4319  -0.3275  -0.2235  -0.0257   0.0293   0.1059   0.2138   0.2642
     0.3079   0.4183   0.4770   0.5684   0.7073   0.7796   0.8098   0.8360
     0.9390   0.9814   1.0111   1.1165   1.2900   1.3403   1.4152   1.5359
     1.6051   1.8125   1.8499

          k = 0.0309-0.0535 0.0000 ( 15620 PWs)   bands (ev):

   -63.1250 -63.0632 -63.0324 -63.0267 -63.0145 -63.0012 -62.9954 -62.9849
   -62.9729 -62.9630 -62.9610 -62.9490 -37.1903 -37.1607 -37.1523 -37.1500
   -37.1270 -37.1109 -37.1076 -37.0596 -37.0207 -37.0179 -36.9477 -36.9162
   -36.9068 -36.8980 -36.8182 -36.8028 -36.7981 -36.7893 -36.7744 -36.7402
   -36.7357 -36.6995 -36.6955 -36.6868 -36.6796 -36.6751 -36.6566 -36.6424
   -36.6353 -36.6168 -36.6105 -36.6057 -36.6036 -36.5695 -36.5453 -36.5084
   -11.7623  -4.3236  -3.1342  -2.8414  -2.6393  -2.2612  -1.9346  -1.8663
    -1.6233  -1.4990  -1.4496  -1.1675  -1.0587  -0.8934  -0.8797  -0.8022
    -0.6776  -0.6210  -0.4511  -0.1183  -0.0446   0.0271   0.3934   0.6494
     0.6945   0.7579   0.8065   0.8219   0.9579   1.0736   1.1139   1.1666
     1.2353   1.2627   1.3501   1.4098   1.4882   1.5300   1.5759   1.6979
     1.7460   1.7583   1.7977

          k = 0.0617-0.0356 0.0000 ( 15669 PWs)   bands (ev):

   -63.1175 -63.0590 -63.0463 -63.0158 -63.0082 -63.0071 -63.0020 -62.9829
   -62.9737 -62.9709 -62.9542 -62.9520 -37.1664 -37.1613 -37.1471 -37.1127
   -37.1104 -37.1049 -37.0889 -37.0352 -37.0336 -36.9695 -36.9506 -36.9183
   -36.9121 -36.9076 -36.8071 -36.7971 -36.7942 -36.7843 -36.7835 -36.7642
   -36.7549 -36.7317 -36.7059 -36.6950 -36.6911 -36.6900 -36.6491 -36.6437
   -36.6435 -36.6397 -36.6269 -36.6185 -36.5871 -36.5719 -36.5531 -36.5112
   -11.7573  -4.1452  -3.0713  -2.9007  -2.5723  -2.3021  -2.0640  -1.5679
    -1.5147  -1.4843  -1.3123  -1.1712  -1.0433  -0.8790  -0.7436  -0.7182
    -0.6132  -0.4862  -0.3710  -0.0945  -0.0081   0.0416   0.2789   0.5229
     0.6080   0.6878   0.7128   0.8021   0.9844   1.0041   1.0601   1.0977
     1.1575   1.1674   1.2180   1.3326   1.3959   1.4729   1.5547   1.6686
     1.6846   1.7627   1.7969

          k = 0.0617 0.0000 0.0000 ( 15620 PWs)   bands (ev):

   -63.1250 -63.0632 -63.0321 -63.0269 -63.0148 -63.0011 -62.9952 -62.9850
   -62.9729 -62.9631 -62.9609 -62.9490 -37.1903 -37.1606 -37.1522 -37.1502
   -37.1271 -37.1107 -37.1077 -37.0596 -37.0208 -37.0178 -36.9477 -36.9162
   -36.9069 -36.8980 -36.8181 -36.8028 -36.7980 -36.7895 -36.7744 -36.7401
   -36.7359 -36.6996 -36.6953 -36.6870 -36.6796 -36.6749 -36.6565 -36.6423
   -36.6355 -36.6169 -36.6106 -36.6058 -36.6036 -36.5695 -36.5452 -36.5084
   -11.7623  -4.3237  -3.1342  -2.8414  -2.6392  -2.2612  -1.9346  -1.8663
    -1.6234  -1.4988  -1.4497  -1.1676  -1.0588  -0.8934  -0.8796  -0.8022
    -0.6777  -0.6210  -0.4511  -0.1182  -0.0447   0.0271   0.3934   0.6494
     0.6945   0.7580   0.8064   0.8219   0.9579   1.0736   1.1138   1.1666
     1.2353   1.2626   1.3501   1.4099   1.4881   1.5300   1.5760   1.6979
     1.7460   1.7583   1.7977

          k = 0.0617 0.0356 0.0000 ( 15669 PWs)   bands (ev):

   -63.1175 -63.0590 -63.0463 -63.0158 -63.0082 -63.0072 -63.0020 -62.9828
   -62.9737 -62.9709 -62.9541 -62.9522 -37.1665 -37.1612 -37.1471 -37.1127
   -37.1104 -37.1048 -37.0889 -37.0351 -37.0337 -36.9696 -36.9506 -36.9183
   -36.9121 -36.9076 -36.8070 -36.7972 -36.7941 -36.7843 -36.7835 -36.7642
   -36.7549 -36.7317 -36.7059 -36.6950 -36.6911 -36.6900 -36.6492 -36.6437
[...]

   -63.1920 -63.1541 -63.1119 -63.1019 -63.0983 -63.0632 -63.0457 -63.0353
   -63.0190 -62.9982 -62.9866 -62.7525 -37.3066 -37.2312 -37.2141 -37.1956
   -37.1869 -37.1734 -37.1636 -37.1328 -37.0829 -37.0791 -37.0256 -36.9934
   -36.9841 -36.9700 -36.8971 -36.8905 -36.8709 -36.8580 -36.8316 -36.8095
   -36.8072 -36.7825 -36.7672 -36.7428 -36.7340 -36.7180 -36.6983 -36.6781
   -36.6709 -36.6655 -36.6606 -36.6332 -36.5755 -36.4079 -36.3820 -36.3263
   -11.6604  -4.3441  -3.1080  -2.7103  -2.4859  -2.2516  -1.9927  -1.9584
    -1.6538  -1.5663  -1.5044  -1.2013  -1.1361  -0.9875  -0.8575  -0.8370
    -0.7099  -0.6838  -0.4574  -0.1827  -0.0628  -0.0035   0.2074   0.4036
     0.5531   0.6963   0.7383   0.7703   0.8389   0.8901   1.0257   1.0641
     1.1163   1.1827   1.3041   1.4171   1.4826   1.5035   1.5874   1.6198
     1.6776   1.7322   1.7864

          k = 0.0617-0.0356 0.0000 ( 15669 PWs)   bands (ev):

   -63.1864 -63.1521 -63.1149 -63.0999 -63.0983 -63.0663 -63.0466 -63.0311
   -63.0239 -63.0003 -62.9866 -62.7523 -37.2911 -37.2145 -37.2087 -37.1793
   -37.1684 -37.1626 -37.1496 -37.1190 -37.0804 -37.0453 -37.0254 -36.9935
   -36.9845 -36.9807 -36.8957 -36.8900 -36.8795 -36.8521 -36.8329 -36.8284
   -36.8127 -36.7896 -36.7871 -36.7485 -36.7413 -36.7220 -36.7162 -36.7130
   -36.6896 -36.6707 -36.6491 -36.6341 -36.5784 -36.4174 -36.3799 -36.3225
   -11.6554  -4.1599  -3.0262  -2.8007  -2.4149  -2.3195  -2.0880  -1.6563
    -1.5877  -1.5505  -1.3209  -1.1975  -1.1526  -0.9313  -0.7790  -0.7664
    -0.6330  -0.5771  -0.3856  -0.1950  -0.0276  -0.0241   0.1664   0.2980
     0.4788   0.6227   0.6603   0.7119   0.7279   0.8560   0.9666   1.0453
     1.0655   1.0776   1.2558   1.3309   1.3345   1.4458   1.4802   1.6350
     1.6489   1.6836   1.7949

          k = 0.0617 0.0000 0.0000 ( 15620 PWs)   bands (ev):

   -63.1920 -63.1541 -63.1119 -63.1019 -63.0983 -63.0632 -63.0457 -63.0353
   -63.0190 -62.9982 -62.9866 -62.7525 -37.3066 -37.2312 -37.2141 -37.1956
   -37.1869 -37.1734 -37.1636 -37.1328 -37.0829 -37.0791 -37.0256 -36.9934
   -36.9841 -36.9700 -36.8972 -36.8905 -36.8709 -36.8580 -36.8316 -36.8095
   -36.8072 -36.7824 -36.7672 -36.7428 -36.7340 -36.7180 -36.6983 -36.6781
   -36.6709 -36.6655 -36.6606 -36.6332 -36.5755 -36.4079 -36.3820 -36.3263
   -11.6604  -4.3441  -3.1080  -2.7103  -2.4859  -2.2516  -1.9927  -1.9584
    -1.6538  -1.5663  -1.5044  -1.2013  -1.1361  -0.9875  -0.8575  -0.8370
    -0.7099  -0.6838  -0.4574  -0.1827  -0.0628  -0.0035   0.2074   0.4036
     0.5532   0.6963   0.7383   0.7703   0.8389   0.8901   1.0257   1.0641
     1.1163   1.1827   1.3041   1.4171   1.4826   1.5035   1.5874   1.6198
     1.6776   1.7322   1.7864

          k = 0.0617 0.0356 0.0000 ( 15669 PWs)   bands (ev):

   -63.1864 -63.1521 -63.1150 -63.0999 -63.0983 -63.0663 -63.0466 -63.0311
   -63.0240 -63.0003 -62.9866 -62.7523 -37.2911 -37.2145 -37.2087 -37.1793
   -37.1684 -37.1626 -37.1496 -37.1190 -37.0804 -37.0453 -37.0254 -36.9936
   -36.9845 -36.9807 -36.8957 -36.8900 -36.8794 -36.8521 -36.8329 -36.8285
   -36.8127 -36.7896 -36.7871 -36.7485 -36.7414 -36.7220 -36.7162 -36.7130
   -36.6896 -36.6707 -36.6491 -36.6341 -36.5784 -36.4174 -36.3799 -36.3225
   -11.6554  -4.1599  -3.0262  -2.8008  -2.4149  -2.3195  -2.0880  -1.6563
    -1.5877  -1.5505  -1.3209  -1.1975  -1.1526  -0.9313  -0.7790  -0.7664
    -0.6330  -0.5771  -0.3856  -0.1950  -0.0276  -0.0241   0.1664   0.2980
     0.4788   0.6227   0.6603   0.7119   0.7279   0.8560   0.9666   1.0453
     1.0655   1.0776   1.2558   1.3309   1.3345   1.4458   1.4802   1.6350
     1.6489   1.6836   1.7949

          k = 0.0617-0.1426 0.0000 ( 15642 PWs)   bands (ev):

   -63.1729 -63.1504 -63.1167 -63.1034 -63.0932 -63.0689 -63.0518 -63.0395
   -63.0169 -63.0072 -62.9865 -62.7519 -37.2512 -37.1816 -37.1714 -37.1487
   -37.1430 -37.1338 -37.1072 -37.0890 -37.0452 -37.0337 -37.0205 -37.0153
   -36.9950 -36.9550 -36.9113 -36.9072 -36.8888 -36.8841 -36.8620 -36.8313
   -36.8258 -36.8147 -36.7995 -36.7721 -36.7616 -36.7461 -36.7307 -36.7148
   -36.6997 -36.6847 -36.6676 -36.6420 -36.6076 -36.4224 -36.3876 -36.3149
   -11.6455  -3.6490  -2.9576  -2.7324  -2.5277  -2.3944  -1.8981  -1.7693
    -1.4942  -1.2859  -1.1776  -1.0452  -0.8611  -0.7301  -0.6503  -0.5778
    -0.4545  -0.3797  -0.2707  -0.1896  -0.0283   0.0502   0.0659   0.1936
     0.2394   0.3290   0.3806   0.4583   0.5423   0.6390   0.7172   0.7640
     0.8208   0.9510   0.9981   1.0859   1.2307   1.3203   1.4035   1.5405
     1.6683   1.7303   1.8675

          k = 0.0617-0.1069 0.0000 ( 15672 PWs)   bands (ev):

   -63.1630 -63.1525 -63.1165 -63.1067 -63.0843 -63.0747 -63.0597 -63.0388
   -63.0145 -63.0106 -62.9864 -62.7517 -37.2168 -37.1714 -37.1544 -37.1228
   -37.1111 -37.1081 -37.0953 -37.0781 -37.0521 -37.0464 -37.0251 -37.0044
   -36.9719 -36.9386 -36.9296 -36.9240 -36.9019 -36.8925 -36.8838 -36.8775
   -36.8358 -36.8264 -36.8129 -36.7677 -36.7573 -36.7391 -36.7174 -36.7120
   -36.7073 -36.6936 -36.6600 -36.6593 -36.6519 -36.4192 -36.3969 -36.3111
   -11.6405  -3.0916  -2.9417  -2.8673  -2.4329  -2.4193  -2.3692  -1.4982
    -1.4852  -1.1998  -0.8998  -0.8561  -0.7654  -0.6666  -0.5448  -0.4086
    -0.2843  -0.2111  -0.1872  -0.1688  -0.1036  -0.0741  -0.0431   0.0546
     0.0570   0.0811   0.3109   0.3426   0.4692   0.4913   0.5372   0.5615
     0.6974   0.8231   0.8666   0.9445   1.0115   1.4211   1.4377   1.5952
     1.7668   1.8166   1.8469

          k = 0.0617-0.0713 0.0000 ( 15642 PWs)   bands (ev):

   -63.1729 -63.1504 -63.1167 -63.1034 -63.0932 -63.0689 -63.0519 -63.0395
   -63.0169 -63.0071 -62.9865 -62.7519 -37.2512 -37.1816 -37.1714 -37.1487
   -37.1430 -37.1337 -37.1072 -37.0890 -37.0452 -37.0337 -37.0205 -37.0153
   -36.9950 -36.9550 -36.9113 -36.9072 -36.8888 -36.8841 -36.8620 -36.8312
   -36.8258 -36.8147 -36.7995 -36.7721 -36.7616 -36.7461 -36.7307 -36.7148
   -36.6997 -36.6848 -36.6676 -36.6420 -36.6076 -36.4224 -36.3877 -36.3149
   -11.6455  -3.6490  -2.9576  -2.7324  -2.5277  -2.3944  -1.8981  -1.7693
    -1.4942  -1.2859  -1.1776  -1.0452  -0.8611  -0.7301  -0.6503  -0.5778
    -0.4545  -0.3797  -0.2707  -0.1896  -0.0283   0.0502   0.0659   0.1936
     0.2394   0.3290   0.3805   0.4583   0.5423   0.6390   0.7172   0.7640
     0.8208   0.9510   0.9981   1.0859   1.2307   1.3203   1.4035   1.5405
     1.6683   1.7303   1.8675

          k =-0.0926 0.0535 0.0000 ( 15660 PWs)   bands (ev):

   -63.1710 -63.1526 -63.1179 -63.0983 -63.0974 -63.0736 -63.0455 -63.0312
   -63.0280 -63.0053 -62.9866 -62.7519 -37.2523 -37.1812 -37.1737 -37.1566
   -37.1546 -37.1403 -37.1042 -37.0642 -37.0506 -37.0397 -37.0239 -37.0009
   -36.9971 -36.9182 -36.9066 -36.9005 -36.8922 -36.8624 -36.8494 -36.8413
   -36.8348 -36.8276 -36.8158 -36.7996 -36.7747 -36.7520 -36.7306 -36.7296
   -36.7059 -36.6838 -36.6606 -36.6123 -36.6040 -36.4295 -36.3813 -36.3152
   -11.6455  -3.4576  -3.2981  -2.6990  -2.6134  -2.3795  -1.7825  -1.5946
    -1.2888  -1.2746  -1.1991  -1.1427  -1.1159  -0.8148  -0.6111  -0.5677
    -0.4077  -0.4001  -0.2183  -0.1882  -0.0701   0.1258   0.1612   0.1929
     0.2213   0.3940   0.4348   0.4568   0.6099   0.6179   0.7126   0.7428
     0.8041   0.8700   1.0613   1.1148   1.2439   1.2526   1.4046   1.4072
     1.6442   1.7241   1.9209

          k =-0.0926 0.0891 0.0000 ( 15642 PWs)   bands (ev):

   -63.1729 -63.1504 -63.1167 -63.1034 -63.0932 -63.0689 -63.0519 -63.0395
   -63.0169 -63.0071 -62.9865 -62.7519 -37.2512 -37.1816 -37.1714 -37.1487
   -37.1430 -37.1337 -37.1072 -37.0890 -37.0452 -37.0337 -37.0205 -37.0153
   -36.9950 -36.9550 -36.9113 -36.9072 -36.8888 -36.8841 -36.8620 -36.8313
   -36.8258 -36.8147 -36.7995 -36.7721 -36.7616 -36.7461 -36.7307 -36.7147
   -36.6997 -36.6848 -36.6676 -36.6420 -36.6076 -36.4224 -36.3876 -36.3149
   -11.6455  -3.6490  -2.9576  -2.7324  -2.5277  -2.3944  -1.8981  -1.7693
    -1.4942  -1.2859  -1.1776  -1.0452  -0.8612  -0.7301  -0.6503  -0.5778
    -0.4545  -0.3797  -0.2707  -0.1896  -0.0283   0.0502   0.0659   0.1936
     0.2394   0.3290   0.3806   0.4583   0.5423   0.6390   0.7172   0.7640
     0.8208   0.9510   0.9981   1.0859   1.2307   1.3203   1.4034   1.5405
     1.6683   1.7303   1.8675

          k =-0.0926 0.1248 0.0000 ( 15642 PWs)   bands (ev):

   -63.1729 -63.1504 -63.1167 -63.1034 -63.0932 -63.0689 -63.0519 -63.0395
   -63.0169 -63.0072 -62.9865 -62.7519 -37.2512 -37.1816 -37.1714 -37.1487
   -37.1430 -37.1338 -37.1072 -37.0890 -37.0452 -37.0337 -37.0205 -37.0153
   -36.9950 -36.9550 -36.9113 -36.9072 -36.8888 -36.8841 -36.8620 -36.8313
   -36.8258 -36.8147 -36.7995 -36.7721 -36.7616 -36.7461 -36.7307 -36.7148
   -36.6997 -36.6847 -36.6676 -36.6420 -36.6076 -36.4224 -36.3876 -36.3149
   -11.6455  -3.6490  -2.9576  -2.7324  -2.5277  -2.3944  -1.8981  -1.7693
    -1.4942  -1.2859  -1.1776  -1.0452  -0.8612  -0.7301  -0.6503  -0.5778
    -0.4545  -0.3797  -0.2707  -0.1896  -0.0283   0.0502   0.0659   0.1936
     0.2394   0.3290   0.3806   0.4583   0.5423   0.6390   0.7172   0.7640
     0.8208   0.9510   0.9981   1.0859   1.2307   1.3203   1.4034   1.5405
     1.6683   1.7303   1.8675

          k =-0.0926-0.0535 0.0000 ( 15660 PWs)   bands (ev):

   -63.1710 -63.1526 -63.1179 -63.0983 -63.0974 -63.0736 -63.0455 -63.0311
   -63.0281 -63.0053 -62.9866 -62.7519 -37.2522 -37.1812 -37.1737 -37.1566
   -37.1546 -37.1403 -37.1042 -37.0642 -37.0506 -37.0397 -37.0239 -37.0009
   -36.9970 -36.9183 -36.9066 -36.9005 -36.8921 -36.8624 -36.8494 -36.8413
   -36.8348 -36.8276 -36.8158 -36.7996 -36.7747 -36.7520 -36.7306 -36.7296
   -36.7059 -36.6838 -36.6606 -36.6123 -36.6040 -36.4295 -36.3813 -36.3152
   -11.6455  -3.4576  -3.2981  -2.6990  -2.6134  -2.3795  -1.7825  -1.5946
    -1.2888  -1.2746  -1.1991  -1.1427  -1.1159  -0.8147  -0.6111  -0.5677
    -0.4077  -0.4001  -0.2183  -0.1882  -0.0701   0.1259   0.1612   0.1929
     0.2213   0.3940   0.4348   0.4567   0.6099   0.6179   0.7126   0.7428
     0.8041   0.8700   1.0614   1.1148   1.2439   1.2526   1.4046   1.4072
     1.6442   1.7241   1.9209

     the Fermi energy is     1.0747 ev

!    total energy              =   -1773.49202418 Ry
     Harris-Foulkes estimate   =   -1773.49202371 Ry
     estimated scf accuracy    <       0.00000002 Ry

     The total energy is the sum of the following terms:

     one-electron contribution =  -15356.86722303 Ry
     hartree contribution      =    7668.09242392 Ry
     xc contribution           =    -253.23845245 Ry
     ewald contribution        =    6168.65203824 Ry
     electric field correction =       0.00005099 Ry
     smearing contrib. (-TS)   =      -0.13086184 Ry

     convergence has been achieved in  18 iterations
 
 BEEF-vdW xc energy contributions
           1 :   -218.125168710874     
           2 :    195.651699791786     
           3 :   -158.480836045797     
           4 :    118.212519930844     
           5 :   -85.0050313088465     
           6 :    63.7872912734578     
           7 :   -53.5479758084819     
           8 :    49.4945904571833     
           9 :   -46.4563332539531     
          10 :    41.5322044276475     
          11 :   -34.8053333547398     
          12 :    28.2241514555088     
          13 :   -23.7363003998319     
          14 :    21.9241867277277     
          15 :   -21.8332456122004     
          16 :    21.8293227480291     
          17 :   -20.7466898725241     
          18 :    18.5403683654948     
          19 :   -16.0998539530238     
          20 :    14.4660969833021     
          21 :   -14.0595955191413     
          22 :    14.4419313315568     
          23 :   -14.7116285031551     
          24 :    14.1825961192242     
          25 :   -12.8407972088938     
          26 :    11.2821834428420     
          27 :   -10.2307299294280     
          28 :    10.0142863136895     
          29 :   -10.3687974837163     
          30 :    10.6745817218702     
          31 :   -22.7122633895111     
          32 :   -16.3603955377356     

     Forces acting on atoms (Ry/au):


     negative rho (up, down):  1.555E-02 0.000E+00
     atom    1 type  1   force =     0.00022136    0.00012761   -0.00052585
     atom    2 type  1   force =    -0.00022160    0.00012907   -0.00052821
     atom    3 type  1   force =     0.00000120   -0.00025593   -0.00052635
     atom    4 type  1   force =    -0.00000113   -0.00000009    0.00285499
     atom    5 type  1   force =     0.00000021    0.02368990   -0.01376372
     atom    6 type  1   force =    -0.00000109   -0.00000087    0.04097695
     atom    7 type  1   force =    -0.02051587   -0.01184468   -0.01375979
     atom    8 type  1   force =     0.02051467   -0.01184340   -0.01376183
     atom    9 type  1   force =     0.00000114   -0.00000377   -0.00024209
     atom   10 type  1   force =     0.00000098    0.00094224    0.00020821
     atom   11 type  1   force =     0.00081435   -0.00046849    0.00021649
     atom   12 type  1   force =    -0.00081744   -0.00047205    0.00021391
     atom   13 type  2   force =     0.00000323    0.00000046   -0.00136270

     Total force =     0.002171     Total SCF correction =     0.000547
     SCF correction compared to forces is large: reduce conv_thr to get better values


     entering subroutine stress ...


     negative rho (up, down):  1.555E-02 0.000E+00
          total   stress  (Ry/bohr**3)                   (kbar)     P=  -12.47
  -0.00012208   0.00000000   0.00000001        -17.96      0.00      0.00
   0.00000000  -0.00012208  -0.00000000          0.00    -17.96     -0.00
   0.00000001  -0.00000000  -0.00001021          0.00     -0.00     -1.50


     bfgs converged in  18 scf cycles and  17 bfgs steps
     (criteria: energy <  1.0E+00, force <  1.9E-03)

     End of BFGS Geometry Optimization

     Final energy   =   -1773.4920241809 Ry
Begin final coordinates

ATOMIC_POSITIONS (crystal)
V1       0.166666667   0.166666667   0.409694847    0   0   0
V1       0.666666667   0.166666667   0.409694847    0   0   0
V1       0.166666667   0.666666667   0.409694847    0   0   0
V1       0.666666667   0.666666667   0.409694847    0   0   0
V1       0.833333333   0.333333333   0.500000000    0   0   0
V1       0.333333333   0.333333333   0.500000000    0   0   0
V1       0.833333333   0.833333333   0.500000000    0   0   0
V1       0.333333333   0.833333333   0.500000000    0   0   0
V1      -0.000000593   0.000001795   0.573038070
V1       0.506728581  -0.013461511   0.594493851
V1      -0.013454580   0.506723027   0.594492952
V1       0.506727860   0.506724806   0.594492846
S1       0.333329741   0.333330341   0.663255710
End final coordinates



     Writing output data file calc.save
 
     init_run     :      8.80s CPU      9.10s WALL (       1 calls)
     electrons    :   7199.18s CPU   7787.24s WALL (      18 calls)
     update_pot   :     40.49s CPU     42.33s WALL (      17 calls)
     forces       :    239.09s CPU    258.63s WALL (      18 calls)
     stress       :    755.97s CPU    818.84s WALL (      18 calls)

     Called by init_run:
     wfcinit      :      2.96s CPU      3.02s WALL (       1 calls)
     potinit      :      1.60s CPU      1.71s WALL (       1 calls)

     Called by electrons:
     c_bands      :   3021.74s CPU   3219.70s WALL (     368 calls)
     sum_band     :   1497.89s CPU   1628.90s WALL (     368 calls)
     v_of_rho     :    482.02s CPU    520.15s WALL (     385 calls)
     newd         :   1277.75s CPU   1304.23s WALL (     385 calls)
     mix_rho      :     18.33s CPU     18.77s WALL (     368 calls)
     vdW_energy   :    201.61s CPU    221.11s WALL (    1033 calls)
     vdW_ffts     :    407.44s CPU    427.17s WALL (    2102 calls)
     vdW_v        :    172.26s CPU    178.68s WALL (    1033 calls)

     Called by c_bands:
     init_us_2    :     18.08s CPU     18.23s WALL (    3865 calls)
     cegterg      :   2653.55s CPU   2711.25s WALL (    1840 calls)

     Called by *egterg:
     h_psi        :   1603.72s CPU   1647.85s WALL (    9752 calls)
     s_psi        :    170.28s CPU    170.88s WALL (    9752 calls)
     g_psi        :     10.64s CPU     10.67s WALL (    7907 calls)
     cdiaghg      :    344.42s CPU    347.28s WALL (    9657 calls)

     Called by h_psi:
     add_vuspsi   :    176.22s CPU    176.86s WALL (    9752 calls)

     General routines
     calbec       :    265.13s CPU    269.82s WALL (   11772 calls)
     fft          :    637.72s CPU    688.62s WALL (   63285 calls)
     ffts         :      1.08s CPU      1.16s WALL (     753 calls)
     fftw         :    944.14s CPU    990.59s WALL ( 1021966 calls)
     interpolate  :      9.84s CPU     10.16s WALL (     753 calls)
     davcio       :      0.00s CPU      0.02s WALL (       5 calls)
 
     Parallel routines
     fft_scatter  :    915.38s CPU   1006.56s WALL ( 1086004 calls)
 
     PWSCF        :     2h18m CPU        2h29m WALL

 
   This run was terminated on:  20:29:19   2May2018            

=------------------------------------------------------------------------------=
   JOB DONE.
=------------------------------------------------------------------------------=
Job  /afs/slac/g/suncat/bin/suncat-tsmpirun -x LD_LIBRARY_PATH -wdir /scratch/qe829244_NeYxl pw.x -npool 4 -in pw.inp

TID   HOST_NAME   COMMAND_LINE            STATUS            TERMINATION_TIME
===== ========== ================  =======================  ===================
00000 suncat0160 pw.x -npool 4 -i  Done                     05/02/2018 20:29:19
00001 suncat0160 pw.x -npool 4 -i  Done                     05/02/2018 20:29:19
00002 suncat0160 pw.x -npool 4 -i  Done                     05/02/2018 20:29:19
00003 suncat0160 pw.x -npool 4 -i  Done                     05/02/2018 20:29:19
00004 suncat0160 pw.x -npool 4 -i  Done                     05/02/2018 20:29:19
00005 suncat0160 pw.x -npool 4 -i  Done                     05/02/2018 20:29:19
00006 suncat0160 pw.x -npool 4 -i  Done                     05/02/2018 20:29:19
00007 suncat0160 pw.x -npool 4 -i  Done                     05/02/2018 20:29:19
00008 suncat0125 pw.x -npool 4 -i  Done                     05/02/2018 20:29:19
00009 suncat0125 pw.x -npool 4 -i  Done                     05/02/2018 20:29:19
00010 suncat0125 pw.x -npool 4 -i  Done                     05/02/2018 20:29:19
00011 suncat0125 pw.x -npool 4 -i  Done                     05/02/2018 20:29:19
00012 suncat0125 pw.x -npool 4 -i  Done                     05/02/2018 20:29:19
00013 suncat0125 pw.x -npool 4 -i  Done                     05/02/2018 20:29:19
00014 suncat0125 pw.x -npool 4 -i  Done                     05/02/2018 20:29:19
00015 suncat0125 pw.x -npool 4 -i  Done                     05/02/2018 20:29:19
00016 suncat0231 pw.x -npool 4 -i  Done                     05/02/2018 20:29:19
00017 suncat0231 pw.x -npool 4 -i  Done                     05/02/2018 20:29:19
00018 suncat0231 pw.x -npool 4 -i  Done                     05/02/2018 20:29:19
00019 suncat0231 pw.x -npool 4 -i  Done                     05/02/2018 20:29:19
00020 suncat0231 pw.x -npool 4 -i  Done                     05/02/2018 20:29:19
00021 suncat0231 pw.x -npool 4 -i  Done                     05/02/2018 20:29:19
00022 suncat0231 pw.x -npool 4 -i  Done                     05/02/2018 20:29:19
00023 suncat0231 pw.x -npool 4 -i  Done                     05/02/2018 20:29:19
00024 suncat0230 pw.x -npool 4 -i  Done                     05/02/2018 20:29:19
00025 suncat0230 pw.x -npool 4 -i  Done                     05/02/2018 20:29:19
00026 suncat0230 pw.x -npool 4 -i  Done                     05/02/2018 20:29:19
00027 suncat0230 pw.x -npool 4 -i  Done                     05/02/2018 20:29:19
00028 suncat0230 pw.x -npool 4 -i  Done                     05/02/2018 20:29:19
00029 suncat0230 pw.x -npool 4 -i  Done                     05/02/2018 20:29:19
00030 suncat0230 pw.x -npool 4 -i  Done                     05/02/2018 20:29:19
00031 suncat0230 pw.x -npool 4 -i  Done                     05/02/2018 20:29:19
