  python dir          : /u/if/mamunm/src/espresso
  espresso dir        : /nfs/slac/g/suncatfs/sw/espv18/espresso-dynpy-beef/bin
  pseudo dir          : /u/if/mamunm/psp/gbrv1.5pbe
  ase-espresso py git : GITVERSION



     Program PWSCF v.5.1rc2 (svn rev. 11289) starts on 22Apr2018 at 21:15: 7 

     This program is part of the open-source Quantum ESPRESSO suite
     for quantum simulation of materials; please cite
         "P. Giannozzi et al., J. Phys.:Condens. Matter 21 395502 (2009);
          URL http://www.quantum-espresso.org", 
     in publications or presentations arising from this work. More details at
     http://www.quantum-espresso.org/quote

     Parallel version (MPI), running on    32 processors
     K-points division:     npool     =       4
     R & G space division:  proc/nbgrp/npool/nimage =       8
     Reading input from pw.inp
     Message from routine read_cards :
     DEPRECATED: no units specified in CELL_PARAMETERS card

     Current dimensions of program PWSCF are:
     Max number of different atomic species (ntypx) = 10
     Max number of k-points (npk) =  40000
     Max angular momentum in pseudopotentials (lmaxx) =  3
     Presently stress not available with electric field


     **************************************************************************
     Initializing libbeef V0.1.1 with the BEEF-vdW functional.
     Citation: Wellendorff et al., PRB 85, 235149 (2012).
     **************************************************************************


     IMPORTANT: XC functional enforced from input :
     Exchange-correlation      = BEEF-VDW ( 1  4 27 13 2)
     Any further DFT definition will be discarded
     Please, verify this is what you really want


     Subspace diagonalization in iterative solution of the eigenvalue problem:
     a serial algorithm will be used

 
     Parallelization info
     --------------------
     sticks:   dense  smooth     PW     G-vecs:    dense   smooth      PW
     Min         469     188     53                90947    23011    3531
     Max         471     189     55                90959    23054    3542
     Sum        3757    1507    433               727599   184247   28311
 


     bravais-lattice index     =            0
     lattice parameter (alat)  =       1.8897  a.u.
     unit-cell volume          =    6116.8020 (a.u.)^3
     number of atoms/cell      =           14
     number of atomic types    =            3
     number of electrons       =       139.00
     number of Kohn-Sham states=           79
     kinetic-energy cutoff     =      36.7493  Ry
     charge density cutoff     =     367.4932  Ry
     convergence threshold     =      1.0E-05
     mixing beta               =       0.3000
     number of iterations used =           10  plain     mixing
     Exchange-correlation      = BEEF-VDW ( 1  4 27 13 2)
     nstep                     =           50


     celldm(1)=   1.889726  celldm(2)=   0.000000  celldm(3)=   0.000000
     celldm(4)=   0.000000  celldm(5)=   0.000000  celldm(6)=   0.000000

     crystal axes: (cart. coord. in units of alat)
               a(1) = (   6.437465   0.000000   0.000000 )  
               a(2) = (   3.218732   5.575008   0.000000 )  
               a(3) = (   0.000000   0.000000  25.256168 )  

     reciprocal axes: (cart. coord. in units 2 pi/alat)
               b(1) = (  0.155341 -0.089686  0.000000 )  
               b(2) = (  0.000000  0.179372  0.000000 )  
               b(3) = (  0.000000  0.000000  0.039594 )  


     PseudoPot. # 1 for Sc read from file:
     /u/if/mamunm/psp/gbrv1.5pbe/Sc.UPF
     MD5 check sum: db30a2753ba66ef00f23801d899b7e7f
     Pseudo is Ultrasoft + core correction, Zval = 11.0
     Generated by new atomic code, or converted to UPF format
     Using radial grid of  849 points,  6 beta functions with: 
                l(1) =   0
                l(2) =   0
                l(3) =   1
                l(4) =   1
                l(5) =   2
                l(6) =   2
     Q(r) pseudized with  6 coefficients,  rinner =    1.200   1.200   1.200
                                                       1.200   1.200

     PseudoPot. # 2 for S  read from file:
     /u/if/mamunm/psp/gbrv1.5pbe/S.UPF
     MD5 check sum: 88d86576ff6df21479756cfb9bdac1df
     Pseudo is Ultrasoft + core correction, Zval =  6.0
     Generated by new atomic code, or converted to UPF format
     Using radial grid of  907 points,  6 beta functions with: 
                l(1) =   0
                l(2) =   0
                l(3) =   1
                l(4) =   1
                l(5) =   2
                l(6) =   2
     Q(r) pseudized with  8 coefficients,  rinner =    1.300   1.300   1.300
                                                       1.300   1.300

     PseudoPot. # 3 for H  read from file:
     /u/if/mamunm/psp/gbrv1.5pbe/H.UPF
     MD5 check sum: 761ae9a214b05c3daf00ab9f6b793d6f
     Pseudo is Ultrasoft, Zval =  1.0
     Generated by new atomic code, or converted to UPF format
     Using radial grid of  615 points,  2 beta functions with: 
                l(1) =   0
                l(2) =   0
     Q(r) pseudized with  8 coefficients,  rinner =    0.700

     vdW kernel table read from file vdW_kernel_table
     MD5 check sum: 095c7af220d748ca6e76c0b4c6cfb241

     atomic species   valence    mass     pseudopotential
        Sc1           11.00    44.95591     Sc( 1.00)
        S1             6.00    32.06000     S ( 1.00)
        H1             1.00     1.00800     H ( 1.00)

     No symmetry found



   Cartesian axes

     site n.     atom                  positions (alat units)
         1           Sc1 tau(   1) = (   1.6093662   0.9291680  10.0000000  )
         2           Sc1 tau(   2) = (   4.8280986   0.9291680  10.0000000  )
         3           Sc1 tau(   3) = (   3.2187324   3.7166720  10.0000000  )
         4           Sc1 tau(   4) = (   6.4374648   3.7166720  10.0000000  )
         5           Sc1 tau(   5) = (   6.4374648   1.8583360  12.6280840  )
         6           Sc1 tau(   6) = (   3.2187324   1.8583360  12.6280840  )
         7           Sc1 tau(   7) = (   8.0468310   4.6458400  12.6280840  )
         8           Sc1 tau(   8) = (   4.8280986   4.6458400  12.6280840  )
         9           Sc1 tau(   9) = (   0.0000000   0.0000000  15.2561680  )
        10           Sc1 tau(  10) = (   3.2187324   0.0000000  15.2561680  )
        11           Sc1 tau(  11) = (   1.6093662   2.7875040  15.2561680  )
        12           Sc1 tau(  12) = (   4.8280986   2.7875040  15.2561680  )
        13           S1  tau(  13) = (   0.0000000   0.0000000  17.5936680  )
        14           H1  tau(  14) = (   0.0000000   0.0000000  18.8436680  )

     number of k points=    20  Fermi-Dirac smearing, width (Ry)=  0.0110
                       cart. coord. in units 2pi/alat
        k(    1) = (   0.0000000   0.0000000   0.0000000), wk =   0.0555556
        k(    2) = (   0.0000000   0.0298953   0.0000000), wk =   0.1111111
        k(    3) = (   0.0000000   0.0597906   0.0000000), wk =   0.1111111
        k(    4) = (   0.0000000  -0.0896860   0.0000000), wk =   0.0555556
        k(    5) = (   0.0258901  -0.0149477   0.0000000), wk =   0.1111111
        k(    6) = (   0.0258901   0.0149477   0.0000000), wk =   0.1111111
        k(    7) = (   0.0258901   0.0448430   0.0000000), wk =   0.1111111
        k(    8) = (   0.0258901  -0.1046336   0.0000000), wk =   0.1111111
        k(    9) = (   0.0258901  -0.0747383   0.0000000), wk =   0.1111111
        k(   10) = (   0.0258901  -0.0448430   0.0000000), wk =   0.1111111
        k(   11) = (   0.0517802  -0.0298953   0.0000000), wk =   0.1111111
        k(   12) = (   0.0517802   0.0000000   0.0000000), wk =   0.1111111
        k(   13) = (   0.0517802   0.0298953   0.0000000), wk =   0.1111111
        k(   14) = (   0.0517802  -0.1195813   0.0000000), wk =   0.1111111
        k(   15) = (   0.0517802  -0.0896860   0.0000000), wk =   0.1111111
        k(   16) = (   0.0517802  -0.0597906   0.0000000), wk =   0.1111111
        k(   17) = (  -0.0776703   0.0448430   0.0000000), wk =   0.0555556
        k(   18) = (  -0.0776703   0.0747383   0.0000000), wk =   0.1111111
        k(   19) = (  -0.0776703   0.1046336   0.0000000), wk =   0.1111111
        k(   20) = (  -0.0776703  -0.0448430   0.0000000), wk =   0.0555556

     Dense  grid:   727599 G-vectors     FFT dimensions: (  75,  75, 300)

     Smooth grid:   184247 G-vectors     FFT dimensions: (  48,  48, 192)

     Largest allocated arrays     est. size (Mb)     dimensions
        Kohn-Sham Wavefunctions         3.51 Mb     (    2914,   79)
        NL pseudopotentials            10.49 Mb     (    2914,  236)
        Each V/rho on FFT grid          3.26 Mb     (  213750)
        Each G-vector array             0.69 Mb     (   90950)
        G-vector shells                 0.18 Mb     (   23259)
     Largest temporary arrays     est. size (Mb)     dimensions
        Auxiliary wavefunctions        14.05 Mb     (    2914,  316)
        Each subspace H/S matrix        1.52 Mb     (     316,  316)
        Each <psi_i|beta_j> matrix      0.28 Mb     (     236,   79)
        Arrays for rho mixing          32.62 Mb     (  213750,   10)

     Initial potential from superposition of free atoms
     Check: negative starting charge=   -0.000216

     starting charge  138.97113, renormalised to  139.00000

     negative rho (up, down):  2.163E-04 0.000E+00


     ************************************************************************
     *
     * You are using vdW-DF for exchange-correlation in this calculation.
     * Please cite the following three references that made this development
     * possible:
     *
     *   M. Dion, H. Rydberg, E. Schroder, D. C. Langreth, and
     *   B. I. Lundqvist, Phys. Rev. Lett. 92, 246401 (2004).
     *
     *   T. Thonhauser, V. R. Cooper, S. Li, A. Puzder, P. Hyldgaard, and
     *   D. C. Langreth, Phys. Rev. B 76, 125112 (2007).
     *
     *   G. Roman-Perez and J. M. Soler, Phys. Rev. Lett. 103, 096102 (2009).
     *
     *
     * If you are using vdW-DF2, please also cite:
     *
     *   K. Lee, E. D. Murray, L. Kong, B. I. Lundqvist, and
     *   D. C. Langreth, Phys. Rev. B 82, 081101(R) (2010).
     *
     *
     * If you are calculating the stress with vdW-DF, please also cite:
     *
     *   R. Sabatini, E. Kucukbenli, B. Kolb, T. Thonhauser, and
     *   S. de Gironcoli, J. Phys.: Condens. Matter 24, 424209 (2012).
     *
     ************************************************************************

     Carrying out vdW-DF run using the following parameters:

     Nqs =      20    Nr_points =    1024   r_max =   100.000
     q_mesh =
               0.00001000     0.04494208     0.09755937     0.15916263
               0.23128650     0.31572767     0.41458969     0.53033537
               0.66584808     0.82450364     1.01025438     1.22772762
               1.48234092     1.78043706     2.12944203     2.53805004
               3.01644009     3.57652955     4.23227104     5.00000000

     Gradients computed in reciprocal space

     ************************************************************************


 
     Adding external electric field

     Computed dipole along edir(3) : 
        Dipole               -0.0137 Ry au,         -0.0348 Debye
        Dipole field         -0.0000 Ry au
 
        Potential amp.        0.0026 Ry
        Total length         46.5341 bohr
 
     Starting wfc are  161 randomized atomic wfcs

     total cpu time spent up to now is       16.6 secs

     per-process dynamical memory:   100.2 Mb

     Self-consistent Calculation

     iteration #  1     ecut=    36.75 Ry     beta=0.30
     Davidson diagonalization with overlap
     ethr =  1.00E-02,  avg # of iterations =  2.0

     negative rho (up, down):  1.152E-04 0.000E+00
 
     Adding external electric field

     Computed dipole along edir(3) : 
        Dipole               -1.6140 Ry au,         -4.1024 Debye
        Dipole field         -0.0033 Ry au
 
        Potential amp.        0.3086 Ry
        Total length         46.5341 bohr
 

     total cpu time spent up to now is       37.5 secs

     total energy              =   -1160.85255354 Ry
     Harris-Foulkes estimate   =   -1163.85804678 Ry
     estimated scf accuracy    <       6.33003232 Ry

     iteration #  2     ecut=    36.75 Ry     beta=0.30
     Davidson diagonalization with overlap
     ethr =  4.55E-03,  avg # of iterations =  8.3

     negative rho (up, down):  3.932E-04 0.000E+00
 
     Adding external electric field

     Computed dipole along edir(3) : 
        Dipole                3.2765 Ry au,          8.3280 Debye
        Dipole field          0.0067 Ry au
 
        Potential amp.       -0.6265 Ry
        Total length         46.5341 bohr
 

     total cpu time spent up to now is       65.4 secs

     total energy              =   -1156.37182206 Ry
     Harris-Foulkes estimate   =   -1169.73750825 Ry
     estimated scf accuracy    <     231.53243391 Ry

     iteration #  3     ecut=    36.75 Ry     beta=0.30
     Davidson diagonalization with overlap
     ethr =  4.55E-03,  avg # of iterations = 10.4

     negative rho (up, down):  1.241E-04 0.000E+00
 
     Adding external electric field

     Computed dipole along edir(3) : 
        Dipole               -0.0860 Ry au,         -0.2185 Debye
        Dipole field         -0.0002 Ry au
 
        Potential amp.        0.0164 Ry
        Total length         46.5341 bohr
 

     total cpu time spent up to now is       97.2 secs

     total energy              =   -1159.10415020 Ry
     Harris-Foulkes estimate   =   -1172.28674163 Ry
     estimated scf accuracy    <     343.06639527 Ry

     iteration #  4     ecut=    36.75 Ry     beta=0.30
     Davidson diagonalization with overlap
     ethr =  4.55E-03,  avg # of iterations =  9.9

     negative rho (up, down):  1.004E-04 0.000E+00
 
     Adding external electric field

     Computed dipole along edir(3) : 
        Dipole                0.0334 Ry au,          0.0849 Debye
        Dipole field          0.0001 Ry au
 
        Potential amp.       -0.0064 Ry
        Total length         46.5341 bohr
 

     total cpu time spent up to now is      127.8 secs

     total energy              =   -1163.31960954 Ry
     Harris-Foulkes estimate   =   -1163.41100269 Ry
     estimated scf accuracy    <       4.96334049 Ry

     iteration #  5     ecut=    36.75 Ry     beta=0.30
     Davidson diagonalization with overlap
     ethr =  3.57E-03,  avg # of iterations =  1.5

     negative rho (up, down):  1.191E-04 0.000E+00
 
     Adding external electric field

     Computed dipole along edir(3) : 
        Dipole                0.0047 Ry au,          0.0119 Debye
        Dipole field          0.0000 Ry au
 
        Potential amp.       -0.0009 Ry
        Total length         46.5341 bohr
 

     total cpu time spent up to now is      148.6 secs

     total energy              =   -1163.25755142 Ry
     Harris-Foulkes estimate   =   -1163.35070161 Ry
     estimated scf accuracy    <       2.03177633 Ry

     iteration #  6     ecut=    36.75 Ry     beta=0.30
     Davidson diagonalization with overlap
     ethr =  1.46E-03,  avg # of iterations =  4.3

     negative rho (up, down):  1.064E-04 0.000E+00
 
     Adding external electric field

     Computed dipole along edir(3) : 
        Dipole                0.1016 Ry au,          0.2583 Debye
        Dipole field          0.0002 Ry au
 
        Potential amp.       -0.0194 Ry
        Total length         46.5341 bohr
 

     total cpu time spent up to now is      170.9 secs

     total energy              =   -1163.27862886 Ry
     Harris-Foulkes estimate   =   -1163.30158059 Ry
     estimated scf accuracy    <       0.47559613 Ry

     iteration #  7     ecut=    36.75 Ry     beta=0.30
     Davidson diagonalization with overlap
     ethr =  3.42E-04,  avg # of iterations = 10.6

     negative rho (up, down):  6.220E-05 0.000E+00
 
     Adding external electric field

     Computed dipole along edir(3) : 
        Dipole                0.1622 Ry au,          0.4124 Debye
        Dipole field          0.0003 Ry au
 
        Potential amp.       -0.0310 Ry
        Total length         46.5341 bohr
 

     total cpu time spent up to now is      198.9 secs

     total energy              =   -1163.32792914 Ry
     Harris-Foulkes estimate   =   -1163.33309568 Ry
     estimated scf accuracy    <       0.06316979 Ry

     iteration #  8     ecut=    36.75 Ry     beta=0.30
     Davidson diagonalization with overlap
     ethr =  4.54E-05,  avg # of iterations =  7.7

     negative rho (up, down):  4.935E-05 0.000E+00
 
     Adding external electric field

     Computed dipole along edir(3) : 
        Dipole                0.1551 Ry au,          0.3943 Debye
        Dipole field          0.0003 Ry au
 
        Potential amp.       -0.0297 Ry
        Total length         46.5341 bohr
 

     total cpu time spent up to now is      225.3 secs

     total energy              =   -1163.33400619 Ry
     Harris-Foulkes estimate   =   -1163.33516005 Ry
     estimated scf accuracy    <       0.02460014 Ry

     iteration #  9     ecut=    36.75 Ry     beta=0.30
     Davidson diagonalization with overlap
     ethr =  1.77E-05,  avg # of iterations =  7.0

     negative rho (up, down):  7.722E-05 0.000E+00
 
     Adding external electric field

     Computed dipole along edir(3) : 
        Dipole                0.1859 Ry au,          0.4725 Debye
        Dipole field          0.0004 Ry au
 
        Potential amp.       -0.0355 Ry
        Total length         46.5341 bohr
 

     total cpu time spent up to now is      250.8 secs

     total energy              =   -1163.33263650 Ry
     Harris-Foulkes estimate   =   -1163.33541391 Ry
     estimated scf accuracy    <       0.06445210 Ry

     iteration # 10     ecut=    36.75 Ry     beta=0.30
     Davidson diagonalization with overlap
     ethr =  1.77E-05,  avg # of iterations =  6.3

     negative rho (up, down):  7.834E-05 0.000E+00
 
     Adding external electric field

     Computed dipole along edir(3) : 
        Dipole                0.2136 Ry au,          0.5430 Debye
        Dipole field          0.0004 Ry au
 
        Potential amp.       -0.0408 Ry
        Total length         46.5341 bohr
 

     total cpu time spent up to now is      274.4 secs

     total energy              =   -1163.33401612 Ry
     Harris-Foulkes estimate   =   -1163.33428419 Ry
     estimated scf accuracy    <       0.00969870 Ry

     iteration # 11     ecut=    36.75 Ry     beta=0.30
     Davidson diagonalization with overlap
     ethr =  6.98E-06,  avg # of iterations =  7.2

     negative rho (up, down):  9.016E-05 0.000E+00
 
     Adding external electric field

     Computed dipole along edir(3) : 
        Dipole                0.2331 Ry au,          0.5926 Debye
        Dipole field          0.0005 Ry au
 
        Potential amp.       -0.0446 Ry
        Total length         46.5341 bohr
 

     total cpu time spent up to now is      298.2 secs

     total energy              =   -1163.33442376 Ry
     Harris-Foulkes estimate   =   -1163.33440441 Ry
     estimated scf accuracy    <       0.00084826 Ry

     iteration # 12     ecut=    36.75 Ry     beta=0.30
     Davidson diagonalization with overlap
     ethr =  6.10E-07,  avg # of iterations = 10.2

     negative rho (up, down):  9.454E-05 0.000E+00
 
     Adding external electric field

     Computed dipole along edir(3) : 
        Dipole                0.2279 Ry au,          0.5793 Debye
        Dipole field          0.0005 Ry au
 
        Potential amp.       -0.0436 Ry
        Total length         46.5341 bohr
 

     total cpu time spent up to now is      329.2 secs

     total energy              =   -1163.33470775 Ry
     Harris-Foulkes estimate   =   -1163.33474758 Ry
     estimated scf accuracy    <       0.00082664 Ry

     iteration # 13     ecut=    36.75 Ry     beta=0.30
     Davidson diagonalization with overlap
     ethr =  5.95E-07,  avg # of iterations =  3.9

     negative rho (up, down):  9.379E-05 0.000E+00
 
     Adding external electric field

     Computed dipole along edir(3) : 
        Dipole                0.2197 Ry au,          0.5584 Debye
        Dipole field          0.0005 Ry au
 
        Potential amp.       -0.0420 Ry
        Total length         46.5341 bohr
 

     total cpu time spent up to now is      351.0 secs

     total energy              =   -1163.33471723 Ry
     Harris-Foulkes estimate   =   -1163.33474848 Ry
     estimated scf accuracy    <       0.00028887 Ry

     iteration # 14     ecut=    36.75 Ry     beta=0.30
     Davidson diagonalization with overlap
     ethr =  2.08E-07,  avg # of iterations =  7.0

     negative rho (up, down):  9.456E-05 0.000E+00
 
     Adding external electric field

     Computed dipole along edir(3) : 
        Dipole                0.2207 Ry au,          0.5609 Debye
        Dipole field          0.0005 Ry au
 
        Potential amp.       -0.0422 Ry
        Total length         46.5341 bohr
 

     total cpu time spent up to now is      377.3 secs

     total energy              =   -1163.33474714 Ry
     Harris-Foulkes estimate   =   -1163.33475361 Ry
     estimated scf accuracy    <       0.00007407 Ry

     iteration # 15     ecut=    36.75 Ry     beta=0.30
     Davidson diagonalization with overlap
     ethr =  5.33E-08,  avg # of iterations =  6.5

     negative rho (up, down):  9.590E-05 0.000E+00
 
     Adding external electric field

     Computed dipole along edir(3) : 
        Dipole                0.2224 Ry au,          0.5653 Debye
        Dipole field          0.0005 Ry au
 
        Potential amp.       -0.0425 Ry
        Total length         46.5341 bohr
 

     total cpu time spent up to now is      402.2 secs

     total energy              =   -1163.33474945 Ry
     Harris-Foulkes estimate   =   -1163.33475415 Ry
     estimated scf accuracy    <       0.00012815 Ry

     iteration # 16     ecut=    36.75 Ry     beta=0.30
     Davidson diagonalization with overlap
     ethr =  5.33E-08,  avg # of iterations =  5.3

     negative rho (up, down):  1.010E-04 0.000E+00
 
     Adding external electric field

     Computed dipole along edir(3) : 
        Dipole                0.2223 Ry au,          0.5650 Debye
        Dipole field          0.0005 Ry au
 
        Potential amp.       -0.0425 Ry
        Total length         46.5341 bohr
 

     total cpu time spent up to now is      426.7 secs

     total energy              =   -1163.33475940 Ry
     Harris-Foulkes estimate   =   -1163.33475797 Ry
     estimated scf accuracy    <       0.00007928 Ry

     iteration # 17     ecut=    36.75 Ry     beta=0.30
     Davidson diagonalization with overlap
     ethr =  5.33E-08,  avg # of iterations =  3.5

     negative rho (up, down):  9.995E-05 0.000E+00
 
     Adding external electric field

     Computed dipole along edir(3) : 
        Dipole                0.2228 Ry au,          0.5663 Debye
        Dipole field          0.0005 Ry au
 
        Potential amp.       -0.0426 Ry
        Total length         46.5341 bohr
 

     total cpu time spent up to now is      448.5 secs

     total energy              =   -1163.33476169 Ry
     Harris-Foulkes estimate   =   -1163.33476249 Ry
     estimated scf accuracy    <       0.00002336 Ry

     iteration # 18     ecut=    36.75 Ry     beta=0.30
     Davidson diagonalization with overlap
     ethr =  1.68E-08,  avg # of iterations =  4.8

     negative rho (up, down):  9.753E-05 0.000E+00

     negative rho (up, down):  9.753E-05 0.000E+00

     negative rho (up, down):  9.753E-05 0.000E+00

     negative rho (up, down):  9.753E-05 0.000E+00

     negative rho (up, down):  9.753E-05 0.000E+00

     negative rho (up, down):  9.753E-05 0.000E+00

     negative rho (up, down):  9.753E-05 0.000E+00

     negative rho (up, down):  9.753E-05 0.000E+00

     negative rho (up, down):  9.753E-05 0.000E+00

     negative rho (up, down):  9.753E-05 0.000E+00

     negative rho (up, down):  9.753E-05 0.000E+00

     negative rho (up, down):  9.753E-05 0.000E+00

     negative rho (up, down):  9.753E-05 0.000E+00

     negative rho (up, down):  9.753E-05 0.000E+00

     negative rho (up, down):  9.753E-05 0.000E+00

     negative rho (up, down):  9.753E-05 0.000E+00

     negative rho (up, down):  9.753E-05 0.000E+00

     negative rho (up, down):  9.753E-05 0.000E+00

     negative rho (up, down):  9.753E-05 0.000E+00

     negative rho (up, down):  9.753E-05 0.000E+00

     negative rho (up, down):  9.753E-05 0.000E+00

     negative rho (up, down):  9.753E-05 0.000E+00

     negative rho (up, down):  9.753E-05 0.000E+00

     negative rho (up, down):  9.753E-05 0.000E+00

     negative rho (up, down):  9.753E-05 0.000E+00

     negative rho (up, down):  9.753E-05 0.000E+00

     negative rho (up, down):  9.753E-05 0.000E+00

     negative rho (up, down):  9.753E-05 0.000E+00

     negative rho (up, down):  9.753E-05 0.000E+00

     negative rho (up, down):  9.753E-05 0.000E+00

     negative rho (up, down):  9.753E-05 0.000E+00

     negative rho (up, down):  9.753E-05 0.000E+00

     negative rho (up, down):  9.753E-05 0.000E+00

     negative rho (up, down):  9.753E-05 0.000E+00

     negative rho (up, down):  9.753E-05 0.000E+00
 
     Adding external electric field

     Computed dipole along edir(3) : 
        Dipole                0.2136 Ry au,          0.5429 Debye
        Dipole field          0.0004 Ry au
 
        Potential amp.       -0.0408 Ry
        Total length         46.5341 bohr
 

     total cpu time spent up to now is      533.0 secs

     End of self-consistent calculation

          k = 0.0000 0.0000 0.0000 ( 23031 PWs)   bands (ev):

   -49.0637 -49.0283 -49.0275 -49.0136 -48.9688 -48.9679 -48.9661 -48.7845
   -48.5751 -48.5312 -48.5305 -48.5299 -27.7853 -27.7420 -27.7417 -27.7375
   -27.7368 -27.7363 -27.7236 -27.7233 -27.7218 -27.6908 -27.6360 -27.6357
   -27.6350 -27.5393 -27.5217 -27.4678 -27.4657 -27.4652 -27.4416 -27.4410
   -27.3876 -27.3876 -27.3153 -27.3151 -27.2960 -27.2920 -27.2917 -27.1403
   -27.1175 -27.1129 -27.1123 -27.0590 -27.0586 -27.0517 -26.9797 -26.9797
   -13.7129  -6.4093  -3.7732  -2.6757  -2.4360  -2.4360  -1.4157  -0.5561
    -0.5561  -0.5531  -0.4504  -0.4504  -0.4408  -0.2031  -0.2030  -0.1701
     0.3542   0.3633   0.3634   0.6116   0.6982   0.6983   1.0263   1.2808
     1.4287   1.4861   1.5591   1.5592   1.6326   1.8839   1.8840

          k = 0.0000 0.0299 0.0000 ( 23008 PWs)   bands (ev):

   -49.0614 -49.0302 -49.0278 -49.0105 -48.9711 -48.9679 -48.9668 -48.7847
   -48.5722 -48.5337 -48.5305 -48.5304 -27.7817 -27.7402 -27.7373 -27.7296
   -27.7275 -27.7182 -27.7112 -27.7102 -27.7013 -27.6872 -27.6388 -27.6353
   -27.6349 -27.5471 -27.5217 -27.4802 -27.4787 -27.4610 -27.4584 -27.4435
   -27.4112 -27.3929 -27.3300 -27.3183 -27.2844 -27.2811 -27.2740 -27.1376
   -27.1176 -27.1126 -27.1122 -27.0710 -27.0675 -27.0507 -27.0020 -26.9848
   -13.7125  -6.4045  -3.6209  -2.6239  -2.4452  -2.3698  -1.2535  -0.9444
    -0.5839  -0.5779  -0.5315  -0.3797  -0.3670  -0.0290  -0.0090   0.0207
     0.3994   0.4224   0.4290   0.6660   0.7422   0.7670   1.0337   1.2696
     1.3598   1.4373   1.4895   1.4915   1.5729   1.8378   1.8484

          k = 0.0000 0.0598 0.0000 ( 22962 PWs)   bands (ev):

   -49.0556 -49.0356 -49.0278 -49.0021 -48.9793 -48.9680 -48.9671 -48.7852
   -48.5640 -48.5418 -48.5305 -48.5305 -27.7725 -27.7459 -27.7359 -27.7086
   -27.6948 -27.6817 -27.6808 -27.6773 -27.6646 -27.6480 -27.6403 -27.6345
   -27.6339 -27.5717 -27.5230 -27.5121 -27.5095 -27.5054 -27.4743 -27.4472
   -27.4454 -27.4073 -27.3624 -27.3256 -27.2576 -27.2537 -27.2199 -27.1319
   -27.1191 -27.1130 -27.1112 -27.1002 -27.0972 -27.0619 -27.0374 -26.9987
   -13.7118  -6.3952  -3.1886  -2.6176  -2.4632  -2.0063  -1.6699  -0.8544
    -0.8200  -0.5949  -0.5790  -0.1775  -0.1707   0.0852   0.3515   0.3888
     0.5472   0.5827   0.5927   0.7863   0.8511   0.9388   0.9630   1.1998
     1.2539   1.2756   1.2828   1.3151   1.5257   1.5949   1.6303

          k = 0.0000-0.0897 0.0000 ( 23032 PWs)   bands (ev):

   -49.0507 -49.0402 -49.0278 -48.9910 -48.9904 -48.9680 -48.9671 -48.7854
   -48.5530 -48.5528 -48.5305 -48.5305 -27.7650 -27.7517 -27.7353 -27.6970
   -27.6698 -27.6648 -27.6632 -27.6613 -27.6593 -27.6345 -27.6332 -27.6061
   -27.5942 -27.5616 -27.5593 -27.5543 -27.5341 -27.5335 -27.5186 -27.4462
   -27.4273 -27.4267 -27.3798 -27.3295 -27.2391 -27.2346 -27.1448 -27.1409
   -27.1283 -27.1218 -27.1206 -27.1177 -27.1105 -27.1104 -27.0216 -27.0147
   -13.7114  -6.3906  -2.7619  -2.4719  -2.4611  -2.3854  -1.4356  -1.4140
    -0.5875  -0.5845  -0.2923  -0.2294  -0.0442  -0.0324   0.6512   0.6714
     0.6771   0.7023   0.7542   0.7931   0.9063   0.9932   0.9938   1.0443
     1.0780   1.1668   1.2149   1.3796   1.3823   1.3936   1.4646

          k = 0.0259-0.0149 0.0000 ( 23008 PWs)   bands (ev):

   -49.0614 -49.0303 -49.0276 -49.0105 -48.9708 -48.9687 -48.9664 -48.7847
   -48.5722 -48.5337 -48.5308 -48.5302 -27.7817 -27.7403 -27.7372 -27.7295
   -27.7276 -27.7182 -27.7109 -27.7106 -27.7012 -27.6872 -27.6388 -27.6356
   -27.6347 -27.5471 -27.5217 -27.4805 -27.4783 -27.4610 -27.4585 -27.4434
   -27.4111 -27.3929 -27.3300 -27.3184 -27.2843 -27.2812 -27.2740 -27.1376
   -27.1175 -27.1130 -27.1119 -27.0712 -27.0673 -27.0507 -27.0019 -26.9849
   -13.7125  -6.4045  -3.6209  -2.6239  -2.4453  -2.3698  -1.2535  -0.9444
    -0.5839  -0.5779  -0.5315  -0.3797  -0.3670  -0.0291  -0.0090   0.0207
     0.3994   0.4224   0.4290   0.6660   0.7423   0.7670   1.0337   1.2696
     1.3599   1.4373   1.4896   1.4914   1.5729   1.8378   1.8485

          k = 0.0259 0.0149 0.0000 ( 23008 PWs)   bands (ev):

   -49.0614 -49.0296 -49.0283 -49.0105 -48.9711 -48.9681 -48.9667 -48.7847
   -48.5722 -48.5336 -48.5311 -48.5299 -27.7817 -27.7397 -27.7378 -27.7300
   -27.7272 -27.7181 -27.7110 -27.7103 -27.7013 -27.6872 -27.6389 -27.6351
   -27.6351 -27.5471 -27.5217 -27.4803 -27.4786 -27.4610 -27.4579 -27.4440
   -27.4111 -27.3929 -27.3301 -27.3182 -27.2842 -27.2813 -27.2740 -27.1376
   -27.1174 -27.1133 -27.1117 -27.0713 -27.0671 -27.0507 -27.0019 -26.9849
   -13.7125  -6.4045  -3.6209  -2.6239  -2.4452  -2.3698  -1.2535  -0.9444
    -0.5839  -0.5779  -0.5315  -0.3797  -0.3670  -0.0291  -0.0090   0.0207
     0.3994   0.4224   0.4290   0.6660   0.7423   0.7670   1.0337   1.2696
     1.3599   1.4373   1.4895   1.4915   1.5729   1.8378   1.8484

          k = 0.0259 0.0448 0.0000 ( 23004 PWs)   bands (ev):

   -49.0574 -49.0334 -49.0282 -49.0048 -48.9745 -48.9723 -48.9648 -48.7850
   -48.5666 -48.5365 -48.5358 -48.5279 -27.7753 -27.7434 -27.7367 -27.7128
   -27.7031 -27.6953 -27.6838 -27.6803 -27.6734 -27.6704 -27.6419 -27.6403
   -27.6313 -27.5654 -27.5237 -27.5186 -27.4860 -27.4686 -27.4670 -27.4533
   -27.4497 -27.4040 -27.3509 -27.3261 -27.2689 -27.2493 -27.2457 -27.1335
   -27.1178 -27.1143 -27.1106 -27.1074 -27.0603 -27.0551 -27.0417 -26.9956
   -13.7120  -6.3975  -3.3274  -2.6063  -2.4718  -2.1295  -1.2009  -1.1846
    -0.9455  -0.5740  -0.5368  -0.2007  -0.0893   0.1523   0.1842   0.2190
     0.5010   0.5117   0.5653   0.7584   0.8353   0.8765   0.9962   1.2349
     1.2639   1.3012   1.3092   1.4405   1.5344   1.6547   1.6893

          k = 0.0259-0.1046 0.0000 ( 23012 PWs)   bands (ev):

   -49.0511 -49.0395 -49.0281 -48.9949 -48.9835 -48.9748 -48.9633 -48.7854
   -48.5570 -48.5459 -48.5376 -48.5264 -27.7656 -27.7505 -27.7359 -27.6884
   -27.6723 -27.6680 -27.6634 -27.6555 -27.6469 -27.6380 -27.6289 -27.6205
   -27.6040 -27.6005 -27.5679 -27.5365 -27.5262 -27.5187 -27.4863 -27.4545
   -27.4476 -27.4242 -27.3694 -27.3364 -27.2403 -27.2187 -27.1846 -27.1521
   -27.1287 -27.1196 -27.1146 -27.1095 -27.1085 -27.0753 -27.0383 -27.0149
   -13.7114  -6.3907  -2.8250  -2.5608  -2.5042  -1.9645  -1.6323  -1.3067
    -1.0234  -0.5152  -0.4285  -0.0003   0.0727   0.2020   0.4637   0.4915
     0.6754   0.6960   0.7189   0.8610   0.9056   0.9695   1.0328   1.0792
     1.1710   1.2106   1.2376   1.2626   1.3884   1.4237   1.4497

          k = 0.0259-0.0747 0.0000 ( 23012 PWs)   bands (ev):

   -49.0509 -49.0399 -49.0280 -48.9949 -48.9834 -48.9748 -48.9633 -48.7854
   -48.5570 -48.5459 -48.5376 -48.5264 -27.7655 -27.7508 -27.7358 -27.6885
   -27.6722 -27.6679 -27.6633 -27.6554 -27.6469 -27.6380 -27.6288 -27.6205
   -27.6040 -27.6009 -27.5679 -27.5364 -27.5261 -27.5188 -27.4863 -27.4543
   -27.4476 -27.4242 -27.3694 -27.3364 -27.2404 -27.2187 -27.1846 -27.1520
   -27.1287 -27.1196 -27.1146 -27.1095 -27.1086 -27.0753 -27.0383 -27.0149
   -13.7114  -6.3907  -2.8249  -2.5608  -2.5042  -1.9645  -1.6323  -1.3067
    -1.0234  -0.5152  -0.4285  -0.0003   0.0727   0.2020   0.4637   0.4915
     0.6754   0.6960   0.7189   0.8610   0.9057   0.9694   1.0328   1.0792
     1.1710   1.2105   1.2377   1.2625   1.3884   1.4237   1.4497

          k = 0.0259-0.0448 0.0000 ( 23004 PWs)   bands (ev):

   -49.0573 -49.0341 -49.0277 -49.0048 -48.9740 -48.9729 -48.9648 -48.7850
   -48.5666 -48.5368 -48.5355 -48.5279 -27.7752 -27.7440 -27.7362 -27.7129
   -27.7028 -27.6953 -27.6840 -27.6803 -27.6734 -27.6704 -27.6414 -27.6408
   -27.6312 -27.5654 -27.5238 -27.5186 -27.4864 -27.4684 -27.4672 -27.4533
   -27.4492 -27.4040 -27.3508 -27.3262 -27.2689 -27.2492 -27.2458 -27.1335
   -27.1180 -27.1140 -27.1107 -27.1074 -27.0604 -27.0551 -27.0417 -26.9956
   -13.7120  -6.3975  -3.3274  -2.6062  -2.4718  -2.1295  -1.2009  -1.1846
    -0.9455  -0.5740  -0.5368  -0.2007  -0.0893   0.1523   0.1842   0.2190
     0.5010   0.5117   0.5653   0.7584   0.8353   0.8765   0.9962   1.2349
     1.2639   1.3012   1.3092   1.4405   1.5344   1.6548   1.6893

          k = 0.0518-0.0299 0.0000 ( 22962 PWs)   bands (ev):

   -49.0555 -49.0357 -49.0277 -49.0022 -48.9791 -48.9687 -48.9664 -48.7852
   -48.5641 -48.5418 -48.5308 -48.5302 -27.7724 -27.7460 -27.7358 -27.7085
   -27.6948 -27.6822 -27.6804 -27.6774 -27.6645 -27.6479 -27.6403 -27.6352
   -27.6333 -27.5716 -27.5230 -27.5127 -27.5090 -27.5056 -27.4743 -27.4472
   -27.4454 -27.4073 -27.3624 -27.3256 -27.2573 -27.2539 -27.2199 -27.1320
   -27.1189 -27.1134 -27.1108 -27.1005 -27.0970 -27.0619 -27.0374 -26.9988
   -13.7118  -6.3952  -3.1886  -2.6176  -2.4632  -2.0063  -1.6699  -0.8544
    -0.8200  -0.5949  -0.5790  -0.1775  -0.1706   0.0852   0.3514   0.3888
     0.5472   0.5827   0.5927   0.7863   0.8511   0.9388   0.9629   1.1998
     1.2539   1.2758   1.2826   1.3151   1.5258   1.5949   1.6304

          k = 0.0518 0.0000 0.0000 ( 23004 PWs)   bands (ev):

   -49.0574 -49.0336 -49.0281 -49.0048 -48.9738 -48.9731 -48.9647 -48.7850
   -48.5666 -48.5362 -48.5361 -48.5279 -27.7752 -27.7436 -27.7366 -27.7129
   -27.7030 -27.6953 -27.6838 -27.6802 -27.6735 -27.6703 -27.6412 -27.6410
   -27.6312 -27.5654 -27.5238 -27.5186 -27.4861 -27.4683 -27.4673 -27.4532
   -27.4496 -27.4040 -27.3509 -27.3261 -27.2689 -27.2494 -27.2457 -27.1335
   -27.1177 -27.1145 -27.1105 -27.1075 -27.0601 -27.0552 -27.0417 -26.9956
   -13.7120  -6.3975  -3.3274  -2.6062  -2.4718  -2.1295  -1.2009  -1.1846
    -0.9455  -0.5740  -0.5368  -0.2007  -0.0893   0.1523   0.1842   0.2191
     0.5010   0.5117   0.5653   0.7584   0.8354   0.8765   0.9962   1.2349
     1.2639   1.3012   1.3092   1.4406   1.5344   1.6547   1.6894

          k = 0.0518 0.0299 0.0000 ( 22962 PWs)   bands (ev):

   -49.0557 -49.0349 -49.0283 -49.0021 -48.9792 -48.9682 -48.9669 -48.7852
   -48.5641 -48.5417 -48.5311 -48.5299 -27.7726 -27.7452 -27.7364 -27.7090
   -27.6943 -27.6819 -27.6806 -27.6773 -27.6645 -27.6480 -27.6403 -27.6347
   -27.6337 -27.5718 -27.5230 -27.5123 -27.5093 -27.5049 -27.4743 -27.4474
   -27.4457 -27.4073 -27.3624 -27.3254 -27.2572 -27.2541 -27.2199 -27.1320
   -27.1187 -27.1138 -27.1106 -27.1007 -27.0968 -27.0619 -27.0374 -26.9988
   -13.7118  -6.3952  -3.1886  -2.6177  -2.4632  -2.0063  -1.6699  -0.8544
    -0.8200  -0.5949  -0.5790  -0.1775  -0.1706   0.0852   0.3514   0.3888
     0.5472   0.5827   0.5927   0.7863   0.8511   0.9388   0.9630   1.1997
     1.2539   1.2756   1.2828   1.3150   1.5258   1.5950   1.6303

          k = 0.0518-0.1196 0.0000 ( 23012 PWs)   bands (ev):

   -49.0513 -49.0390 -49.0284 -48.9949 -48.9835 -48.9748 -48.9633 -48.7854
   -48.5570 -48.5458 -48.5377 -48.5264 -27.7658 -27.7500 -27.7362 -27.6889
   -27.6719 -27.6679 -27.6633 -27.6554 -27.6469 -27.6380 -27.6288 -27.6205
   -27.6040 -27.6009 -27.5679 -27.5361 -27.5261 -27.5187 -27.4863 -27.4548
   -27.4476 -27.4242 -27.3695 -27.3362 -27.2403 -27.2187 -27.1846 -27.1521
   -27.1288 -27.1192 -27.1150 -27.1093 -27.1086 -27.0753 -27.0381 -27.0150
   -13.7114  -6.3907  -2.8250  -2.5608  -2.5042  -1.9645  -1.6323  -1.3067
    -1.0234  -0.5152  -0.4285  -0.0003   0.0727   0.2020   0.4637   0.4915
     0.6754   0.6960   0.7189   0.8610   0.9056   0.9695   1.0328   1.0792
     1.1710   1.2106   1.2377   1.2625   1.3884   1.4237   1.4498

          k = 0.0518-0.0897 0.0000 ( 23028 PWs)   bands (ev):

   -49.0455 -49.0448 -49.0284 -48.9860 -48.9852 -48.9835 -48.9618 -48.7855
   -48.5481 -48.5473 -48.5466 -48.5249 -27.7578 -27.7571 -27.7361 -27.6641
   -27.6577 -27.6552 -27.6516 -27.6512 -27.6449 -27.6251 -27.6249 -27.6204
   -27.5873 -27.5858 -27.5845 -27.5742 -27.5727 -27.5209 -27.4624 -27.4543
   -27.4538 -27.4534 -27.3574 -27.3552 -27.2036 -27.2030 -27.1687 -27.1673
   -27.1619 -27.1269 -27.1181 -27.1170 -27.1085 -27.0499 -27.0411 -27.0407
   -13.7112  -6.3885  -2.6133  -2.6120  -2.0635  -2.0627  -2.0537  -1.0975
    -1.0918  -1.0375   0.0869   0.0896   0.0979   0.3759   0.3762   0.4000
     0.7684   0.8022   0.8134   0.8973   0.9104   1.0490   1.0553   1.0882
     1.1367   1.1588   1.1753   1.2468   1.3316   1.3511   1.3684

          k = 0.0518-0.0598 0.0000 ( 23012 PWs)   bands (ev):

   -49.0508 -49.0400 -49.0279 -48.9949 -48.9833 -48.9750 -48.9633 -48.7854
   -48.5570 -48.5459 -48.5376 -48.5264 -27.7654 -27.7509 -27.7357 -27.6884
   -27.6723 -27.6680 -27.6634 -27.6553 -27.6470 -27.6381 -27.6288 -27.6205
   -27.6040 -27.6008 -27.5679 -27.5365 -27.5262 -27.5187 -27.4863 -27.4542
   -27.4476 -27.4242 -27.3694 -27.3364 -27.2403 -27.2187 -27.1846 -27.1520
   -27.1287 -27.1195 -27.1148 -27.1094 -27.1086 -27.0753 -27.0382 -27.0149
   -13.7114  -6.3907  -2.8249  -2.5608  -2.5043  -1.9645  -1.6323  -1.3067
    -1.0234  -0.5152  -0.4285  -0.0003   0.0727   0.2020   0.4637   0.4915
     0.6754   0.6960   0.7189   0.8610   0.9056   0.9695   1.0328   1.0792
     1.1710   1.2105   1.2376   1.2625   1.3884   1.4237   1.4497

          k =-0.0777 0.0448 0.0000 ( 23032 PWs)   bands (ev):

   -49.0506 -49.0405 -49.0277 -48.9917 -48.9896 -48.9687 -48.9665 -48.7854
   -48.5533 -48.5525 -48.5308 -48.5302 -27.7649 -27.7519 -27.7352 -27.6969
   -27.6697 -27.6654 -27.6625 -27.6619 -27.6589 -27.6351 -27.6326 -27.6060
   -27.5940 -27.5622 -27.5585 -27.5546 -27.5343 -27.5333 -27.5186 -27.4461
   -27.4274 -27.4266 -27.3798 -27.3295 -27.2388 -27.2349 -27.1452 -27.1407
   -27.1284 -27.1220 -27.1204 -27.1174 -27.1109 -27.1102 -27.0214 -27.0150
   -13.7114  -6.3906  -2.7619  -2.4719  -2.4611  -2.3854  -1.4357  -1.4139
    -0.5875  -0.5845  -0.2924  -0.2294  -0.0443  -0.0323   0.6513   0.6713
     0.6773   0.7022   0.7542   0.7932   0.9062   0.9932   0.9938   1.0446
     1.0778   1.1669   1.2149   1.3797   1.3823   1.3936   1.4645

          k =-0.0777 0.0747 0.0000 ( 23012 PWs)   bands (ev):

   -49.0510 -49.0398 -49.0280 -48.9950 -48.9833 -48.9750 -48.9633 -48.7854
   -48.5570 -48.5458 -48.5376 -48.5264 -27.7655 -27.7507 -27.7358 -27.6884
   -27.6725 -27.6680 -27.6635 -27.6552 -27.6470 -27.6381 -27.6288 -27.6205
   -27.6040 -27.6005 -27.5679 -27.5366 -27.5261 -27.5187 -27.4863 -27.4544
   -27.4476 -27.4243 -27.3694 -27.3364 -27.2403 -27.2187 -27.1846 -27.1522
   -27.1288 -27.1193 -27.1149 -27.1094 -27.1085 -27.0753 -27.0382 -27.0149
   -13.7114  -6.3907  -2.8249  -2.5608  -2.5043  -1.9645  -1.6323  -1.3067
    -1.0234  -0.5152  -0.4285  -0.0003   0.0727   0.2020   0.4637   0.4915
     0.6754   0.6960   0.7189   0.8610   0.9056   0.9695   1.0328   1.0792
     1.1710   1.2104   1.2377   1.2626   1.3885   1.4236   1.4496

          k =-0.0777 0.1046 0.0000 ( 23012 PWs)   bands (ev):

   -49.0513 -49.0391 -49.0284 -48.9949 -48.9834 -48.9749 -48.9633 -48.7854
   -48.5570 -48.5458 -48.5377 -48.5264 -27.7658 -27.7501 -27.7362 -27.6889
   -27.6719 -27.6679 -27.6633 -27.6553 -27.6470 -27.6381 -27.6288 -27.6205
   -27.6040 -27.6009 -27.5679 -27.5361 -27.5261 -27.5188 -27.4863 -27.4547
   -27.4476 -27.4243 -27.3695 -27.3362 -27.2402 -27.2187 -27.1846 -27.1522
   -27.1288 -27.1191 -27.1151 -27.1093 -27.1085 -27.0753 -27.0381 -27.0150
   -13.7114  -6.3907  -2.8250  -2.5608  -2.5042  -1.9645  -1.6323  -1.3067
    -1.0234  -0.5152  -0.4285  -0.0003   0.0727   0.2020   0.4637   0.4915
     0.6754   0.6960   0.7190   0.8610   0.9057   0.9695   1.0328   1.0793
     1.1710   1.2104   1.2378   1.2626   1.3885   1.4237   1.4497

          k =-0.0777-0.0448 0.0000 ( 23032 PWs)   bands (ev):

   -49.0512 -49.0392 -49.0283 -48.9913 -48.9901 -48.9682 -48.9669 -48.7854
   -48.5536 -48.5522 -48.5311 -48.5299 -27.7655 -27.7507 -27.7358 -27.6975
   -27.6692 -27.6650 -27.6630 -27.6615 -27.6589 -27.6347 -27.6330 -27.6065
   -27.5946 -27.5616 -27.5590 -27.5536 -27.5338 -27.5338 -27.5186 -27.4467
   -27.4271 -27.4270 -27.3799 -27.3293 -27.2386 -27.2352 -27.1455 -27.1404
   -27.1285 -27.1222 -27.1202 -27.1172 -27.1112 -27.1099 -27.0211 -27.0153
   -13.7114  -6.3906  -2.7619  -2.4719  -2.4610  -2.3854  -1.4356  -1.4140
    -0.5875  -0.5845  -0.2923  -0.2295  -0.0443  -0.0323   0.6512   0.6713
     0.6773   0.7022   0.7542   0.7931   0.9062   0.9932   0.9938   1.0445
     1.0779   1.1669   1.2149   1.3797   1.3824   1.3937   1.4644

     the Fermi energy is     0.9360 ev

!    total energy              =   -1163.33475974 Ry
     Harris-Foulkes estimate   =   -1163.33477153 Ry
     estimated scf accuracy    <       0.00000385 Ry

     The total energy is the sum of the following terms:

     one-electron contribution =   -7273.83396682 Ry
     hartree contribution      =    3622.84543067 Ry
     xc contribution           =    -176.03520251 Ry
     ewald contribution        =    2663.81871068 Ry
     electric field correction =       0.00009372 Ry
     smearing contrib. (-TS)   =      -0.12982547 Ry

     convergence has been achieved in  18 iterations
 
 BEEF-vdW xc energy contributions
           1 :   -149.131020908870     
           2 :    131.081252976483     
           3 :   -102.916900528417     
           4 :    75.4186266652452     
           5 :   -56.1803185899682     
           6 :    46.6406071269754     
           7 :   -43.3321545880307     
           8 :    41.5678406085092     
           9 :   -38.6285419928357     
          10 :    34.5961233832016     
          11 :   -31.0185795195254     
          12 :    28.9823649000299     
          13 :   -28.1712388119135     
          14 :    27.3884398189437     
          15 :   -25.7842293381798     
          16 :    23.5866358679430     
          17 :   -21.7507496948573     
          18 :    20.9773590883498     
          19 :   -21.0629062850621     
          20 :    21.1304403948653     
          21 :   -20.4420765126463     
          22 :    19.0144623953293     
          23 :   -17.5230947691535     
          24 :    16.6543416445317     
          25 :   -16.5204810833311     
          26 :    16.6307548216068     
          27 :   -16.3829034049825     
          28 :    15.5926786019603     
          29 :   -14.5968782261728     
          30 :    13.8876272895308     
          31 :   -17.6487300135194     
          32 :   -12.6000246124443     

     Forces acting on atoms (Ry/au):


     negative rho (up, down):  9.753E-05 0.000E+00
     atom    1 type  1   force =    -0.00017611   -0.00009337    0.00112097
     atom    2 type  1   force =     0.00017474   -0.00007761    0.00103677
     atom    3 type  1   force =     0.00002366    0.00018718    0.00112619
     atom    4 type  1   force =    -0.00001222   -0.00001142    0.00049829
     atom    5 type  1   force =    -0.00002134    0.00200362    0.00308782
     atom    6 type  1   force =     0.00001937   -0.00002503    0.00473868
     atom    7 type  1   force =    -0.00175653   -0.00097432    0.00308120
     atom    8 type  1   force =     0.00175093   -0.00100142    0.00312988
     atom    9 type  1   force =    -0.00001222    0.00001527   -0.02261001
     atom   10 type  1   force =     0.00001269   -0.00256992   -0.00442137
     atom   11 type  1   force =    -0.00223384    0.00128455   -0.00443208
     atom   12 type  1   force =     0.00223155    0.00126513   -0.00432710
     atom   13 type  2   force =    -0.00000158   -0.00000139   -0.10080472
     atom   14 type  3   force =     0.00000089   -0.00000127    0.11877546

     Total force =     0.157665     Total SCF correction =     0.002956


     entering subroutine stress ...


     negative rho (up, down):  9.753E-05 0.000E+00
          total   stress  (Ry/bohr**3)                   (kbar)     P=    4.03
   0.00002300  -0.00000001   0.00000000          3.38     -0.00      0.00
  -0.00000001   0.00002300  -0.00000000         -0.00      3.38     -0.00
   0.00000000  -0.00000000   0.00003609          0.00     -0.00      5.31


     BFGS Geometry Optimization

     number of scf cycles    =   1
     number of bfgs steps    =   0

     energy   new            =   -1163.3347597384 Ry

     new trust radius        =       0.1187754624 bohr
     new conv_thr            =       0.0000099958 Ry


ATOMIC_POSITIONS (crystal)
Sc1      0.166666667   0.166666667   0.395942884    0   0   0
Sc1      0.666666667   0.166666667   0.395942884    0   0   0
Sc1      0.166666667   0.666666667   0.395942884    0   0   0
Sc1      0.666666667   0.666666667   0.395942884    0   0   0
Sc1      0.833333333   0.333333333   0.500000000    0   0   0
Sc1      0.333333333   0.333333333   0.500000000    0   0   0
Sc1      0.833333333   0.833333333   0.500000000    0   0   0
Sc1      0.333333333   0.833333333   0.500000000    0   0   0
Sc1     -0.000001729   0.000001449   0.603583382
Sc1      0.500123011  -0.000243935   0.603964477
Sc1     -0.000244592   0.500121929   0.603964253
Sc1      0.500123397   0.500120086   0.603966453
S1      -0.000000064  -0.000000132   0.694496665
H1       0.000000133  -0.000000121   0.748590256



     Writing output data file calc.save
     Check: negative starting charge=   -0.000216
     NEW-OLD atomic charge density approx. for the potential
     Check: negative starting charge=   -0.000216

     negative rho (up, down):  9.925E-05 0.000E+00
 
     Adding external electric field

     Computed dipole along edir(3) : 
        Dipole                0.2135 Ry au,          0.5427 Debye
        Dipole field          0.0004 Ry au
 
        Potential amp.       -0.0408 Ry
        Total length         46.5341 bohr
 

     total cpu time spent up to now is      620.9 secs

     per-process dynamical memory:    89.1 Mb

     Self-consistent Calculation

     iteration #  1     ecut=    36.75 Ry     beta=0.30
     Davidson diagonalization with overlap
     ethr =  1.00E-06,  avg # of iterations = 13.7

     negative rho (up, down):  9.838E-05 0.000E+00
 
     Adding external electric field

     Computed dipole along edir(3) : 
        Dipole                0.3948 Ry au,          1.0035 Debye
        Dipole field          0.0008 Ry au
 
        Potential amp.       -0.0755 Ry
        Total length         46.5341 bohr
 

     total cpu time spent up to now is      654.5 secs

     total energy              =   -1163.33972617 Ry
     Harris-Foulkes estimate   =   -1163.34386750 Ry
     estimated scf accuracy    <       0.01029272 Ry

     iteration #  2     ecut=    36.75 Ry     beta=0.30
     Davidson diagonalization with overlap
     ethr =  7.40E-06,  avg # of iterations =  7.9

     negative rho (up, down):  1.080E-04 0.000E+00
 
     Adding external electric field

     Computed dipole along edir(3) : 
        Dipole                0.2467 Ry au,          0.6271 Debye
        Dipole field          0.0005 Ry au
 
        Potential amp.       -0.0472 Ry
        Total length         46.5341 bohr
 

     total cpu time spent up to now is      683.6 secs

     total energy              =   -1163.33231653 Ry
     Harris-Foulkes estimate   =   -1163.34695949 Ry
     estimated scf accuracy    <       0.34782585 Ry

     iteration #  3     ecut=    36.75 Ry     beta=0.30
     Davidson diagonalization with overlap
     ethr =  7.40E-06,  avg # of iterations =  9.2

     negative rho (up, down):  1.074E-04 0.000E+00
 
     Adding external electric field

     Computed dipole along edir(3) : 
        Dipole                0.2934 Ry au,          0.7457 Debye
        Dipole field          0.0006 Ry au
 
        Potential amp.       -0.0561 Ry
        Total length         46.5341 bohr
 

     total cpu time spent up to now is      713.2 secs

     total energy              =   -1163.33506846 Ry
     Harris-Foulkes estimate   =   -1163.34759787 Ry
     estimated scf accuracy    <       0.52911270 Ry

     iteration #  4     ecut=    36.75 Ry     beta=0.30
     Davidson diagonalization with overlap
     ethr =  7.40E-06,  avg # of iterations =  7.7

     negative rho (up, down):  1.062E-04 0.000E+00
 
     Adding external electric field

     Computed dipole along edir(3) : 
        Dipole                0.2650 Ry au,          0.6736 Debye
        Dipole field          0.0005 Ry au
 
        Potential amp.       -0.0507 Ry
        Total length         46.5341 bohr
 

     total cpu time spent up to now is      742.4 secs

     total energy              =   -1163.34053707 Ry
     Harris-Foulkes estimate   =   -1163.34351074 Ry
     estimated scf accuracy    <       0.03246534 Ry

     iteration #  5     ecut=    36.75 Ry     beta=0.30
     Davidson diagonalization with overlap
     ethr =  7.40E-06,  avg # of iterations =  6.7

     negative rho (up, down):  1.018E-04 0.000E+00
 
     Adding external electric field

     Computed dipole along edir(3) : 
        Dipole                0.2600 Ry au,          0.6609 Debye
        Dipole field          0.0005 Ry au
 
        Potential amp.       -0.0497 Ry
        Total length         46.5341 bohr
 

     total cpu time spent up to now is      769.1 secs

     total energy              =   -1163.34192076 Ry
     Harris-Foulkes estimate   =   -1163.34220420 Ry
     estimated scf accuracy    <       0.00150753 Ry

     iteration #  6     ecut=    36.75 Ry     beta=0.30
     Davidson diagonalization with overlap
     ethr =  1.08E-06,  avg # of iterations =  7.6

     negative rho (up, down):  9.731E-05 0.000E+00
 
     Adding external electric field

     Computed dipole along edir(3) : 
        Dipole                0.2638 Ry au,          0.6705 Debye
        Dipole field          0.0005 Ry au
 
        Potential amp.       -0.0504 Ry
        Total length         46.5341 bohr
 

     total cpu time spent up to now is      797.1 secs

     total energy              =   -1163.34207229 Ry
     Harris-Foulkes estimate   =   -1163.34213269 Ry
     estimated scf accuracy    <       0.00037566 Ry

     iteration #  7     ecut=    36.75 Ry     beta=0.30
     Davidson diagonalization with overlap
     ethr =  2.70E-07,  avg # of iterations =  5.0

     negative rho (up, down):  9.499E-05 0.000E+00
 
     Adding external electric field

     Computed dipole along edir(3) : 
        Dipole                0.2596 Ry au,          0.6597 Debye
        Dipole field          0.0005 Ry au
 
        Potential amp.       -0.0496 Ry
        Total length         46.5341 bohr
 

     total cpu time spent up to now is      823.2 secs

     total energy              =   -1163.34211353 Ry
     Harris-Foulkes estimate   =   -1163.34211813 Ry
     estimated scf accuracy    <       0.00006383 Ry

     iteration #  8     ecut=    36.75 Ry     beta=0.30
     Davidson diagonalization with overlap
     ethr =  4.59E-08,  avg # of iterations =  7.9

     negative rho (up, down):  9.492E-05 0.000E+00
 
     Adding external electric field

     Computed dipole along edir(3) : 
        Dipole                0.2580 Ry au,          0.6559 Debye
        Dipole field          0.0005 Ry au
 
        Potential amp.       -0.0493 Ry
        Total length         46.5341 bohr
 

     total cpu time spent up to now is      852.5 secs

     total energy              =   -1163.34211973 Ry
     Harris-Foulkes estimate   =   -1163.34212573 Ry
     estimated scf accuracy    <       0.00003573 Ry

     iteration #  9     ecut=    36.75 Ry     beta=0.30
     Davidson diagonalization with overlap
     ethr =  2.57E-08,  avg # of iterations =  7.2

     negative rho (up, down):  9.501E-05 0.000E+00
 
     Adding external electric field

     Computed dipole along edir(3) : 
        Dipole                0.2576 Ry au,          0.6547 Debye
        Dipole field          0.0005 Ry au
 
        Potential amp.       -0.0492 Ry
        Total length         46.5341 bohr
 

     total cpu time spent up to now is      880.3 secs

     total energy              =   -1163.34212302 Ry
     Harris-Foulkes estimate   =   -1163.34212541 Ry
     estimated scf accuracy    <       0.00001646 Ry

     iteration # 10     ecut=    36.75 Ry     beta=0.30
     Davidson diagonalization with overlap
     ethr =  1.18E-08,  avg # of iterations =  5.8

     negative rho (up, down):  9.535E-05 0.000E+00

     negative rho (up, down):  9.535E-05 0.000E+00

     negative rho (up, down):  9.535E-05 0.000E+00

     negative rho (up, down):  9.535E-05 0.000E+00

     negative rho (up, down):  9.535E-05 0.000E+00

     negative rho (up, down):  9.535E-05 0.000E+00

     negative rho (up, down):  9.535E-05 0.000E+00

     negative rho (up, down):  9.535E-05 0.000E+00

     negative rho (up, down):  9.535E-05 0.000E+00

     negative rho (up, down):  9.535E-05 0.000E+00

     negative rho (up, down):  9.535E-05 0.000E+00

     negative rho (up, down):  9.535E-05 0.000E+00

     negative rho (up, down):  9.535E-05 0.000E+00

     negative rho (up, down):  9.535E-05 0.000E+00

     negative rho (up, down):  9.535E-05 0.000E+00

     negative rho (up, down):  9.535E-05 0.000E+00

     negative rho (up, down):  9.535E-05 0.000E+00

     negative rho (up, down):  9.535E-05 0.000E+00

     negative rho (up, down):  9.535E-05 0.000E+00

     negative rho (up, down):  9.535E-05 0.000E+00

     negative rho (up, down):  9.535E-05 0.000E+00

     negative rho (up, down):  9.535E-05 0.000E+00

     negative rho (up, down):  9.535E-05 0.000E+00

     negative rho (up, down):  9.535E-05 0.000E+00

     negative rho (up, down):  9.535E-05 0.000E+00

     negative rho (up, down):  9.535E-05 0.000E+00

     negative rho (up, down):  9.535E-05 0.000E+00

     negative rho (up, down):  9.535E-05 0.000E+00

     negative rho (up, down):  9.535E-05 0.000E+00

     negative rho (up, down):  9.535E-05 0.000E+00

     negative rho (up, down):  9.535E-05 0.000E+00

     negative rho (up, down):  9.535E-05 0.000E+00

     negative rho (up, down):  9.535E-05 0.000E+00

     negative rho (up, down):  9.535E-05 0.000E+00

     negative rho (up, down):  9.535E-05 0.000E+00
 
     Adding external electric field

     Computed dipole along edir(3) : 
        Dipole                0.2568 Ry au,          0.6528 Debye
        Dipole field          0.0005 Ry au
 
        Potential amp.       -0.0491 Ry
        Total length         46.5341 bohr
 

     total cpu time spent up to now is      968.0 secs

     End of self-consistent calculation

          k = 0.0000 0.0000 0.0000 ( 23031 PWs)   bands (ev):

   -49.0261 -48.9912 -48.9898 -48.9772 -48.9325 -48.9324 -48.9284 -48.7000
   -48.5352 -48.4920 -48.4901 -48.4898 -27.7482 -27.7025 -27.7020 -27.6997
   -27.6981 -27.6979 -27.6858 -27.6855 -27.6853 -27.6540 -27.5993 -27.5991
   -27.5979 -27.5026 -27.4642 -27.4319 -27.4288 -27.4287 -27.4019 -27.4008
   -27.3511 -27.3511 -27.2564 -27.2563 -27.2544 -27.2367 -27.2366 -27.1004
   -27.0775 -27.0717 -27.0713 -27.0191 -27.0189 -27.0118 -26.9401 -26.9401
   -13.3417  -6.2145  -3.7346  -2.6371  -2.4993  -2.4993  -1.3795  -0.5191
    -0.5191  -0.5162  -0.4136  -0.4135  -0.4030  -0.1653  -0.1652  -0.1310
     0.3880   0.4014   0.4015   0.6471   0.7398   0.7400   1.0631   1.3082
     1.4637   1.5150   1.5959   1.5960   1.6478   1.9382   1.9382

          k = 0.0000 0.0299 0.0000 ( 23008 PWs)   bands (ev):

   -49.0238 -48.9931 -48.9900 -48.9741 -48.9349 -48.9324 -48.9291 -48.7002
   -48.5322 -48.4940 -48.4909 -48.4900 -27.7446 -27.7035 -27.6998 -27.6897
   -27.6867 -27.6793 -27.6736 -27.6734 -27.6643 -27.6504 -27.6022 -27.5990
   -27.5976 -27.5103 -27.4642 -27.4442 -27.4416 -27.4245 -27.4193 -27.4035
   -27.3747 -27.3564 -27.2568 -27.2488 -27.2419 -27.2365 -27.2329 -27.0977
   -27.0773 -27.0717 -27.0709 -27.0313 -27.0274 -27.0108 -26.9623 -26.9452
   -13.3413  -6.2096  -3.5831  -2.6382  -2.5085  -2.3780  -1.2172  -0.9073
    -0.5470  -0.5410  -0.4938  -0.3426  -0.3292   0.0087   0.0293   0.0596
     0.4355   0.4587   0.4671   0.7013   0.7834   0.8074   1.0704   1.3010
     1.3946   1.4724   1.5257   1.5267   1.5896   1.8871   1.8976

          k = 0.0000 0.0598 0.0000 ( 22962 PWs)   bands (ev):

   -49.0180 -48.9986 -48.9900 -48.9658 -48.9429 -48.9324 -48.9295 -48.7006
   -48.5241 -48.5019 -48.4911 -48.4900 -27.7354 -27.7093 -27.6986 -27.6699
   -27.6542 -27.6457 -27.6427 -27.6406 -27.6263 -27.6108 -27.6038 -27.5986
   -27.5963 -27.5345 -27.4763 -27.4752 -27.4677 -27.4620 -27.4374 -27.4104
   -27.4066 -27.3709 -27.2840 -27.2506 -27.2162 -27.2141 -27.1800 -27.0924
   -27.0782 -27.0727 -27.0697 -27.0603 -27.0571 -27.0222 -26.9976 -26.9591
   -13.3403  -6.2002  -3.1557  -2.6634  -2.5262  -1.9750  -1.6330  -0.8158
    -0.7828  -0.5580  -0.5416  -0.1398  -0.1330   0.1242   0.3890   0.4273
     0.5845   0.6188   0.6307   0.8212   0.8913   0.9767   0.9997   1.2327
     1.2902   1.3129   1.3191   1.3517   1.5553   1.6356   1.6696

          k = 0.0000-0.0897 0.0000 ( 23032 PWs)   bands (ev):

   -49.0130 -49.0034 -48.9901 -48.9554 -48.9532 -48.9324 -48.9296 -48.7008
   -48.5138 -48.5122 -48.4912 -48.4900 -27.7277 -27.7153 -27.6980 -27.6593
   -27.6300 -27.6288 -27.6261 -27.6254 -27.6200 -27.5985 -27.5956 -27.5682
   -27.5569 -27.5256 -27.5218 -27.5167 -27.4980 -27.4956 -27.4615 -27.4077
   -27.3912 -27.3900 -27.2994 -27.2539 -27.1978 -27.1955 -27.1053 -27.1007
   -27.0894 -27.0826 -27.0791 -27.0774 -27.0695 -27.0691 -26.9813 -26.9756
   -13.3399  -6.1957  -2.7968  -2.5349  -2.4225  -2.3697  -1.3963  -1.3769
    -0.5506  -0.5479  -0.2561  -0.1874  -0.0063   0.0051   0.6866   0.7078
     0.7141   0.7398   0.7920   0.8318   0.9404   1.0284   1.0317   1.0834
     1.1126   1.2049   1.2552   1.4153   1.4203   1.4324   1.4936

          k = 0.0259-0.0149 0.0000 ( 23008 PWs)   bands (ev):

   -49.0238 -48.9930 -48.9901 -48.9741 -48.9349 -48.9324 -48.9291 -48.7002
   -48.5322 -48.4940 -48.4908 -48.4901 -27.7446 -27.7033 -27.7000 -27.6899
   -27.6866 -27.6793 -27.6736 -27.6733 -27.6643 -27.6504 -27.6022 -27.5990
   -27.5976 -27.5103 -27.4642 -27.4442 -27.4417 -27.4245 -27.4191 -27.4037
   -27.3747 -27.3564 -27.2568 -27.2488 -27.2419 -27.2365 -27.2329 -27.0977
   -27.0773 -27.0717 -27.0709 -27.0312 -27.0275 -27.0108 -26.9623 -26.9452
   -13.3413  -6.2096  -3.5831  -2.6382  -2.5085  -2.3780  -1.2172  -0.9073
    -0.5470  -0.5410  -0.4938  -0.3426  -0.3292   0.0087   0.0293   0.0596
     0.4355   0.4587   0.4671   0.7013   0.7835   0.8073   1.0704   1.3010
     1.3946   1.4724   1.5257   1.5267   1.5895   1.8871   1.8976

          k = 0.0259 0.0149 0.0000 ( 23008 PWs)   bands (ev):

   -49.0239 -48.9919 -48.9912 -48.9741 -48.9349 -48.9325 -48.9290 -48.7002
   -48.5322 -48.4939 -48.4912 -48.4898 -27.7446 -27.7023 -27.7010 -27.6905
   -27.6861 -27.6793 -27.6737 -27.6731 -27.6643 -27.6504 -27.6022 -27.5991
   -27.5975 -27.5103 -27.4642 -27.4443 -27.4416 -27.4245 -27.4183 -27.4045
   -27.3747 -27.3564 -27.2569 -27.2488 -27.2418 -27.2365 -27.2329 -27.0977
   -27.0773 -27.0720 -27.0707 -27.0314 -27.0273 -27.0108 -26.9623 -26.9452
   -13.3413  -6.2096  -3.5831  -2.6383  -2.5084  -2.3780  -1.2172  -0.9073
    -0.5469  -0.5411  -0.4938  -0.3426  -0.3292   0.0086   0.0294   0.0596
     0.4354   0.4588   0.4670   0.7013   0.7836   0.8073   1.0704   1.3010
     1.3946   1.4724   1.5258   1.5267   1.5895   1.8870   1.8976

          k = 0.0259 0.0448 0.0000 ( 23004 PWs)   bands (ev):

   -49.0199 -48.9961 -48.9907 -48.9684 -48.9382 -48.9360 -48.9280 -48.7005
   -48.5267 -48.4969 -48.4956 -48.4879 -27.7382 -27.7065 -27.6996 -27.6731
   -27.6635 -27.6583 -27.6453 -27.6433 -27.6367 -27.6328 -27.6052 -27.6036
   -27.5943 -27.5282 -27.4846 -27.4635 -27.4477 -27.4321 -27.4305 -27.4166
   -27.4102 -27.3676 -27.2737 -27.2517 -27.2276 -27.2090 -27.2057 -27.0938
   -27.0773 -27.0736 -27.0695 -27.0671 -27.0204 -27.0153 -27.0021 -26.9560
   -13.3406  -6.2026  -3.2918  -2.6503  -2.5344  -2.1040  -1.1644  -1.1471
    -0.9081  -0.5363  -0.4980  -0.1642  -0.0519   0.1900   0.2228   0.2582
     0.5370   0.5499   0.6021   0.7942   0.8749   0.9154   1.0329   1.2673
     1.3000   1.3378   1.3453   1.4767   1.5611   1.6898   1.7382

          k = 0.0259-0.1046 0.0000 ( 23012 PWs)   bands (ev):

   -49.0135 -49.0025 -48.9905 -48.9586 -48.9471 -48.9384 -48.9266 -48.7008
   -48.5171 -48.5059 -48.4977 -48.4865 -27.7285 -27.7139 -27.6987 -27.6501
   -27.6342 -27.6308 -27.6262 -27.6185 -27.6102 -27.6015 -27.5919 -27.5813
   -27.5675 -27.5625 -27.5314 -27.4983 -27.4878 -27.4630 -27.4492 -27.4155
   -27.4111 -27.3878 -27.2905 -27.2605 -27.1999 -27.1787 -27.1447 -27.1123
   -27.0896 -27.0782 -27.0738 -27.0689 -27.0679 -27.0355 -26.9984 -26.9753
   -13.3399  -6.1957  -2.8260  -2.5890  -2.5533  -1.9290  -1.5956  -1.2695
    -0.9842  -0.4765  -0.3897   0.0362   0.1122   0.2389   0.5009   0.5294
     0.7114   0.7336   0.7567   0.8978   0.9416   1.0083   1.0685   1.1167
     1.2064   1.2482   1.2757   1.2995   1.4245   1.4630   1.4870

          k = 0.0259-0.0747 0.0000 ( 23012 PWs)   bands (ev):

   -49.0133 -49.0029 -48.9903 -48.9586 -48.9471 -48.9384 -48.9266 -48.7008
   -48.5171 -48.5060 -48.4976 -48.4865 -27.7283 -27.7143 -27.6985 -27.6502
   -27.6340 -27.6307 -27.6261 -27.6186 -27.6102 -27.6015 -27.5919 -27.5813
   -27.5674 -27.5630 -27.5314 -27.4982 -27.4878 -27.4630 -27.4492 -27.4154
   -27.4111 -27.3878 -27.2905 -27.2605 -27.1999 -27.1787 -27.1447 -27.1122
   -27.0896 -27.0783 -27.0738 -27.0688 -27.0679 -27.0355 -26.9984 -26.9753
   -13.3399  -6.1957  -2.8260  -2.5890  -2.5532  -1.9290  -1.5956  -1.2695
    -0.9842  -0.4765  -0.3897   0.0362   0.1122   0.2389   0.5009   0.5294
     0.7114   0.7337   0.7568   0.8978   0.9416   1.0083   1.0685   1.1167
     1.2064   1.2483   1.2757   1.2994   1.4245   1.4632   1.4870

          k = 0.0259-0.0448 0.0000 ( 23004 PWs)   bands (ev):

   -49.0197 -48.9970 -48.9900 -48.9684 -48.9383 -48.9359 -48.9280 -48.7005
   -48.5267 -48.4972 -48.4953 -48.4879 -27.7381 -27.7073 -27.6989 -27.6731
   -27.6631 -27.6583 -27.6455 -27.6434 -27.6366 -27.6330 -27.6053 -27.6035
   -27.5944 -27.5282 -27.4846 -27.4635 -27.4481 -27.4321 -27.4305 -27.4166
   -27.4096 -27.3676 -27.2737 -27.2518 -27.2277 -27.2089 -27.2058 -27.0938
   -27.0774 -27.0734 -27.0696 -27.0671 -27.0205 -27.0152 -27.0021 -26.9560
   -13.3406  -6.2026  -3.2918  -2.6502  -2.5345  -2.1040  -1.1645  -1.1470
    -0.9081  -0.5364  -0.4980  -0.1642  -0.0518   0.1900   0.2228   0.2581
     0.5370   0.5499   0.6021   0.7943   0.8749   0.9155   1.0329   1.2673
     1.3000   1.3379   1.3453   1.4765   1.5610   1.6899   1.7382

          k = 0.0518-0.0299 0.0000 ( 22962 PWs)   bands (ev):

   -49.0181 -48.9983 -48.9902 -48.9658 -48.9429 -48.9324 -48.9295 -48.7006
   -48.5241 -48.5019 -48.4911 -48.4901 -27.7354 -27.7090 -27.6988 -27.6701
   -27.6540 -27.6458 -27.6426 -27.6406 -27.6263 -27.6108 -27.6038 -27.5986
   -27.5963 -27.5346 -27.4763 -27.4752 -27.4675 -27.4620 -27.4374 -27.4104
   -27.4069 -27.3709 -27.2840 -27.2506 -27.2162 -27.2140 -27.1800 -27.0924
   -27.0782 -27.0726 -27.0698 -27.0602 -27.0571 -27.0222 -26.9976 -26.9591
   -13.3403  -6.2002  -3.1557  -2.6634  -2.5262  -1.9750  -1.6330  -0.8158
    -0.7828  -0.5580  -0.5416  -0.1398  -0.1330   0.1242   0.3890   0.4273
     0.5845   0.6188   0.6307   0.8212   0.8913   0.9767   0.9997   1.2327
     1.2902   1.3129   1.3191   1.3517   1.5553   1.6356   1.6697

          k = 0.0518 0.0000 0.0000 ( 23004 PWs)   bands (ev):

   -49.0199 -48.9959 -48.9909 -48.9684 -48.9382 -48.9360 -48.9280 -48.7005
   -48.5267 -48.4969 -48.4956 -48.4879 -27.7383 -27.7063 -27.6998 -27.6730
   -27.6637 -27.6583 -27.6452 -27.6433 -27.6367 -27.6328 -27.6052 -27.6037
   -27.5943 -27.5282 -27.4846 -27.4635 -27.4475 -27.4321 -27.4305 -27.4166
   -27.4104 -27.3676 -27.2738 -27.2516 -27.2276 -27.2090 -27.2057 -27.0938
   -27.0773 -27.0736 -27.0695 -27.0671 -27.0204 -27.0153 -27.0021 -26.9560
   -13.3406  -6.2026  -3.2918  -2.6503  -2.5344  -2.1040  -1.1644  -1.1471
    -0.9081  -0.5363  -0.4980  -0.1642  -0.0519   0.1899   0.2228   0.2582
     0.5370   0.5499   0.6021   0.7942   0.8750   0.9154   1.0329   1.2673
     1.3000   1.3378   1.3453   1.4767   1.5611   1.6898   1.7382

          k = 0.0518 0.0299 0.0000 ( 22962 PWs)   bands (ev):

   -49.0184 -48.9970 -48.9912 -48.9658 -48.9429 -48.9325 -48.9294 -48.7006
   -48.5241 -48.5018 -48.4914 -48.4898 -27.7357 -27.7078 -27.6997 -27.6709
   -27.6533 -27.6459 -27.6423 -27.6406 -27.6263 -27.6108 -27.6038 -27.5987
   -27.5962 -27.5348 -27.4764 -27.4752 -27.4666 -27.4619 -27.4374 -27.4105
   -27.4076 -27.3709 -27.2841 -27.2504 -27.2160 -27.2143 -27.1800 -27.0924
   -27.0780 -27.0731 -27.0695 -27.0604 -27.0570 -27.0222 -26.9976 -26.9592
   -13.3403  -6.2002  -3.1557  -2.6634  -2.5262  -1.9750  -1.6330  -0.8158
    -0.7828  -0.5580  -0.5416  -0.1398  -0.1330   0.1242   0.3889   0.4274
     0.5845   0.6188   0.6307   0.8211   0.8914   0.9767   0.9997   1.2326
     1.2902   1.3129   1.3191   1.3516   1.5554   1.6356   1.6695

          k = 0.0518-0.1196 0.0000 ( 23012 PWs)   bands (ev):

   -49.0140 -49.0013 -48.9911 -48.9586 -48.9470 -48.9384 -48.9266 -48.7008
   -48.5172 -48.5059 -48.4977 -48.4864 -27.7290 -27.7128 -27.6993 -27.6511
   -27.6337 -27.6305 -27.6258 -27.6185 -27.6102 -27.6015 -27.5919 -27.5813
   -27.5674 -27.5633 -27.5314 -27.4974 -27.4877 -27.4630 -27.4492 -27.4162
   -27.4111 -27.3878 -27.2905 -27.2603 -27.1999 -27.1788 -27.1447 -27.1123
   -27.0896 -27.0780 -27.0740 -27.0688 -27.0679 -27.0355 -26.9984 -26.9753
   -13.3399  -6.1957  -2.8260  -2.5890  -2.5532  -1.9290  -1.5955  -1.2695
    -0.9842  -0.4764  -0.3897   0.0362   0.1122   0.2389   0.5008   0.5294
     0.7114   0.7336   0.7568   0.8978   0.9416   1.0083   1.0685   1.1167
     1.2063   1.2482   1.2758   1.2994   1.4246   1.4631   1.4872

          k = 0.0518-0.0897 0.0000 ( 23028 PWs)   bands (ev):

   -49.0084 -49.0071 -48.9908 -48.9498 -48.9497 -48.9461 -48.9252 -48.7009
   -48.5090 -48.5069 -48.5064 -48.4850 -27.7212 -27.7198 -27.6991 -27.6276
   -27.6215 -27.6177 -27.6151 -27.6128 -27.6060 -27.5883 -27.5883 -27.5839
   -27.5512 -27.5486 -27.5477 -27.5341 -27.5335 -27.4627 -27.4239 -27.4176
   -27.4174 -27.4169 -27.2803 -27.2774 -27.1635 -27.1628 -27.1291 -27.1275
   -27.1219 -27.0881 -27.0763 -27.0757 -27.0675 -27.0097 -27.0015 -27.0013
   -13.3396  -6.1935  -2.6678  -2.6667  -2.0319  -2.0308  -2.0145  -1.0592
    -1.0532  -0.9965   0.1230   0.1305   0.1392   0.4119   0.4128   0.4369
     0.8016   0.8409   0.8528   0.9326   0.9480   1.0838   1.0935   1.1259
     1.1764   1.1952   1.2139   1.2775   1.3677   1.3879   1.4114

          k = 0.0518-0.0598 0.0000 ( 23012 PWs)   bands (ev):

   -49.0134 -49.0027 -48.9904 -48.9586 -48.9471 -48.9384 -48.9266 -48.7008
   -48.5171 -48.5060 -48.4976 -48.4865 -27.7284 -27.7141 -27.6986 -27.6504
   -27.6339 -27.6307 -27.6261 -27.6185 -27.6102 -27.6015 -27.5919 -27.5813
   -27.5674 -27.5632 -27.5314 -27.4980 -27.4878 -27.4630 -27.4492 -27.4155
   -27.4111 -27.3878 -27.2905 -27.2604 -27.1999 -27.1787 -27.1447 -27.1122
   -27.0896 -27.0783 -27.0737 -27.0689 -27.0679 -27.0355 -26.9984 -26.9753
   -13.3399  -6.1957  -2.8260  -2.5890  -2.5532  -1.9290  -1.5956  -1.2695
    -0.9842  -0.4764  -0.3897   0.0362   0.1122   0.2389   0.5009   0.5294
     0.7114   0.7337   0.7568   0.8978   0.9416   1.0083   1.0685   1.1167
     1.2064   1.2483   1.2757   1.2994   1.4245   1.4632   1.4870

          k =-0.0777 0.0448 0.0000 ( 23032 PWs)   bands (ev):

   -49.0133 -49.0029 -48.9903 -48.9554 -48.9532 -48.9324 -48.9296 -48.7008
   -48.5137 -48.5123 -48.4911 -48.4901 -27.7280 -27.7148 -27.6982 -27.6595
   -27.6298 -27.6288 -27.6260 -27.6254 -27.6198 -27.5985 -27.5956 -27.5684
   -27.5571 -27.5255 -27.5218 -27.5163 -27.4979 -27.4956 -27.4615 -27.4079
   -27.3912 -27.3900 -27.2994 -27.2538 -27.1979 -27.1954 -27.1053 -27.1008
   -27.0894 -27.0826 -27.0791 -27.0774 -27.0694 -27.0692 -26.9814 -26.9755
   -13.3399  -6.1957  -2.7968  -2.5349  -2.4225  -2.3697  -1.3962  -1.3769
    -0.5506  -0.5479  -0.2561  -0.1874  -0.0062   0.0051   0.6865   0.7078
     0.7141   0.7398   0.7920   0.8318   0.9404   1.0284   1.0317   1.0835
     1.1125   1.2049   1.2552   1.4153   1.4203   1.4324   1.4937

          k =-0.0777 0.0747 0.0000 ( 23012 PWs)   bands (ev):

   -49.0137 -49.0021 -48.9907 -48.9586 -48.9471 -48.9384 -48.9266 -48.7008
   -48.5171 -48.5059 -48.4977 -48.4865 -27.7287 -27.7135 -27.6989 -27.6502
   -27.6341 -27.6308 -27.6262 -27.6185 -27.6102 -27.6015 -27.5919 -27.5813
   -27.5675 -27.5625 -27.5314 -27.4981 -27.4878 -27.4630 -27.4492 -27.4157
   -27.4111 -27.3878 -27.2905 -27.2604 -27.1999 -27.1787 -27.1447 -27.1123
   -27.0896 -27.0782 -27.0738 -27.0689 -27.0679 -27.0355 -26.9984 -26.9753
   -13.3399  -6.1957  -2.8260  -2.5890  -2.5532  -1.9290  -1.5956  -1.2695
    -0.9842  -0.4765  -0.3897   0.0362   0.1122   0.2389   0.5009   0.5294
     0.7114   0.7336   0.7567   0.8979   0.9416   1.0083   1.0685   1.1167
     1.2064   1.2482   1.2757   1.2995   1.4246   1.4630   1.4870

          k =-0.0777 0.1046 0.0000 ( 23012 PWs)   bands (ev):

   -49.0141 -49.0012 -48.9912 -48.9586 -48.9470 -48.9384 -48.9266 -48.7008
   -48.5172 -48.5059 -48.4977 -48.4864 -27.7290 -27.7126 -27.6994 -27.6511
   -27.6337 -27.6306 -27.6258 -27.6185 -27.6102 -27.6015 -27.5919 -27.5813
   -27.5674 -27.5632 -27.5314 -27.4974 -27.4878 -27.4630 -27.4492 -27.4162
   -27.4111 -27.3878 -27.2905 -27.2603 -27.1999 -27.1788 -27.1447 -27.1123
   -27.0896 -27.0780 -27.0740 -27.0688 -27.0679 -27.0355 -26.9984 -26.9753
   -13.3399  -6.1957  -2.8260  -2.5890  -2.5532  -1.9290  -1.5955  -1.2695
    -0.9842  -0.4765  -0.3897   0.0362   0.1122   0.2389   0.5008   0.5294
     0.7114   0.7336   0.7568   0.8978   0.9416   1.0083   1.0685   1.1167
     1.2063   1.2482   1.2758   1.2994   1.4246   1.4630   1.4872

          k =-0.0777-0.0448 0.0000 ( 23032 PWs)   bands (ev):

   -49.0141 -49.0011 -48.9912 -48.9555 -48.9531 -48.9325 -48.9295 -48.7008
   -48.5140 -48.5120 -48.4914 -48.4898 -27.7288 -27.7131 -27.6991 -27.6604
   -27.6292 -27.6289 -27.6260 -27.6254 -27.6188 -27.5986 -27.5955 -27.5691
   -27.5580 -27.5255 -27.5216 -27.5148 -27.4980 -27.4955 -27.4614 -27.4088
   -27.3913 -27.3899 -27.2994 -27.2536 -27.1976 -27.1957 -27.1056 -27.1006
   -27.0895 -27.0828 -27.0788 -27.0772 -27.0698 -27.0689 -26.9811 -26.9758
   -13.3399  -6.1957  -2.7969  -2.5348  -2.4224  -2.3698  -1.3961  -1.3770
    -0.5506  -0.5479  -0.2560  -0.1876  -0.0063   0.0052   0.6864   0.7077
     0.7142   0.7399   0.7921   0.8317   0.9403   1.0284   1.0317   1.0836
     1.1124   1.2049   1.2552   1.4154   1.4205   1.4324   1.4936

     the Fermi energy is     0.9730 ev

!    total energy              =   -1163.34212359 Ry
     Harris-Foulkes estimate   =   -1163.34212563 Ry
     estimated scf accuracy    <       0.00000368 Ry

     The total energy is the sum of the following terms:

     one-electron contribution =   -7285.58779444 Ry
     hartree contribution      =    3628.88935932 Ry
     xc contribution           =    -175.98405234 Ry
     ewald contribution        =    2669.47027659 Ry
     electric field correction =       0.00013553 Ry
     smearing contrib. (-TS)   =      -0.13004824 Ry

     convergence has been achieved in  10 iterations
 
 BEEF-vdW xc energy contributions
           1 :   -149.087713476711     
           2 :    131.051252759206     
           3 :   -102.901079089900     
           4 :    75.4068306279382     
           5 :   -56.1629133276407     
           6 :    46.6175048173732     
           7 :   -43.3119124889946     
           8 :    41.5589607727398     
           9 :   -38.6313552042930     
          10 :    34.6022089081331     
          11 :   -31.0179820070133     
          12 :    28.9719281208693     
          13 :   -28.1567018899473     
          14 :    27.3788936309464     
          15 :   -25.7845952329211     
          16 :    23.5950605065927     
          17 :   -21.7623546099113     
          18 :    20.9891129263634     
          19 :   -21.0742689768014     
          20 :    21.1402656084594     
          21 :   -20.4463533539221     
          22 :    19.0080695007160     
          23 :   -17.5041189687938     
          24 :    16.6266650411088     
          25 :   -16.4920675955992     
          26 :    16.6091186179282     
          27 :   -16.3719283917101     
          28 :    15.5934264799972     
          29 :   -14.6107433881437     
          30 :    13.9177684963069     
          31 :   -17.6462699164485     
          32 :   -12.6001678710028     

     Forces acting on atoms (Ry/au):


     negative rho (up, down):  9.535E-05 0.000E+00
     atom    1 type  1   force =    -0.00000826   -0.00002334    0.00088839
     atom    2 type  1   force =     0.00000717    0.00001874    0.00089527
     atom    3 type  1   force =     0.00003553    0.00000773    0.00091190
     atom    4 type  1   force =    -0.00003765   -0.00000405    0.00008162
     atom    5 type  1   force =    -0.00010333    0.00200630    0.00277996
     atom    6 type  1   force =     0.00009315    0.00009437    0.00478167
     atom    7 type  1   force =    -0.00164819   -0.00099143    0.00266183
     atom    8 type  1   force =     0.00165311   -0.00111095    0.00274843
     atom    9 type  1   force =     0.00004379    0.00000509   -0.03684652
     atom   10 type  1   force =    -0.00004026   -0.00218689   -0.00424452
     atom   11 type  1   force =    -0.00189605    0.00106698   -0.00421259
     atom   12 type  1   force =     0.00189865    0.00111386   -0.00414401
     atom   13 type  2   force =     0.00000211    0.00000237    0.05388578
     atom   14 type  3   force =     0.00000023    0.00000122   -0.02018722

     Total force =     0.068820     Total SCF correction =     0.001864


     entering subroutine stress ...


     negative rho (up, down):  9.535E-05 0.000E+00
          total   stress  (Ry/bohr**3)                   (kbar)     P=    2.61
   0.00002752  -0.00000001   0.00000000          4.05     -0.00      0.00
  -0.00000001   0.00002753   0.00000000         -0.00      4.05      0.00
   0.00000000   0.00000000  -0.00000183          0.00      0.00     -0.27


     number of scf cycles    =   2
     number of bfgs steps    =   1

     energy   old            =   -1163.3347597384 Ry
     energy   new            =   -1163.3421235916 Ry

     CASE: energy  _new < energy  _old

     new trust radius        =       0.0351816576 bohr
     new conv_thr            =       0.0000001000 Ry


ATOMIC_POSITIONS (crystal)
Sc1      0.166666667   0.166666667   0.395942884    0   0   0
Sc1      0.666666667   0.166666667   0.395942884    0   0   0
Sc1      0.166666667   0.666666667   0.395942884    0   0   0
Sc1      0.666666667   0.666666667   0.395942884    0   0   0
Sc1      0.833333333   0.333333333   0.500000000    0   0   0
Sc1      0.333333333   0.333333333   0.500000000    0   0   0
Sc1      0.833333333   0.833333333   0.500000000    0   0   0
Sc1      0.333333333   0.833333333   0.500000000    0   0   0
Sc1      0.000000778   0.000001927   0.602946829
Sc1      0.500210097  -0.000423142   0.603888520
Sc1     -0.000423000   0.500209565   0.603888803
Sc1      0.500212647   0.500211074   0.603892279
S1      -0.000000020   0.000000034   0.695233805
H1       0.000000112  -0.000000039   0.748431366



     Writing output data file calc.save
     Check: negative starting charge=   -0.000216
     NEW-OLD atomic charge density approx. for the potential
     Check: negative starting charge=   -0.000216

     negative rho (up, down):  9.787E-05 0.000E+00
 
     Adding external electric field

     Computed dipole along edir(3) : 
        Dipole                0.2567 Ry au,          0.6526 Debye
        Dipole field          0.0005 Ry au
 
        Potential amp.       -0.0491 Ry
        Total length         46.5341 bohr
 

     total cpu time spent up to now is     1058.6 secs

     per-process dynamical memory:    89.1 Mb

     Self-consistent Calculation

     iteration #  1     ecut=    36.75 Ry     beta=0.30
     Davidson diagonalization with overlap
     ethr =  1.00E-06,  avg # of iterations =  5.2

     negative rho (up, down):  9.636E-05 0.000E+00
 
     Adding external electric field

     Computed dipole along edir(3) : 
        Dipole                0.2200 Ry au,          0.5591 Debye
        Dipole field          0.0005 Ry au
 
        Potential amp.       -0.0421 Ry
        Total length         46.5341 bohr
 

     total cpu time spent up to now is     1089.6 secs

     total energy              =   -1163.34413402 Ry
     Harris-Foulkes estimate   =   -1163.34478697 Ry
     estimated scf accuracy    <       0.00143197 Ry

     iteration #  2     ecut=    36.75 Ry     beta=0.30
     Davidson diagonalization with overlap
     ethr =  1.03E-06,  avg # of iterations =  7.4

     negative rho (up, down):  9.835E-05 0.000E+00
 
     Adding external electric field

     Computed dipole along edir(3) : 
        Dipole                0.2801 Ry au,          0.7118 Debye
        Dipole field          0.0006 Ry au
 
        Potential amp.       -0.0535 Ry
        Total length         46.5341 bohr
 

     total cpu time spent up to now is     1118.7 secs

     total energy              =   -1163.34385340 Ry
     Harris-Foulkes estimate   =   -1163.34465405 Ry
     estimated scf accuracy    <       0.00576033 Ry

     iteration #  3     ecut=    36.75 Ry     beta=0.30
     Davidson diagonalization with overlap
     ethr =  1.03E-06,  avg # of iterations =  8.8

     negative rho (up, down):  1.046E-04 0.000E+00
 
     Adding external electric field

     Computed dipole along edir(3) : 
        Dipole                0.2323 Ry au,          0.5904 Debye
        Dipole field          0.0005 Ry au
 
        Potential amp.       -0.0444 Ry
        Total length         46.5341 bohr
 

     total cpu time spent up to now is     1149.1 secs

     total energy              =   -1163.34253441 Ry
     Harris-Foulkes estimate   =   -1163.34632372 Ry
     estimated scf accuracy    <       0.18241172 Ry

     iteration #  4     ecut=    36.75 Ry     beta=0.30
     Davidson diagonalization with overlap
     ethr =  1.03E-06,  avg # of iterations =  8.6

     negative rho (up, down):  1.031E-04 0.000E+00
 
     Adding external electric field

     Computed dipole along edir(3) : 
        Dipole                0.2378 Ry au,          0.6044 Debye
        Dipole field          0.0005 Ry au
 
        Potential amp.       -0.0455 Ry
        Total length         46.5341 bohr
 

     total cpu time spent up to now is     1178.7 secs

     total energy              =   -1163.34438128 Ry
     Harris-Foulkes estimate   =   -1163.34451830 Ry
     estimated scf accuracy    <       0.00125016 Ry

[...]
   -13.2629  -6.1119  -2.8323  -2.4906  -2.3946  -1.9928  -1.6452  -1.3421
    -1.0452  -0.5394  -0.4459  -0.0455   0.0497   0.1583   0.4232   0.4602
     0.6481   0.6608   0.6847   0.8424   0.8715   0.9369   0.9983   1.0558
     1.1356   1.1938   1.2210   1.2359   1.3564   1.4012   1.4282

          k = 0.0259-0.0747 0.0000 ( 23012 PWs)   bands (ev):

   -49.0539 -49.0415 -49.0303 -49.0286 -49.0172 -49.0088 -48.9972 -48.8146
   -48.5550 -48.5303 -48.5201 -48.5086 -27.7749 -27.7583 -27.7435 -27.7027
   -27.7010 -27.6929 -27.6891 -27.6832 -27.6728 -27.6709 -27.6630 -27.6387
   -27.6296 -27.6036 -27.6000 -27.5593 -27.5483 -27.5407 -27.5191 -27.4806
   -27.4612 -27.4572 -27.3937 -27.3579 -27.2300 -27.2068 -27.1748 -27.1405
   -27.1386 -27.1016 -27.0981 -27.0949 -27.0916 -27.0625 -27.0262 -27.0032
   -13.2629  -6.1119  -2.8323  -2.4906  -2.3946  -1.9928  -1.6452  -1.3421
    -1.0452  -0.5394  -0.4459  -0.0455   0.0497   0.1583   0.4232   0.4602
     0.6481   0.6608   0.6848   0.8424   0.8715   0.9369   0.9983   1.0558
     1.1356   1.1938   1.2210   1.2359   1.3564   1.4012   1.4282

          k = 0.0259-0.0448 0.0000 ( 23004 PWs)   bands (ev):

   -49.0601 -49.0385 -49.0358 -49.0302 -49.0074 -49.0071 -48.9988 -48.8142
   -48.5602 -48.5290 -48.5155 -48.5093 -27.7853 -27.7518 -27.7444 -27.7325
   -27.7166 -27.7147 -27.7124 -27.7083 -27.7016 -27.6882 -27.6755 -27.6737
   -27.6652 -27.5678 -27.5551 -27.5489 -27.5013 -27.5002 -27.4926 -27.4859
   -27.4568 -27.4371 -27.3739 -27.3470 -27.2584 -27.2380 -27.2344 -27.1407
   -27.1035 -27.0978 -27.0943 -27.0926 -27.0496 -27.0420 -27.0293 -26.9839
   -13.2636  -6.1195  -3.3604  -2.5314  -2.3542  -2.1159  -1.2374  -1.2209
    -0.9574  -0.6045  -0.5687  -0.2452  -0.1303   0.1149   0.1512   0.1899
     0.4703   0.4793   0.5304   0.7245   0.8028   0.8385   0.9812   1.2183
     1.2580   1.2775   1.2924   1.4122   1.5029   1.6268   1.6702

          k = 0.0518-0.0299 0.0000 ( 22962 PWs)   bands (ev):

   -49.0584 -49.0375 -49.0359 -49.0301 -49.0130 -49.0016 -49.0013 -48.8143
   -48.5585 -48.5300 -48.5156 -48.5099 -27.7823 -27.7537 -27.7438 -27.7205
   -27.7180 -27.7107 -27.7087 -27.6982 -27.6882 -27.6741 -27.6692 -27.6678
   -27.6654 -27.5740 -27.5526 -27.5447 -27.5417 -27.5124 -27.5066 -27.4797
   -27.4528 -27.4404 -27.3864 -27.3465 -27.2487 -27.2403 -27.2092 -27.1400
   -27.1031 -27.0970 -27.0925 -27.0915 -27.0817 -27.0496 -27.0254 -26.9870
   -13.2634  -6.1169  -3.2200  -2.5344  -2.3443  -2.0071  -1.7036  -0.8803
    -0.8326  -0.6339  -0.6195  -0.2121  -0.2103   0.0589   0.3180   0.3498
     0.5197   0.5495   0.5563   0.7504   0.8167   0.9089   0.9451   1.1709
     1.2460   1.2460   1.2687   1.2894   1.4987   1.5667   1.6011

          k = 0.0518 0.0000 0.0000 ( 23004 PWs)   bands (ev):

   -49.0601 -49.0385 -49.0358 -49.0302 -49.0074 -49.0071 -48.9988 -48.8142
   -48.5602 -48.5290 -48.5154 -48.5093 -27.7853 -27.7518 -27.7444 -27.7325
   -27.7166 -27.7147 -27.7124 -27.7083 -27.7016 -27.6882 -27.6755 -27.6737
   -27.6652 -27.5678 -27.5551 -27.5489 -27.5013 -27.5002 -27.4926 -27.4859
   -27.4568 -27.4371 -27.3739 -27.3470 -27.2584 -27.2381 -27.2343 -27.1407
   -27.1035 -27.0978 -27.0942 -27.0926 -27.0496 -27.0420 -27.0293 -26.9839
   -13.2636  -6.1195  -3.3604  -2.5314  -2.3542  -2.1159  -1.2374  -1.2209
    -0.9574  -0.6045  -0.5687  -0.2452  -0.1303   0.1149   0.1512   0.1899
     0.4703   0.4793   0.5304   0.7245   0.8028   0.8385   0.9812   1.2183
     1.2580   1.2775   1.2924   1.4122   1.5029   1.6268   1.6701

          k = 0.0518 0.0299 0.0000 ( 22962 PWs)   bands (ev):

   -49.0584 -49.0375 -49.0359 -49.0301 -49.0130 -49.0016 -49.0013 -48.8143
   -48.5585 -48.5300 -48.5155 -48.5099 -27.7823 -27.7537 -27.7438 -27.7206
   -27.7180 -27.7107 -27.7087 -27.6981 -27.6882 -27.6741 -27.6692 -27.6678
   -27.6654 -27.5740 -27.5526 -27.5447 -27.5416 -27.5124 -27.5066 -27.4797
   -27.4528 -27.4404 -27.3864 -27.3465 -27.2487 -27.2403 -27.2092 -27.1400
   -27.1031 -27.0969 -27.0925 -27.0914 -27.0817 -27.0496 -27.0254 -26.9870
   -13.2634  -6.1169  -3.2200  -2.5344  -2.3443  -2.0071  -1.7036  -0.8803
    -0.8326  -0.6339  -0.6195  -0.2121  -0.2103   0.0589   0.3180   0.3499
     0.5197   0.5495   0.5563   0.7504   0.8167   0.9089   0.9451   1.1709
     1.2460   1.2460   1.2687   1.2894   1.4987   1.5667   1.6011

          k = 0.0518-0.1196 0.0000 ( 23012 PWs)   bands (ev):

   -49.0539 -49.0415 -49.0303 -49.0286 -49.0172 -49.0088 -48.9972 -48.8146
   -48.5550 -48.5304 -48.5200 -48.5086 -27.7749 -27.7583 -27.7435 -27.7027
   -27.7010 -27.6929 -27.6891 -27.6832 -27.6728 -27.6709 -27.6630 -27.6387
   -27.6297 -27.6036 -27.6000 -27.5593 -27.5483 -27.5407 -27.5191 -27.4806
   -27.4613 -27.4572 -27.3937 -27.3579 -27.2300 -27.2068 -27.1748 -27.1405
   -27.1386 -27.1017 -27.0981 -27.0949 -27.0916 -27.0625 -27.0262 -27.0032
   -13.2629  -6.1119  -2.8323  -2.4906  -2.3946  -1.9928  -1.6452  -1.3421
    -1.0452  -0.5394  -0.4459  -0.0455   0.0497   0.1583   0.4232   0.4602
     0.6481   0.6608   0.6847   0.8424   0.8715   0.9369   0.9983   1.0558
     1.1356   1.1938   1.2209   1.2359   1.3564   1.4012   1.4282

          k = 0.0518-0.0897 0.0000 ( 23028 PWs)   bands (ev):

   -49.0498 -49.0453 -49.0306 -49.0190 -49.0186 -49.0185 -48.9957 -48.8147
   -48.5531 -48.5267 -48.5265 -48.5077 -27.7684 -27.7632 -27.7438 -27.6919
   -27.6908 -27.6908 -27.6664 -27.6623 -27.6608 -27.6533 -27.6519 -27.6479
   -27.6190 -27.6177 -27.6172 -27.5883 -27.5734 -27.5496 -27.4876 -27.4873
   -27.4853 -27.4690 -27.3810 -27.3774 -27.1934 -27.1926 -27.1596 -27.1573
   -27.1457 -27.1381 -27.0995 -27.0978 -27.0911 -27.0324 -27.0321 -27.0307
   -13.2627  -6.1095  -2.5217  -2.5212  -2.0901  -2.0815  -2.0790  -1.1136
    -1.1074  -1.0654   0.0677   0.0701   0.0733   0.3079   0.3473   0.3510
     0.7579   0.7743   0.7795   0.8570   0.8862   0.9972   1.0351   1.0813
     1.1197   1.1251   1.1454   1.1976   1.2789   1.3260   1.3802

          k = 0.0518-0.0598 0.0000 ( 23012 PWs)   bands (ev):

   -49.0539 -49.0415 -49.0303 -49.0286 -49.0172 -49.0088 -48.9972 -48.8146
   -48.5550 -48.5303 -48.5201 -48.5086 -27.7749 -27.7583 -27.7435 -27.7027
   -27.7010 -27.6929 -27.6891 -27.6832 -27.6728 -27.6709 -27.6630 -27.6387
   -27.6296 -27.6036 -27.6000 -27.5593 -27.5483 -27.5408 -27.5191 -27.4806
   -27.4612 -27.4572 -27.3937 -27.3579 -27.2300 -27.2068 -27.1748 -27.1405
   -27.1386 -27.1016 -27.0981 -27.0949 -27.0916 -27.0625 -27.0262 -27.0032
   -13.2629  -6.1119  -2.8323  -2.4906  -2.3946  -1.9928  -1.6452  -1.3421
    -1.0452  -0.5394  -0.4459  -0.0455   0.0497   0.1583   0.4232   0.4602
     0.6481   0.6608   0.6848   0.8424   0.8715   0.9369   0.9983   1.0558
     1.1356   1.1938   1.2210   1.2359   1.3564   1.4012   1.4282

          k =-0.0777 0.0448 0.0000 ( 23032 PWs)   bands (ev):

   -49.0537 -49.0419 -49.0301 -49.0246 -49.0243 -49.0016 -49.0013 -48.8146
   -48.5547 -48.5321 -48.5173 -48.5099 -27.7743 -27.7594 -27.7430 -27.7057
   -27.6976 -27.6974 -27.6973 -27.6916 -27.6731 -27.6683 -27.6675 -27.6160
   -27.5966 -27.5929 -27.5920 -27.5669 -27.5659 -27.5602 -27.5477 -27.4610
   -27.4593 -27.4523 -27.4053 -27.3508 -27.2313 -27.2200 -27.1421 -27.1388
   -27.1238 -27.1123 -27.1016 -27.1004 -27.0944 -27.0918 -27.0098 -27.0029
   -13.2629  -6.1119  -2.7185  -2.4969  -2.3635  -2.3537  -1.4617  -1.4236
    -0.6260  -0.6251  -0.3091  -0.2484  -0.0745  -0.0707   0.6176   0.6305
     0.6349   0.6623   0.7410   0.7650   0.8752   0.9591   0.9617   1.0143
     1.0455   1.1578   1.1988   1.3503   1.3565   1.3692   1.4137

          k =-0.0777 0.0747 0.0000 ( 23012 PWs)   bands (ev):

   -49.0539 -49.0415 -49.0303 -49.0286 -49.0172 -49.0088 -48.9972 -48.8146
   -48.5550 -48.5304 -48.5200 -48.5086 -27.7749 -27.7583 -27.7435 -27.7027
   -27.7010 -27.6929 -27.6891 -27.6832 -27.6728 -27.6709 -27.6630 -27.6387
   -27.6297 -27.6036 -27.6000 -27.5593 -27.5483 -27.5408 -27.5191 -27.4806
   -27.4612 -27.4572 -27.3937 -27.3579 -27.2300 -27.2068 -27.1748 -27.1406
   -27.1386 -27.1017 -27.0981 -27.0949 -27.0916 -27.0625 -27.0262 -27.0032
   -13.2629  -6.1119  -2.8323  -2.4906  -2.3946  -1.9928  -1.6452  -1.3421
    -1.0452  -0.5394  -0.4459  -0.0455   0.0497   0.1583   0.4232   0.4602
     0.6481   0.6608   0.6847   0.8424   0.8715   0.9369   0.9983   1.0558
     1.1356   1.1938   1.2210   1.2359   1.3564   1.4012   1.4282

          k =-0.0777 0.1046 0.0000 ( 23012 PWs)   bands (ev):

   -49.0539 -49.0415 -49.0303 -49.0286 -49.0172 -49.0088 -48.9972 -48.8146
   -48.5550 -48.5304 -48.5200 -48.5086 -27.7749 -27.7583 -27.7435 -27.7027
   -27.7010 -27.6929 -27.6891 -27.6832 -27.6728 -27.6709 -27.6630 -27.6387
   -27.6297 -27.6036 -27.6000 -27.5593 -27.5483 -27.5407 -27.5191 -27.4806
   -27.4612 -27.4572 -27.3937 -27.3579 -27.2300 -27.2068 -27.1748 -27.1405
   -27.1386 -27.1017 -27.0981 -27.0949 -27.0916 -27.0625 -27.0262 -27.0032
   -13.2629  -6.1119  -2.8323  -2.4906  -2.3946  -1.9928  -1.6452  -1.3421
    -1.0452  -0.5394  -0.4459  -0.0455   0.0497   0.1583   0.4232   0.4602
     0.6481   0.6608   0.6847   0.8424   0.8715   0.9369   0.9983   1.0558
     1.1356   1.1938   1.2209   1.2359   1.3564   1.4012   1.4282

          k =-0.0777-0.0448 0.0000 ( 23032 PWs)   bands (ev):

   -49.0537 -49.0419 -49.0301 -49.0246 -49.0243 -49.0016 -49.0013 -48.8146
   -48.5547 -48.5322 -48.5172 -48.5099 -27.7744 -27.7594 -27.7430 -27.7057
   -27.6976 -27.6974 -27.6973 -27.6916 -27.6731 -27.6683 -27.6675 -27.6160
   -27.5966 -27.5929 -27.5920 -27.5669 -27.5659 -27.5602 -27.5477 -27.4610
   -27.4593 -27.4523 -27.4053 -27.3508 -27.2312 -27.2200 -27.1421 -27.1388
   -27.1238 -27.1122 -27.1016 -27.1004 -27.0943 -27.0918 -27.0097 -27.0030
   -13.2629  -6.1119  -2.7185  -2.4969  -2.3635  -2.3537  -1.4616  -1.4236
    -0.6260  -0.6251  -0.3091  -0.2484  -0.0745  -0.0707   0.6176   0.6305
     0.6349   0.6623   0.7410   0.7651   0.8752   0.9591   0.9617   1.0143
     1.0455   1.1578   1.1988   1.3502   1.3565   1.3692   1.4138

     the Fermi energy is     0.9080 ev

!    total energy              =   -1163.34647515 Ry
     Harris-Foulkes estimate   =   -1163.34647601 Ry
     estimated scf accuracy    <       0.00000008 Ry

     The total energy is the sum of the following terms:

     one-electron contribution =   -7322.53955788 Ry
     hartree contribution      =    3647.19223986 Ry
     xc contribution           =    -176.01399405 Ry
     ewald contribution        =    2688.14273820 Ry
     electric field correction =       0.00008071 Ry
     smearing contrib. (-TS)   =      -0.12798199 Ry

     convergence has been achieved in  10 iterations
 
 BEEF-vdW xc energy contributions
           1 :   -149.113802479697     
           2 :    131.073263827916     
           3 :   -102.914604901980     
           4 :    75.4056078171416     
           5 :   -56.1429326814891     
           6 :    46.5858269471256     
           7 :   -43.2881775174798     
           8 :    41.5630406772782     
           9 :   -38.6652245213829     
          10 :    34.6442769479338     
          11 :   -31.0392684020285     
          12 :    28.9617815921327     
          13 :   -28.1333586993329     
          14 :    27.3730526634627     
          15 :   -25.8102998805298     
          16 :    23.6354632948908     
          17 :   -21.7844349624492     
          18 :    20.9745304224467     
          19 :   -21.0379345442222     
          20 :    21.1186785959876     
          21 :   -20.4654260112701     
          22 :    19.0596209192898     
          23 :   -17.5529633299373     
          24 :    16.6422331143668     
          25 :   -16.4750524174088     
          26 :    16.5876324801634     
          27 :   -16.3706667701895     
          28 :    15.6060810340779     
          29 :   -14.6025867742681     
          30 :    13.8562663559132     
          31 :   -17.6485076014100     
          32 :   -12.6003084731062     

     Forces acting on atoms (Ry/au):


     negative rho (up, down):  9.445E-05 0.000E+00
     atom    1 type  1   force =     0.00010116    0.00005850    0.00072994
     atom    2 type  1   force =    -0.00010118    0.00005226    0.00073685
     atom    3 type  1   force =    -0.00000547   -0.00011381    0.00073530
     atom    4 type  1   force =     0.00000537    0.00000301   -0.00005877
     atom    5 type  1   force =    -0.00000205    0.00251154   -0.00100538
     atom    6 type  1   force =     0.00000207    0.00000148    0.00302221
     atom    7 type  1   force =    -0.00217381   -0.00125542   -0.00100964
     atom    8 type  1   force =     0.00217367   -0.00125765   -0.00100612
     atom    9 type  1   force =    -0.00001136   -0.00000538   -0.00032962
     atom   10 type  1   force =     0.00001142    0.00115118   -0.00032216
     atom   11 type  1   force =     0.00100201   -0.00056617   -0.00032634
     atom   12 type  1   force =    -0.00100192   -0.00057959   -0.00032006
     atom   13 type  2   force =    -0.00000032   -0.00000013    0.00109041
     atom   14 type  3   force =     0.00000041    0.00000019   -0.00193662

     Total force =     0.003058     Total SCF correction =     0.000310
     SCF correction compared to forces is large: reduce conv_thr to get better values


     entering subroutine stress ...


     negative rho (up, down):  9.445E-05 0.000E+00
          total   stress  (Ry/bohr**3)                   (kbar)     P=    2.49
   0.00002948   0.00000000   0.00000000          4.34      0.00      0.00
   0.00000000   0.00002948   0.00000000          0.00      4.34      0.00
   0.00000000   0.00000000  -0.00000823          0.00      0.00     -1.21


     bfgs converged in  11 scf cycles and  10 bfgs steps
     (criteria: energy <  1.0E+00, force <  1.9E-03)

     End of BFGS Geometry Optimization

     Final energy   =   -1163.3464751458 Ry
Begin final coordinates

ATOMIC_POSITIONS (crystal)
Sc1      0.166666667   0.166666667   0.395942884    0   0   0
Sc1      0.666666667   0.166666667   0.395942884    0   0   0
Sc1      0.166666667   0.666666667   0.395942884    0   0   0
Sc1      0.666666667   0.666666667   0.395942884    0   0   0
Sc1      0.833333333   0.333333333   0.500000000    0   0   0
Sc1      0.333333333   0.333333333   0.500000000    0   0   0
Sc1      0.833333333   0.833333333   0.500000000    0   0   0
Sc1      0.333333333   0.833333333   0.500000000    0   0   0
Sc1      0.000002161   0.000001179   0.600910808
Sc1      0.501851514  -0.003707741   0.602230507
Sc1     -0.003707739   0.501851348   0.602230920
Sc1      0.501854365   0.501854472   0.602233053
S1      -0.000000684  -0.000000331   0.695898190
H1       0.000000504   0.000000436   0.749179710
End final coordinates



     Writing output data file calc.save
 
     init_run     :     15.56s CPU     16.06s WALL (       1 calls)
     electrons    :   4053.41s CPU   4388.92s WALL (      11 calls)
     update_pot   :     39.51s CPU     42.40s WALL (      10 calls)
     forces       :    216.84s CPU    230.57s WALL (      11 calls)
     stress       :    664.27s CPU    713.18s WALL (      11 calls)

     Called by init_run:
     wfcinit      :      6.04s CPU      6.13s WALL (       1 calls)
     potinit      :      2.50s CPU      2.75s WALL (       1 calls)

     Called by electrons:
     c_bands      :   1536.66s CPU   1682.54s WALL (     133 calls)
     sum_band     :    812.68s CPU    857.46s WALL (     133 calls)
     v_of_rho     :    286.22s CPU    329.17s WALL (     142 calls)
     newd         :    786.55s CPU    800.45s WALL (     142 calls)
     mix_rho      :      9.47s CPU      9.77s WALL (     133 calls)
     vdW_energy   :    140.99s CPU    155.13s WALL (     538 calls)
     vdW_ffts     :    363.84s CPU    380.37s WALL (    1098 calls)
     vdW_v        :    146.64s CPU    151.00s WALL (     538 calls)

     Called by c_bands:
     init_us_2    :     10.25s CPU     10.30s WALL (    1445 calls)
     cegterg      :   1313.48s CPU   1348.81s WALL (     665 calls)

     Called by *egterg:
     h_psi        :    865.04s CPU    884.36s WALL (    4386 calls)
     s_psi        :     86.43s CPU     86.62s WALL (    4386 calls)
     g_psi        :      5.43s CPU      5.42s WALL (    3716 calls)
     cdiaghg      :    120.90s CPU    121.78s WALL (    4321 calls)

     Called by h_psi:
     add_vuspsi   :     88.76s CPU     88.93s WALL (    4386 calls)

     General routines
     calbec       :    133.70s CPU    136.38s WALL (    5161 calls)
     fft          :    575.39s CPU    624.93s WALL (   32523 calls)
     ffts         :      0.61s CPU      0.65s WALL (     275 calls)
     fftw         :    511.93s CPU    531.11s WALL (  338161 calls)
     interpolate  :      6.03s CPU      6.24s WALL (     275 calls)
     davcio       :      0.00s CPU      0.03s WALL (       5 calls)
 
     Parallel routines
     fft_scatter  :    657.55s CPU    725.23s WALL (  370959 calls)
 
     PWSCF        :     1h24m CPU        1h31m WALL

 
   This run was terminated on:  22:46: 9  22Apr2018            

=------------------------------------------------------------------------------=
   JOB DONE.
=------------------------------------------------------------------------------=
Job  /afs/slac/g/suncat/bin/suncat-tsmpirun -x LD_LIBRARY_PATH -wdir /scratch/qe327671_Azl4T pw.x -npool 4 -in pw.inp

TID   HOST_NAME   COMMAND_LINE            STATUS            TERMINATION_TIME
===== ========== ================  =======================  ===================
00000 suncat0253 pw.x -npool 4 -i  Done                     04/22/2018 22:46:09
00001 suncat0253 pw.x -npool 4 -i  Done                     04/22/2018 22:46:09
00002 suncat0253 pw.x -npool 4 -i  Done                     04/22/2018 22:46:09
00003 suncat0253 pw.x -npool 4 -i  Done                     04/22/2018 22:46:09
00004 suncat0253 pw.x -npool 4 -i  Done                     04/22/2018 22:46:09
00005 suncat0253 pw.x -npool 4 -i  Done                     04/22/2018 22:46:09
00006 suncat0253 pw.x -npool 4 -i  Done                     04/22/2018 22:46:09
00007 suncat0253 pw.x -npool 4 -i  Done                     04/22/2018 22:46:09
00008 suncat0231 pw.x -npool 4 -i  Done                     04/22/2018 22:46:09
00009 suncat0231 pw.x -npool 4 -i  Done                     04/22/2018 22:46:09
00010 suncat0231 pw.x -npool 4 -i  Done                     04/22/2018 22:46:09
00011 suncat0231 pw.x -npool 4 -i  Done                     04/22/2018 22:46:09
00012 suncat0231 pw.x -npool 4 -i  Done                     04/22/2018 22:46:09
00013 suncat0231 pw.x -npool 4 -i  Done                     04/22/2018 22:46:09
00014 suncat0231 pw.x -npool 4 -i  Done                     04/22/2018 22:46:09
00015 suncat0231 pw.x -npool 4 -i  Done                     04/22/2018 22:46:09
00016 suncat0229 pw.x -npool 4 -i  Done                     04/22/2018 22:46:09
00017 suncat0229 pw.x -npool 4 -i  Done                     04/22/2018 22:46:09
00018 suncat0229 pw.x -npool 4 -i  Done                     04/22/2018 22:46:09
00019 suncat0229 pw.x -npool 4 -i  Done                     04/22/2018 22:46:09
00020 suncat0229 pw.x -npool 4 -i  Done                     04/22/2018 22:46:09
00021 suncat0229 pw.x -npool 4 -i  Done                     04/22/2018 22:46:09
00022 suncat0229 pw.x -npool 4 -i  Done                     04/22/2018 22:46:09
00023 suncat0229 pw.x -npool 4 -i  Done                     04/22/2018 22:46:09
00024 suncat0217 pw.x -npool 4 -i  Done                     04/22/2018 22:46:09
00025 suncat0217 pw.x -npool 4 -i  Done                     04/22/2018 22:46:09
00026 suncat0217 pw.x -npool 4 -i  Done                     04/22/2018 22:46:09
00027 suncat0217 pw.x -npool 4 -i  Done                     04/22/2018 22:46:09
00028 suncat0217 pw.x -npool 4 -i  Done                     04/22/2018 22:46:09
00029 suncat0217 pw.x -npool 4 -i  Done                     04/22/2018 22:46:09
00030 suncat0217 pw.x -npool 4 -i  Done                     04/22/2018 22:46:09
00031 suncat0217 pw.x -npool 4 -i  Done                     04/22/2018 22:46:09
