  python dir          : /u/if/mamunm/src/espresso
  espresso dir        : /nfs/slac/g/suncatfs/sw/espv18/espresso-dynpy-beef/bin
  pseudo dir          : /u/if/mamunm/psp/gbrv1.5pbe
  ase-espresso py git : GITVERSION



     Program PWSCF v.5.1rc2 (svn rev. 11289) starts on 19Apr2018 at  8:43:53 

     This program is part of the open-source Quantum ESPRESSO suite
     for quantum simulation of materials; please cite
         "P. Giannozzi et al., J. Phys.:Condens. Matter 21 395502 (2009);
          URL http://www.quantum-espresso.org", 
     in publications or presentations arising from this work. More details at
     http://www.quantum-espresso.org/quote

     Parallel version (MPI), running on    32 processors
     K-points division:     npool     =       4
     R & G space division:  proc/nbgrp/npool/nimage =       8
     Reading input from pw.inp
     Message from routine read_cards :
     DEPRECATED: no units specified in CELL_PARAMETERS card

     Current dimensions of program PWSCF are:
     Max number of different atomic species (ntypx) = 10
     Max number of k-points (npk) =  40000
     Max angular momentum in pseudopotentials (lmaxx) =  3
     Presently stress not available with electric field


     **************************************************************************
     Initializing libbeef V0.1.1 with the BEEF-vdW functional.
     Citation: Wellendorff et al., PRB 85, 235149 (2012).
     **************************************************************************


     IMPORTANT: XC functional enforced from input :
     Exchange-correlation      = BEEF-VDW ( 1  4 27 13 2)
     Any further DFT definition will be discarded
     Please, verify this is what you really want


     Subspace diagonalization in iterative solution of the eigenvalue problem:
     a serial algorithm will be used

 
     Parallelization info
     --------------------
     sticks:   dense  smooth     PW     G-vecs:    dense   smooth      PW
     Min         402     160     46                77078    19492    3044
     Max         403     161     50                77101    19531    3047
     Sum        3217    1285    379               616691   156085   24367
 


     bravais-lattice index     =            0
     lattice parameter (alat)  =       1.8897  a.u.
     unit-cell volume          =    5182.3421 (a.u.)^3
     number of atoms/cell      =           14
     number of atomic types    =            3
     number of electrons       =       163.00
     number of Kohn-Sham states=           91
     kinetic-energy cutoff     =      36.7493  Ry
     charge density cutoff     =     367.4932  Ry
     convergence threshold     =      1.0E-05
     mixing beta               =       0.3000
     number of iterations used =           10  plain     mixing
     Exchange-correlation      = BEEF-VDW ( 1  4 27 13 2)
     nstep                     =           50


     celldm(1)=   1.889726  celldm(2)=   0.000000  celldm(3)=   0.000000
     celldm(4)=   0.000000  celldm(5)=   0.000000  celldm(6)=   0.000000

     crystal axes: (cart. coord. in units of alat)
               a(1) = (   5.970602   0.000000   0.000000 )  
               a(2) = (   2.985301   5.170693   0.000000 )  
               a(3) = (   0.000000   0.000000  24.874976 )  

     reciprocal axes: (cart. coord. in units 2 pi/alat)
               b(1) = (  0.167487 -0.096699  0.000000 )  
               b(2) = (  0.000000  0.193398  0.000000 )  
               b(3) = (  0.000000  0.000000  0.040201 )  


     PseudoPot. # 1 for Nb read from file:
     /u/if/mamunm/psp/gbrv1.5pbe/Nb.UPF
     MD5 check sum: 573aab8a2fa660278ed4a62cd769473f
     Pseudo is Ultrasoft + core correction, Zval = 13.0
     Generated by new atomic code, or converted to UPF format
     Using radial grid of  887 points,  6 beta functions with: 
                l(1) =   0
                l(2) =   0
                l(3) =   1
                l(4) =   1
                l(5) =   2
                l(6) =   2
     Q(r) pseudized with  6 coefficients,  rinner =    1.000   1.000   1.000
                                                       1.000   1.000

     PseudoPot. # 2 for O  read from file:
     /u/if/mamunm/psp/gbrv1.5pbe/O.UPF
     MD5 check sum: 734c27235a0248c51dbae37a1fbe46ec
     Pseudo is Ultrasoft + core correction, Zval =  6.0
     Generated by new atomic code, or converted to UPF format
     Using radial grid of  737 points,  5 beta functions with: 
                l(1) =   0
                l(2) =   0
                l(3) =   1
                l(4) =   1
                l(5) =   2
     Q(r) pseudized with  8 coefficients,  rinner =    0.900   0.900   0.900
                                                       0.900   0.900

     PseudoPot. # 3 for H  read from file:
     /u/if/mamunm/psp/gbrv1.5pbe/H.UPF
     MD5 check sum: 761ae9a214b05c3daf00ab9f6b793d6f
     Pseudo is Ultrasoft, Zval =  1.0
     Generated by new atomic code, or converted to UPF format
     Using radial grid of  615 points,  2 beta functions with: 
                l(1) =   0
                l(2) =   0
     Q(r) pseudized with  8 coefficients,  rinner =    0.700

     vdW kernel table read from file vdW_kernel_table
     MD5 check sum: 095c7af220d748ca6e76c0b4c6cfb241

     atomic species   valence    mass     pseudopotential
        Nb1           13.00    92.90637     Nb( 1.00)
        O1             6.00    15.99900     O ( 1.00)
        H1             1.00     1.00800     H ( 1.00)

     No symmetry found



   Cartesian axes

     site n.     atom                  positions (alat units)
         1           Nb1 tau(   1) = (   1.4926504   0.8617821  10.0000000  )
         2           Nb1 tau(   2) = (   4.4779512   0.8617821  10.0000000  )
         3           Nb1 tau(   3) = (   2.9853008   3.4471284  10.0000000  )
         4           Nb1 tau(   4) = (   5.9706016   3.4471284  10.0000000  )
         5           Nb1 tau(   5) = (   5.9706016   1.7235642  12.4374879  )
         6           Nb1 tau(   6) = (   2.9853008   1.7235642  12.4374879  )
         7           Nb1 tau(   7) = (   7.4632520   4.3089105  12.4374879  )
         8           Nb1 tau(   8) = (   4.4779512   4.3089105  12.4374879  )
         9           Nb1 tau(   9) = (   0.0000000   0.0000000  14.8749758  )
        10           Nb1 tau(  10) = (   2.9853008   0.0000000  14.8749758  )
        11           Nb1 tau(  11) = (   1.4926504   2.5853463  14.8749758  )
        12           Nb1 tau(  12) = (   4.4779512   2.5853463  14.8749758  )
        13           O1  tau(  13) = (   0.0000000   0.0000000  16.8299758  )
        14           H1  tau(  14) = (   0.0000000   0.0000000  17.7799758  )

     number of k points=    20  Fermi-Dirac smearing, width (Ry)=  0.0110
                       cart. coord. in units 2pi/alat
        k(    1) = (   0.0000000   0.0000000   0.0000000), wk =   0.0555556
        k(    2) = (   0.0000000   0.0322329   0.0000000), wk =   0.1111111
        k(    3) = (   0.0000000   0.0644659   0.0000000), wk =   0.1111111
        k(    4) = (   0.0000000  -0.0966988   0.0000000), wk =   0.0555556
        k(    5) = (   0.0279146  -0.0161165   0.0000000), wk =   0.1111111
        k(    6) = (   0.0279146   0.0161165   0.0000000), wk =   0.1111111
        k(    7) = (   0.0279146   0.0483494   0.0000000), wk =   0.1111111
        k(    8) = (   0.0279146  -0.1128153   0.0000000), wk =   0.1111111
        k(    9) = (   0.0279146  -0.0805824   0.0000000), wk =   0.1111111
        k(   10) = (   0.0279146  -0.0483494   0.0000000), wk =   0.1111111
        k(   11) = (   0.0558291  -0.0322329   0.0000000), wk =   0.1111111
        k(   12) = (   0.0558291   0.0000000   0.0000000), wk =   0.1111111
        k(   13) = (   0.0558291   0.0322329   0.0000000), wk =   0.1111111
        k(   14) = (   0.0558291  -0.1289318   0.0000000), wk =   0.1111111
        k(   15) = (   0.0558291  -0.0966988   0.0000000), wk =   0.1111111
        k(   16) = (   0.0558291  -0.0644659   0.0000000), wk =   0.1111111
        k(   17) = (  -0.0837437   0.0483494   0.0000000), wk =   0.0555556
        k(   18) = (  -0.0837437   0.0805824   0.0000000), wk =   0.1111111
        k(   19) = (  -0.0837437   0.1128153   0.0000000), wk =   0.1111111
        k(   20) = (  -0.0837437  -0.0483494   0.0000000), wk =   0.0555556

     Dense  grid:   616691 G-vectors     FFT dimensions: (  72,  72, 288)

     Smooth grid:   156085 G-vectors     FFT dimensions: (  45,  45, 192)

     Largest allocated arrays     est. size (Mb)     dimensions
        Kohn-Sham Wavefunctions         3.45 Mb     (    2487,   91)
        NL pseudopotentials             8.77 Mb     (    2487,  231)
        Each V/rho on FFT grid          2.85 Mb     (  186624)
        Each G-vector array             0.59 Mb     (   77088)
        G-vector shells                 0.16 Mb     (   20970)
     Largest temporary arrays     est. size (Mb)     dimensions
        Auxiliary wavefunctions        13.81 Mb     (    2487,  364)
        Each subspace H/S matrix        2.02 Mb     (     364,  364)
        Each <psi_i|beta_j> matrix      0.32 Mb     (     231,   91)
        Arrays for rho mixing          28.48 Mb     (  186624,   10)

     Initial potential from superposition of free atoms
     Check: negative starting charge=   -0.004845

     starting charge  162.96719, renormalised to  163.00000

     negative rho (up, down):  4.846E-03 0.000E+00


     ************************************************************************
     *
     * You are using vdW-DF for exchange-correlation in this calculation.
     * Please cite the following three references that made this development
     * possible:
     *
     *   M. Dion, H. Rydberg, E. Schroder, D. C. Langreth, and
     *   B. I. Lundqvist, Phys. Rev. Lett. 92, 246401 (2004).
     *
     *   T. Thonhauser, V. R. Cooper, S. Li, A. Puzder, P. Hyldgaard, and
     *   D. C. Langreth, Phys. Rev. B 76, 125112 (2007).
     *
     *   G. Roman-Perez and J. M. Soler, Phys. Rev. Lett. 103, 096102 (2009).
     *
     *
     * If you are using vdW-DF2, please also cite:
     *
     *   K. Lee, E. D. Murray, L. Kong, B. I. Lundqvist, and
     *   D. C. Langreth, Phys. Rev. B 82, 081101(R) (2010).
     *
     *
     * If you are calculating the stress with vdW-DF, please also cite:
     *
     *   R. Sabatini, E. Kucukbenli, B. Kolb, T. Thonhauser, and
     *   S. de Gironcoli, J. Phys.: Condens. Matter 24, 424209 (2012).
     *
     ************************************************************************

     Carrying out vdW-DF run using the following parameters:

     Nqs =      20    Nr_points =    1024   r_max =   100.000
     q_mesh =
               0.00001000     0.04494208     0.09755937     0.15916263
               0.23128650     0.31572767     0.41458969     0.53033537
               0.66584808     0.82450364     1.01025438     1.22772762
               1.48234092     1.78043706     2.12944203     2.53805004
               3.01644009     3.57652955     4.23227104     5.00000000

     Gradients computed in reciprocal space

     ************************************************************************


 
     Adding external electric field

     Computed dipole along edir(3) : 
        Dipole               -0.0119 Ry au,         -0.0303 Debye
        Dipole field         -0.0000 Ry au
 
        Potential amp.        0.0027 Ry
        Total length         45.8317 bohr
 
     Starting wfc are  161 randomized atomic wfcs

     total cpu time spent up to now is       13.7 secs

     per-process dynamical memory:    92.8 Mb

     Self-consistent Calculation

     iteration #  1     ecut=    36.75 Ry     beta=0.30
     Davidson diagonalization with overlap
     ethr =  1.00E-02,  avg # of iterations =  2.0

     negative rho (up, down):  4.686E-03 0.000E+00
 
     Adding external electric field

     Computed dipole along edir(3) : 
        Dipole               -0.6693 Ry au,         -1.7012 Debye
        Dipole field         -0.0016 Ry au
 
        Potential amp.        0.1488 Ry
        Total length         45.8317 bohr
 

     total cpu time spent up to now is       32.0 secs

     total energy              =   -1453.89579681 Ry
     Harris-Foulkes estimate   =   -1456.64182480 Ry
     estimated scf accuracy    <       6.07541961 Ry

     iteration #  2     ecut=    36.75 Ry     beta=0.30
     Davidson diagonalization with overlap
     ethr =  3.73E-03,  avg # of iterations =  7.5

     negative rho (up, down):  3.762E-03 0.000E+00
 
     Adding external electric field

     Computed dipole along edir(3) : 
        Dipole                2.1654 Ry au,          5.5038 Debye
        Dipole field          0.0053 Ry au
 
        Potential amp.       -0.4813 Ry
        Total length         45.8317 bohr
 

     total cpu time spent up to now is       56.6 secs

     total energy              =   -1451.59195599 Ry
     Harris-Foulkes estimate   =   -1460.92923723 Ry
     estimated scf accuracy    <      90.65977565 Ry

     iteration #  3     ecut=    36.75 Ry     beta=0.30
     Davidson diagonalization with overlap
     ethr =  3.73E-03,  avg # of iterations =  7.5

     negative rho (up, down):  3.833E-03 0.000E+00
 
     Adding external electric field

     Computed dipole along edir(3) : 
        Dipole               -0.0295 Ry au,         -0.0751 Debye
        Dipole field         -0.0001 Ry au
 
        Potential amp.        0.0066 Ry
        Total length         45.8317 bohr
 

     total cpu time spent up to now is       81.5 secs

     total energy              =   -1452.56270831 Ry
     Harris-Foulkes estimate   =   -1459.75754713 Ry
     estimated scf accuracy    <     268.50016095 Ry

     iteration #  4     ecut=    36.75 Ry     beta=0.30
     Davidson diagonalization with overlap
     ethr =  3.73E-03,  avg # of iterations =  6.8

     negative rho (up, down):  3.371E-03 0.000E+00
 
     Adding external electric field

     Computed dipole along edir(3) : 
        Dipole                0.3806 Ry au,          0.9675 Debye
        Dipole field          0.0009 Ry au
 
        Potential amp.       -0.0846 Ry
        Total length         45.8317 bohr
 

     total cpu time spent up to now is      105.1 secs

     total energy              =   -1455.91462907 Ry
     Harris-Foulkes estimate   =   -1456.04046420 Ry
     estimated scf accuracy    <       1.65537659 Ry

     iteration #  5     ecut=    36.75 Ry     beta=0.30
     Davidson diagonalization with overlap
     ethr =  1.02E-03,  avg # of iterations =  2.1

     negative rho (up, down):  3.445E-03 0.000E+00
 
     Adding external electric field

     Computed dipole along edir(3) : 
        Dipole                0.3803 Ry au,          0.9667 Debye
        Dipole field          0.0009 Ry au
 
        Potential amp.       -0.0845 Ry
        Total length         45.8317 bohr
 

     total cpu time spent up to now is      123.8 secs

     total energy              =   -1455.93050971 Ry
     Harris-Foulkes estimate   =   -1455.96523821 Ry
     estimated scf accuracy    <       0.20656296 Ry

     iteration #  6     ecut=    36.75 Ry     beta=0.30
     Davidson diagonalization with overlap
     ethr =  1.27E-04,  avg # of iterations =  6.8

     negative rho (up, down):  3.576E-03 0.000E+00
 
     Adding external electric field

     Computed dipole along edir(3) : 
        Dipole                0.3808 Ry au,          0.9680 Debye
        Dipole field          0.0009 Ry au
 
        Potential amp.       -0.0846 Ry
        Total length         45.8317 bohr
 

     total cpu time spent up to now is      148.1 secs

     total energy              =   -1455.95122363 Ry
     Harris-Foulkes estimate   =   -1455.95894307 Ry
     estimated scf accuracy    <       0.03883876 Ry

     iteration #  7     ecut=    36.75 Ry     beta=0.30
     Davidson diagonalization with overlap
     ethr =  2.38E-05,  avg # of iterations =  6.8

     negative rho (up, down):  3.903E-03 0.000E+00
 
     Adding external electric field

     Computed dipole along edir(3) : 
        Dipole                0.3636 Ry au,          0.9242 Debye
        Dipole field          0.0009 Ry au
 
        Potential amp.       -0.0808 Ry
        Total length         45.8317 bohr
 

     total cpu time spent up to now is      173.0 secs

     total energy              =   -1455.95601161 Ry
     Harris-Foulkes estimate   =   -1455.96232355 Ry
     estimated scf accuracy    <       0.03918948 Ry

     iteration #  8     ecut=    36.75 Ry     beta=0.30
     Davidson diagonalization with overlap
     ethr =  2.38E-05,  avg # of iterations =  3.8

     negative rho (up, down):  4.065E-03 0.000E+00
 
     Adding external electric field

     Computed dipole along edir(3) : 
        Dipole                0.3719 Ry au,          0.9452 Debye
        Dipole field          0.0009 Ry au
 
        Potential amp.       -0.0827 Ry
        Total length         45.8317 bohr
 

     total cpu time spent up to now is      193.3 secs

     total energy              =   -1455.95937027 Ry
     Harris-Foulkes estimate   =   -1455.96025734 Ry
     estimated scf accuracy    <       0.01037560 Ry

     iteration #  9     ecut=    36.75 Ry     beta=0.30
     Davidson diagonalization with overlap
     ethr =  6.37E-06,  avg # of iterations =  4.2

     negative rho (up, down):  4.264E-03 0.000E+00
 
     Adding external electric field

     Computed dipole along edir(3) : 
        Dipole                0.3883 Ry au,          0.9869 Debye
        Dipole field          0.0009 Ry au
 
        Potential amp.       -0.0863 Ry
        Total length         45.8317 bohr
 

     total cpu time spent up to now is      214.7 secs

     total energy              =   -1455.96017752 Ry
     Harris-Foulkes estimate   =   -1455.96036123 Ry
     estimated scf accuracy    <       0.00279108 Ry

     iteration # 10     ecut=    36.75 Ry     beta=0.30
     Davidson diagonalization with overlap
     ethr =  1.71E-06,  avg # of iterations =  5.4

     negative rho (up, down):  4.449E-03 0.000E+00
 
     Adding external electric field

     Computed dipole along edir(3) : 
        Dipole                0.3928 Ry au,          0.9985 Debye
        Dipole field          0.0010 Ry au
 
        Potential amp.       -0.0873 Ry
        Total length         45.8317 bohr
 

     total cpu time spent up to now is      237.6 secs

     total energy              =   -1455.96046398 Ry
     Harris-Foulkes estimate   =   -1455.96065938 Ry
     estimated scf accuracy    <       0.00174054 Ry

     iteration # 11     ecut=    36.75 Ry     beta=0.30
     Davidson diagonalization with overlap
     ethr =  1.07E-06,  avg # of iterations =  3.9

     negative rho (up, down):  4.487E-03 0.000E+00
 
     Adding external electric field

     Computed dipole along edir(3) : 
        Dipole                0.3867 Ry au,          0.9830 Debye
        Dipole field          0.0009 Ry au
 
        Potential amp.       -0.0860 Ry
        Total length         45.8317 bohr
 

     total cpu time spent up to now is      257.7 secs

     total energy              =   -1455.96056032 Ry
     Harris-Foulkes estimate   =   -1455.96063724 Ry
     estimated scf accuracy    <       0.00036697 Ry

     iteration # 12     ecut=    36.75 Ry     beta=0.30
     Davidson diagonalization with overlap
     ethr =  2.25E-07,  avg # of iterations =  5.2

     negative rho (up, down):  4.532E-03 0.000E+00
 
     Adding external electric field

     Computed dipole along edir(3) : 
        Dipole                0.3824 Ry au,          0.9721 Debye
        Dipole field          0.0009 Ry au
 
        Potential amp.       -0.0850 Ry
        Total length         45.8317 bohr
 

     total cpu time spent up to now is      280.9 secs

     total energy              =   -1455.96061477 Ry
     Harris-Foulkes estimate   =   -1455.96062228 Ry
     estimated scf accuracy    <       0.00006848 Ry

     iteration # 13     ecut=    36.75 Ry     beta=0.30
     Davidson diagonalization with overlap
     ethr =  4.20E-08,  avg # of iterations =  4.5

     negative rho (up, down):  4.550E-03 0.000E+00
 
     Adding external electric field

     Computed dipole along edir(3) : 
        Dipole                0.3838 Ry au,          0.9755 Debye
        Dipole field          0.0009 Ry au
 
        Potential amp.       -0.0853 Ry
        Total length         45.8317 bohr
 

     total cpu time spent up to now is      302.6 secs

     total energy              =   -1455.96062407 Ry
     Harris-Foulkes estimate   =   -1455.96062040 Ry
     estimated scf accuracy    <       0.00001350 Ry

     iteration # 14     ecut=    36.75 Ry     beta=0.30
     Davidson diagonalization with overlap
     ethr =  8.28E-09,  avg # of iterations =  4.9

     negative rho (up, down):  4.566E-03 0.000E+00

     negative rho (up, down):  4.566E-03 0.000E+00

     negative rho (up, down):  4.566E-03 0.000E+00

     negative rho (up, down):  4.566E-03 0.000E+00

     negative rho (up, down):  4.566E-03 0.000E+00

     negative rho (up, down):  4.566E-03 0.000E+00

     negative rho (up, down):  4.566E-03 0.000E+00

     negative rho (up, down):  4.566E-03 0.000E+00

     negative rho (up, down):  4.566E-03 0.000E+00

     negative rho (up, down):  4.566E-03 0.000E+00

     negative rho (up, down):  4.566E-03 0.000E+00

     negative rho (up, down):  4.566E-03 0.000E+00

     negative rho (up, down):  4.566E-03 0.000E+00

     negative rho (up, down):  4.566E-03 0.000E+00

     negative rho (up, down):  4.566E-03 0.000E+00

     negative rho (up, down):  4.566E-03 0.000E+00

     negative rho (up, down):  4.566E-03 0.000E+00

     negative rho (up, down):  4.566E-03 0.000E+00

     negative rho (up, down):  4.566E-03 0.000E+00

     negative rho (up, down):  4.566E-03 0.000E+00

     negative rho (up, down):  4.566E-03 0.000E+00

     negative rho (up, down):  4.566E-03 0.000E+00

     negative rho (up, down):  4.566E-03 0.000E+00

     negative rho (up, down):  4.566E-03 0.000E+00

     negative rho (up, down):  4.566E-03 0.000E+00

     negative rho (up, down):  4.566E-03 0.000E+00

     negative rho (up, down):  4.566E-03 0.000E+00

     negative rho (up, down):  4.566E-03 0.000E+00

     negative rho (up, down):  4.566E-03 0.000E+00

     negative rho (up, down):  4.566E-03 0.000E+00

     negative rho (up, down):  4.566E-03 0.000E+00

     negative rho (up, down):  4.566E-03 0.000E+00

     negative rho (up, down):  4.566E-03 0.000E+00

     negative rho (up, down):  4.566E-03 0.000E+00

     negative rho (up, down):  4.566E-03 0.000E+00
 
     Adding external electric field

     Computed dipole along edir(3) : 
        Dipole                0.3637 Ry au,          0.9246 Debye
        Dipole field          0.0009 Ry au
 
        Potential amp.       -0.0809 Ry
        Total length         45.8317 bohr
 

     total cpu time spent up to now is      377.2 secs

     End of self-consistent calculation

          k = 0.0000 0.0000 0.0000 ( 19435 PWs)   bands (ev):

   -52.9281 -52.6687 -52.6376 -52.5607 -52.5595 -52.5369 -52.5161 -52.5155
   -52.5084 -52.4561 -52.4152 -52.4148 -29.3299 -29.2203 -29.2199 -29.1078
   -29.0787 -29.0785 -29.0612 -29.0167 -29.0165 -29.0054 -28.8995 -28.7159
   -28.6229 -28.6220 -28.5555 -28.5553 -28.5537 -28.5050 -28.5050 -28.4483
   -28.3754 -28.3752 -28.3625 -28.3564 -28.3049 -28.3047 -28.2632 -28.2571
   -28.2571 -28.2261 -28.2111 -28.2107 -28.1498 -28.1498 -28.0647 -28.0647
   -17.8945  -6.1481  -3.0042  -1.9775  -1.9774  -1.7793  -1.2793  -1.0728
    -1.0310  -1.0309  -0.7708  -0.7708  -0.7556  -0.3798  -0.3773  -0.3772
    -0.3082  -0.3068  -0.3067   0.7826   1.0122   1.0124   1.8132   1.8842
     1.9497   1.9498   2.2057   2.4628   2.5518   2.5519   2.7807   2.7807
     2.8259   2.8263   2.9062   2.9062   2.9074   2.9277   2.9277   3.1267
     3.4184   3.6797   3.8973

          k = 0.0000 0.0322 0.0000 ( 19477 PWs)   bands (ev):

   -52.9261 -52.6617 -52.6318 -52.5660 -52.5606 -52.5329 -52.5228 -52.5160
   -52.5094 -52.4568 -52.4193 -52.4147 -29.3220 -29.1923 -29.1739 -29.0709
   -29.0508 -29.0405 -29.0348 -28.9874 -28.9804 -28.9605 -28.8835 -28.7187
   -28.6564 -28.6412 -28.5619 -28.5487 -28.5449 -28.5245 -28.5080 -28.4581
   -28.4209 -28.4091 -28.3585 -28.3452 -28.3118 -28.2963 -28.2902 -28.2750
   -28.2659 -28.2509 -28.2433 -28.2128 -28.1884 -28.1649 -28.1208 -28.0755
   -17.8944  -6.1466  -2.7889  -1.9766  -1.9632  -1.5380  -1.0560  -0.9621
    -0.8832  -0.8574  -0.7556  -0.6048  -0.5928  -0.2745  -0.2369  -0.2314
    -0.1784  -0.0956  -0.0901   0.8359   1.0395   1.0400   1.7250   1.9183
     2.0204   2.0227   2.1510   2.2748   2.3485   2.4612   2.5652   2.6952
     2.7426   2.7780   2.8335   2.9163   2.9387   2.9749   2.9812   3.1219
     3.2441   3.3616   3.5807

          k = 0.0000 0.0645 0.0000 ( 19509 PWs)   bands (ev):

   -52.9221 -52.6449 -52.6140 -52.5815 -52.5607 -52.5502 -52.5192 -52.5160
   -52.5079 -52.4601 -52.4282 -52.4147 -29.3064 -29.1274 -29.0576 -28.9874
   -28.9846 -28.9799 -28.9359 -28.9169 -28.9048 -28.8376 -28.8326 -28.7299
   -28.7089 -28.6885 -28.6288 -28.5567 -28.5527 -28.5160 -28.5091 -28.4847
   -28.4832 -28.4565 -28.4417 -28.3928 -28.3576 -28.3508 -28.3210 -28.3076
   -28.2779 -28.2710 -28.2674 -28.2663 -28.2233 -28.2050 -28.1896 -28.1054
   -17.8943  -6.1438  -2.2153  -1.9411  -1.9379  -0.9889  -0.9477  -0.6341
    -0.4851  -0.4565  -0.4352  -0.2048  -0.1955  -0.0198   0.1616   0.1655
     0.1903   0.4963   0.4993   0.9348   1.0696   1.1596   1.3359   1.6351
     1.8032   1.8565   1.9205   1.9907   2.2253   2.2341   2.3446   2.4014
     2.4377   2.4883   2.5626   2.6709   2.7939   2.9636   2.9706   3.0932
     3.1457   3.1921   3.2278

          k = 0.0000-0.0967 0.0000 ( 19524 PWs)   bands (ev):

   -52.9201 -52.6330 -52.5973 -52.5841 -52.5788 -52.5607 -52.5161 -52.5151
   -52.5036 -52.4638 -52.4328 -52.4147 -29.2986 -29.0871 -28.9630 -28.9549
   -28.9437 -28.9245 -28.8868 -28.8664 -28.8469 -28.8020 -28.7835 -28.7586
   -28.7290 -28.6507 -28.6029 -28.5946 -28.5837 -28.5758 -28.5644 -28.5421
   -28.4724 -28.4721 -28.4521 -28.4326 -28.4216 -28.4086 -28.3952 -28.3143
   -28.3026 -28.2685 -28.2610 -28.2553 -28.2501 -28.2396 -28.1569 -28.1390
   -17.8942  -6.1425  -1.9551  -1.9263  -1.4728  -1.4494  -0.5469  -0.4964
    -0.1323  -0.1216  -0.0449   0.0104   0.0189   0.0825   0.6069   0.6198
     0.6804   0.7514   0.7630   0.7832   1.2535   1.2825   1.3517   1.3876
     1.4283   1.4309   1.7941   1.8686   1.9425   2.0548   2.0697   2.1432
     2.2147   2.2327   2.2637   2.3459   2.5385   2.5931   2.6426   2.6709
     2.7495   3.0487   3.3346

          k = 0.0279-0.0161 0.0000 ( 19477 PWs)   bands (ev):

   -52.9261 -52.6616 -52.6317 -52.5671 -52.5596 -52.5329 -52.5228 -52.5160
   -52.5094 -52.4569 -52.4190 -52.4150 -29.3220 -29.1927 -29.1734 -29.0710
   -29.0506 -29.0408 -29.0346 -28.9874 -28.9803 -28.9605 -28.8835 -28.7186
   -28.6571 -28.6406 -28.5620 -28.5486 -28.5447 -28.5246 -28.5077 -28.4586
   -28.4209 -28.4091 -28.3586 -28.3452 -28.3121 -28.2963 -28.2898 -28.2752
   -28.2659 -28.2511 -28.2432 -28.2125 -28.1884 -28.1649 -28.1208 -28.0755
   -17.8944  -6.1466  -2.7889  -1.9765  -1.9633  -1.5380  -1.0560  -0.9621
    -0.8831  -0.8574  -0.7556  -0.6048  -0.5928  -0.2745  -0.2370  -0.2314
    -0.1784  -0.0957  -0.0901   0.8360   1.0393   1.0401   1.7250   1.9182
     2.0203   2.0228   2.1510   2.2748   2.3484   2.4614   2.5652   2.6953
     2.7426   2.7779   2.8334   2.9162   2.9388   2.9750   2.9812   3.1218
     3.2440   3.3616   3.5804

          k = 0.0279 0.0161 0.0000 ( 19477 PWs)   bands (ev):

   -52.9261 -52.6616 -52.6317 -52.5665 -52.5601 -52.5330 -52.5229 -52.5155
   -52.5096 -52.4569 -52.4190 -52.4150 -29.3220 -29.1925 -29.1736 -29.0710
   -29.0506 -29.0408 -29.0346 -28.9876 -28.9801 -28.9606 -28.8835 -28.7186
   -28.6569 -28.6408 -28.5620 -28.5487 -28.5446 -28.5246 -28.5078 -28.4583
   -28.4210 -28.4090 -28.3586 -28.3452 -28.3121 -28.2964 -28.2897 -28.2751
   -28.2659 -28.2510 -28.2432 -28.2127 -28.1884 -28.1649 -28.1208 -28.0756
   -17.8944  -6.1466  -2.7889  -1.9765  -1.9633  -1.5380  -1.0560  -0.9621
    -0.8832  -0.8574  -0.7556  -0.6048  -0.5928  -0.2745  -0.2370  -0.2314
    -0.1784  -0.0957  -0.0900   0.8360   1.0393   1.0401   1.7250   1.9183
     2.0204   2.0227   2.1510   2.2748   2.3484   2.4614   2.5651   2.6953
     2.7426   2.7779   2.8334   2.9162   2.9388   2.9749   2.9812   3.1219
     3.2440   3.3616   3.5804

          k = 0.0279 0.0483 0.0000 ( 19485 PWs)   bands (ev):

   -52.9231 -52.6496 -52.6197 -52.5777 -52.5602 -52.5370 -52.5293 -52.5188
   -52.5041 -52.4584 -52.4271 -52.4140 -29.3102 -29.1429 -29.0919 -29.0151
   -29.0014 -28.9888 -28.9677 -28.9431 -28.9029 -28.8863 -28.8518 -28.7267
   -28.6968 -28.6805 -28.6234 -28.5512 -28.5308 -28.5179 -28.5140 -28.4920
   -28.4818 -28.4097 -28.3820 -28.3792 -28.3548 -28.3418 -28.3143 -28.3015
   -28.2799 -28.2637 -28.2425 -28.2343 -28.2294 -28.2140 -28.1771 -28.1032
   -17.8943  -6.1444  -2.3896  -1.9528  -1.9453  -1.1238  -0.7607  -0.7420
    -0.6447  -0.5931  -0.5657  -0.5216  -0.1731  -0.0377  -0.0239   0.0747
     0.1322   0.1490   0.3883   0.9134   1.0702   1.0919   1.4950   1.8251
     1.8777   1.9078   1.9940   2.0351   2.0974   2.3180   2.4063   2.4939
     2.5401   2.6376   2.7230   2.7504   2.8001   2.9997   3.0794   3.0892
     3.1503   3.2054   3.2718

          k = 0.0279-0.1128 0.0000 ( 19505 PWs)   bands (ev):

   -52.9201 -52.6325 -52.5986 -52.5921 -52.5634 -52.5587 -52.5366 -52.5086
   -52.4991 -52.4602 -52.4376 -52.4128 -29.2986 -29.0722 -28.9847 -28.9482
   -28.9384 -28.9154 -28.8830 -28.8633 -28.8290 -28.8135 -28.7896 -28.7530
   -28.7318 -28.6923 -28.6846 -28.6231 -28.5956 -28.5398 -28.5106 -28.5063
   -28.4897 -28.4843 -28.4439 -28.4357 -28.4022 -28.3803 -28.3342 -28.3218
   -28.3114 -28.3016 -28.2581 -28.2494 -28.2445 -28.2270 -28.1967 -28.1476
   -17.8942  -6.1425  -1.9570  -1.9301  -1.6769  -1.0189  -0.5298  -0.4501
    -0.3729  -0.1884  -0.1155  -0.0066   0.2270   0.2492   0.4269   0.5368
     0.6178   0.6479   0.7598   1.0512   1.1033   1.1571   1.2638   1.3503
     1.5152   1.5592   1.6474   1.7388   1.8652   2.0057   2.0500   2.0813
     2.1091   2.2348   2.2871   2.4079   2.5823   2.6545   2.7057   2.8054
     2.9092   3.0872   3.2530

          k = 0.0279-0.0806 0.0000 ( 19505 PWs)   bands (ev):

   -52.9201 -52.6324 -52.5987 -52.5921 -52.5634 -52.5585 -52.5367 -52.5086
   -52.4991 -52.4602 -52.4376 -52.4127 -29.2986 -29.0723 -28.9847 -28.9483
   -28.9384 -28.9154 -28.8830 -28.8632 -28.8290 -28.8134 -28.7896 -28.7529
   -28.7317 -28.6922 -28.6844 -28.6231 -28.5960 -28.5397 -28.5106 -28.5064
   -28.4898 -28.4842 -28.4439 -28.4357 -28.4022 -28.3804 -28.3342 -28.3218
   -28.3113 -28.3016 -28.2581 -28.2494 -28.2444 -28.2270 -28.1967 -28.1476
   -17.8942  -6.1425  -1.9570  -1.9301  -1.6769  -1.0189  -0.5298  -0.4501
    -0.3729  -0.1884  -0.1155  -0.0066   0.2270   0.2493   0.4269   0.5368
     0.6178   0.6479   0.7598   1.0512   1.1033   1.1571   1.2638   1.3503
     1.5152   1.5591   1.6474   1.7388   1.8652   2.0057   2.0501   2.0813
     2.1090   2.2347   2.2871   2.4080   2.5823   2.6545   2.7057   2.8053
     2.9092   3.0872   3.2530

          k = 0.0279-0.0483 0.0000 ( 19485 PWs)   bands (ev):

   -52.9231 -52.6495 -52.6197 -52.5783 -52.5598 -52.5367 -52.5296 -52.5190
   -52.5040 -52.4583 -52.4272 -52.4140 -29.3102 -29.1430 -29.0918 -29.0151
   -29.0014 -28.9887 -28.9677 -28.9430 -28.9030 -28.8863 -28.8518 -28.7267
   -28.6969 -28.6804 -28.6232 -28.5511 -28.5310 -28.5179 -28.5140 -28.4922
   -28.4821 -28.4096 -28.3820 -28.3794 -28.3549 -28.3417 -28.3144 -28.3015
   -28.2799 -28.2637 -28.2425 -28.2342 -28.2294 -28.2140 -28.1770 -28.1032
   -17.8943  -6.1444  -2.3896  -1.9528  -1.9453  -1.1238  -0.7607  -0.7420
    -0.6447  -0.5931  -0.5657  -0.5216  -0.1731  -0.0377  -0.0239   0.0747
     0.1322   0.1490   0.3883   0.9134   1.0702   1.0919   1.4950   1.8251
     1.8777   1.9078   1.9940   2.0351   2.0974   2.3181   2.4063   2.4939
     2.5401   2.6376   2.7230   2.7503   2.8001   2.9997   3.0793   3.0892
     3.1503   3.2054   3.2718

          k = 0.0558-0.0322 0.0000 ( 19509 PWs)   bands (ev):

   -52.9221 -52.6445 -52.6138 -52.5829 -52.5596 -52.5502 -52.5192 -52.5160
   -52.5079 -52.4602 -52.4278 -52.4150 -29.3064 -29.1280 -29.0572 -28.9873
   -28.9844 -28.9801 -28.9359 -28.9169 -28.9047 -28.8375 -28.8326 -28.7298
   -28.7094 -28.6880 -28.6290 -28.5560 -28.5527 -28.5156 -28.5094 -28.4847
   -28.4832 -28.4569 -28.4426 -28.3929 -28.3576 -28.3509 -28.3211 -28.3078
   -28.2776 -28.2709 -28.2674 -28.2662 -28.2233 -28.2050 -28.1895 -28.1054
   -17.8943  -6.1438  -2.2153  -1.9410  -1.9380  -0.9888  -0.9478  -0.6341
    -0.4851  -0.4565  -0.4352  -0.2048  -0.1954  -0.0198   0.1617   0.1655
     0.1903   0.4964   0.4992   0.9350   1.0694   1.1596   1.3359   1.6350
     1.8031   1.8566   1.9204   1.9907   2.2252   2.2341   2.3447   2.4015
     2.4376   2.4884   2.5626   2.6708   2.7939   2.9634   2.9706   3.0933
     3.1457   3.1920   3.2288

          k = 0.0558 0.0000 0.0000 ( 19485 PWs)   bands (ev):

   -52.9231 -52.6494 -52.6196 -52.5787 -52.5594 -52.5370 -52.5293 -52.5188
   -52.5041 -52.4585 -52.4269 -52.4142 -29.3102 -29.1432 -29.0917 -29.0151
   -29.0015 -28.9884 -28.9679 -28.9431 -28.9029 -28.8863 -28.8518 -28.7265
   -28.6973 -28.6802 -28.6229 -28.5512 -28.5309 -28.5180 -28.5140 -28.4922
   -28.4824 -28.4096 -28.3819 -28.3792 -28.3550 -28.3417 -28.3144 -28.3014
   -28.2801 -28.2636 -28.2424 -28.2342 -28.2294 -28.2140 -28.1770 -28.1032
   -17.8943  -6.1444  -2.3896  -1.9528  -1.9454  -1.1238  -0.7608  -0.7420
    -0.6447  -0.5931  -0.5657  -0.5216  -0.1730  -0.0378  -0.0238   0.0747
     0.1322   0.1490   0.3883   0.9135   1.0703   1.0918   1.4950   1.8251
     1.8777   1.9077   1.9941   2.0351   2.0974   2.3181   2.4063   2.4940
     2.5401   2.6376   2.7229   2.7504   2.8001   2.9997   3.0793   3.0891
     3.1503   3.2054   3.2718

          k = 0.0558 0.0322 0.0000 ( 19509 PWs)   bands (ev):

   -52.9221 -52.6447 -52.6139 -52.5822 -52.5602 -52.5503 -52.5192 -52.5156
   -52.5083 -52.4603 -52.4277 -52.4150 -29.3064 -29.1277 -29.0574 -28.9874
   -28.9844 -28.9800 -28.9359 -28.9172 -28.9045 -28.8376 -28.8327 -28.7298
   -28.7093 -28.6882 -28.6289 -28.5563 -28.5528 -28.5157 -28.5093 -28.4849
   -28.4830 -28.4567 -28.4421 -28.3928 -28.3576 -28.3510 -28.3209 -28.3078
   -28.2778 -28.2708 -28.2673 -28.2663 -28.2233 -28.2050 -28.1895 -28.1054
   -17.8943  -6.1438  -2.2153  -1.9411  -1.9379  -0.9888  -0.9478  -0.6341
    -0.4851  -0.4565  -0.4352  -0.2048  -0.1954  -0.0198   0.1617   0.1655
     0.1903   0.4964   0.4992   0.9350   1.0694   1.1596   1.3359   1.6350
     1.8032   1.8566   1.9204   1.9908   2.2253   2.2341   2.3446   2.4014
     2.4376   2.4884   2.5625   2.6708   2.7939   2.9635   2.9707   3.0932
     3.1457   3.1920   3.2275

          k = 0.0558-0.1289 0.0000 ( 19505 PWs)   bands (ev):

   -52.9201 -52.6323 -52.5986 -52.5925 -52.5633 -52.5586 -52.5365 -52.5085
   -52.4992 -52.4604 -52.4373 -52.4129 -29.2986 -29.0725 -28.9845 -28.9480
   -28.9385 -28.9153 -28.8828 -28.8635 -28.8290 -28.8135 -28.7895 -28.7529
   -28.7318 -28.6923 -28.6848 -28.6231 -28.5953 -28.5397 -28.5106 -28.5064
   -28.4896 -28.4844 -28.4442 -28.4357 -28.4023 -28.3803 -28.3340 -28.3218
   -28.3114 -28.3015 -28.2580 -28.2494 -28.2446 -28.2269 -28.1966 -28.1477
   -17.8942  -6.1425  -1.9569  -1.9302  -1.6769  -1.0189  -0.5299  -0.4501
    -0.3729  -0.1884  -0.1155  -0.0066   0.2271   0.2492   0.4269   0.5368
     0.6178   0.6479   0.7598   1.0512   1.1033   1.1571   1.2637   1.3503
     1.5152   1.5592   1.6473   1.7388   1.8653   2.0056   2.0500   2.0814
     2.1091   2.2348   2.2870   2.4079   2.5823   2.6545   2.7057   2.8054
     2.9091   3.0872   3.2529

          k = 0.0558-0.0967 0.0000 ( 19521 PWs)   bands (ev):

   -52.9191 -52.6171 -52.6119 -52.5724 -52.5700 -52.5596 -52.5569 -52.5042
   -52.4948 -52.4532 -52.4500 -52.4112 -29.2947 -28.9933 -28.9868 -28.9228
   -28.8906 -28.8781 -28.8516 -28.8282 -28.8042 -28.7962 -28.7812 -28.7377
   -28.7221 -28.7127 -28.7033 -28.6587 -28.6502 -28.6465 -28.5374 -28.4899
   -28.4885 -28.4824 -28.4529 -28.4382 -28.4329 -28.3629 -28.3284 -28.3150
   -28.3073 -28.3013 -28.2687 -28.2665 -28.2604 -28.2123 -28.2118 -28.2042
   -17.8941  -6.1418  -1.9353  -1.9303  -1.0080  -1.0079  -0.9764  -0.1309
    -0.1083  -0.0971   0.2740   0.2813   0.4387   0.5678   0.5716   0.5953
     0.8321   0.8345   0.8720   1.0795   1.1066   1.1173   1.1402   1.1508
     1.3015   1.3457   1.3529   1.6064   1.6381   1.6602   1.7546   1.7786
     1.7903   1.9715   2.2379   2.2389   2.3326   2.4705   2.8926   2.9262
     3.0013   3.1960   3.2330

          k = 0.0558-0.0645 0.0000 ( 19505 PWs)   bands (ev):

   -52.9201 -52.6319 -52.5989 -52.5929 -52.5631 -52.5583 -52.5367 -52.5086
   -52.4991 -52.4604 -52.4374 -52.4128 -29.2986 -29.0727 -28.9844 -28.9480
   -28.9385 -28.9153 -28.8829 -28.8633 -28.8290 -28.8133 -28.7895 -28.7530
   -28.7317 -28.6922 -28.6847 -28.6231 -28.5955 -28.5396 -28.5107 -28.5066
   -28.4897 -28.4844 -28.4445 -28.4358 -28.4023 -28.3803 -28.3340 -28.3218
   -28.3114 -28.3014 -28.2579 -28.2494 -28.2446 -28.2269 -28.1966 -28.1476
   -17.8942  -6.1425  -1.9569  -1.9302  -1.6769  -1.0189  -0.5299  -0.4501
    -0.3729  -0.1884  -0.1155  -0.0066   0.2271   0.2492   0.4269   0.5368
     0.6178   0.6479   0.7597   1.0512   1.1033   1.1571   1.2637   1.3503
     1.5153   1.5591   1.6473   1.7388   1.8653   2.0057   2.0500   2.0814
     2.1090   2.2348   2.2870   2.4080   2.5824   2.6545   2.7057   2.8054
     2.9091   3.0872   3.2530

          k =-0.0837 0.0483 0.0000 ( 19524 PWs)   bands (ev):

   -52.9201 -52.6321 -52.5985 -52.5845 -52.5791 -52.5597 -52.5161 -52.5152
   -52.5036 -52.4641 -52.4323 -52.4149 -29.2986 -29.0878 -28.9627 -28.9544
   -28.9434 -28.9250 -28.8866 -28.8664 -28.8467 -28.8019 -28.7835 -28.7591
   -28.7287 -28.6501 -28.6028 -28.5946 -28.5829 -28.5770 -28.5651 -28.5418
   -28.4723 -28.4722 -28.4522 -28.4335 -28.4216 -28.4083 -28.3958 -28.3136
   -28.3026 -28.2686 -28.2610 -28.2551 -28.2498 -28.2397 -28.1567 -28.1392
   -17.8942  -6.1425  -1.9550  -1.9264  -1.4726  -1.4496  -0.5471  -0.4962
    -0.1322  -0.1216  -0.0447   0.0102   0.0188   0.0826   0.6071   0.6196
     0.6803   0.7515   0.7628   0.7834   1.2534   1.2825   1.3516   1.3877
     1.4285   1.4308   1.7942   1.8687   1.9424   2.0549   2.0697   2.1431
     2.2144   2.2326   2.2639   2.3459   2.5386   2.5930   2.6426   2.6710
     2.7494   3.0488   3.3346

          k =-0.0837 0.0806 0.0000 ( 19505 PWs)   bands (ev):

   -52.9201 -52.6318 -52.5990 -52.5929 -52.5633 -52.5581 -52.5366 -52.5086
   -52.4991 -52.4605 -52.4372 -52.4129 -29.2986 -29.0727 -28.9844 -28.9480
   -28.9385 -28.9152 -28.8830 -28.8633 -28.8289 -28.8131 -28.7895 -28.7532
   -28.7316 -28.6921 -28.6844 -28.6231 -28.5960 -28.5398 -28.5106 -28.5065
   -28.4899 -28.4842 -28.4445 -28.4359 -28.4023 -28.3802 -28.3340 -28.3217
   -28.3114 -28.3015 -28.2581 -28.2493 -28.2445 -28.2269 -28.1966 -28.1477
   -17.8942  -6.1425  -1.9569  -1.9302  -1.6769  -1.0189  -0.5299  -0.4501
    -0.3729  -0.1884  -0.1155  -0.0066   0.2271   0.2493   0.4269   0.5368
     0.6178   0.6479   0.7597   1.0512   1.1033   1.1571   1.2637   1.3504
     1.5153   1.5591   1.6474   1.7389   1.8653   2.0056   2.0501   2.0813
     2.1090   2.2348   2.2871   2.4080   2.5823   2.6545   2.7056   2.8054
     2.9091   3.0872   3.2530

          k =-0.0837 0.1128 0.0000 ( 19505 PWs)   bands (ev):

   -52.9201 -52.6320 -52.5989 -52.5926 -52.5635 -52.5582 -52.5365 -52.5085
   -52.4992 -52.4605 -52.4372 -52.4129 -29.2986 -29.0725 -28.9845 -28.9481
   -28.9385 -28.9152 -28.8830 -28.8634 -28.8289 -28.8132 -28.7895 -28.7532
   -28.7316 -28.6921 -28.6842 -28.6231 -28.5963 -28.5398 -28.5106 -28.5064
   -28.4899 -28.4841 -28.4442 -28.4357 -28.4022 -28.3803 -28.3341 -28.3218
   -28.3113 -28.3016 -28.2581 -28.2493 -28.2444 -28.2270 -28.1966 -28.1477
   -17.8942  -6.1425  -1.9569  -1.9302  -1.6769  -1.0189  -0.5299  -0.4501
    -0.3729  -0.1884  -0.1155  -0.0066   0.2270   0.2493   0.4269   0.5368
     0.6178   0.6479   0.7597   1.0512   1.1033   1.1571   1.2637   1.3503
     1.5153   1.5591   1.6474   1.7389   1.8652   2.0057   2.0501   2.0813
     2.1090   2.2348   2.2870   2.4081   2.5822   2.6546   2.7056   2.8053
     2.9091   3.0872   3.2530

          k =-0.0837-0.0483 0.0000 ( 19524 PWs)   bands (ev):

   -52.9201 -52.6325 -52.5978 -52.5842 -52.5793 -52.5602 -52.5157 -52.5152
   -52.5038 -52.4642 -52.4322 -52.4150 -29.2986 -29.0875 -28.9628 -28.9545
   -28.9434 -28.9250 -28.8866 -28.8668 -28.8466 -28.8019 -28.7837 -28.7588
   -28.7288 -28.6503 -28.6029 -28.5944 -28.5832 -28.5765 -28.5650 -28.5417
   -28.4724 -28.4720 -28.4522 -28.4331 -28.4216 -28.4083 -28.3956 -28.3139
   -28.3026 -28.2686 -28.2610 -28.2551 -28.2500 -28.2397 -28.1566 -28.1394
   -17.8942  -6.1425  -1.9550  -1.9263  -1.4727  -1.4495  -0.5470  -0.4963
    -0.1322  -0.1217  -0.0447   0.0102   0.0189   0.0825   0.6071   0.6196
     0.6803   0.7515   0.7628   0.7834   1.2534   1.2825   1.3515   1.3878
     1.4285   1.4308   1.7942   1.8686   1.9424   2.0549   2.0697   2.1432
     2.2145   2.2328   2.2638   2.3459   2.5386   2.5931   2.6427   2.6710
     2.7493   3.0488   3.3346

     the Fermi energy is     2.4710 ev

!    total energy              =   -1455.96062465 Ry
     Harris-Foulkes estimate   =   -1455.96066278 Ry
     estimated scf accuracy    <       0.00000848 Ry

     The total energy is the sum of the following terms:

     one-electron contribution =  -11749.42558929 Ry
     hartree contribution      =    5872.50042813 Ry
     xc contribution           =    -236.61467843 Ry
     ewald contribution        =    4657.69809831 Ry
     electric field correction =       0.00032084 Ry
     smearing contrib. (-TS)   =      -0.11920420 Ry

     convergence has been achieved in  14 iterations
 
 BEEF-vdW xc energy contributions
           1 :   -202.814628038488     
           2 :    184.113496404635     
           3 :   -152.372395683059     
           4 :    116.214506878429     
           5 :   -83.7727669005509     
           6 :    60.0307930589364     
           7 :   -45.8581365436951     
           8 :    38.7504115955855     
           9 :   -34.6919734887213     
          10 :    30.1532969544414     
          11 :   -23.4030156710649     
          12 :    14.7322288907218     
          13 :   -5.74741927174551     
          14 :   -1.77187031838679     
          15 :    6.83027201170268     
          16 :   -9.58783183790399     
          17 :    11.0704188495722     
          18 :   -12.4782554302841     
          19 :    14.4964676829860     
          20 :   -16.9805460634270     
          21 :    19.1379502580016     
          22 :   -20.0536376636626     
          23 :    19.2289492118030     
          24 :   -16.8465334636032     
          25 :    13.6506861268800     
          26 :   -10.5588732345549     
          27 :    8.23185653468488     
          28 :   -6.82455821451435     
          29 :    6.01849685302614     
          30 :   -5.29018605235859     
          31 :   -23.3856139054546     
          32 :   -17.5889688172798     

     Forces acting on atoms (Ry/au):


     negative rho (up, down):  4.566E-03 0.000E+00
     atom    1 type  1   force =     0.00009646    0.00007650   -0.00542528
     atom    2 type  1   force =    -0.00009318    0.00006833   -0.00542946
     atom    3 type  1   force =    -0.00000168   -0.00012532   -0.00543151
     atom    4 type  1   force =     0.00000272   -0.00001738   -0.00333360
     atom    5 type  1   force =     0.00004568    0.00416011   -0.00411163
     atom    6 type  1   force =    -0.00004297    0.00002856    0.00750056
     atom    7 type  1   force =    -0.00357451   -0.00212196   -0.00411897
     atom    8 type  1   force =     0.00357628   -0.00207060   -0.00416892
     atom    9 type  1   force =     0.00000216    0.00001551    0.07634719
     atom   10 type  1   force =    -0.00000489    0.00242781   -0.01738610
     atom   11 type  1   force =     0.00208272   -0.00122208   -0.01742641
     atom   12 type  1   force =    -0.00209081   -0.00121455   -0.01741964
     atom   13 type  2   force =     0.00000237   -0.00000447   -0.03811605
     atom   14 type  3   force =    -0.00000036   -0.00000046    0.03851983

     Total force =     0.098450     Total SCF correction =     0.003881


     entering subroutine stress ...


     negative rho (up, down):  4.566E-03 0.000E+00
          total   stress  (Ry/bohr**3)                   (kbar)     P=  -18.15
  -0.00021213  -0.00000001  -0.00000001        -31.20     -0.00     -0.00
  -0.00000001  -0.00021216   0.00000001         -0.00    -31.21      0.00
  -0.00000001   0.00000001   0.00005410         -0.00      0.00      7.96


     BFGS Geometry Optimization

     number of scf cycles    =   1
     number of bfgs steps    =   0

     energy   new            =   -1455.9606246518 Ry

     new trust radius        =       0.0763471932 bohr
     new conv_thr            =       0.0000099958 Ry


ATOMIC_POSITIONS (crystal)
Nb1      0.166666667   0.166666667   0.402010442    0   0   0
Nb1      0.666666667   0.166666667   0.402010442    0   0   0
Nb1      0.166666667   0.666666667   0.402010442    0   0   0
Nb1      0.666666667   0.666666667   0.402010442    0   0   0
Nb1      0.833333333   0.333333333   0.500000000    0   0   0
Nb1      0.333333333   0.333333333   0.500000000    0   0   0
Nb1      0.833333333   0.833333333   0.500000000    0   0   0
Nb1      0.333333333   0.833333333   0.500000000    0   0   0
Nb1     -0.000000602   0.000001587   0.599613728
Nb1      0.499875334   0.000248466   0.597619695
Nb1      0.000247127   0.499874931   0.597618838
Nb1      0.499876840   0.499875701   0.597618982
O1       0.000000439  -0.000000457   0.675771739
H1      -0.000000008  -0.000000047   0.715593042



     Writing output data file calc.save
     Check: negative starting charge=   -0.004845
     NEW-OLD atomic charge density approx. for the potential
     Check: negative starting charge=   -0.004836

     negative rho (up, down):  4.565E-03 0.000E+00
 
     Adding external electric field

     Computed dipole along edir(3) : 
        Dipole                0.3638 Ry au,          0.9247 Debye
        Dipole field          0.0009 Ry au
 
        Potential amp.       -0.0809 Ry
        Total length         45.8317 bohr
 

     total cpu time spent up to now is      448.0 secs

     per-process dynamical memory:    86.8 Mb

     Self-consistent Calculation

     iteration #  1     ecut=    36.75 Ry     beta=0.30
     Davidson diagonalization with overlap
     ethr =  1.00E-06,  avg # of iterations = 14.6

     negative rho (up, down):  4.560E-03 0.000E+00
 
     Adding external electric field

     Computed dipole along edir(3) : 
        Dipole                1.1408 Ry au,          2.8997 Debye
        Dipole field          0.0028 Ry au
 
        Potential amp.       -0.2536 Ry
        Total length         45.8317 bohr
 

     total cpu time spent up to now is      484.3 secs

     total energy              =   -1455.93782381 Ry
     Harris-Foulkes estimate   =   -1455.96388002 Ry
     estimated scf accuracy    <       0.05781949 Ry

     iteration #  2     ecut=    36.75 Ry     beta=0.30
     Davidson diagonalization with overlap
     ethr =  3.55E-05,  avg # of iterations =  8.1

     negative rho (up, down):  4.653E-03 0.000E+00
 
     Adding external electric field

     Computed dipole along edir(3) : 
        Dipole                0.4518 Ry au,          1.1485 Debye
        Dipole field          0.0011 Ry au
 
        Potential amp.       -0.1004 Ry
        Total length         45.8317 bohr
 

     total cpu time spent up to now is      513.5 secs

     total energy              =   -1455.53177919 Ry
     Harris-Foulkes estimate   =   -1456.44682256 Ry
     estimated scf accuracy    <      48.93449237 Ry

     iteration #  3     ecut=    36.75 Ry     beta=0.30
     Davidson diagonalization with overlap
     ethr =  3.55E-05,  avg # of iterations =  7.5

     negative rho (up, down):  4.579E-03 0.000E+00
 
     Adding external electric field

     Computed dipole along edir(3) : 
        Dipole                0.4271 Ry au,          1.0857 Debye
        Dipole field          0.0010 Ry au
 
        Potential amp.       -0.0949 Ry
        Total length         45.8317 bohr
 

     total cpu time spent up to now is      542.0 secs

     total energy              =   -1455.96411709 Ry
     Harris-Foulkes estimate   =   -1455.96555468 Ry
     estimated scf accuracy    <       0.00733424 Ry

     iteration #  4     ecut=    36.75 Ry     beta=0.30
     Davidson diagonalization with overlap
     ethr =  4.50E-06,  avg # of iterations =  4.0

     negative rho (up, down):  4.545E-03 0.000E+00
 
     Adding external electric field

     Computed dipole along edir(3) : 
        Dipole                0.4246 Ry au,          1.0791 Debye
        Dipole field          0.0010 Ry au
 
        Potential amp.       -0.0944 Ry
        Total length         45.8317 bohr
 

     total cpu time spent up to now is      564.5 secs

     total energy              =   -1455.96470375 Ry
     Harris-Foulkes estimate   =   -1455.96502010 Ry
     estimated scf accuracy    <       0.00159480 Ry

     iteration #  5     ecut=    36.75 Ry     beta=0.30
     Davidson diagonalization with overlap
     ethr =  9.78E-07,  avg # of iterations =  4.2

     negative rho (up, down):  4.524E-03 0.000E+00
 
     Adding external electric field

     Computed dipole along edir(3) : 
        Dipole                0.4306 Ry au,          1.0946 Debye
        Dipole field          0.0010 Ry au
 
        Potential amp.       -0.0957 Ry
        Total length         45.8317 bohr
 

     total cpu time spent up to now is      587.5 secs

     total energy              =   -1455.96484171 Ry
     Harris-Foulkes estimate   =   -1455.96490388 Ry
     estimated scf accuracy    <       0.00036932 Ry

     iteration #  6     ecut=    36.75 Ry     beta=0.30
     Davidson diagonalization with overlap
     ethr =  2.27E-07,  avg # of iterations =  4.6

     negative rho (up, down):  4.515E-03 0.000E+00
 
     Adding external electric field

     Computed dipole along edir(3) : 
        Dipole                0.4325 Ry au,          1.0993 Debye
        Dipole field          0.0010 Ry au
 
        Potential amp.       -0.0961 Ry
        Total length         45.8317 bohr
 

     total cpu time spent up to now is      611.8 secs

     total energy              =   -1455.96481206 Ry
     Harris-Foulkes estimate   =   -1455.96493207 Ry
     estimated scf accuracy    <       0.00097664 Ry

     iteration #  7     ecut=    36.75 Ry     beta=0.30
     Davidson diagonalization with overlap
     ethr =  2.27E-07,  avg # of iterations =  4.6

     negative rho (up, down):  4.507E-03 0.000E+00
 
     Adding external electric field

     Computed dipole along edir(3) : 
        Dipole                0.4317 Ry au,          1.0971 Debye
        Dipole field          0.0010 Ry au
 
        Potential amp.       -0.0959 Ry
        Total length         45.8317 bohr
 

     total cpu time spent up to now is      635.5 secs

     total energy              =   -1455.96486928 Ry
     Harris-Foulkes estimate   =   -1455.96490743 Ry
     estimated scf accuracy    <       0.00038068 Ry

     iteration #  8     ecut=    36.75 Ry     beta=0.30
     Davidson diagonalization with overlap
     ethr =  2.27E-07,  avg # of iterations =  3.0

     negative rho (up, down):  4.501E-03 0.000E+00
 
     Adding external electric field

     Computed dipole along edir(3) : 
        Dipole                0.4291 Ry au,          1.0906 Debye
        Dipole field          0.0010 Ry au
 
        Potential amp.       -0.0954 Ry
        Total length         45.8317 bohr
 

     total cpu time spent up to now is      656.3 secs

     total energy              =   -1455.96489017 Ry
     Harris-Foulkes estimate   =   -1455.96489733 Ry
     estimated scf accuracy    <       0.00003046 Ry

     iteration #  9     ecut=    36.75 Ry     beta=0.30
     Davidson diagonalization with overlap
     ethr =  1.87E-08,  avg # of iterations =  5.0

     negative rho (up, down):  4.497E-03 0.000E+00
 
     Adding external electric field

     Computed dipole along edir(3) : 
        Dipole                0.4289 Ry au,          1.0903 Debye
        Dipole field          0.0010 Ry au
 
        Potential amp.       -0.0953 Ry
        Total length         45.8317 bohr
 

     total cpu time spent up to now is      681.3 secs

     total energy              =   -1455.96489564 Ry
     Harris-Foulkes estimate   =   -1455.96489630 Ry
     estimated scf accuracy    <       0.00001163 Ry

     iteration # 10     ecut=    36.75 Ry     beta=0.30
     Davidson diagonalization with overlap
     ethr =  7.13E-09,  avg # of iterations =  4.0

     negative rho (up, down):  4.494E-03 0.000E+00

     negative rho (up, down):  4.494E-03 0.000E+00

     negative rho (up, down):  4.494E-03 0.000E+00

     negative rho (up, down):  4.494E-03 0.000E+00

     negative rho (up, down):  4.494E-03 0.000E+00

     negative rho (up, down):  4.494E-03 0.000E+00

     negative rho (up, down):  4.494E-03 0.000E+00

     negative rho (up, down):  4.494E-03 0.000E+00

     negative rho (up, down):  4.494E-03 0.000E+00

     negative rho (up, down):  4.494E-03 0.000E+00

     negative rho (up, down):  4.494E-03 0.000E+00

     negative rho (up, down):  4.494E-03 0.000E+00

     negative rho (up, down):  4.494E-03 0.000E+00

     negative rho (up, down):  4.494E-03 0.000E+00

     negative rho (up, down):  4.494E-03 0.000E+00

     negative rho (up, down):  4.494E-03 0.000E+00

     negative rho (up, down):  4.494E-03 0.000E+00

     negative rho (up, down):  4.494E-03 0.000E+00

     negative rho (up, down):  4.494E-03 0.000E+00

     negative rho (up, down):  4.494E-03 0.000E+00

     negative rho (up, down):  4.494E-03 0.000E+00

     negative rho (up, down):  4.494E-03 0.000E+00

     negative rho (up, down):  4.494E-03 0.000E+00

     negative rho (up, down):  4.494E-03 0.000E+00

     negative rho (up, down):  4.494E-03 0.000E+00

     negative rho (up, down):  4.494E-03 0.000E+00

     negative rho (up, down):  4.494E-03 0.000E+00

     negative rho (up, down):  4.494E-03 0.000E+00

     negative rho (up, down):  4.494E-03 0.000E+00

     negative rho (up, down):  4.494E-03 0.000E+00

     negative rho (up, down):  4.494E-03 0.000E+00

     negative rho (up, down):  4.494E-03 0.000E+00

     negative rho (up, down):  4.494E-03 0.000E+00

     negative rho (up, down):  4.494E-03 0.000E+00

     negative rho (up, down):  4.494E-03 0.000E+00
 
     Adding external electric field

     Computed dipole along edir(3) : 
        Dipole                0.4237 Ry au,          1.0770 Debye
        Dipole field          0.0010 Ry au
 
        Potential amp.       -0.0942 Ry
        Total length         45.8317 bohr
 

     total cpu time spent up to now is      756.6 secs

     End of self-consistent calculation

          k = 0.0000 0.0000 0.0000 ( 19435 PWs)   bands (ev):

   -52.8868 -52.6102 -52.5762 -52.4969 -52.4954 -52.4780 -52.4576 -52.4566
   -52.4499 -52.3991 -52.3587 -52.3575 -29.3639 -29.1583 -29.1577 -29.0508
   -29.0232 -29.0229 -29.0052 -28.9586 -28.9583 -28.9452 -28.8650 -28.6554
   -28.5592 -28.5582 -28.4996 -28.4991 -28.4949 -28.4431 -28.4430 -28.3876
   -28.3185 -28.3182 -28.3024 -28.2993 -28.2451 -28.2442 -28.2034 -28.1995
   -28.1993 -28.1678 -28.1492 -28.1484 -28.0911 -28.0911 -28.0072 -28.0072
   -17.8665  -6.2826  -2.9496  -2.2337  -2.2336  -1.7266  -1.2194  -1.0179
    -0.9766  -0.9763  -0.7137  -0.7136  -0.7019  -0.3195  -0.3194  -0.3101
    -0.2519  -0.2497  -0.2495   0.8430   1.0767   1.0770   1.8727   1.9442
     2.0088   2.0089   2.2686   2.4836   2.6128   2.6128   2.8402   2.8403
     2.8845   2.8849   2.9580   2.9777   2.9780   2.9876   2.9876   3.1808
     3.4507   3.7303   3.9491

          k = 0.0000 0.0322 0.0000 ( 19477 PWs)   bands (ev):

   -52.8850 -52.6027 -52.5705 -52.5035 -52.4955 -52.4742 -52.4643 -52.4568
   -52.4511 -52.3998 -52.3628 -52.3576 -29.3591 -29.1307 -29.1111 -29.0138
   -28.9953 -28.9852 -28.9788 -28.9294 -28.9214 -28.9010 -28.8449 -28.6580
   -28.5961 -28.5788 -28.5056 -28.4901 -28.4866 -28.4618 -28.4453 -28.3981
   -28.3635 -28.3494 -28.3009 -28.2873 -28.2552 -28.2373 -28.2295 -28.2157
   -28.2061 -28.1904 -28.1841 -28.1518 -28.1294 -28.1061 -28.0633 -28.0180
   -17.8664  -6.2815  -2.7348  -2.2267  -2.2239  -1.4944  -0.9974  -0.9068
    -0.8271  -0.8010  -0.6982  -0.5466  -0.5375  -0.2161  -0.1758  -0.1705
    -0.1196  -0.0355  -0.0338   0.8954   1.1027   1.1052   1.7850   1.9753
     2.0776   2.0830   2.2092   2.3336   2.3907   2.5172   2.6234   2.7622
     2.8033   2.8343   2.8916   2.9702   2.9978   3.0388   3.0435   3.1820
     3.2803   3.4140   3.6370

          k = 0.0000 0.0645 0.0000 ( 19509 PWs)   bands (ev):

   -52.8814 -52.5840 -52.5534 -52.5200 -52.4956 -52.4914 -52.4605 -52.4569
   -52.4497 -52.4028 -52.3718 -52.3575 -29.3497 -29.0659 -28.9946 -28.9316
   -28.9290 -28.9226 -28.8799 -28.8593 -28.8453 -28.7882 -28.7763 -28.6699
   -28.6503 -28.6285 -28.5685 -28.4991 -28.4941 -28.4530 -28.4472 -28.4263
   -28.4254 -28.3971 -28.3823 -28.3333 -28.2991 -28.2939 -28.2623 -28.2500
   -28.2169 -28.2133 -28.2082 -28.2049 -28.1636 -28.1461 -28.1307 -28.0477
   -17.8662  -6.2793  -2.2500  -2.2055  -2.1080  -0.9360  -0.8972  -0.5764
    -0.4304  -0.3977  -0.3751  -0.1441  -0.1378   0.0375   0.2180   0.2219
     0.2571   0.5484   0.5623   0.9914   1.1354   1.2161   1.3979   1.6875
     1.8599   1.9113   1.9682   2.0585   2.2800   2.2880   2.4013   2.4430
     2.4948   2.5561   2.6235   2.7242   2.8441   3.0041   3.0459   3.1356
     3.2034   3.2423   3.2827

          k = 0.0000-0.0967 0.0000 ( 19524 PWs)   bands (ev):

   -52.8796 -52.5697 -52.5376 -52.5243 -52.5196 -52.4956 -52.4570 -52.4565
   -52.4453 -52.4065 -52.3765 -52.3575 -29.3451 -29.0255 -28.9033 -28.8922
   -28.8880 -28.8674 -28.8298 -28.8095 -28.7886 -28.7515 -28.7248 -28.7027
   -28.6697 -28.5885 -28.5473 -28.5345 -28.5204 -28.5166 -28.5067 -28.4795
   -28.4151 -28.4110 -28.3924 -28.3802 -28.3640 -28.3491 -28.3330 -28.2552
   -28.2446 -28.2084 -28.2016 -28.1967 -28.1891 -28.1794 -28.0984 -28.0815
   -17.8661  -6.2783  -2.2126  -2.1968  -1.4189  -1.3911  -0.4878  -0.4494
    -0.0696  -0.0631   0.0143   0.0734   0.0743   0.1382   0.6603   0.6778
     0.7344   0.8159   0.8307   0.8378   1.3055   1.3302   1.4101   1.4447
     1.4797   1.5109   1.8188   1.9213   1.9912   2.1057   2.1230   2.2024
     2.2658   2.2945   2.3164   2.3930   2.6151   2.6536   2.7068   2.7155
     2.8101   3.1975   3.3866

          k = 0.0279-0.0161 0.0000 ( 19477 PWs)   bands (ev):

   -52.8850 -52.6027 -52.5706 -52.5023 -52.4966 -52.4741 -52.4642 -52.4569
   -52.4510 -52.3998 -52.3622 -52.3581 -29.3591 -29.1302 -29.1116 -29.0138
   -28.9951 -28.9851 -28.9790 -28.9294 -28.9215 -28.9010 -28.8449 -28.6581
   -28.5954 -28.5794 -28.5054 -28.4902 -28.4869 -28.4617 -28.4457 -28.3976
   -28.3634 -28.3496 -28.3008 -28.2873 -28.2551 -28.2378 -28.2290 -28.2157
   -28.2064 -28.1899 -28.1839 -28.1523 -28.1294 -28.1062 -28.0633 -28.0180
   -17.8664  -6.2815  -2.7348  -2.2268  -2.2238  -1.4944  -0.9974  -0.9067
    -0.8273  -0.8008  -0.6982  -0.5466  -0.5375  -0.2161  -0.1757  -0.1705
    -0.1196  -0.0354  -0.0339   0.8954   1.1025   1.1054   1.7850   1.9753
     2.0777   2.0829   2.2092   2.3336   2.3908   2.5170   2.6235   2.7621
     2.8033   2.8344   2.8916   2.9702   2.9978   3.0388   3.0434   3.1820
     3.2803   3.4141   3.6371

          k = 0.0279 0.0161 0.0000 ( 19477 PWs)   bands (ev):

   -52.8850 -52.6027 -52.5706 -52.5026 -52.4964 -52.4740 -52.4641 -52.4576
   -52.4506 -52.3999 -52.3617 -52.3585 -29.3591 -29.1303 -29.1115 -29.0138
   -28.9950 -28.9851 -28.9791 -28.9291 -28.9218 -28.9009 -28.8449 -28.6581
   -28.5953 -28.5795 -28.5052 -28.4901 -28.4871 -28.4616 -28.4457 -28.3977
   -28.3631 -28.3499 -28.3008 -28.2872 -28.2551 -28.2380 -28.2286 -28.2158
   -28.2067 -28.1898 -28.1837 -28.1523 -28.1294 -28.1061 -28.0633 -28.0180
   -17.8664  -6.2815  -2.7348  -2.2268  -2.2238  -1.4944  -0.9974  -0.9067
    -0.8275  -0.8007  -0.6982  -0.5466  -0.5375  -0.2161  -0.1757  -0.1705
    -0.1196  -0.0353  -0.0340   0.8954   1.1025   1.1055   1.7850   1.9752
     2.0777   2.0829   2.2092   2.3336   2.3908   2.5169   2.6236   2.7621
     2.8033   2.8345   2.8916   2.9701   2.9978   3.0388   3.0434   3.1820
     3.2802   3.4141   3.6371

          k = 0.0279 0.0483 0.0000 ( 19485 PWs)   bands (ev):

   -52.8823 -52.5894 -52.5589 -52.5152 -52.4957 -52.4780 -52.4708 -52.4603
   -52.4454 -52.4013 -52.3702 -52.3572 -29.3521 -29.0812 -29.0289 -28.9584
   -28.9467 -28.9317 -28.9120 -28.8846 -28.8453 -28.8266 -28.8064 -28.6664
   -28.6371 -28.6217 -28.5611 -28.4969 -28.4741 -28.4557 -28.4529 -28.4296
   -28.4217 -28.3510 -28.3236 -28.3198 -28.2959 -28.2832 -28.2554 -28.2451
   -28.2189 -28.2030 -28.1835 -28.1764 -28.1699 -28.1542 -28.1184 -28.0457
   -17.8662  -6.2798  -2.3505  -2.2108  -2.1922  -1.0807  -0.7026  -0.6853
    -0.5873  -0.5340  -0.5074  -0.4639  -0.1155   0.0173   0.0405   0.1346
     0.1917   0.2063   0.4469   0.9715   1.1288   1.1589   1.5554   1.8859
     1.9148   1.9651   2.0516   2.1017   2.1528   2.3754   2.4636   2.5559
     2.5967   2.6872   2.7756   2.8086   2.8674   3.0592   3.1237   3.1323
     3.2122   3.2630   3.3511

          k = 0.0279-0.1128 0.0000 ( 19505 PWs)   bands (ev):

   -52.8796 -52.5700 -52.5379 -52.5315 -52.5041 -52.4947 -52.4777 -52.4500
   -52.4405 -52.4030 -52.3809 -52.3559 -29.3451 -29.0105 -28.9203 -28.8924
   -28.8817 -28.8587 -28.8261 -28.8060 -28.7727 -28.7585 -28.7330 -28.6946
   -28.6727 -28.6324 -28.6237 -28.5648 -28.5358 -28.4855 -28.4508 -28.4462
   -28.4285 -28.4218 -28.3857 -28.3762 -28.3431 -28.3217 -28.2767 -28.2630
   -28.2524 -28.2423 -28.1975 -28.1907 -28.1846 -28.1672 -28.1383 -28.0899
   -17.8661  -6.2783  -2.2116  -2.1988  -1.6279  -0.9600  -0.4808  -0.3903
    -0.3170  -0.1289  -0.0561   0.0496   0.2894   0.3054   0.4866   0.5916
     0.6758   0.7085   0.8206   1.1044   1.1604   1.2212   1.3137   1.4133
     1.5705   1.6070   1.6944   1.8043   1.9082   2.0500   2.0958   2.1341
     2.1647   2.2948   2.3463   2.4824   2.6503   2.7151   2.7724   2.8679
     2.9629   3.1831   3.3099

          k = 0.0279-0.0806 0.0000 ( 19505 PWs)   bands (ev):

   -52.8796 -52.5701 -52.5379 -52.5314 -52.5041 -52.4947 -52.4777 -52.4499
   -52.4406 -52.4029 -52.3810 -52.3558 -29.3451 -29.0104 -28.9203 -28.8924
   -28.8817 -28.8587 -28.8262 -28.8061 -28.7727 -28.7586 -28.7330 -28.6945
   -28.6727 -28.6325 -28.6237 -28.5647 -28.5357 -28.4857 -28.4507 -28.4462
   -28.4284 -28.4219 -28.3857 -28.3762 -28.3432 -28.3216 -28.2768 -28.2629
   -28.2524 -28.2422 -28.1974 -28.1907 -28.1848 -28.1672 -28.1382 -28.0899
   -17.8661  -6.2783  -2.2116  -2.1987  -1.6279  -0.9600  -0.4808  -0.3903
    -0.3170  -0.1289  -0.0561   0.0496   0.2894   0.3054   0.4866   0.5916
     0.6758   0.7085   0.8206   1.1044   1.1604   1.2212   1.3138   1.4133
     1.5705   1.6070   1.6944   1.8042   1.9082   2.0500   2.0958   2.1341
     2.1648   2.2949   2.3463   2.4824   2.6503   2.7151   2.7724   2.8679
     2.9629   3.1831   3.3099

          k = 0.0279-0.0483 0.0000 ( 19485 PWs)   bands (ev):

   -52.8823 -52.5895 -52.5589 -52.5150 -52.4958 -52.4784 -52.4704 -52.4601
   -52.4456 -52.4012 -52.3706 -52.3569 -29.3521 -29.0811 -29.0289 -28.9584
   -28.9467 -28.9318 -28.9120 -28.8847 -28.8452 -28.8267 -28.8064 -28.6664
   -28.6372 -28.6218 -28.5612 -28.4970 -28.4740 -28.4559 -28.4528 -28.4296
   -28.4216 -28.3511 -28.3236 -28.3197 -28.2957 -28.2834 -28.2554 -28.2451
   -28.2188 -28.2031 -28.1836 -28.1764 -28.1698 -28.1542 -28.1184 -28.0457
   -17.8662  -6.2798  -2.3505  -2.2107  -2.1922  -1.0807  -0.7026  -0.6853
    -0.5873  -0.5340  -0.5074  -0.4639  -0.1156   0.0173   0.0405   0.1346
     0.1917   0.2063   0.4469   0.9715   1.1288   1.1589   1.5554   1.8859
     1.9148   1.9652   2.0516   2.1018   2.1528   2.3753   2.4636   2.5558
     2.5967   2.6872   2.7756   2.8086   2.8673   3.0592   3.1237   3.1322
     3.2123   3.2630   3.3511

          k = 0.0558-0.0322 0.0000 ( 19509 PWs)   bands (ev):

   -52.8814 -52.5842 -52.5536 -52.5184 -52.4967 -52.4913 -52.4605 -52.4570
   -52.4496 -52.4031 -52.3710 -52.3580 -29.3497 -29.0653 -28.9950 -28.9316
   -28.9288 -28.9226 -28.8800 -28.8592 -28.8454 -28.7882 -28.7763 -28.6701
   -28.6498 -28.6291 -28.5684 -28.4990 -28.4949 -28.4535 -28.4470 -28.4261
   -28.4255 -28.3966 -28.3813 -28.3333 -28.2989 -28.2942 -28.2621 -28.2496
   -28.2175 -28.2131 -28.2080 -28.2053 -28.1636 -28.1462 -28.1308 -28.0478
   -17.8662  -6.2793  -2.2500  -2.2054  -2.1080  -0.9361  -0.8971  -0.5764
    -0.4305  -0.3978  -0.3749  -0.1441  -0.1378   0.0375   0.2180   0.2219
     0.2570   0.5483   0.5624   0.9912   1.1356   1.2161   1.3980   1.6875
     1.8599   1.9112   1.9682   2.0586   2.2799   2.2880   2.4012   2.4430
     2.4949   2.5561   2.6236   2.7244   2.8441   3.0042   3.0459   3.1355
     3.2033   3.2424   3.2823

          k = 0.0558 0.0000 0.0000 ( 19485 PWs)   bands (ev):

   -52.8823 -52.5896 -52.5591 -52.5141 -52.4966 -52.4779 -52.4708 -52.4603
   -52.4453 -52.4015 -52.3696 -52.3575 -29.3521 -29.0808 -29.0291 -28.9584
   -28.9467 -28.9319 -28.9119 -28.8846 -28.8452 -28.8267 -28.8065 -28.6667
   -28.6368 -28.6219 -28.5617 -28.4969 -28.4741 -28.4557 -28.4529 -28.4294
   -28.4211 -28.3511 -28.3237 -28.3198 -28.2959 -28.2830 -28.2552 -28.2451
   -28.2190 -28.2030 -28.1834 -28.1764 -28.1702 -28.1542 -28.1184 -28.0457
   -17.8662  -6.2798  -2.3506  -2.2107  -2.1922  -1.0807  -0.7025  -0.6854
    -0.5873  -0.5341  -0.5073  -0.4640  -0.1156   0.0173   0.0405   0.1346
     0.1916   0.2063   0.4469   0.9714   1.1286   1.1591   1.5554   1.8859
     1.9148   1.9651   2.0516   2.1018   2.1529   2.3752   2.4636   2.5559
     2.5966   2.6873   2.7756   2.8086   2.8674   3.0592   3.1237   3.1323
     3.2123   3.2630   3.3510

          k = 0.0558 0.0322 0.0000 ( 19509 PWs)   bands (ev):

   -52.8814 -52.5842 -52.5536 -52.5187 -52.4965 -52.4912 -52.4605 -52.4577
   -52.4491 -52.4033 -52.3704 -52.3585 -29.3497 -29.0654 -28.9949 -28.9316
   -28.9286 -28.9227 -28.8801 -28.8589 -28.8457 -28.7883 -28.7763 -28.6702
   -28.6497 -28.6292 -28.5684 -28.4988 -28.4948 -28.4535 -28.4470 -28.4260
   -28.4256 -28.3966 -28.3815 -28.3334 -28.2987 -28.2944 -28.2621 -28.2494
   -28.2175 -28.2129 -28.2079 -28.2054 -28.1636 -28.1462 -28.1308 -28.0478
   -17.8662  -6.2793  -2.2500  -2.2054  -2.1080  -0.9362  -0.8970  -0.5764
    -0.4305  -0.3979  -0.3747  -0.1440  -0.1379   0.0375   0.2181   0.2219
     0.2570   0.5482   0.5625   0.9911   1.1357   1.2160   1.3980   1.6875
     1.8599   1.9111   1.9682   2.0587   2.2799   2.2880   2.4013   2.4431
     2.4948   2.5561   2.6236   2.7244   2.8441   3.0041   3.0459   3.1356
     3.2033   3.2424   3.2823

          k = 0.0558-0.1289 0.0000 ( 19505 PWs)   bands (ev):

   -52.8796 -52.5704 -52.5382 -52.5305 -52.5040 -52.4949 -52.4780 -52.4500
   -52.4403 -52.4035 -52.3800 -52.3562 -29.3451 -29.0101 -28.9205 -28.8926
   -28.8815 -28.8586 -28.8263 -28.8059 -28.7728 -28.7588 -28.7332 -28.6946
   -28.6727 -28.6325 -28.6234 -28.5647 -28.5363 -28.4857 -28.4506 -28.4461
   -28.4286 -28.4218 -28.3852 -28.3759 -28.3433 -28.3216 -28.2770 -28.2629
   -28.2523 -28.2420 -28.1974 -28.1908 -28.1850 -28.1671 -28.1382 -28.0901
   -17.8661  -6.2783  -2.2116  -2.1987  -1.6279  -0.9600  -0.4807  -0.3903
    -0.3170  -0.1289  -0.0561   0.0497   0.2894   0.3054   0.4866   0.5916
     0.6758   0.7085   0.8207   1.1042   1.1604   1.2213   1.3138   1.4133
     1.5703   1.6070   1.6944   1.8044   1.9081   2.0501   2.0959   2.1341
     2.1646   2.2948   2.3464   2.4825   2.6503   2.7151   2.7724   2.8677
     2.9629   3.1831   3.3099

          k = 0.0558-0.0967 0.0000 ( 19521 PWs)   bands (ev):

   -52.8787 -52.5552 -52.5484 -52.5131 -52.5112 -52.5008 -52.4934 -52.4456
   -52.4361 -52.3965 -52.3926 -52.3545 -29.3428 -28.9294 -28.9223 -28.8685
   -28.8335 -28.8213 -28.7952 -28.7732 -28.7478 -28.7392 -28.7255 -28.6792
   -28.6626 -28.6517 -28.6409 -28.6010 -28.5904 -28.5873 -28.4880 -28.4267
   -28.4263 -28.4237 -28.3932 -28.3788 -28.3699 -28.3047 -28.2699 -28.2568
   -28.2478 -28.2412 -28.2096 -28.2083 -28.2006 -28.1546 -28.1530 -28.1452
   -17.8661  -6.2778  -2.2014  -2.1975  -0.9516  -0.9474  -0.9173  -0.0736
    -0.0557  -0.0409   0.3341   0.3397   0.5028   0.6304   0.6310   0.6465
     0.8872   0.8878   0.9382   1.1096   1.1657   1.1764   1.1950   1.2123
     1.3416   1.4059   1.4078   1.6536   1.6999   1.7149   1.8107   1.8276
     1.8551   2.0295   2.2965   2.2980   2.3758   2.5933   2.9331   2.9936
     3.0655   3.2885   3.2903

          k = 0.0558-0.0645 0.0000 ( 19505 PWs)   bands (ev):

   -52.8796 -52.5705 -52.5381 -52.5303 -52.5043 -52.4950 -52.4777 -52.4499
   -52.4405 -52.4031 -52.3806 -52.3560 -29.3451 -29.0100 -28.9206 -28.8926
   -28.8816 -28.8586 -28.8263 -28.8061 -28.7728 -28.7588 -28.7332 -28.6945
   -28.6727 -28.6325 -28.6234 -28.5647 -28.5363 -28.4859 -28.4506 -28.4460
   -28.4285 -28.4219 -28.3851 -28.3759 -28.3433 -28.3217 -28.2771 -28.2628
   -28.2523 -28.2421 -28.1973 -28.1908 -28.1850 -28.1671 -28.1383 -28.0900
   -17.8661  -6.2783  -2.2116  -2.1987  -1.6279  -0.9600  -0.4807  -0.3903
    -0.3171  -0.1289  -0.0561   0.0497   0.2894   0.3054   0.4866   0.5916
     0.6758   0.7085   0.8207   1.1043   1.1604   1.2212   1.3138   1.4133
     1.5703   1.6071   1.6944   1.8043   1.9081   2.0500   2.0958   2.1341
     2.1648   2.2948   2.3464   2.4824   2.6502   2.7151   2.7725   2.8678
     2.9630   3.1831   3.3099

          k =-0.0837 0.0483 0.0000 ( 19524 PWs)   bands (ev):

   -52.8796 -52.5707 -52.5367 -52.5240 -52.5189 -52.4968 -52.4571 -52.4565
   -52.4451 -52.4069 -52.3755 -52.3580 -29.3451 -29.0249 -28.9036 -28.8925
   -28.8878 -28.8673 -28.8301 -28.8094 -28.7889 -28.7518 -28.7248 -28.7023
   -28.6703 -28.5891 -28.5473 -28.5345 -28.5213 -28.5154 -28.5058 -28.4799
   -28.4151 -28.4112 -28.3922 -28.3795 -28.3639 -28.3490 -28.3327 -28.2556
   -28.2442 -28.2088 -28.2017 -28.1965 -28.1895 -28.1795 -28.0982 -28.0818
   -17.8661  -6.2783  -2.2126  -2.1967  -1.4189  -1.3911  -0.4875  -0.4496
    -0.0694  -0.0634   0.0142   0.0735   0.0744   0.1381   0.6604   0.6777
     0.7346   0.8157   0.8306   0.8380   1.3055   1.3302   1.4101   1.4446
     1.4797   1.5110   1.8186   1.9212   1.9914   2.1057   2.1231   2.2026
     2.2661   2.2946   2.3163   2.3929   2.6151   2.6537   2.7069   2.7155
     2.8101   3.1974   3.3867

          k =-0.0837 0.0806 0.0000 ( 19505 PWs)   bands (ev):

   -52.8796 -52.5707 -52.5379 -52.5302 -52.5040 -52.4954 -52.4778 -52.4499
   -52.4404 -52.4034 -52.3802 -52.3562 -29.3451 -29.0099 -28.9205 -28.8925
   -28.8816 -28.8587 -28.8261 -28.8061 -28.7728 -28.7589 -28.7333 -28.6944
   -28.6730 -28.6326 -28.6240 -28.5648 -28.5353 -28.4855 -28.4508 -28.4461
   -28.4283 -28.4219 -28.3852 -28.3760 -28.3431 -28.3217 -28.2767 -28.2630
   -28.2523 -28.2424 -28.1977 -28.1907 -28.1846 -28.1672 -28.1383 -28.0900
   -17.8661  -6.2783  -2.2117  -2.1987  -1.6279  -0.9600  -0.4807  -0.3903
    -0.3171  -0.1289  -0.0561   0.0497   0.2893   0.3054   0.4866   0.5916
     0.6758   0.7085   0.8207   1.1043   1.1604   1.2212   1.3137   1.4134
     1.5703   1.6070   1.6944   1.8043   1.9081   2.0500   2.0958   2.1341
     2.1648   2.2949   2.3464   2.4823   2.6503   2.7151   2.7726   2.8678
     2.9629   3.1831   3.3099

          k =-0.0837 0.1128 0.0000 ( 19505 PWs)   bands (ev):

   -52.8796 -52.5706 -52.5380 -52.5303 -52.5038 -52.4953 -52.4780 -52.4500
   -52.4403 -52.4036 -52.3798 -52.3563 -29.3451 -29.0100 -28.9204 -28.8925
   -28.8816 -28.8587 -28.8261 -28.8060 -28.7728 -28.7590 -28.7333 -28.6945
   -28.6731 -28.6326 -28.6241 -28.5647 -28.5352 -28.4855 -28.4507 -28.4461
   -28.4283 -28.4220 -28.3854 -28.3760 -28.3432 -28.3216 -28.2767 -28.2630
   -28.2523 -28.2422 -28.1975 -28.1908 -28.1849 -28.1671 -28.1383 -28.0901
   -17.8661  -6.2783  -2.2117  -2.1987  -1.6279  -0.9600  -0.4807  -0.3903
    -0.3170  -0.1289  -0.0561   0.0497   0.2894   0.3054   0.4866   0.5916
     0.6758   0.7085   0.8207   1.1043   1.1604   1.2213   1.3137   1.4134
     1.5703   1.6070   1.6943   1.8043   1.9081   2.0500   2.0958   2.1342
     2.1647   2.2948   2.3464   2.4823   2.6504   2.7151   2.7726   2.8678
     2.9629   3.1831   3.3098

          k =-0.0837-0.0483 0.0000 ( 19524 PWs)   bands (ev):

   -52.8796 -52.5705 -52.5371 -52.5239 -52.5188 -52.4966 -52.4577 -52.4564
   -52.4447 -52.4073 -52.3748 -52.3585 -29.3451 -29.0250 -28.9036 -28.8924
   -28.8875 -28.8675 -28.8302 -28.8089 -28.7892 -28.7520 -28.7245 -28.7025
   -28.6704 -28.5891 -28.5471 -28.5348 -28.5212 -28.5153 -28.5056 -28.4802
   -28.4149 -28.4114 -28.3922 -28.3798 -28.3638 -28.3488 -28.3330 -28.2554
   -28.2439 -28.2089 -28.2019 -28.1963 -28.1894 -28.1795 -28.0981 -28.0820
   -17.8661  -6.2783  -2.2126  -2.1967  -1.4188  -1.3912  -0.4877  -0.4495
    -0.0692  -0.0635   0.0142   0.0735   0.0744   0.1381   0.6606   0.6776
     0.7347   0.8156   0.8305   0.8380   1.3056   1.3301   1.4101   1.4445
     1.4797   1.5111   1.8186   1.9213   1.9914   2.1056   2.1231   2.2026
     2.2661   2.2945   2.3164   2.3929   2.6152   2.6536   2.7069   2.7155
     2.8102   3.1974   3.3867

     the Fermi energy is     2.5301 ev

!    total energy              =   -1455.96489446 Ry
     Harris-Foulkes estimate   =   -1455.96490773 Ry
     estimated scf accuracy    <       0.00000438 Ry

     The total energy is the sum of the following terms:

     one-electron contribution =  -11750.31096902 Ry
     hartree contribution      =    5873.13401563 Ry
     xc contribution           =    -236.59774693 Ry
     ewald contribution        =    4657.92771021 Ry
     electric field correction =       0.00043533 Ry
     smearing contrib. (-TS)   =      -0.11833968 Ry

     convergence has been achieved in  10 iterations
 
 BEEF-vdW xc energy contributions
           1 :   -202.803750862280     
           2 :    184.116983955475     
           3 :   -152.392066209046     
           4 :    116.239015083460     
           5 :   -83.7873605794163     
           6 :    60.0276812204102     
           7 :   -45.8396885408623     
           8 :    38.7240909622526     
           9 :   -34.6647506519916     
          10 :    30.1302142040756     
          11 :   -23.3884782060794     
          12 :    14.7302493922254     
          13 :   -5.76007689659400     
          14 :   -1.74627065128695     
          15 :    6.79798436927115     
          16 :   -9.55795088252972     
          17 :    11.0509956946560     
          18 :   -12.4729879566750     
          19 :    14.5031173373524     
          20 :   -16.9915997815879     
          21 :    19.1439756991052     
          22 :   -20.0484804579561     
          23 :    19.2133920468659     
          24 :   -16.8277752600272     
          25 :    13.6381612702989     
          26 :   -10.5586062819171     
          27 :    8.24272877586822     
          28 :   -6.83941543023118     
          29 :    6.02918709680262     
          30 :   -5.29365120051114     
          31 :   -23.3849049769858     
          32 :   -17.5912554956063     

     Forces acting on atoms (Ry/au):


     negative rho (up, down):  4.494E-03 0.000E+00
     atom    1 type  1   force =    -0.00022201   -0.00011177   -0.00549114
     atom    2 type  1   force =     0.00022262   -0.00009280   -0.00547161
     atom    3 type  1   force =     0.00001657    0.00022794   -0.00548941
     atom    4 type  1   force =    -0.00001778   -0.00002622   -0.00362326
     atom    5 type  1   force =    -0.00003198    0.00228124   -0.00284376
     atom    6 type  1   force =     0.00002857   -0.00002203    0.00599347
     atom    7 type  1   force =    -0.00198614   -0.00110039   -0.00288161
     atom    8 type  1   force =     0.00199302   -0.00114941   -0.00282804
     atom    9 type  1   force =     0.00001664    0.00003726    0.03798683
     atom   10 type  1   force =    -0.00001694    0.00165362   -0.01863878
     atom   11 type  1   force =     0.00141260   -0.00085774   -0.01859725
     atom   12 type  1   force =    -0.00140963   -0.00083767   -0.01864033
     atom   13 type  2   force =    -0.00000526   -0.00000398    0.08491053
     atom   14 type  3   force =    -0.00000027    0.00000193   -0.04438564

     Total force =     0.108036     Total SCF correction =     0.001473


     entering subroutine stress ...


     negative rho (up, down):  4.494E-03 0.000E+00
          total   stress  (Ry/bohr**3)                   (kbar)     P=  -18.02
  -0.00020907   0.00000000   0.00000002        -30.76      0.00      0.00
   0.00000000  -0.00020905   0.00000000          0.00    -30.75      0.00
   0.00000002   0.00000000   0.00005064          0.00      0.00      7.45


     number of scf cycles    =   2
     number of bfgs steps    =   1

     energy   old            =   -1455.9606246518 Ry
     energy   new            =   -1455.9648944566 Ry

     CASE: energy  _new < energy  _old

     new trust radius        =       0.1081830729 bohr
     new conv_thr            =       0.0000001000 Ry


ATOMIC_POSITIONS (crystal)
Nb1      0.166666667   0.166666667   0.402010442    0   0   0
Nb1      0.666666667   0.166666667   0.402010442    0   0   0
Nb1      0.166666667   0.666666667   0.402010442    0   0   0
Nb1      0.666666667   0.666666667   0.402010442    0   0   0
Nb1      0.833333333   0.333333333   0.500000000    0   0   0
Nb1      0.333333333   0.333333333   0.500000000    0   0   0
Nb1      0.833333333   0.833333333   0.500000000    0   0   0
Nb1      0.333333333   0.833333333   0.500000000    0   0   0
Nb1     -0.000001575   0.000006561   0.601915158
Nb1      0.499676970   0.000641648   0.596904087
Nb1      0.000638883   0.499674676   0.596903195
Nb1      0.499683582   0.499678044   0.596902653
O1       0.000000627  -0.000001267   0.676614484
H1      -0.000000127   0.000000086   0.715535648



     Writing output data file calc.save
     Check: negative starting charge=   -0.004836
     NEW-OLD atomic charge density approx. for the potential
     Check: negative starting charge=   -0.004866

     negative rho (up, down):  4.524E-03 0.000E+00
 
     Adding external electric field

     Computed dipole along edir(3) : 
        Dipole                0.4237 Ry au,          1.0770 Debye
        Dipole field          0.0010 Ry au
 
        Potential amp.       -0.0942 Ry
        Total length         45.8317 bohr
 

     total cpu time spent up to now is      831.7 secs

     per-process dynamical memory:    86.8 Mb

     Self-consistent Calculation

     iteration #  1     ecut=    36.75 Ry     beta=0.30
     Davidson diagonalization with overlap
     ethr =  1.00E-06,  avg # of iterations = 15.1

     negative rho (up, down):  4.523E-03 0.000E+00
 
     Adding external electric field

     Computed dipole along edir(3) : 
        Dipole                0.5135 Ry au,          1.3052 Debye
        Dipole field          0.0012 Ry au
 
        Potential amp.       -0.1141 Ry
        Total length         45.8317 bohr
 

     total cpu time spent up to now is      869.9 secs

     total energy              =   -1455.97148381 Ry
     Harris-Foulkes estimate   =   -1455.97237948 Ry
     estimated scf accuracy    <       0.00324071 Ry

     iteration #  2     ecut=    36.75 Ry     beta=0.30
     Davidson diagonalization with overlap
     ethr =  1.99E-06,  avg # of iterations =  6.4

     negative rho (up, down):  4.522E-03 0.000E+00
 
     Adding external electric field

     Computed dipole along edir(3) : 
        Dipole                0.4196 Ry au,          1.0665 Debye
[...]
   -29.0647 -29.0476 -29.0342 -28.9812 -28.9433 -28.9234 -28.9163 -28.7733
   -28.7412 -28.7246 -28.6461 -28.6035 -28.5924 -28.5324 -28.5053 -28.4909
   -28.4722 -28.4359 -28.4146 -28.3910 -28.3652 -28.3576 -28.3429 -28.3173
   -28.2784 -28.2649 -28.2563 -28.2418 -28.2363 -28.2033 -28.1901 -28.1304
   -17.8781  -6.2494  -2.4027  -1.9441  -1.9298  -1.1507  -0.8572  -0.7785
    -0.6795  -0.6164  -0.5717  -0.5260  -0.2330  -0.1040  -0.0233   0.0880
     0.1448   0.2136   0.4277   0.8509   1.0415   1.1618   1.4445   1.6861
     1.7982   1.8614   1.9285   1.9875   2.0664   2.2370   2.3770   2.4102
     2.5292   2.6313   2.6467   2.6685   2.7555   2.8357   2.9583   3.0810
     3.1677   3.2080   3.3071

          k = 0.0558-0.0322 0.0000 ( 19509 PWs)   bands (ev):

   -53.0483 -52.6676 -52.6228 -52.5878 -52.5641 -52.5535 -52.5383 -52.5368
   -52.5169 -52.4843 -52.4677 -52.4601 -29.4687 -29.0849 -29.0819 -29.0727
   -29.0440 -29.0189 -29.0013 -28.9574 -28.9403 -28.9038 -28.8802 -28.7718
   -28.7457 -28.7424 -28.6517 -28.5949 -28.5926 -28.5255 -28.5107 -28.4976
   -28.4948 -28.4689 -28.4592 -28.4103 -28.3801 -28.3716 -28.3269 -28.3199
   -28.3013 -28.2879 -28.2605 -28.2530 -28.2310 -28.2031 -28.1994 -28.1302
   -17.8780  -6.2491  -2.2202  -1.9480  -1.9268  -1.0445  -0.9515  -0.6650
    -0.5786  -0.4978  -0.4340  -0.2476  -0.2043  -0.0533   0.1112   0.1553
     0.2269   0.4208   0.5862   0.8560   1.0840   1.1573   1.3221   1.4881
     1.7259   1.7456   1.8079   2.0234   2.0496   2.1360   2.2941   2.3406
     2.4727   2.4838   2.5741   2.5928   2.6590   2.8510   2.9213   3.0013
     3.0347   3.0671   3.2772

          k = 0.0558 0.0000 0.0000 ( 19485 PWs)   bands (ev):

   -53.0487 -52.6758 -52.6275 -52.5714 -52.5693 -52.5530 -52.5391 -52.5347
   -52.5202 -52.4805 -52.4681 -52.4597 -29.4681 -29.1163 -29.0947 -29.0700
   -29.0647 -29.0476 -29.0342 -28.9812 -28.9433 -28.9234 -28.9163 -28.7733
   -28.7412 -28.7246 -28.6461 -28.6035 -28.5924 -28.5324 -28.5053 -28.4908
   -28.4722 -28.4359 -28.4146 -28.3910 -28.3652 -28.3576 -28.3429 -28.3173
   -28.2784 -28.2650 -28.2563 -28.2418 -28.2364 -28.2033 -28.1901 -28.1304
   -17.8781  -6.2494  -2.4027  -1.9441  -1.9298  -1.1507  -0.8572  -0.7785
    -0.6795  -0.6164  -0.5717  -0.5260  -0.2330  -0.1040  -0.0233   0.0880
     0.1448   0.2136   0.4277   0.8509   1.0415   1.1618   1.4445   1.6862
     1.7981   1.8614   1.9285   1.9875   2.0664   2.2370   2.3770   2.4102
     2.5292   2.6314   2.6468   2.6685   2.7555   2.8357   2.9583   3.0810
     3.1677   3.2080   3.3071

          k = 0.0558 0.0322 0.0000 ( 19509 PWs)   bands (ev):

   -53.0483 -52.6676 -52.6229 -52.5878 -52.5641 -52.5535 -52.5383 -52.5369
   -52.5168 -52.4843 -52.4676 -52.4602 -29.4687 -29.0849 -29.0819 -29.0728
   -29.0440 -29.0189 -29.0013 -28.9574 -28.9403 -28.9038 -28.8802 -28.7718
   -28.7457 -28.7424 -28.6516 -28.5948 -28.5926 -28.5255 -28.5107 -28.4976
   -28.4949 -28.4689 -28.4592 -28.4103 -28.3801 -28.3715 -28.3269 -28.3198
   -28.3013 -28.2879 -28.2606 -28.2530 -28.2310 -28.2031 -28.1994 -28.1302
   -17.8780  -6.2491  -2.2202  -1.9480  -1.9268  -1.0445  -0.9515  -0.6650
    -0.5786  -0.4978  -0.4340  -0.2477  -0.2043  -0.0533   0.1112   0.1553
     0.2268   0.4208   0.5862   0.8560   1.0840   1.1573   1.3221   1.4881
     1.7259   1.7456   1.8079   2.0234   2.0496   2.1360   2.2941   2.3406
     2.4727   2.4838   2.5741   2.5927   2.6590   2.8510   2.9213   3.0013
     3.0347   3.0671   3.2772

          k = 0.0558-0.1289 0.0000 ( 19505 PWs)   bands (ev):

   -53.0476 -52.6454 -52.6130 -52.5980 -52.5814 -52.5653 -52.5401 -52.5311
   -52.5050 -52.4891 -52.4741 -52.4589 -29.4697 -29.0479 -29.0382 -29.0081
   -28.9941 -28.9688 -28.9439 -28.9115 -28.8976 -28.8656 -28.8304 -28.7969
   -28.7738 -28.7217 -28.6887 -28.6497 -28.6258 -28.5741 -28.5452 -28.5268
   -28.5035 -28.4648 -28.4532 -28.4251 -28.4190 -28.3944 -28.3722 -28.3327
   -28.3243 -28.3050 -28.2718 -28.2507 -28.2364 -28.2148 -28.2031 -28.1699
   -17.8780  -6.2484  -1.9486  -1.9296  -1.7074  -1.0335  -0.5831  -0.4707
    -0.3940  -0.2411  -0.1772  -0.0655   0.1766   0.1989   0.3757   0.4652
     0.5218   0.6067   0.8032   0.9026   1.0371   1.1307   1.2086   1.3226
     1.3660   1.4974   1.5419   1.6757   1.8184   1.8710   1.9885   2.0473
     2.1043   2.1945   2.2817   2.3236   2.5367   2.6008   2.7095   2.8306
     2.9642   3.1448   3.3622

          k = 0.0558-0.0967 0.0000 ( 19521 PWs)   bands (ev):

   -53.0473 -52.6191 -52.6137 -52.6072 -52.5873 -52.5799 -52.5426 -52.5266
   -52.4923 -52.4922 -52.4831 -52.4579 -29.4702 -29.0144 -28.9996 -28.9684
   -28.9596 -28.9489 -28.9017 -28.8997 -28.8875 -28.8461 -28.8300 -28.7710
   -28.7482 -28.7222 -28.7183 -28.6785 -28.6772 -28.6595 -28.5955 -28.5224
   -28.5029 -28.4588 -28.4570 -28.4316 -28.4110 -28.3930 -28.3518 -28.3510
   -28.3176 -28.3014 -28.2773 -28.2733 -28.2584 -28.2240 -28.2130 -28.1959
   -17.8779  -6.2481  -1.9408  -1.9387  -1.0389  -1.0078  -0.9751  -0.1903
    -0.1476  -0.1176   0.0818   0.2344   0.3779   0.4353   0.4863   0.4915
     0.7081   0.7279   0.7803   0.8990   1.0086   1.0656   1.1563   1.1944
     1.2643   1.3072   1.3449   1.5813   1.6083   1.6235   1.6409   1.7448
     1.9244   1.9532   2.0220   2.2018   2.2059   2.6740   2.8949   2.9837
     2.9916   3.1882   3.3698

          k = 0.0558-0.0645 0.0000 ( 19505 PWs)   bands (ev):

   -53.0476 -52.6454 -52.6130 -52.5980 -52.5814 -52.5654 -52.5400 -52.5311
   -52.5050 -52.4890 -52.4742 -52.4588 -29.4697 -29.0480 -29.0382 -29.0082
   -28.9942 -28.9688 -28.9439 -28.9115 -28.8976 -28.8656 -28.8304 -28.7969
   -28.7738 -28.7217 -28.6887 -28.6497 -28.6258 -28.5741 -28.5452 -28.5268
   -28.5036 -28.4648 -28.4533 -28.4251 -28.4191 -28.3944 -28.3722 -28.3327
   -28.3243 -28.3050 -28.2718 -28.2507 -28.2363 -28.2148 -28.2031 -28.1699
   -17.8780  -6.2484  -1.9486  -1.9296  -1.7074  -1.0335  -0.5831  -0.4707
    -0.3940  -0.2411  -0.1772  -0.0656   0.1766   0.1989   0.3757   0.4652
     0.5218   0.6067   0.8032   0.9026   1.0372   1.1307   1.2086   1.3226
     1.3660   1.4974   1.5419   1.6757   1.8184   1.8711   1.9884   2.0473
     2.1044   2.1945   2.2817   2.3236   2.5367   2.6008   2.7096   2.8306
     2.9642   3.1447   3.3622

          k =-0.0837 0.0483 0.0000 ( 19524 PWs)   bands (ev):

   -53.0476 -52.6383 -52.6250 -52.6002 -52.5803 -52.5536 -52.5389 -52.5369
   -52.5009 -52.4980 -52.4694 -52.4600 -29.4697 -29.0392 -29.0348 -29.0216
   -29.0110 -28.9876 -28.9203 -28.9159 -28.9065 -28.8650 -28.8173 -28.8080
   -28.7860 -28.6677 -28.6257 -28.6089 -28.5958 -28.5936 -28.5778 -28.5517
   -28.5390 -28.5043 -28.4452 -28.4439 -28.4292 -28.4109 -28.3730 -28.3533
   -28.3075 -28.2992 -28.2698 -28.2480 -28.2371 -28.2191 -28.1786 -28.1573
   -17.8780  -6.2484  -1.9531  -1.9248  -1.5104  -1.4485  -0.6142  -0.4841
    -0.2347  -0.1492  -0.1264  -0.0567   0.0677   0.0914   0.4833   0.4896
     0.5864   0.6485   0.7573   0.9077   1.1093   1.1272   1.2523   1.3108
     1.3921   1.3973   1.5944   1.8598   1.8794   1.9397   2.0580   2.0734
     2.1165   2.1875   2.2485   2.3360   2.4145   2.5832   2.5973   2.7013
     2.9313   3.1412   3.5228

          k =-0.0837 0.0806 0.0000 ( 19505 PWs)   bands (ev):

   -53.0476 -52.6454 -52.6130 -52.5980 -52.5814 -52.5654 -52.5401 -52.5311
   -52.5050 -52.4890 -52.4742 -52.4588 -29.4697 -29.0479 -29.0382 -29.0082
   -28.9942 -28.9688 -28.9439 -28.9115 -28.8976 -28.8656 -28.8304 -28.7969
   -28.7738 -28.7217 -28.6887 -28.6497 -28.6258 -28.5741 -28.5453 -28.5268
   -28.5035 -28.4648 -28.4533 -28.4251 -28.4190 -28.3944 -28.3722 -28.3327
   -28.3243 -28.3050 -28.2718 -28.2507 -28.2363 -28.2149 -28.2031 -28.1699
   -17.8780  -6.2484  -1.9486  -1.9296  -1.7074  -1.0335  -0.5831  -0.4707
    -0.3940  -0.2411  -0.1772  -0.0656   0.1766   0.1989   0.3757   0.4652
     0.5218   0.6067   0.8032   0.9026   1.0371   1.1307   1.2085   1.3226
     1.3660   1.4974   1.5419   1.6757   1.8184   1.8710   1.9884   2.0473
     2.1044   2.1945   2.2817   2.3236   2.5367   2.6008   2.7096   2.8306
     2.9642   3.1447   3.3622

          k =-0.0837 0.1128 0.0000 ( 19505 PWs)   bands (ev):

   -53.0476 -52.6454 -52.6130 -52.5980 -52.5814 -52.5653 -52.5401 -52.5311
   -52.5050 -52.4890 -52.4741 -52.4589 -29.4697 -29.0479 -29.0382 -29.0081
   -28.9941 -28.9688 -28.9439 -28.9115 -28.8976 -28.8656 -28.8304 -28.7969
   -28.7738 -28.7217 -28.6887 -28.6497 -28.6258 -28.5741 -28.5453 -28.5268
   -28.5035 -28.4648 -28.4532 -28.4251 -28.4190 -28.3944 -28.3722 -28.3327
   -28.3243 -28.3050 -28.2718 -28.2507 -28.2363 -28.2149 -28.2031 -28.1699
   -17.8780  -6.2484  -1.9486  -1.9296  -1.7074  -1.0335  -0.5831  -0.4707
    -0.3940  -0.2411  -0.1772  -0.0655   0.1766   0.1989   0.3757   0.4652
     0.5218   0.6067   0.8032   0.9026   1.0371   1.1307   1.2086   1.3226
     1.3660   1.4974   1.5419   1.6757   1.8184   1.8711   1.9884   2.0473
     2.1044   2.1946   2.2817   2.3236   2.5367   2.6008   2.7096   2.8306
     2.9642   3.1448   3.3622

          k =-0.0837-0.0483 0.0000 ( 19524 PWs)   bands (ev):

   -53.0476 -52.6383 -52.6250 -52.6002 -52.5802 -52.5536 -52.5389 -52.5369
   -52.5008 -52.4980 -52.4693 -52.4601 -29.4697 -29.0391 -29.0348 -29.0216
   -29.0110 -28.9876 -28.9203 -28.9160 -28.9065 -28.8650 -28.8173 -28.8080
   -28.7860 -28.6676 -28.6257 -28.6089 -28.5958 -28.5936 -28.5779 -28.5517
   -28.5390 -28.5043 -28.4452 -28.4440 -28.4292 -28.4110 -28.3730 -28.3533
   -28.3074 -28.2993 -28.2698 -28.2481 -28.2371 -28.2190 -28.1787 -28.1573
   -17.8780  -6.2484  -1.9532  -1.9248  -1.5104  -1.4485  -0.6143  -0.4840
    -0.2347  -0.1492  -0.1264  -0.0566   0.0677   0.0914   0.4833   0.4896
     0.5864   0.6485   0.7573   0.9077   1.1093   1.1272   1.2522   1.3108
     1.3921   1.3973   1.5944   1.8598   1.8794   1.9397   2.0581   2.0734
     2.1165   2.1875   2.2484   2.3360   2.4145   2.5832   2.5973   2.7013
     2.9313   3.1412   3.5228

     the Fermi energy is     2.4298 ev

!    total energy              =   -1456.00774424 Ry
     Harris-Foulkes estimate   =   -1456.00774399 Ry
     estimated scf accuracy    <       0.00000002 Ry

     The total energy is the sum of the following terms:

     one-electron contribution =  -11597.25096157 Ry
     hartree contribution      =    5796.18814677 Ry
     xc contribution           =    -236.59271965 Ry
     ewald contribution        =    4581.76378974 Ry
     electric field correction =       0.00034305 Ry
     smearing contrib. (-TS)   =      -0.11634259 Ry

     convergence has been achieved in   9 iterations
 
 BEEF-vdW xc energy contributions
           1 :   -202.794762878841     
           2 :    184.075791150284     
           3 :   -152.329624765206     
           4 :    116.183030416687     
           5 :   -83.7486415969281     
           6 :    59.9968329465105     
           7 :   -45.7939875252139     
           8 :    38.6389323945199     
           9 :   -34.5252890746509     
          10 :    29.9396669809251     
          11 :   -23.1697245292224     
          12 :    14.5147607431561     
          13 :   -5.56234877475916     
          14 :   -1.94745290817824     
          15 :    7.04898332824527     
          16 :   -9.89581247232158     
          17 :    11.4709360292151     
          18 :   -12.9198196747456     
          19 :    14.8972986407223     
          20 :   -17.2765493351114     
          21 :    19.3235212825738     
          22 :   -20.1863844815230     
          23 :    19.3936699292301     
          24 :   -17.1014924111042     
          25 :    13.9925896762864     
          26 :   -10.9274571318391     
          27 :    8.54704022785441     
          28 :   -7.03201859908492     
          29 :    6.11933139253267     
          30 :   -5.33755667083574     
          31 :   -23.3831978934479     
          32 :   -17.5821886389764     

     Forces acting on atoms (Ry/au):


     negative rho (up, down):  4.799E-03 0.000E+00
     atom    1 type  1   force =    -0.00269869   -0.00155601   -0.00076672
     atom    2 type  1   force =     0.00269995   -0.00155418   -0.00076703
     atom    3 type  1   force =     0.00000134    0.00311392   -0.00076831
     atom    4 type  1   force =    -0.00000172   -0.00000349   -0.00171477
     atom    5 type  1   force =     0.00000535   -0.01953128    0.00719649
     atom    6 type  1   force =    -0.00000259    0.00000335   -0.01769003
     atom    7 type  1   force =     0.01691751    0.00976189    0.00719100
     atom    8 type  1   force =    -0.01691429    0.00976587    0.00718737
     atom    9 type  1   force =     0.00000317    0.00000712   -0.00023891
     atom   10 type  1   force =    -0.00000712   -0.00012336    0.00004373
     atom   11 type  1   force =    -0.00011540    0.00005487    0.00003827
     atom   12 type  1   force =     0.00011278    0.00006011    0.00004319
     atom   13 type  2   force =    -0.00000024    0.00000060   -0.00029770
     atom   14 type  3   force =    -0.00000006    0.00000058    0.00054342

     Total force =     0.000703     Total SCF correction =     0.000291
     SCF correction compared to forces is large: reduce conv_thr to get better values


     entering subroutine stress ...


     negative rho (up, down):  4.799E-03 0.000E+00
          total   stress  (Ry/bohr**3)                   (kbar)     P=  -18.42
  -0.00018915   0.00000000  -0.00000001        -27.83      0.00     -0.00
   0.00000000  -0.00018915  -0.00000000          0.00    -27.83     -0.00
  -0.00000001  -0.00000000   0.00000255         -0.00     -0.00      0.38


     bfgs converged in  17 scf cycles and  16 bfgs steps
     (criteria: energy <  1.0E+00, force <  1.9E-03)

     End of BFGS Geometry Optimization

     Final energy   =   -1456.0077442405 Ry
Begin final coordinates

ATOMIC_POSITIONS (crystal)
Nb1      0.166666667   0.166666667   0.402010442    0   0   0
Nb1      0.666666667   0.166666667   0.402010442    0   0   0
Nb1      0.166666667   0.666666667   0.402010442    0   0   0
Nb1      0.666666667   0.666666667   0.402010442    0   0   0
Nb1      0.833333333   0.333333333   0.500000000    0   0   0
Nb1      0.333333333   0.333333333   0.500000000    0   0   0
Nb1      0.833333333   0.833333333   0.500000000    0   0   0
Nb1      0.333333333   0.833333333   0.500000000    0   0   0
Nb1     -0.000001961  -0.000006731   0.617218400
Nb1      0.500828145  -0.001654864   0.592408155
Nb1     -0.001662181   0.500831857   0.592410008
Nb1      0.500820266   0.500830736   0.592408948
O1       0.000002229  -0.000011440   0.693522557
H1      -0.000002289   0.000005548   0.732311952
End final coordinates



     Writing output data file calc.save
 
     init_run     :     12.75s CPU     13.14s WALL (       1 calls)
     electrons    :   5749.88s CPU   6177.42s WALL (      17 calls)
     update_pot   :     51.28s CPU     53.42s WALL (      16 calls)
     forces       :    289.70s CPU    309.87s WALL (      17 calls)
     stress       :    865.09s CPU    909.46s WALL (      17 calls)

     Called by init_run:
     wfcinit      :      5.29s CPU      5.37s WALL (       1 calls)
     potinit      :      2.02s CPU      2.12s WALL (       1 calls)

     Called by electrons:
     c_bands      :   2292.90s CPU   2432.20s WALL (     213 calls)
     sum_band     :   1163.85s CPU   1248.79s WALL (     213 calls)
     v_of_rho     :    359.41s CPU    392.00s WALL (     227 calls)
     newd         :   1019.84s CPU   1044.14s WALL (     227 calls)
     mix_rho      :     13.07s CPU     13.43s WALL (     213 calls)
     vdW_energy   :    193.40s CPU    214.80s WALL (     839 calls)
     vdW_ffts     :    463.11s CPU    484.34s WALL (    1712 calls)
     vdW_v        :    176.30s CPU    185.29s WALL (     839 calls)

     Called by c_bands:
     init_us_2    :     13.54s CPU     13.64s WALL (    2305 calls)
     cegterg      :   2072.85s CPU   2117.14s WALL (    1065 calls)

     Called by *egterg:
     h_psi        :   1352.37s CPU   1385.39s WALL (    5694 calls)
     s_psi        :    124.23s CPU    124.56s WALL (    5694 calls)
     g_psi        :      8.22s CPU      8.25s WALL (    4624 calls)
     cdiaghg      :    197.36s CPU    198.86s WALL (    5594 calls)

     Called by h_psi:
     add_vuspsi   :    127.62s CPU    127.97s WALL (    5694 calls)

     General routines
     calbec       :    193.50s CPU    196.97s WALL (    6929 calls)
     fft          :    722.46s CPU    775.89s WALL (   50761 calls)
     ffts         :      0.87s CPU      0.94s WALL (     440 calls)
     fftw         :    852.45s CPU    886.38s WALL (  613781 calls)
     interpolate  :      8.44s CPU      8.67s WALL (     440 calls)
     davcio       :      0.00s CPU      0.03s WALL (       5 calls)
 
     Parallel routines
     fft_scatter  :    909.64s CPU    990.98s WALL (  664982 calls)
 
     PWSCF        :     1h57m CPU        2h 5m WALL

 
   This run was terminated on:  10:49:51  19Apr2018            

=------------------------------------------------------------------------------=
   JOB DONE.
=------------------------------------------------------------------------------=
Job  /afs/slac/g/suncat/bin/suncat-tsmpirun -x LD_LIBRARY_PATH -wdir /scratch/qe584019_eY3Pa pw.x -npool 4 -in pw.inp

TID   HOST_NAME   COMMAND_LINE            STATUS            TERMINATION_TIME
===== ========== ================  =======================  ===================
00000 suncat0199 pw.x -npool 4 -i  Done                     04/19/2018 10:49:51
00001 suncat0199 pw.x -npool 4 -i  Done                     04/19/2018 10:49:51
00002 suncat0199 pw.x -npool 4 -i  Done                     04/19/2018 10:49:51
00003 suncat0199 pw.x -npool 4 -i  Done                     04/19/2018 10:49:51
00004 suncat0199 pw.x -npool 4 -i  Done                     04/19/2018 10:49:51
00005 suncat0199 pw.x -npool 4 -i  Done                     04/19/2018 10:49:51
00006 suncat0199 pw.x -npool 4 -i  Done                     04/19/2018 10:49:51
00007 suncat0199 pw.x -npool 4 -i  Done                     04/19/2018 10:49:51
00008 suncat0151 pw.x -npool 4 -i  Done                     04/19/2018 10:49:51
00009 suncat0151 pw.x -npool 4 -i  Done                     04/19/2018 10:49:51
00010 suncat0151 pw.x -npool 4 -i  Done                     04/19/2018 10:49:51
00011 suncat0151 pw.x -npool 4 -i  Done                     04/19/2018 10:49:51
00012 suncat0151 pw.x -npool 4 -i  Done                     04/19/2018 10:49:51
00013 suncat0151 pw.x -npool 4 -i  Done                     04/19/2018 10:49:51
00014 suncat0151 pw.x -npool 4 -i  Done                     04/19/2018 10:49:51
00015 suncat0151 pw.x -npool 4 -i  Done                     04/19/2018 10:49:51
00016 suncat0149 pw.x -npool 4 -i  Done                     04/19/2018 10:49:51
00017 suncat0149 pw.x -npool 4 -i  Done                     04/19/2018 10:49:51
00018 suncat0149 pw.x -npool 4 -i  Done                     04/19/2018 10:49:51
00019 suncat0149 pw.x -npool 4 -i  Done                     04/19/2018 10:49:51
00020 suncat0149 pw.x -npool 4 -i  Done                     04/19/2018 10:49:51
00021 suncat0149 pw.x -npool 4 -i  Done                     04/19/2018 10:49:51
00022 suncat0149 pw.x -npool 4 -i  Done                     04/19/2018 10:49:51
00023 suncat0149 pw.x -npool 4 -i  Done                     04/19/2018 10:49:51
00024 suncat0143 pw.x -npool 4 -i  Done                     04/19/2018 10:49:51
00025 suncat0143 pw.x -npool 4 -i  Done                     04/19/2018 10:49:51
00026 suncat0143 pw.x -npool 4 -i  Done                     04/19/2018 10:49:51
00027 suncat0143 pw.x -npool 4 -i  Done                     04/19/2018 10:49:51
00028 suncat0143 pw.x -npool 4 -i  Done                     04/19/2018 10:49:51
00029 suncat0143 pw.x -npool 4 -i  Done                     04/19/2018 10:49:51
00030 suncat0143 pw.x -npool 4 -i  Done                     04/19/2018 10:49:51
00031 suncat0143 pw.x -npool 4 -i  Done                     04/19/2018 10:49:51
