  python dir          : /u/if/mamunm/src/espresso
  espresso dir        : /nfs/slac/g/suncatfs/sw/espv18/espresso-dynpy-beef/bin
  pseudo dir          : /u/if/mamunm/psp/gbrv1.5pbe
  ase-espresso py git : GITVERSION



     Program PWSCF v.5.1rc2 (svn rev. 11289) starts on 23Apr2018 at  6:53:38 

     This program is part of the open-source Quantum ESPRESSO suite
     for quantum simulation of materials; please cite
         "P. Giannozzi et al., J. Phys.:Condens. Matter 21 395502 (2009);
          URL http://www.quantum-espresso.org", 
     in publications or presentations arising from this work. More details at
     http://www.quantum-espresso.org/quote

     Parallel version (MPI), running on    32 processors
     K-points division:     npool     =       4
     R & G space division:  proc/nbgrp/npool/nimage =       8
     Reading input from pw.inp
     Message from routine read_cards :
     DEPRECATED: no units specified in CELL_PARAMETERS card

     Current dimensions of program PWSCF are:
     Max number of different atomic species (ntypx) = 10
     Max number of k-points (npk) =  40000
     Max angular momentum in pseudopotentials (lmaxx) =  3
     Presently stress not available with electric field


     **************************************************************************
     Initializing libbeef V0.1.1 with the BEEF-vdW functional.
     Citation: Wellendorff et al., PRB 85, 235149 (2012).
     **************************************************************************


     IMPORTANT: XC functional enforced from input :
     Exchange-correlation      = BEEF-VDW ( 1  4 27 13 2)
     Any further DFT definition will be discarded
     Please, verify this is what you really want


     Subspace diagonalization in iterative solution of the eigenvalue problem:
     a serial algorithm will be used

 
     Parallelization info
     --------------------
     sticks:   dense  smooth     PW     G-vecs:    dense   smooth      PW
     Min         403     160     46                77132    19506    3044
     Max         407     161     50                77135    19535    3047
     Sum        3241    1285    379               617075   156145   24367
 


     bravais-lattice index     =            0
     lattice parameter (alat)  =       1.8897  a.u.
     unit-cell volume          =    5185.0501 (a.u.)^3
     number of atoms/cell      =           14
     number of atomic types    =            3
     number of electrons       =       161.00
     number of Kohn-Sham states=           90
     kinetic-energy cutoff     =      36.7493  Ry
     charge density cutoff     =     367.4932  Ry
     convergence threshold     =      1.0E-05
     mixing beta               =       0.3000
     number of iterations used =           10  plain     mixing
     Exchange-correlation      = BEEF-VDW ( 1  4 27 13 2)
     nstep                     =           50


     celldm(1)=   1.889726  celldm(2)=   0.000000  celldm(3)=   0.000000
     celldm(4)=   0.000000  celldm(5)=   0.000000  celldm(6)=   0.000000

     crystal axes: (cart. coord. in units of alat)
               a(1) = (   5.972022   0.000000   0.000000 )  
               a(2) = (   2.986011   5.171923   0.000000 )  
               a(3) = (   0.000000   0.000000  24.876136 )  

     reciprocal axes: (cart. coord. in units 2 pi/alat)
               b(1) = (  0.167447 -0.096676  0.000000 )  
               b(2) = (  0.000000  0.193352  0.000000 )  
               b(3) = (  0.000000  0.000000  0.040199 )  


     PseudoPot. # 1 for Ta read from file:
     /u/if/mamunm/psp/gbrv1.5pbe/Ta.UPF
     MD5 check sum: f8bbe9446314a3b8ea5d9f3e3836c939
     Pseudo is Ultrasoft + core correction, Zval = 13.0
     Generated by new atomic code, or converted to UPF format
     Using radial grid of  921 points,  7 beta functions with: 
                l(1) =   0
                l(2) =   0
                l(3) =   1
                l(4) =   1
                l(5) =   2
                l(6) =   2
                l(7) =   3
     Q(r) pseudized with  6 coefficients,  rinner =    1.300   1.300   1.300
                                                       1.300   1.300   1.300
                                                       1.300

     PseudoPot. # 2 for C  read from file:
     /u/if/mamunm/psp/gbrv1.5pbe/C.UPF
     MD5 check sum: d1aef80898a10debaa0f26306b886e00
     Pseudo is Ultrasoft + core correction, Zval =  4.0
     Generated by new atomic code, or converted to UPF format
     Using radial grid of  721 points,  4 beta functions with: 
                l(1) =   0
                l(2) =   0
                l(3) =   1
                l(4) =   1
     Q(r) pseudized with  8 coefficients,  rinner =    1.100   1.100   1.100


     PseudoPot. # 3 for H  read from file:
     /u/if/mamunm/psp/gbrv1.5pbe/H.UPF
     MD5 check sum: 761ae9a214b05c3daf00ab9f6b793d6f
     Pseudo is Ultrasoft, Zval =  1.0
     Generated by new atomic code, or converted to UPF format
     Using radial grid of  615 points,  2 beta functions with: 
                l(1) =   0
                l(2) =   0
     Q(r) pseudized with  8 coefficients,  rinner =    0.700

     vdW kernel table read from file vdW_kernel_table
     MD5 check sum: 095c7af220d748ca6e76c0b4c6cfb241

     atomic species   valence    mass     pseudopotential
        Ta1           13.00   180.94788     Ta( 1.00)
        C1             4.00    12.01100     C ( 1.00)
        H1             1.00     1.00800     H ( 1.00)

     No symmetry found



   Cartesian axes

     site n.     atom                  positions (alat units)
         1           Ta1 tau(   1) = (   1.4930055   0.8619871  10.0000000  )
         2           Ta1 tau(   2) = (   4.4790165   0.8619871  10.0000000  )
         3           Ta1 tau(   3) = (   2.9860110   3.4479485  10.0000000  )
         4           Ta1 tau(   4) = (   5.9720221   3.4479485  10.0000000  )
         5           Ta1 tau(   5) = (   5.9720221   1.7239743  12.4380678  )
         6           Ta1 tau(   6) = (   2.9860110   1.7239743  12.4380678  )
         7           Ta1 tau(   7) = (   7.4650276   4.3099357  12.4380678  )
         8           Ta1 tau(   8) = (   4.4790165   4.3099357  12.4380678  )
         9           Ta1 tau(   9) = (   0.0000000   0.0000000  14.8761356  )
        10           Ta1 tau(  10) = (   2.9860110   0.0000000  14.8761356  )
        11           Ta1 tau(  11) = (   1.4930055   2.5859614  14.8761356  )
        12           Ta1 tau(  12) = (   4.4790165   2.5859614  14.8761356  )
        13           C1  tau(  13) = (   2.9860110   1.7239743  16.4751356  )
        14           H1  tau(  14) = (   2.9860110   1.7239743  17.5751356  )

     number of k points=    20  Fermi-Dirac smearing, width (Ry)=  0.0110
                       cart. coord. in units 2pi/alat
        k(    1) = (   0.0000000   0.0000000   0.0000000), wk =   0.0555556
        k(    2) = (   0.0000000   0.0322253   0.0000000), wk =   0.1111111
        k(    3) = (   0.0000000   0.0644506   0.0000000), wk =   0.1111111
        k(    4) = (   0.0000000  -0.0966758   0.0000000), wk =   0.0555556
        k(    5) = (   0.0279079  -0.0161126   0.0000000), wk =   0.1111111
        k(    6) = (   0.0279079   0.0161126   0.0000000), wk =   0.1111111
        k(    7) = (   0.0279079   0.0483379   0.0000000), wk =   0.1111111
        k(    8) = (   0.0279079  -0.1127885   0.0000000), wk =   0.1111111
        k(    9) = (   0.0279079  -0.0805632   0.0000000), wk =   0.1111111
        k(   10) = (   0.0279079  -0.0483379   0.0000000), wk =   0.1111111
        k(   11) = (   0.0558158  -0.0322253   0.0000000), wk =   0.1111111
        k(   12) = (   0.0558158   0.0000000   0.0000000), wk =   0.1111111
        k(   13) = (   0.0558158   0.0322253   0.0000000), wk =   0.1111111
        k(   14) = (   0.0558158  -0.1289011   0.0000000), wk =   0.1111111
        k(   15) = (   0.0558158  -0.0966758   0.0000000), wk =   0.1111111
        k(   16) = (   0.0558158  -0.0644506   0.0000000), wk =   0.1111111
        k(   17) = (  -0.0837237   0.0483379   0.0000000), wk =   0.0555556
        k(   18) = (  -0.0837237   0.0805632   0.0000000), wk =   0.1111111
        k(   19) = (  -0.0837237   0.1127885   0.0000000), wk =   0.1111111
        k(   20) = (  -0.0837237  -0.0483379   0.0000000), wk =   0.0555556

     Dense  grid:   617075 G-vectors     FFT dimensions: (  72,  72, 288)

     Smooth grid:   156145 G-vectors     FFT dimensions: (  45,  45, 192)

     Largest allocated arrays     est. size (Mb)     dimensions
        Kohn-Sham Wavefunctions         3.42 Mb     (    2487,   90)
        NL pseudopotentials            11.76 Mb     (    2487,  310)
        Each V/rho on FFT grid          2.85 Mb     (  186624)
        Each G-vector array             0.59 Mb     (   77132)
        G-vector shells                 0.16 Mb     (   21038)
     Largest temporary arrays     est. size (Mb)     dimensions
        Auxiliary wavefunctions        13.66 Mb     (    2487,  360)
        Each subspace H/S matrix        1.98 Mb     (     360,  360)
        Each <psi_i|beta_j> matrix      0.43 Mb     (     310,   90)
        Arrays for rho mixing          28.48 Mb     (  186624,   10)

     Initial potential from superposition of free atoms
     Check: negative starting charge=   -1.121491

     starting charge  160.98661, renormalised to  161.00000

     negative rho (up, down):  1.122E+00 0.000E+00


     ************************************************************************
     *
     * You are using vdW-DF for exchange-correlation in this calculation.
     * Please cite the following three references that made this development
     * possible:
     *
     *   M. Dion, H. Rydberg, E. Schroder, D. C. Langreth, and
     *   B. I. Lundqvist, Phys. Rev. Lett. 92, 246401 (2004).
     *
     *   T. Thonhauser, V. R. Cooper, S. Li, A. Puzder, P. Hyldgaard, and
     *   D. C. Langreth, Phys. Rev. B 76, 125112 (2007).
     *
     *   G. Roman-Perez and J. M. Soler, Phys. Rev. Lett. 103, 096102 (2009).
     *
     *
     * If you are using vdW-DF2, please also cite:
     *
     *   K. Lee, E. D. Murray, L. Kong, B. I. Lundqvist, and
     *   D. C. Langreth, Phys. Rev. B 82, 081101(R) (2010).
     *
     *
     * If you are calculating the stress with vdW-DF, please also cite:
     *
     *   R. Sabatini, E. Kucukbenli, B. Kolb, T. Thonhauser, and
     *   S. de Gironcoli, J. Phys.: Condens. Matter 24, 424209 (2012).
     *
     ************************************************************************

     Carrying out vdW-DF run using the following parameters:

     Nqs =      20    Nr_points =    1024   r_max =   100.000
     q_mesh =
               0.00001000     0.04494208     0.09755937     0.15916263
               0.23128650     0.31572767     0.41458969     0.53033537
               0.66584808     0.82450364     1.01025438     1.22772762
               1.48234092     1.78043706     2.12944203     2.53805004
               3.01644009     3.57652955     4.23227104     5.00000000

     Gradients computed in reciprocal space

     ************************************************************************


 
     Adding external electric field

     Computed dipole along edir(3) : 
        Dipole               -0.0029 Ry au,         -0.0075 Debye
        Dipole field         -0.0000 Ry au
 
        Potential amp.        0.0007 Ry
        Total length         45.8339 bohr
 
     Starting wfc are  161 randomized atomic wfcs

     total cpu time spent up to now is       17.6 secs

     per-process dynamical memory:    97.0 Mb

     Self-consistent Calculation

     iteration #  1     ecut=    36.75 Ry     beta=0.30
     Davidson diagonalization with overlap
     ethr =  1.00E-02,  avg # of iterations =  2.0

     negative rho (up, down):  1.136E+00 0.000E+00
 
     Adding external electric field

     Computed dipole along edir(3) : 
        Dipole               -4.1411 Ry au,        -10.5257 Debye
        Dipole field         -0.0100 Ry au
 
        Potential amp.        0.9200 Ry
        Total length         45.8339 bohr
 

     total cpu time spent up to now is       42.5 secs

     total energy              =   -1728.89545940 Ry
     Harris-Foulkes estimate   =   -1731.54156562 Ry
     estimated scf accuracy    <       5.78607342 Ry

     iteration #  2     ecut=    36.75 Ry     beta=0.30
     Davidson diagonalization with overlap
     ethr =  3.59E-03,  avg # of iterations =  9.1

     negative rho (up, down):  1.136E+00 0.000E+00
 
     Adding external electric field

     Computed dipole along edir(3) : 
        Dipole                1.7183 Ry au,          4.3674 Debye
        Dipole field          0.0042 Ry au
 
        Potential amp.       -0.3817 Ry
        Total length         45.8339 bohr
 

     total cpu time spent up to now is       79.0 secs

     total energy              =   -1715.42480598 Ry
     Harris-Foulkes estimate   =   -1743.33673029 Ry
     estimated scf accuracy    <     812.75469631 Ry

     iteration #  3     ecut=    36.75 Ry     beta=0.30
     Davidson diagonalization with overlap
     ethr =  3.59E-03,  avg # of iterations =  7.0

     negative rho (up, down):  1.138E+00 0.000E+00
 
     Adding external electric field

     Computed dipole along edir(3) : 
        Dipole                0.8754 Ry au,          2.2250 Debye
        Dipole field          0.0021 Ry au
 
        Potential amp.       -0.1945 Ry
        Total length         45.8339 bohr
 

     total cpu time spent up to now is      112.5 secs

     total energy              =   -1728.75112413 Ry
     Harris-Foulkes estimate   =   -1733.42483771 Ry
     estimated scf accuracy    <     101.02527894 Ry

     iteration #  4     ecut=    36.75 Ry     beta=0.30
     Davidson diagonalization with overlap
     ethr =  3.59E-03,  avg # of iterations =  4.0

     negative rho (up, down):  1.144E+00 0.000E+00
 
     Adding external electric field

     Computed dipole along edir(3) : 
        Dipole                0.9258 Ry au,          2.3532 Debye
        Dipole field          0.0022 Ry au
 
        Potential amp.       -0.2057 Ry
        Total length         45.8339 bohr
 

     total cpu time spent up to now is      140.1 secs

     total energy              =   -1730.99973371 Ry
     Harris-Foulkes estimate   =   -1731.22218980 Ry
     estimated scf accuracy    <       2.94665138 Ry

     iteration #  5     ecut=    36.75 Ry     beta=0.30
     Davidson diagonalization with overlap
     ethr =  1.83E-03,  avg # of iterations =  1.6

     negative rho (up, down):  1.154E+00 0.000E+00
 
     Adding external electric field

     Computed dipole along edir(3) : 
        Dipole                0.7505 Ry au,          1.9075 Debye
        Dipole field          0.0018 Ry au
 
        Potential amp.       -0.1667 Ry
        Total length         45.8339 bohr
 

     total cpu time spent up to now is      164.2 secs

     total energy              =   -1731.06949579 Ry
     Harris-Foulkes estimate   =   -1731.10444554 Ry
     estimated scf accuracy    <       0.29769802 Ry

     iteration #  6     ecut=    36.75 Ry     beta=0.30
     Davidson diagonalization with overlap
     ethr =  1.85E-04,  avg # of iterations =  5.9

     negative rho (up, down):  1.160E+00 0.000E+00
 
     Adding external electric field

     Computed dipole along edir(3) : 
        Dipole                0.7554 Ry au,          1.9200 Debye
        Dipole field          0.0018 Ry au
 
        Potential amp.       -0.1678 Ry
        Total length         45.8339 bohr
 

     total cpu time spent up to now is      191.6 secs

     total energy              =   -1731.07402127 Ry
     Harris-Foulkes estimate   =   -1731.09043589 Ry
     estimated scf accuracy    <       0.27428429 Ry

     iteration #  7     ecut=    36.75 Ry     beta=0.30
     Davidson diagonalization with overlap
     ethr =  1.70E-04,  avg # of iterations =  1.3

     negative rho (up, down):  1.168E+00 0.000E+00
 
     Adding external electric field

     Computed dipole along edir(3) : 
        Dipole                0.4720 Ry au,          1.1997 Debye
        Dipole field          0.0011 Ry au
 
        Potential amp.       -0.1049 Ry
        Total length         45.8339 bohr
 

     total cpu time spent up to now is      215.7 secs

     total energy              =   -1731.07525010 Ry
     Harris-Foulkes estimate   =   -1731.08464349 Ry
     estimated scf accuracy    <       0.06109190 Ry

     iteration #  8     ecut=    36.75 Ry     beta=0.30
     Davidson diagonalization with overlap
     ethr =  3.79E-05,  avg # of iterations =  5.0

     negative rho (up, down):  1.172E+00 0.000E+00
 
     Adding external electric field

     Computed dipole along edir(3) : 
        Dipole                0.4052 Ry au,          1.0299 Debye
        Dipole field          0.0010 Ry au
 
        Potential amp.       -0.0900 Ry
        Total length         45.8339 bohr
 

     total cpu time spent up to now is      242.6 secs

     total energy              =   -1731.07638474 Ry
     Harris-Foulkes estimate   =   -1731.07973089 Ry
     estimated scf accuracy    <       0.03739766 Ry

     iteration #  9     ecut=    36.75 Ry     beta=0.30
     Davidson diagonalization with overlap
     ethr =  2.32E-05,  avg # of iterations =  3.7

     negative rho (up, down):  1.174E+00 0.000E+00
 
     Adding external electric field

     Computed dipole along edir(3) : 
        Dipole                0.2942 Ry au,          0.7477 Debye
        Dipole field          0.0007 Ry au
 
        Potential amp.       -0.0654 Ry
        Total length         45.8339 bohr
 

     total cpu time spent up to now is      268.5 secs

     total energy              =   -1731.07620282 Ry
     Harris-Foulkes estimate   =   -1731.07852703 Ry
     estimated scf accuracy    <       0.01512614 Ry

     iteration # 10     ecut=    36.75 Ry     beta=0.30
     Davidson diagonalization with overlap
     ethr =  9.40E-06,  avg # of iterations =  5.2

     negative rho (up, down):  1.176E+00 0.000E+00
 
     Adding external electric field

     Computed dipole along edir(3) : 
        Dipole                0.1982 Ry au,          0.5038 Debye
        Dipole field          0.0005 Ry au
 
        Potential amp.       -0.0440 Ry
        Total length         45.8339 bohr
 

     total cpu time spent up to now is      295.8 secs

     total energy              =   -1731.07577321 Ry
     Harris-Foulkes estimate   =   -1731.07713729 Ry
     estimated scf accuracy    <       0.00341734 Ry

     iteration # 11     ecut=    36.75 Ry     beta=0.30
     Davidson diagonalization with overlap
     ethr =  2.12E-06,  avg # of iterations = 10.8

     negative rho (up, down):  1.176E+00 0.000E+00
 
     Adding external electric field

     Computed dipole along edir(3) : 
        Dipole                0.1330 Ry au,          0.3380 Debye
        Dipole field          0.0003 Ry au
 
        Potential amp.       -0.0295 Ry
        Total length         45.8339 bohr
 

     total cpu time spent up to now is      326.6 secs

     total energy              =   -1731.07574870 Ry
     Harris-Foulkes estimate   =   -1731.07603775 Ry
     estimated scf accuracy    <       0.00073008 Ry

     iteration # 12     ecut=    36.75 Ry     beta=0.30
     Davidson diagonalization with overlap
     ethr =  4.53E-07,  avg # of iterations =  5.1

     negative rho (up, down):  1.177E+00 0.000E+00
 
     Adding external electric field

     Computed dipole along edir(3) : 
        Dipole                0.1124 Ry au,          0.2858 Debye
        Dipole field          0.0003 Ry au
 
        Potential amp.       -0.0250 Ry
        Total length         45.8339 bohr
 

     total cpu time spent up to now is      354.4 secs

     total energy              =   -1731.07579233 Ry
     Harris-Foulkes estimate   =   -1731.07582838 Ry
     estimated scf accuracy    <       0.00021568 Ry

     iteration # 13     ecut=    36.75 Ry     beta=0.30
     Davidson diagonalization with overlap
     ethr =  1.34E-07,  avg # of iterations =  3.4

     negative rho (up, down):  1.177E+00 0.000E+00
 
     Adding external electric field

     Computed dipole along edir(3) : 
        Dipole                0.0753 Ry au,          0.1914 Debye
        Dipole field          0.0002 Ry au
 
        Potential amp.       -0.0167 Ry
        Total length         45.8339 bohr
 

     total cpu time spent up to now is      380.7 secs

     total energy              =   -1731.07588883 Ry
     Harris-Foulkes estimate   =   -1731.07582514 Ry
     estimated scf accuracy    <       0.00011703 Ry

     iteration # 14     ecut=    36.75 Ry     beta=0.30
     Davidson diagonalization with overlap
     ethr =  7.27E-08,  avg # of iterations =  3.0

     negative rho (up, down):  1.177E+00 0.000E+00
 
     Adding external electric field

     Computed dipole along edir(3) : 
        Dipole                0.0729 Ry au,          0.1854 Debye
        Dipole field          0.0002 Ry au
 
        Potential amp.       -0.0162 Ry
        Total length         45.8339 bohr
 

     total cpu time spent up to now is      407.0 secs

     total energy              =   -1731.07590337 Ry
     Harris-Foulkes estimate   =   -1731.07589985 Ry
     estimated scf accuracy    <       0.00002564 Ry

     iteration # 15     ecut=    36.75 Ry     beta=0.30
     Davidson diagonalization with overlap
     ethr =  1.59E-08,  avg # of iterations =  4.1

     negative rho (up, down):  1.177E+00 0.000E+00

     negative rho (up, down):  1.177E+00 0.000E+00

     negative rho (up, down):  1.177E+00 0.000E+00

     negative rho (up, down):  1.177E+00 0.000E+00

     negative rho (up, down):  1.177E+00 0.000E+00

     negative rho (up, down):  1.177E+00 0.000E+00

     negative rho (up, down):  1.177E+00 0.000E+00

     negative rho (up, down):  1.177E+00 0.000E+00

     negative rho (up, down):  1.177E+00 0.000E+00

     negative rho (up, down):  1.177E+00 0.000E+00

     negative rho (up, down):  1.177E+00 0.000E+00

     negative rho (up, down):  1.177E+00 0.000E+00

     negative rho (up, down):  1.177E+00 0.000E+00

     negative rho (up, down):  1.177E+00 0.000E+00

     negative rho (up, down):  1.177E+00 0.000E+00

     negative rho (up, down):  1.177E+00 0.000E+00

     negative rho (up, down):  1.177E+00 0.000E+00

     negative rho (up, down):  1.177E+00 0.000E+00

     negative rho (up, down):  1.177E+00 0.000E+00

     negative rho (up, down):  1.177E+00 0.000E+00

     negative rho (up, down):  1.177E+00 0.000E+00

     negative rho (up, down):  1.177E+00 0.000E+00

     negative rho (up, down):  1.177E+00 0.000E+00

     negative rho (up, down):  1.177E+00 0.000E+00

     negative rho (up, down):  1.177E+00 0.000E+00

     negative rho (up, down):  1.177E+00 0.000E+00

     negative rho (up, down):  1.177E+00 0.000E+00

     negative rho (up, down):  1.177E+00 0.000E+00

     negative rho (up, down):  1.177E+00 0.000E+00

     negative rho (up, down):  1.177E+00 0.000E+00

     negative rho (up, down):  1.177E+00 0.000E+00

     negative rho (up, down):  1.177E+00 0.000E+00

     negative rho (up, down):  1.177E+00 0.000E+00

     negative rho (up, down):  1.177E+00 0.000E+00

     negative rho (up, down):  1.177E+00 0.000E+00
 
     Adding external electric field

     Computed dipole along edir(3) : 
        Dipole                0.0719 Ry au,          0.1828 Debye
        Dipole field          0.0002 Ry au
 
        Potential amp.       -0.0160 Ry
        Total length         45.8339 bohr
 

     total cpu time spent up to now is      483.8 secs

     End of self-consistent calculation

          k = 0.0000 0.0000 0.0000 ( 19447 PWs)   bands (ev):

   -66.2235 -66.1700 -66.1395 -66.1129 -66.1128 -66.1050 -66.1029 -66.1029
   -66.0756 -66.0290 -66.0289 -66.0280 -32.9182 -32.9182 -32.9034 -32.8715
   -32.8593 -32.8593 -32.8505 -32.8103 -32.8102 -32.7969 -32.6215 -32.5241
   -32.4876 -32.4876 -32.4414 -32.4238 -32.4237 -32.3238 -32.3218 -32.3218
   -32.2553 -32.2553 -32.2541 -32.2277 -32.2180 -32.2180 -32.1712 -32.1652
   -32.1596 -32.1596 -32.1121 -32.1121 -32.0762 -32.0762 -32.0165 -32.0165
    -8.5790  -5.3141  -3.9493  -2.9908  -2.3624  -2.0258  -2.0258  -1.9480
    -1.8105  -1.8105  -1.4379  -1.1833  -1.1832  -0.8308  -0.8308  -0.8109
    -0.4575   0.1509   0.1509   0.7164   0.9888   0.9888   1.4863   1.7435
     1.7435   1.8932   2.0648   2.1555   2.3768   2.4051   2.4051   2.5632
     2.5632   2.7952   2.7952   2.8216   2.8753   2.9108   2.9108   3.0000
     3.0001   3.4748

          k = 0.0000 0.0322 0.0000 ( 19481 PWs)   bands (ev):

   -66.2219 -66.1662 -66.1383 -66.1159 -66.1128 -66.1063 -66.1052 -66.1029
   -66.0725 -66.0318 -66.0290 -66.0283 -32.8923 -32.8847 -32.8692 -32.8536
   -32.8361 -32.8306 -32.8214 -32.7850 -32.7778 -32.7578 -32.6197 -32.5397
   -32.5110 -32.5020 -32.4362 -32.4152 -32.4110 -32.3468 -32.3455 -32.3115
   -32.2985 -32.2945 -32.2435 -32.2140 -32.2103 -32.2061 -32.1987 -32.1884
   -32.1827 -32.1558 -32.1532 -32.1246 -32.1053 -32.0879 -32.0643 -32.0254
    -8.5638  -5.0901  -3.7677  -2.8196  -2.1989  -2.1205  -1.8722  -1.8302
    -1.7138  -1.6321  -1.3331  -1.0184  -0.9563  -0.7096  -0.6872  -0.6626
    -0.3349   0.1724   0.1741   0.6817   0.9568   0.9738   1.3928   1.7298
     1.7655   1.8387   1.9235   2.0425   2.1484   2.2134   2.2353   2.3463
     2.6390   2.6817   2.7200   2.7475   2.7733   2.8424   2.9283   2.9402
     3.1313   3.1832

          k = 0.0000 0.0645 0.0000 ( 19517 PWs)   bands (ev):

   -66.2188 -66.1556 -66.1352 -66.1258 -66.1129 -66.1119 -66.1067 -66.1029
   -66.0639 -66.0404 -66.0289 -66.0283 -32.8270 -32.8247 -32.8086 -32.7831
   -32.7791 -32.7555 -32.7475 -32.7231 -32.7121 -32.6370 -32.6172 -32.5652
   -32.5476 -32.5415 -32.4213 -32.4045 -32.4017 -32.3891 -32.3886 -32.3664
   -32.3650 -32.3185 -32.2791 -32.2768 -32.2596 -32.2547 -32.2149 -32.1952
   -32.1932 -32.1913 -32.1820 -32.1644 -32.1347 -32.1262 -32.1151 -32.0506
    -8.5345  -4.4646  -3.3497  -2.6839  -2.3829  -1.7637  -1.5168  -1.4909
    -1.4369  -1.1981  -1.0835  -0.7036  -0.4109  -0.3270  -0.2975  -0.2407
     0.0589   0.2135   0.2296   0.6467   0.8689   0.8859   1.0555   1.2841
     1.3976   1.5264   1.5426   1.6950   2.0056   2.0213   2.0717   2.0953
     2.1782   2.1840   2.2669   2.3721   2.4820   2.5319   2.7155   2.8271
     3.0200   3.2149

          k = 0.0000-0.0967 0.0000 ( 19532 PWs)   bands (ev):

   -66.2173 -66.1428 -66.1392 -66.1319 -66.1160 -66.1129 -66.1070 -66.1029
   -66.0527 -66.0515 -66.0289 -66.0283 -32.7859 -32.7751 -32.7606 -32.7565
   -32.7546 -32.7417 -32.6758 -32.6675 -32.6541 -32.6212 -32.5915 -32.5799
   -32.5141 -32.4890 -32.4574 -32.4473 -32.4328 -32.4327 -32.4106 -32.4016
   -32.3599 -32.3553 -32.3311 -32.3206 -32.3185 -32.3150 -32.2373 -32.2134
   -32.1918 -32.1864 -32.1738 -32.1627 -32.1536 -32.1528 -32.0875 -32.0836
    -8.5204  -3.6728  -3.5271  -2.9718  -2.1674  -1.7176  -1.2526  -1.2252
    -1.0259  -0.9025  -0.8759  -0.7087  -0.2868   0.0639   0.1375   0.1747
     0.3169   0.3473   0.3607   0.4888   0.7911   0.8599   0.9187   0.9857
     1.0459   1.1224   1.3663   1.5397   1.5429   1.5530   1.7247   1.8062
     1.8175   1.9873   2.0756   2.2795   2.3948   2.4139   2.5366   2.7061
     2.7924   3.3796

          k = 0.0279-0.0161 0.0000 ( 19481 PWs)   bands (ev):

   -66.2219 -66.1662 -66.1383 -66.1159 -66.1129 -66.1063 -66.1052 -66.1029
   -66.0725 -66.0318 -66.0290 -66.0282 -32.8923 -32.8847 -32.8692 -32.8536
   -32.8361 -32.8306 -32.8214 -32.7850 -32.7778 -32.7578 -32.6197 -32.5397
   -32.5109 -32.5020 -32.4362 -32.4152 -32.4110 -32.3468 -32.3456 -32.3115
   -32.2985 -32.2945 -32.2435 -32.2140 -32.2103 -32.2061 -32.1987 -32.1884
   -32.1827 -32.1558 -32.1532 -32.1246 -32.1053 -32.0880 -32.0643 -32.0254
    -8.5638  -5.0901  -3.7677  -2.8196  -2.1989  -2.1205  -1.8722  -1.8302
    -1.7139  -1.6321  -1.3331  -1.0184  -0.9563  -0.7096  -0.6872  -0.6626
    -0.3349   0.1724   0.1741   0.6817   0.9568   0.9738   1.3928   1.7298
     1.7655   1.8387   1.9235   2.0425   2.1484   2.2134   2.2353   2.3463
     2.6391   2.6817   2.7200   2.7475   2.7733   2.8424   2.9283   2.9402
     3.1313   3.1832

          k = 0.0279 0.0161 0.0000 ( 19481 PWs)   bands (ev):

   -66.2219 -66.1662 -66.1383 -66.1159 -66.1129 -66.1063 -66.1052 -66.1029
   -66.0725 -66.0318 -66.0289 -66.0283 -32.8923 -32.8847 -32.8692 -32.8536
   -32.8361 -32.8306 -32.8214 -32.7850 -32.7778 -32.7578 -32.6197 -32.5398
   -32.5109 -32.5020 -32.4362 -32.4152 -32.4110 -32.3468 -32.3456 -32.3115
   -32.2985 -32.2945 -32.2435 -32.2140 -32.2103 -32.2061 -32.1987 -32.1884
   -32.1827 -32.1558 -32.1532 -32.1246 -32.1053 -32.0880 -32.0643 -32.0254
    -8.5638  -5.0901  -3.7677  -2.8196  -2.1989  -2.1205  -1.8722  -1.8302
    -1.7139  -1.6321  -1.3331  -1.0184  -0.9563  -0.7096  -0.6872  -0.6626
    -0.3349   0.1724   0.1741   0.6817   0.9568   0.9738   1.3928   1.7298
     1.7655   1.8387   1.9235   2.0425   2.1484   2.2134   2.2353   2.3463
     2.6391   2.6817   2.7200   2.7475   2.7733   2.8424   2.9283   2.9403
     3.1314   3.1832

          k = 0.0279 0.0483 0.0000 ( 19485 PWs)   bands (ev):

   -66.2196 -66.1589 -66.1360 -66.1203 -66.1166 -66.1103 -66.1053 -66.1026
   -66.0666 -66.0349 -66.0341 -66.0259 -32.8544 -32.8320 -32.8106 -32.8061
   -32.7932 -32.7813 -32.7738 -32.7486 -32.7040 -32.6933 -32.6184 -32.5612
   -32.5448 -32.5259 -32.4262 -32.4184 -32.4084 -32.3976 -32.3838 -32.3222
   -32.3153 -32.2840 -32.2707 -32.2650 -32.2596 -32.2369 -32.2055 -32.1964
   -32.1928 -32.1695 -32.1629 -32.1623 -32.1476 -32.1226 -32.1008 -32.0493
    -8.5417  -4.6631  -3.4599  -2.5528  -2.1866  -2.1297  -1.8099  -1.5758
    -1.3838  -1.3192  -1.1189  -0.7489  -0.5833  -0.4798  -0.4093  -0.3626
    -0.0618   0.1686   0.2274   0.6207   0.8540   1.0438   1.1785   1.4538
     1.5091   1.5978   1.6755   1.7124   1.9229   2.1392   2.1484   2.2114
     2.2676   2.2946   2.4388   2.4959   2.5697   2.6839   2.7506   2.9317
     3.0374   3.1039

          k = 0.0279-0.1128 0.0000 ( 19521 PWs)   bands (ev):

   -66.2173 -66.1465 -66.1328 -66.1302 -66.1201 -66.1169 -66.1039 -66.1022
   -66.0564 -66.0447 -66.0360 -66.0243 -32.7916 -32.7796 -32.7520 -32.7440
   -32.7348 -32.7264 -32.6896 -32.6811 -32.6353 -32.6198 -32.5926 -32.5784
   -32.5671 -32.5349 -32.5046 -32.4700 -32.4257 -32.4041 -32.3852 -32.3781
   -32.3720 -32.3365 -32.3323 -32.2951 -32.2915 -32.2649 -32.2334 -32.2221
   -32.2101 -32.2003 -32.1685 -32.1638 -32.1560 -32.1395 -32.1249 -32.0869
    -8.5204  -3.9045  -3.1703  -2.8229  -2.1534  -2.0251  -1.5904  -1.2230
    -1.0022  -0.8040  -0.6961  -0.4901  -0.2224  -0.0465   0.0313   0.1027
     0.1461   0.3337   0.4183   0.5892   0.6952   0.7906   0.9059   0.9907
     1.1096   1.1738   1.2789   1.3912   1.4936   1.6508   1.7035   1.7431
     1.8312   2.0124   2.1431   2.2230   2.4234   2.5287   2.6712   2.7828
     2.9578   3.2568

          k = 0.0279-0.0806 0.0000 ( 19521 PWs)   bands (ev):

   -66.2173 -66.1465 -66.1328 -66.1302 -66.1201 -66.1169 -66.1039 -66.1022
   -66.0564 -66.0446 -66.0360 -66.0243 -32.7916 -32.7796 -32.7520 -32.7440
   -32.7348 -32.7264 -32.6896 -32.6811 -32.6353 -32.6198 -32.5927 -32.5784
   -32.5671 -32.5349 -32.5046 -32.4700 -32.4257 -32.4041 -32.3852 -32.3781
   -32.3720 -32.3365 -32.3323 -32.2951 -32.2915 -32.2649 -32.2334 -32.2221
   -32.2101 -32.2003 -32.1685 -32.1638 -32.1560 -32.1395 -32.1249 -32.0869
    -8.5204  -3.9045  -3.1703  -2.8229  -2.1534  -2.0251  -1.5904  -1.2230
    -1.0022  -0.8040  -0.6961  -0.4901  -0.2224  -0.0465   0.0313   0.1027
     0.1461   0.3337   0.4183   0.5892   0.6952   0.7906   0.9059   0.9907
     1.1096   1.1738   1.2789   1.3912   1.4936   1.6508   1.7035   1.7431
     1.8312   2.0124   2.1431   2.2230   2.4234   2.5287   2.6712   2.7828
     2.9578   3.2569

          k = 0.0279-0.0483 0.0000 ( 19485 PWs)   bands (ev):

   -66.2196 -66.1589 -66.1360 -66.1203 -66.1166 -66.1104 -66.1053 -66.1026
   -66.0666 -66.0349 -66.0341 -66.0259 -32.8544 -32.8320 -32.8106 -32.8061
   -32.7932 -32.7813 -32.7738 -32.7486 -32.7040 -32.6933 -32.6184 -32.5612
   -32.5449 -32.5259 -32.4262 -32.4184 -32.4084 -32.3976 -32.3838 -32.3222
   -32.3153 -32.2840 -32.2707 -32.2650 -32.2596 -32.2369 -32.2055 -32.1964
   -32.1928 -32.1695 -32.1629 -32.1623 -32.1476 -32.1226 -32.1008 -32.0493
    -8.5417  -4.6631  -3.4599  -2.5528  -2.1866  -2.1297  -1.8099  -1.5758
    -1.3838  -1.3192  -1.1189  -0.7489  -0.5833  -0.4798  -0.4093  -0.3626
    -0.0618   0.1686   0.2274   0.6207   0.8540   1.0438   1.1785   1.4538
     1.5091   1.5978   1.6755   1.7124   1.9229   2.1392   2.1484   2.2114
     2.2676   2.2946   2.4388   2.4959   2.5697   2.6839   2.7506   2.9318
     3.0375   3.1039

          k = 0.0558-0.0322 0.0000 ( 19517 PWs)   bands (ev):

   -66.2188 -66.1556 -66.1352 -66.1258 -66.1129 -66.1118 -66.1067 -66.1029
   -66.0639 -66.0404 -66.0289 -66.0283 -32.8270 -32.8247 -32.8086 -32.7831
   -32.7791 -32.7555 -32.7475 -32.7231 -32.7121 -32.6370 -32.6172 -32.5652
   -32.5476 -32.5415 -32.4213 -32.4045 -32.4018 -32.3891 -32.3887 -32.3664
   -32.3651 -32.3185 -32.2791 -32.2768 -32.2596 -32.2547 -32.2149 -32.1951
   -32.1932 -32.1913 -32.1820 -32.1644 -32.1347 -32.1262 -32.1151 -32.0506
    -8.5345  -4.4646  -3.3497  -2.6839  -2.3829  -1.7637  -1.5168  -1.4909
    -1.4370  -1.1981  -1.0835  -0.7036  -0.4109  -0.3270  -0.2975  -0.2407
     0.0589   0.2135   0.2296   0.6467   0.8689   0.8859   1.0555   1.2841
     1.3976   1.5264   1.5426   1.6950   2.0056   2.0213   2.0717   2.0953
     2.1782   2.1840   2.2669   2.3721   2.4820   2.5319   2.7155   2.8270
     3.0199   3.2149

          k = 0.0558 0.0000 0.0000 ( 19485 PWs)   bands (ev):

   -66.2196 -66.1589 -66.1360 -66.1202 -66.1167 -66.1103 -66.1053 -66.1026
   -66.0666 -66.0349 -66.0341 -66.0259 -32.8544 -32.8320 -32.8106 -32.8061
   -32.7933 -32.7813 -32.7738 -32.7486 -32.7040 -32.6933 -32.6184 -32.5612
   -32.5448 -32.5259 -32.4262 -32.4184 -32.4084 -32.3976 -32.3838 -32.3222
   -32.3153 -32.2840 -32.2707 -32.2650 -32.2596 -32.2369 -32.2055 -32.1964
   -32.1928 -32.1695 -32.1629 -32.1623 -32.1477 -32.1226 -32.1008 -32.0493
    -8.5417  -4.6631  -3.4599  -2.5528  -2.1866  -2.1297  -1.8099  -1.5758
    -1.3838  -1.3192  -1.1189  -0.7489  -0.5833  -0.4798  -0.4093  -0.3626
    -0.0618   0.1686   0.2274   0.6207   0.8540   1.0438   1.1785   1.4538
     1.5091   1.5978   1.6755   1.7124   1.9229   2.1392   2.1484   2.2114
     2.2676   2.2946   2.4388   2.4959   2.5697   2.6839   2.7506   2.9317
     3.0375   3.1039

          k = 0.0558 0.0322 0.0000 ( 19517 PWs)   bands (ev):

   -66.2188 -66.1556 -66.1352 -66.1258 -66.1129 -66.1118 -66.1067 -66.1029
   -66.0639 -66.0404 -66.0289 -66.0283 -32.8270 -32.8247 -32.8086 -32.7831
   -32.7791 -32.7555 -32.7475 -32.7231 -32.7121 -32.6370 -32.6172 -32.5652
   -32.5476 -32.5415 -32.4213 -32.4045 -32.4018 -32.3891 -32.3887 -32.3664
   -32.3651 -32.3185 -32.2791 -32.2768 -32.2596 -32.2547 -32.2149 -32.1952
   -32.1932 -32.1913 -32.1820 -32.1644 -32.1347 -32.1262 -32.1151 -32.0506
    -8.5345  -4.4646  -3.3497  -2.6839  -2.3829  -1.7637  -1.5168  -1.4909
    -1.4370  -1.1981  -1.0835  -0.7036  -0.4109  -0.3270  -0.2975  -0.2407
     0.0589   0.2135   0.2296   0.6467   0.8689   0.8859   1.0555   1.2841
     1.3976   1.5264   1.5426   1.6950   2.0056   2.0213   2.0717   2.0953
     2.1782   2.1840   2.2669   2.3721   2.4820   2.5319   2.7155   2.8270
     3.0200   3.2149

          k = 0.0558-0.1289 0.0000 ( 19521 PWs)   bands (ev):

   -66.2173 -66.1465 -66.1328 -66.1302 -66.1201 -66.1169 -66.1039 -66.1022
   -66.0564 -66.0447 -66.0360 -66.0243 -32.7916 -32.7796 -32.7520 -32.7440
   -32.7348 -32.7264 -32.6896 -32.6811 -32.6353 -32.6199 -32.5926 -32.5784
   -32.5671 -32.5349 -32.5046 -32.4700 -32.4257 -32.4041 -32.3852 -32.3781
   -32.3720 -32.3365 -32.3323 -32.2951 -32.2915 -32.2649 -32.2334 -32.2221
   -32.2101 -32.2003 -32.1685 -32.1638 -32.1560 -32.1395 -32.1249 -32.0869
    -8.5204  -3.9045  -3.1703  -2.8229  -2.1534  -2.0251  -1.5904  -1.2230
    -1.0022  -0.8040  -0.6961  -0.4901  -0.2224  -0.0465   0.0313   0.1027
     0.1461   0.3337   0.4183   0.5892   0.6952   0.7906   0.9059   0.9907
     1.1096   1.1737   1.2789   1.3912   1.4936   1.6508   1.7035   1.7431
     1.8312   2.0124   2.1431   2.2230   2.4234   2.5287   2.6712   2.7828
     2.9578   3.2570

          k = 0.0558-0.0967 0.0000 ( 19521 PWs)   bands (ev):

   -66.2165 -66.1356 -66.1351 -66.1298 -66.1252 -66.1241 -66.1021 -66.1016
   -66.0473 -66.0461 -66.0453 -66.0228 -32.7656 -32.7325 -32.7210 -32.7079
   -32.7023 -32.7001 -32.6745 -32.6538 -32.6405 -32.5991 -32.5909 -32.5579
   -32.5396 -32.5347 -32.5304 -32.5030 -32.5011 -32.4979 -32.3925 -32.3777
   -32.3730 -32.3581 -32.3510 -32.2744 -32.2722 -32.2574 -32.2191 -32.2176
   -32.2165 -32.2000 -32.1898 -32.1809 -32.1759 -32.1351 -32.1338 -32.1301
    -8.5136  -3.3234  -3.0005  -2.9603  -2.6593  -1.7157  -1.6581  -1.2888
    -0.4308  -0.3870  -0.2951  -0.2723  -0.2385  -0.0525  -0.0422   0.3515
     0.4015   0.4052   0.4521   0.4675   0.4891   0.6244   0.6279   0.6700
     0.9410   1.0598   1.1093   1.3499   1.3738   1.3969   1.4089   1.4995
     1.6373   1.8977   1.9950   2.1536   2.5857   2.6112   2.7439   2.7495
     3.1473   3.2605

          k = 0.0558-0.0645 0.0000 ( 19521 PWs)   bands (ev):

   -66.2173 -66.1465 -66.1328 -66.1302 -66.1201 -66.1169 -66.1039 -66.1022
   -66.0564 -66.0446 -66.0360 -66.0243 -32.7916 -32.7796 -32.7520 -32.7440
   -32.7348 -32.7264 -32.6896 -32.6811 -32.6353 -32.6198 -32.5927 -32.5784
   -32.5671 -32.5349 -32.5046 -32.4700 -32.4257 -32.4041 -32.3852 -32.3781
   -32.3720 -32.3365 -32.3323 -32.2951 -32.2915 -32.2649 -32.2334 -32.2221
   -32.2101 -32.2003 -32.1685 -32.1638 -32.1560 -32.1395 -32.1249 -32.0869
    -8.5204  -3.9045  -3.1703  -2.8229  -2.1534  -2.0251  -1.5904  -1.2230
    -1.0022  -0.8040  -0.6961  -0.4901  -0.2224  -0.0465   0.0313   0.1027
     0.1461   0.3337   0.4183   0.5892   0.6952   0.7906   0.9059   0.9907
     1.1096   1.1738   1.2788   1.3912   1.4936   1.6508   1.7035   1.7431
     1.8312   2.0124   2.1431   2.2230   2.4234   2.5287   2.6712   2.7828
     2.9578   3.2568

          k =-0.0837 0.0483 0.0000 ( 19532 PWs)   bands (ev):

   -66.2173 -66.1428 -66.1392 -66.1320 -66.1159 -66.1129 -66.1070 -66.1029
   -66.0527 -66.0515 -66.0289 -66.0283 -32.7859 -32.7751 -32.7606 -32.7565
   -32.7546 -32.7417 -32.6758 -32.6675 -32.6541 -32.6212 -32.5914 -32.5800
   -32.5141 -32.4890 -32.4574 -32.4473 -32.4328 -32.4328 -32.4106 -32.4016
   -32.3599 -32.3553 -32.3311 -32.3206 -32.3185 -32.3150 -32.2373 -32.2134
   -32.1918 -32.1864 -32.1737 -32.1627 -32.1536 -32.1528 -32.0875 -32.0836
    -8.5204  -3.6729  -3.5271  -2.9718  -2.1674  -1.7176  -1.2526  -1.2252
    -1.0259  -0.9025  -0.8759  -0.7087  -0.2868   0.0639   0.1375   0.1746
     0.3169   0.3473   0.3607   0.4888   0.7911   0.8599   0.9187   0.9857
     1.0458   1.1224   1.3664   1.5397   1.5429   1.5530   1.7247   1.8062
     1.8175   1.9873   2.0756   2.2795   2.3948   2.4139   2.5366   2.7061
     2.7924   3.3791

          k =-0.0837 0.0806 0.0000 ( 19521 PWs)   bands (ev):

   -66.2173 -66.1465 -66.1328 -66.1302 -66.1201 -66.1169 -66.1039 -66.1022
   -66.0564 -66.0447 -66.0360 -66.0243 -32.7916 -32.7796 -32.7520 -32.7440
   -32.7348 -32.7264 -32.6896 -32.6811 -32.6353 -32.6199 -32.5926 -32.5784
   -32.5671 -32.5349 -32.5046 -32.4700 -32.4257 -32.4041 -32.3852 -32.3781
   -32.3720 -32.3365 -32.3323 -32.2951 -32.2915 -32.2649 -32.2334 -32.2221
   -32.2101 -32.2003 -32.1685 -32.1638 -32.1560 -32.1395 -32.1249 -32.0869
    -8.5204  -3.9045  -3.1703  -2.8229  -2.1534  -2.0251  -1.5904  -1.2230
    -1.0022  -0.8040  -0.6961  -0.4901  -0.2224  -0.0465   0.0313   0.1027
     0.1461   0.3337   0.4183   0.5892   0.6952   0.7906   0.9059   0.9907
     1.1096   1.1737   1.2789   1.3912   1.4936   1.6508   1.7035   1.7431
     1.8312   2.0124   2.1431   2.2230   2.4234   2.5287   2.6712   2.7828
     2.9578   3.2568

          k =-0.0837 0.1128 0.0000 ( 19521 PWs)   bands (ev):

   -66.2173 -66.1465 -66.1329 -66.1302 -66.1201 -66.1169 -66.1039 -66.1022
   -66.0564 -66.0447 -66.0360 -66.0243 -32.7916 -32.7796 -32.7520 -32.7440
   -32.7348 -32.7264 -32.6896 -32.6811 -32.6353 -32.6199 -32.5926 -32.5784
   -32.5671 -32.5349 -32.5046 -32.4700 -32.4257 -32.4041 -32.3852 -32.3781
   -32.3720 -32.3365 -32.3323 -32.2951 -32.2915 -32.2649 -32.2334 -32.2221
   -32.2101 -32.2003 -32.1685 -32.1638 -32.1560 -32.1395 -32.1249 -32.0869
    -8.5204  -3.9045  -3.1703  -2.8229  -2.1534  -2.0251  -1.5904  -1.2230
    -1.0022  -0.8040  -0.6961  -0.4901  -0.2224  -0.0465   0.0313   0.1027
     0.1461   0.3337   0.4183   0.5892   0.6952   0.7906   0.9059   0.9907
     1.1096   1.1737   1.2789   1.3912   1.4936   1.6508   1.7035   1.7431
     1.8312   2.0125   2.1431   2.2230   2.4234   2.5287   2.6712   2.7828
     2.9578   3.2569

          k =-0.0837-0.0483 0.0000 ( 19532 PWs)   bands (ev):

   -66.2173 -66.1429 -66.1392 -66.1320 -66.1159 -66.1129 -66.1069 -66.1029
   -66.0527 -66.0515 -66.0289 -66.0283 -32.7859 -32.7751 -32.7606 -32.7564
   -32.7546 -32.7418 -32.6758 -32.6675 -32.6542 -32.6212 -32.5914 -32.5800
   -32.5141 -32.4890 -32.4574 -32.4473 -32.4328 -32.4328 -32.4106 -32.4016
   -32.3599 -32.3553 -32.3311 -32.3206 -32.3185 -32.3150 -32.2372 -32.2134
   -32.1918 -32.1864 -32.1737 -32.1627 -32.1536 -32.1528 -32.0875 -32.0837
    -8.5204  -3.6729  -3.5271  -2.9718  -2.1674  -1.7176  -1.2526  -1.2252
    -1.0259  -0.9025  -0.8759  -0.7087  -0.2868   0.0639   0.1375   0.1746
     0.3169   0.3473   0.3607   0.4888   0.7911   0.8599   0.9187   0.9857
     1.0458   1.1224   1.3664   1.5397   1.5429   1.5530   1.7247   1.8062
     1.8175   1.9873   2.0756   2.2795   2.3948   2.4139   2.5366   2.7061
     2.7924   3.3788

     the Fermi energy is     2.1515 ev

!    total energy              =   -1731.07591137 Ry
     Harris-Foulkes estimate   =   -1731.07590623 Ry
     estimated scf accuracy    <       0.00000648 Ry

     The total energy is the sum of the following terms:

     one-electron contribution =  -11651.04880692 Ry
     hartree contribution      =    5810.31826918 Ry
     xc contribution           =    -527.09698809 Ry
     ewald contribution        =    4636.85690183 Ry
     electric field correction =       0.00001254 Ry
     smearing contrib. (-TS)   =      -0.10529991 Ry

     convergence has been achieved in  15 iterations
 
 BEEF-vdW xc energy contributions
           1 :   -463.950098418637     
           2 :    428.234135541529     
           3 :   -365.901175939119     
           4 :    291.372842370388     
           5 :   -219.096371187442     
           6 :    159.118476009499     
           7 :   -115.082519872506     
           8 :    85.0355874362534     
           9 :   -64.1485281270732     
          10 :    47.7511030173758     
          11 :   -33.2575999532684     
          12 :    20.4004368201076     
          13 :   -10.1634259985859     
          14 :    3.36248002756901     
          15 :   0.238809792204620     
          16 :   -1.89733570976563     
          17 :    3.16050662018478     
          18 :   -5.01196235715389     
          19 :    7.43419909923927     
          20 :   -9.60879604718588     
          21 :    10.5761103609873     
          22 :   -9.92138755384639     
          23 :    8.07386928594781     
          24 :   -6.06472068896454     
          25 :    4.92473425362169     
          26 :   -5.10742006962761     
          27 :    6.28019860467577     
          28 :   -7.58227199806726     
          29 :    8.16291730603899     
          30 :   -7.66261048976861     
          31 :   -41.5662650925787     
          32 :   -30.8578402402358     

     Forces acting on atoms (Ry/au):


     negative rho (up, down):  1.177E+00 0.000E+00
     atom    1 type  1   force =     0.00081041    0.00046658    0.00315323
     atom    2 type  1   force =    -0.00080923    0.00047120    0.00314832
     atom    3 type  1   force =    -0.00000038   -0.00093608    0.00315088
     atom    4 type  1   force =     0.00000247   -0.00000403    0.00153242
     atom    5 type  1   force =    -0.00000072   -0.00181455   -0.00267358
     atom    6 type  1   force =     0.00000229   -0.00000750    0.00228561
     atom    7 type  1   force =     0.00157015    0.00090956   -0.00267037
     atom    8 type  1   force =    -0.00157328    0.00090937   -0.00267237
     atom    9 type  1   force =    -0.00000065    0.00000056   -0.02905888
     atom   10 type  1   force =    -0.00000039    0.01765676    0.05367658
     atom   11 type  1   force =     0.01528882   -0.00882429    0.05367565
     atom   12 type  1   force =    -0.01528827   -0.00882652    0.05367187
     atom   13 type  2   force =    -0.00000081   -0.00000021   -0.12608702
     atom   14 type  3   force =    -0.00000042   -0.00000084   -0.01113234

     Total force =     0.162617     Total SCF correction =     0.008580


     entering subroutine stress ...


     negative rho (up, down):  1.177E+00 0.000E+00
          total   stress  (Ry/bohr**3)                   (kbar)     P=  -36.06
  -0.00029380  -0.00000000  -0.00000001        -43.22     -0.00     -0.00
  -0.00000000  -0.00029380   0.00000000         -0.00    -43.22      0.00
  -0.00000001   0.00000000  -0.00014782         -0.00      0.00    -21.74


     BFGS Geometry Optimization

     number of scf cycles    =   1
     number of bfgs steps    =   0

     energy   new            =   -1731.0759113678 Ry

     new trust radius        =       0.1260870150 bohr
     new conv_thr            =       0.0000099958 Ry


ATOMIC_POSITIONS (crystal)
Ta1      0.166666667   0.166666667   0.401991699    0   0   0
Ta1      0.666666667   0.166666667   0.401991699    0   0   0
Ta1      0.166666667   0.666666667   0.401991699    0   0   0
Ta1      0.666666667   0.666666667   0.401991699    0   0   0
Ta1      0.833333333   0.333333333   0.500000000    0   0   0
Ta1      0.333333333   0.333333333   0.500000000    0   0   0
Ta1      0.833333333   0.833333333   0.500000000    0   0   0
Ta1      0.333333333   0.833333333   0.500000000    0   0   0
Ta1     -0.000000086   0.000000058   0.597390147
Ta1      0.499096669   0.001806592   0.599150136
Ta1      0.001806172   0.499097122   0.599150116
Ta1      0.499096868   0.499096895   0.599150035
C1       0.333333272   0.333333311   0.659604590
H1       0.333333339   0.333333248   0.706269048



     Writing output data file calc.save
     Check: negative starting charge=   -1.121491
     NEW-OLD atomic charge density approx. for the potential
     Check: negative starting charge=   -1.121182

     negative rho (up, down):  1.177E+00 0.000E+00
 
     Adding external electric field

     Computed dipole along edir(3) : 
        Dipole                0.0721 Ry au,          0.1832 Debye
        Dipole field          0.0002 Ry au
 
        Potential amp.       -0.0160 Ry
        Total length         45.8339 bohr
 

     total cpu time spent up to now is      591.5 secs

     per-process dynamical memory:    93.6 Mb

     Self-consistent Calculation

     iteration #  1     ecut=    36.75 Ry     beta=0.30
     Davidson diagonalization with overlap
     ethr =  1.00E-06,  avg # of iterations = 11.8

     negative rho (up, down):  1.177E+00 0.000E+00
 
     Adding external electric field

     Computed dipole along edir(3) : 
        Dipole               -0.2955 Ry au,         -0.7511 Debye
        Dipole field         -0.0007 Ry au
 
        Potential amp.        0.0656 Ry
        Total length         45.8339 bohr
 

     total cpu time spent up to now is      632.0 secs

     total energy              =   -1731.08524216 Ry
     Harris-Foulkes estimate   =   -1731.09724337 Ry
     estimated scf accuracy    <       0.02590320 Ry

     iteration #  2     ecut=    36.75 Ry     beta=0.30
     Davidson diagonalization with overlap
     ethr =  1.61E-05,  avg # of iterations =  7.7

     negative rho (up, down):  1.177E+00 0.000E+00
 
     Adding external electric field

     Computed dipole along edir(3) : 
        Dipole                0.1060 Ry au,          0.2695 Debye
        Dipole field          0.0003 Ry au
 
        Potential amp.       -0.0236 Ry
        Total length         45.8339 bohr
 

     total cpu time spent up to now is      666.0 secs

     total energy              =   -1730.96956926 Ry
     Harris-Foulkes estimate   =   -1731.22891413 Ry
     estimated scf accuracy    <      11.57490579 Ry

     iteration #  3     ecut=    36.75 Ry     beta=0.30
     Davidson diagonalization with overlap
     ethr =  1.61E-05,  avg # of iterations =  7.5

     negative rho (up, down):  1.177E+00 0.000E+00
 
     Adding external electric field

     Computed dipole along edir(3) : 
        Dipole                0.0905 Ry au,          0.2300 Debye
        Dipole field          0.0002 Ry au
 
        Potential amp.       -0.0201 Ry
        Total length         45.8339 bohr
 

     total cpu time spent up to now is      699.0 secs

     total energy              =   -1731.09094900 Ry
     Harris-Foulkes estimate   =   -1731.09935208 Ry
     estimated scf accuracy    <       0.10840912 Ry

     iteration #  4     ecut=    36.75 Ry     beta=0.30
     Davidson diagonalization with overlap
     ethr =  1.61E-05,  avg # of iterations =  3.5

     negative rho (up, down):  1.177E+00 0.000E+00
 
     Adding external electric field

     Computed dipole along edir(3) : 
        Dipole                0.1007 Ry au,          0.2561 Debye
        Dipole field          0.0002 Ry au
 
        Potential amp.       -0.0224 Ry
        Total length         45.8339 bohr
 

     total cpu time spent up to now is      726.8 secs

     total energy              =   -1731.09542245 Ry
     Harris-Foulkes estimate   =   -1731.09585151 Ry
     estimated scf accuracy    <       0.00402292 Ry

     iteration #  5     ecut=    36.75 Ry     beta=0.30
     Davidson diagonalization with overlap
     ethr =  2.50E-06,  avg # of iterations =  4.2

     negative rho (up, down):  1.177E+00 0.000E+00
 
     Adding external electric field

     Computed dipole along edir(3) : 
        Dipole                0.0910 Ry au,          0.2312 Debye
        Dipole field          0.0002 Ry au
 
        Potential amp.       -0.0202 Ry
        Total length         45.8339 bohr
 

     total cpu time spent up to now is      754.5 secs

     total energy              =   -1731.09562218 Ry
     Harris-Foulkes estimate   =   -1731.09567651 Ry
     estimated scf accuracy    <       0.00039238 Ry

     iteration #  6     ecut=    36.75 Ry     beta=0.30
     Davidson diagonalization with overlap
     ethr =  2.44E-07,  avg # of iterations =  4.3

     negative rho (up, down):  1.177E+00 0.000E+00
 
     Adding external electric field

     Computed dipole along edir(3) : 
        Dipole                0.0913 Ry au,          0.2321 Debye
        Dipole field          0.0002 Ry au
 
        Potential amp.       -0.0203 Ry
        Total length         45.8339 bohr
 

     total cpu time spent up to now is      783.7 secs

     total energy              =   -1731.09568346 Ry
     Harris-Foulkes estimate   =   -1731.09568319 Ry
     estimated scf accuracy    <       0.00010868 Ry

     iteration #  7     ecut=    36.75 Ry     beta=0.30
     Davidson diagonalization with overlap
     ethr =  6.75E-08,  avg # of iterations =  3.5

     negative rho (up, down):  1.177E+00 0.000E+00
 
     Adding external electric field

     Computed dipole along edir(3) : 
        Dipole                0.0890 Ry au,          0.2262 Debye
        Dipole field          0.0002 Ry au
 
        Potential amp.       -0.0198 Ry
        Total length         45.8339 bohr
 

     total cpu time spent up to now is      811.2 secs

     total energy              =   -1731.09569367 Ry
     Harris-Foulkes estimate   =   -1731.09569485 Ry
     estimated scf accuracy    <       0.00003955 Ry

     iteration #  8     ecut=    36.75 Ry     beta=0.30
     Davidson diagonalization with overlap
     ethr =  2.46E-08,  avg # of iterations =  3.4

     negative rho (up, down):  1.177E+00 0.000E+00
 
     Adding external electric field

     Computed dipole along edir(3) : 
        Dipole                0.0861 Ry au,          0.2188 Debye
        Dipole field          0.0002 Ry au
 
        Potential amp.       -0.0191 Ry
        Total length         45.8339 bohr
 

     total cpu time spent up to now is      839.0 secs

     total energy              =   -1731.09569226 Ry
     Harris-Foulkes estimate   =   -1731.09570020 Ry
     estimated scf accuracy    <       0.00001490 Ry

     iteration #  9     ecut=    36.75 Ry     beta=0.30
     Davidson diagonalization with overlap
     ethr =  9.25E-09,  avg # of iterations =  3.1

     negative rho (up, down):  1.177E+00 0.000E+00

     negative rho (up, down):  1.177E+00 0.000E+00

     negative rho (up, down):  1.177E+00 0.000E+00

     negative rho (up, down):  1.177E+00 0.000E+00

     negative rho (up, down):  1.177E+00 0.000E+00

     negative rho (up, down):  1.177E+00 0.000E+00

     negative rho (up, down):  1.177E+00 0.000E+00

     negative rho (up, down):  1.177E+00 0.000E+00

     negative rho (up, down):  1.177E+00 0.000E+00

     negative rho (up, down):  1.177E+00 0.000E+00

     negative rho (up, down):  1.177E+00 0.000E+00

     negative rho (up, down):  1.177E+00 0.000E+00

     negative rho (up, down):  1.177E+00 0.000E+00

     negative rho (up, down):  1.177E+00 0.000E+00

     negative rho (up, down):  1.177E+00 0.000E+00

     negative rho (up, down):  1.177E+00 0.000E+00

     negative rho (up, down):  1.177E+00 0.000E+00

     negative rho (up, down):  1.177E+00 0.000E+00

     negative rho (up, down):  1.177E+00 0.000E+00

     negative rho (up, down):  1.177E+00 0.000E+00

     negative rho (up, down):  1.177E+00 0.000E+00

     negative rho (up, down):  1.177E+00 0.000E+00

     negative rho (up, down):  1.177E+00 0.000E+00

     negative rho (up, down):  1.177E+00 0.000E+00

     negative rho (up, down):  1.177E+00 0.000E+00

     negative rho (up, down):  1.177E+00 0.000E+00

     negative rho (up, down):  1.177E+00 0.000E+00

     negative rho (up, down):  1.177E+00 0.000E+00

     negative rho (up, down):  1.177E+00 0.000E+00

     negative rho (up, down):  1.177E+00 0.000E+00

     negative rho (up, down):  1.177E+00 0.000E+00

     negative rho (up, down):  1.177E+00 0.000E+00

     negative rho (up, down):  1.177E+00 0.000E+00

     negative rho (up, down):  1.177E+00 0.000E+00

     negative rho (up, down):  1.177E+00 0.000E+00
 
     Adding external electric field

     Computed dipole along edir(3) : 
        Dipole                0.0943 Ry au,          0.2398 Debye
        Dipole field          0.0002 Ry au
 
        Potential amp.       -0.0210 Ry
        Total length         45.8339 bohr
 

     total cpu time spent up to now is      919.5 secs

     End of self-consistent calculation

          k = 0.0000 0.0000 0.0000 ( 19447 PWs)   bands (ev):

   -66.1589 -66.1413 -66.0943 -66.0858 -66.0858 -66.0749 -66.0614 -66.0614
   -66.0462 -66.0005 -65.9986 -65.9985 -32.8760 -32.8760 -32.8683 -32.8302
   -32.8161 -32.8161 -32.8156 -32.7766 -32.7766 -32.7664 -32.5767 -32.4805
   -32.4575 -32.4575 -32.4104 -32.3948 -32.3947 -32.2838 -32.2799 -32.2799
   -32.2208 -32.2164 -32.2164 -32.1960 -32.1924 -32.1924 -32.1458 -32.1347
   -32.1262 -32.1262 -32.0741 -32.0741 -32.0412 -32.0411 -31.9850 -31.9850
    -8.4768  -5.2428  -3.8821  -2.9805  -2.3342  -2.0006  -2.0006  -1.9009
    -1.7696  -1.7696  -1.4082  -1.1767  -1.1767  -0.7836  -0.7836  -0.7698
    -0.3529   0.1241   0.1241   0.7765   0.9691   0.9691   1.5145   1.7661
     1.7661   1.9407   2.0935   2.1878   2.4173   2.4173   2.4468   2.6028
     2.6028   2.8283   2.8530   2.8530   2.9479   2.9480   2.9482   3.0402
     3.0402   3.5407

          k = 0.0000 0.0322 0.0000 ( 19481 PWs)   bands (ev):

   -66.1566 -66.1376 -66.0939 -66.0887 -66.0858 -66.0759 -66.0640 -66.0614
   -66.0431 -66.0027 -65.9995 -65.9986 -32.8500 -32.8457 -32.8304 -32.8129
   -32.7930 -32.7924 -32.7819 -32.7511 -32.7450 -32.7256 -32.5746 -32.5006
   -32.4780 -32.4702 -32.4034 -32.3868 -32.3831 -32.3052 -32.3033 -32.2696
   -32.2629 -32.2623 -32.2067 -32.1843 -32.1802 -32.1764 -32.1681 -32.1592
   -32.1518 -32.1203 -32.1196 -32.0877 -32.0718 -32.0527 -32.0331 -31.9939
    -8.4562  -5.0210  -3.7063  -2.8119  -2.1668  -2.0842  -1.8455  -1.7945
    -1.6743  -1.5933  -1.3036  -1.0051  -0.9558  -0.6655  -0.6395  -0.6213
    -0.2363   0.1459   0.1482   0.7311   0.9597   0.9598   1.4209   1.7645
     1.7950   1.8668   1.9596   2.0851   2.1816   2.2293   2.2625   2.3796
     2.6689   2.7224   2.7695   2.7925   2.8020   2.8745   2.9687   3.0011
     3.1595   3.2184

          k = 0.0000 0.0645 0.0000 ( 19517 PWs)   bands (ev):

   -66.1516 -66.1274 -66.0985 -66.0925 -66.0858 -66.0771 -66.0699 -66.0614
   -66.0344 -66.0110 -65.9998 -65.9986 -32.7851 -32.7843 -32.7691 -32.7408
   -32.7405 -32.7178 -32.7070 -32.6881 -32.6796 -32.6011 -32.5733 -32.5291
   -32.5134 -32.5063 -32.3847 -32.3687 -32.3684 -32.3543 -32.3482 -32.3359
   -32.3352 -32.2814 -32.2460 -32.2342 -32.2294 -32.2239 -32.1778 -32.1666
   -32.1637 -32.1637 -32.1512 -32.1267 -32.1067 -32.0937 -32.0811 -32.0192
    -8.4163  -4.4010  -3.3028  -2.6507  -2.3626  -1.7377  -1.4884  -1.4581
    -1.3911  -1.1654  -1.0550  -0.6648  -0.4514  -0.2991  -0.2446  -0.1975
     0.1283   0.2112   0.2123   0.6845   0.8844   0.9253   1.0857   1.3372
     1.4414   1.5533   1.5633   1.7149   2.0337   2.0351   2.1019   2.1365
     2.2079   2.2109   2.2932   2.4050   2.5141   2.5483   2.7515   2.8680
     3.0699   3.2682

          k = 0.0000-0.0967 0.0000 ( 19532 PWs)   bands (ev):

   -66.1490 -66.1154 -66.1103 -66.0915 -66.0858 -66.0775 -66.0734 -66.0614
   -66.0233 -66.0221 -65.9998 -65.9986 -32.7411 -32.7284 -32.7230 -32.7200
   -32.7192 -32.7023 -32.6393 -32.6343 -32.6154 -32.5826 -32.5546 -32.5426
   -32.4594 -32.4500 -32.4251 -32.4181 -32.3948 -32.3941 -32.3731 -32.3729
   -32.3327 -32.3198 -32.3010 -32.2936 -32.2870 -32.2862 -32.1923 -32.1779
   -32.1611 -32.1592 -32.1388 -32.1359 -32.1259 -32.1166 -32.0563 -32.0523
    -8.3970  -3.6044  -3.4866  -2.9405  -2.1482  -1.6964  -1.2245  -1.1803
    -0.9936  -0.8789  -0.8357  -0.6611  -0.3456   0.0983   0.1570   0.1583
     0.3618   0.3826   0.4099   0.5205   0.8531   0.9050   0.9490   1.0135
     1.0860   1.1656   1.3994   1.5603   1.5756   1.5859   1.7380   1.8410
     1.8492   1.9770   2.1134   2.2980   2.4263   2.4387   2.5733   2.7538
     2.8606   3.4327

          k = 0.0279-0.0161 0.0000 ( 19481 PWs)   bands (ev):

   -66.1566 -66.1376 -66.0939 -66.0887 -66.0858 -66.0759 -66.0640 -66.0614
   -66.0431 -66.0026 -65.9996 -65.9986 -32.8500 -32.8457 -32.8304 -32.8129
   -32.7930 -32.7924 -32.7819 -32.7511 -32.7450 -32.7256 -32.5746 -32.5006
   -32.4779 -32.4703 -32.4034 -32.3869 -32.3831 -32.3052 -32.3033 -32.2696
   -32.2629 -32.2623 -32.2067 -32.1843 -32.1802 -32.1764 -32.1681 -32.1592
   -32.1518 -32.1203 -32.1196 -32.0877 -32.0718 -32.0527 -32.0331 -31.9939
    -8.4562  -5.0210  -3.7063  -2.8119  -2.1668  -2.0842  -1.8455  -1.7945
    -1.6743  -1.5933  -1.3036  -1.0051  -0.9558  -0.6655  -0.6395  -0.6213
    -0.2363   0.1459   0.1483   0.7311   0.9597   0.9598   1.4209   1.7645
     1.7950   1.8668   1.9597   2.0851   2.1816   2.2292   2.2625   2.3796
     2.6689   2.7224   2.7695   2.7925   2.8020   2.8745   2.9687   3.0011
     3.1595   3.2184

          k = 0.0279 0.0161 0.0000 ( 19481 PWs)   bands (ev):

   -66.1566 -66.1376 -66.0939 -66.0887 -66.0858 -66.0759 -66.0640 -66.0614
   -66.0431 -66.0026 -65.9996 -65.9985 -32.8500 -32.8457 -32.8304 -32.8129
   -32.7930 -32.7924 -32.7819 -32.7511 -32.7450 -32.7256 -32.5746 -32.5006
   -32.4779 -32.4703 -32.4034 -32.3869 -32.3831 -32.3053 -32.3033 -32.2696
   -32.2629 -32.2623 -32.2067 -32.1843 -32.1802 -32.1764 -32.1681 -32.1592
   -32.1518 -32.1203 -32.1196 -32.0877 -32.0718 -32.0527 -32.0331 -31.9939
    -8.4562  -5.0210  -3.7063  -2.8119  -2.1668  -2.0842  -1.8455  -1.7945
    -1.6743  -1.5933  -1.3036  -1.0051  -0.9558  -0.6655  -0.6395  -0.6213
    -0.2363   0.1459   0.1483   0.7311   0.9597   0.9598   1.4209   1.7645
     1.7950   1.8668   1.9597   2.0851   2.1816   2.2292   2.2625   2.3796
     2.6689   2.7224   2.7695   2.7925   2.8020   2.8745   2.9687   3.0011
     3.1595   3.2184

          k = 0.0279 0.0483 0.0000 ( 19485 PWs)   bands (ev):

   -66.1529 -66.1307 -66.0938 -66.0923 -66.0886 -66.0760 -66.0689 -66.0610
   -66.0372 -66.0058 -66.0044 -65.9964 -32.8143 -32.7902 -32.7694 -32.7660
   -32.7552 -32.7416 -32.7336 -32.7151 -32.6685 -32.6607 -32.5736 -32.5246
   -32.5115 -32.4909 -32.3897 -32.3791 -32.3788 -32.3665 -32.3554 -32.2793
   -32.2726 -32.2467 -32.2383 -32.2334 -32.2288 -32.2017 -32.1760 -32.1658
   -32.1625 -32.1366 -32.1325 -32.1291 -32.1161 -32.0901 -32.0670 -32.0180
    -8.4261  -4.5978  -3.4091  -2.5436  -2.1553  -2.0857  -1.7704  -1.5521
    -1.3577  -1.2771  -1.0908  -0.7300  -0.5748  -0.4496  -0.3739  -0.3148
     0.0194   0.1514   0.2045   0.6591   0.8765   1.0589   1.2106   1.5021
     1.5554   1.6107   1.7064   1.7357   1.9572   2.1404   2.1962   2.2412
     2.2924   2.3280   2.4662   2.5283   2.6072   2.7122   2.7845   2.9583
     3.0897   3.1455

          k = 0.0279-0.1128 0.0000 ( 19521 PWs)   bands (ev):

   -66.1491 -66.1186 -66.1037 -66.0918 -66.0902 -66.0759 -66.0746 -66.0604
   -66.0270 -66.0152 -66.0066 -65.9949 -32.7495 -32.7374 -32.7101 -32.7045
   -32.6988 -32.6873 -32.6522 -32.6447 -32.5994 -32.5794 -32.5561 -32.5406
   -32.5252 -32.5036 -32.4624 -32.4376 -32.3839 -32.3682 -32.3559 -32.3487
   -32.3421 -32.3075 -32.2938 -32.2622 -32.2603 -32.2238 -32.2024 -32.1888
   -32.1798 -32.1633 -32.1410 -32.1330 -32.1247 -32.1091 -32.0933 -32.0556
    -8.3971  -3.8442  -3.1263  -2.7872  -2.1329  -1.9902  -1.5697  -1.2003
    -0.9668  -0.7662  -0.6737  -0.4488  -0.2621  -0.0187   0.0549   0.1394
     0.1848   0.3517   0.4439   0.6373   0.7416   0.8246   0.9592   1.0276
     1.1478   1.2113   1.2916   1.4102   1.5339   1.6438   1.7244   1.7772
     1.8731   2.0418   2.1779   2.2535   2.4392   2.5657   2.7017   2.8108
     3.0201   3.2812

          k = 0.0279-0.0806 0.0000 ( 19521 PWs)   bands (ev):

   -66.1491 -66.1186 -66.1037 -66.0918 -66.0902 -66.0759 -66.0746 -66.0604
   -66.0270 -66.0152 -66.0066 -65.9949 -32.7495 -32.7373 -32.7101 -32.7045
   -32.6988 -32.6873 -32.6522 -32.6447 -32.5994 -32.5794 -32.5561 -32.5406
   -32.5252 -32.5036 -32.4624 -32.4376 -32.3839 -32.3682 -32.3559 -32.3487
   -32.3421 -32.3075 -32.2938 -32.2622 -32.2603 -32.2238 -32.2024 -32.1888
   -32.1798 -32.1633 -32.1410 -32.1330 -32.1247 -32.1091 -32.0933 -32.0556
    -8.3971  -3.8442  -3.1263  -2.7872  -2.1329  -1.9902  -1.5697  -1.2003
    -0.9668  -0.7662  -0.6737  -0.4488  -0.2621  -0.0187   0.0549   0.1394
     0.1848   0.3517   0.4439   0.6373   0.7416   0.8246   0.9592   1.0276
     1.1478   1.2113   1.2917   1.4102   1.5339   1.6438   1.7244   1.7772
     1.8731   2.0418   2.1779   2.2535   2.4392   2.5657   2.7017   2.8108
     3.0201   3.2812

          k = 0.0279-0.0483 0.0000 ( 19485 PWs)   bands (ev):

   -66.1529 -66.1307 -66.0938 -66.0923 -66.0886 -66.0760 -66.0689 -66.0610
   -66.0372 -66.0058 -66.0044 -65.9964 -32.8143 -32.7902 -32.7694 -32.7660
   -32.7552 -32.7416 -32.7336 -32.7151 -32.6685 -32.6607 -32.5736 -32.5246
   -32.5115 -32.4909 -32.3897 -32.3791 -32.3788 -32.3665 -32.3554 -32.2793
   -32.2726 -32.2467 -32.2383 -32.2334 -32.2288 -32.2017 -32.1760 -32.1658
   -32.1625 -32.1366 -32.1325 -32.1291 -32.1161 -32.0901 -32.0670 -32.0180
    -8.4261  -4.5978  -3.4091  -2.5436  -2.1553  -2.0857  -1.7704  -1.5521
    -1.3577  -1.2771  -1.0908  -0.7300  -0.5748  -0.4496  -0.3739  -0.3148
     0.0194   0.1514   0.2045   0.6591   0.8765   1.0589   1.2106   1.5021
     1.5554   1.6107   1.7064   1.7357   1.9572   2.1404   2.1962   2.2412
     2.2924   2.3280   2.4662   2.5283   2.6072   2.7122   2.7845   2.9583
     3.0897   3.1455

          k = 0.0558-0.0322 0.0000 ( 19517 PWs)   bands (ev):

   -66.1516 -66.1274 -66.0985 -66.0925 -66.0858 -66.0771 -66.0699 -66.0614
   -66.0344 -66.0110 -65.9998 -65.9985 -32.7851 -32.7843 -32.7691 -32.7408
   -32.7405 -32.7178 -32.7070 -32.6881 -32.6796 -32.6011 -32.5733 -32.5291
   -32.5133 -32.5063 -32.3847 -32.3687 -32.3684 -32.3543 -32.3482 -32.3359
   -32.3353 -32.2814 -32.2460 -32.2342 -32.2294 -32.2239 -32.1778 -32.1666
   -32.1637 -32.1637 -32.1512 -32.1267 -32.1067 -32.0937 -32.0811 -32.0192
    -8.4163  -4.4010  -3.3028  -2.6507  -2.3626  -1.7377  -1.4884  -1.4581
    -1.3911  -1.1654  -1.0550  -0.6648  -0.4514  -0.2991  -0.2446  -0.1975
     0.1283   0.2112   0.2123   0.6845   0.8844   0.9253   1.0857   1.3372
     1.4414   1.5533   1.5633   1.7149   2.0337   2.0351   2.1019   2.1365
     2.2079   2.2109   2.2932   2.4050   2.5141   2.5483   2.7515   2.8680
     3.0699   3.2683

          k = 0.0558 0.0000 0.0000 ( 19485 PWs)   bands (ev):

   -66.1529 -66.1307 -66.0938 -66.0923 -66.0886 -66.0760 -66.0688 -66.0610
   -66.0372 -66.0058 -66.0044 -65.9964 -32.8143 -32.7902 -32.7694 -32.7660
   -32.7553 -32.7416 -32.7336 -32.7151 -32.6685 -32.6607 -32.5736 -32.5247
   -32.5115 -32.4909 -32.3897 -32.3792 -32.3787 -32.3665 -32.3554 -32.2793
   -32.2726 -32.2467 -32.2383 -32.2334 -32.2288 -32.2017 -32.1760 -32.1658
   -32.1625 -32.1366 -32.1325 -32.1291 -32.1161 -32.0901 -32.0670 -32.0180
    -8.4261  -4.5978  -3.4091  -2.5436  -2.1553  -2.0857  -1.7704  -1.5521
    -1.3577  -1.2771  -1.0908  -0.7300  -0.5748  -0.4496  -0.3739  -0.3148
     0.0194   0.1514   0.2045   0.6591   0.8765   1.0589   1.2106   1.5021
     1.5554   1.6107   1.7064   1.7357   1.9572   2.1404   2.1962   2.2412
     2.2924   2.3280   2.4662   2.5283   2.6072   2.7122   2.7845   2.9583
     3.0897   3.1455

          k = 0.0558 0.0322 0.0000 ( 19517 PWs)   bands (ev):

   -66.1516 -66.1274 -66.0985 -66.0925 -66.0858 -66.0771 -66.0698 -66.0614
   -66.0344 -66.0110 -65.9998 -65.9985 -32.7851 -32.7843 -32.7691 -32.7408
   -32.7405 -32.7178 -32.7070 -32.6881 -32.6796 -32.6011 -32.5733 -32.5291
   -32.5133 -32.5063 -32.3847 -32.3687 -32.3684 -32.3543 -32.3482 -32.3359
   -32.3353 -32.2814 -32.2460 -32.2342 -32.2294 -32.2239 -32.1778 -32.1666
   -32.1637 -32.1637 -32.1512 -32.1267 -32.1067 -32.0937 -32.0811 -32.0192
    -8.4163  -4.4010  -3.3028  -2.6506  -2.3626  -1.7377  -1.4884  -1.4581
    -1.3911  -1.1654  -1.0550  -0.6648  -0.4514  -0.2991  -0.2446  -0.1975
     0.1283   0.2112   0.2123   0.6845   0.8844   0.9253   1.0857   1.3372
     1.4414   1.5533   1.5633   1.7149   2.0337   2.0351   2.1019   2.1365
     2.2079   2.2109   2.2932   2.4050   2.5141   2.5483   2.7515   2.8680
     3.0699   3.2683

          k = 0.0558-0.1289 0.0000 ( 19521 PWs)   bands (ev):

   -66.1491 -66.1186 -66.1037 -66.0918 -66.0902 -66.0759 -66.0746 -66.0604
   -66.0270 -66.0152 -66.0066 -65.9949 -32.7495 -32.7374 -32.7101 -32.7045
   -32.6988 -32.6873 -32.6522 -32.6447 -32.5994 -32.5794 -32.5561 -32.5406
   -32.5252 -32.5036 -32.4624 -32.4376 -32.3839 -32.3682 -32.3559 -32.3487
   -32.3421 -32.3075 -32.2938 -32.2622 -32.2603 -32.2238 -32.2024 -32.1888
   -32.1798 -32.1633 -32.1410 -32.1330 -32.1247 -32.1091 -32.0933 -32.0556
    -8.3971  -3.8442  -3.1263  -2.7872  -2.1329  -1.9902  -1.5697  -1.2003
    -0.9668  -0.7662  -0.6737  -0.4488  -0.2621  -0.0187   0.0549   0.1394
     0.1848   0.3517   0.4439   0.6373   0.7416   0.8246   0.9593   1.0276
     1.1478   1.2113   1.2917   1.4102   1.5339   1.6438   1.7244   1.7772
     1.8731   2.0418   2.1779   2.2535   2.4392   2.5657   2.7017   2.8108
     3.0201   3.2812

          k = 0.0558-0.0967 0.0000 ( 19521 PWs)   bands (ev):

   -66.1479 -66.1083 -66.1079 -66.0995 -66.0857 -66.0821 -66.0734 -66.0596
   -66.0180 -66.0166 -66.0158 -65.9933 -32.7163 -32.6979 -32.6818 -32.6706
   -32.6630 -32.6585 -32.6369 -32.6165 -32.6005 -32.5613 -32.5480 -32.5234
   -32.5016 -32.4949 -32.4885 -32.4719 -32.4711 -32.4616 -32.3521 -32.3486
   -32.3436 -32.3308 -32.3264 -32.2345 -32.2289 -32.2207 -32.1911 -32.1843
   -32.1826 -32.1656 -32.1589 -32.1517 -32.1472 -32.1080 -32.1051 -32.0968
    -8.3877  -3.2545  -2.9627  -2.9219  -2.6288  -1.7144  -1.6331  -1.2615
    -0.4547  -0.3914  -0.2417  -0.2036  -0.1989  -0.0710   0.0124   0.3811
     0.4352   0.4377   0.4847   0.5134   0.5341   0.6611   0.6715   0.7211
     0.9559   1.0611   1.1183   1.3615   1.3989   1.4414   1.4682   1.5243
     1.6711   1.9267   2.0242   2.1916   2.6003   2.6627   2.7521   2.7739
     3.1863   3.3267

          k = 0.0558-0.0645 0.0000 ( 19521 PWs)   bands (ev):

   -66.1491 -66.1186 -66.1037 -66.0918 -66.0902 -66.0759 -66.0746 -66.0604
   -66.0270 -66.0152 -66.0066 -65.9949 -32.7495 -32.7373 -32.7101 -32.7045
   -32.6988 -32.6873 -32.6522 -32.6447 -32.5994 -32.5794 -32.5561 -32.5406
   -32.5252 -32.5036 -32.4624 -32.4376 -32.3839 -32.3682 -32.3559 -32.3487
   -32.3421 -32.3075 -32.2938 -32.2622 -32.2603 -32.2238 -32.2024 -32.1888
   -32.1798 -32.1633 -32.1410 -32.1330 -32.1247 -32.1091 -32.0933 -32.0556
    -8.3971  -3.8442  -3.1263  -2.7872  -2.1329  -1.9902  -1.5697  -1.2003
    -0.9668  -0.7662  -0.6737  -0.4488  -0.2621  -0.0187   0.0549   0.1394
     0.1848   0.3517   0.4439   0.6373   0.7416   0.8246   0.9593   1.0276
     1.1478   1.2113   1.2917   1.4102   1.5339   1.6438   1.7244   1.7772
     1.8731   2.0418   2.1779   2.2535   2.4392   2.5657   2.7017   2.8108
     3.0201   3.2812

          k =-0.0837 0.0483 0.0000 ( 19532 PWs)   bands (ev):

   -66.1490 -66.1155 -66.1103 -66.0915 -66.0858 -66.0775 -66.0733 -66.0614
   -66.0233 -66.0220 -65.9998 -65.9985 -32.7411 -32.7284 -32.7230 -32.7200
   -32.7192 -32.7023 -32.6393 -32.6344 -32.6154 -32.5826 -32.5546 -32.5426
   -32.4594 -32.4500 -32.4251 -32.4181 -32.3948 -32.3942 -32.3732 -32.3729
   -32.3327 -32.3197 -32.3010 -32.2936 -32.2870 -32.2862 -32.1923 -32.1779
   -32.1611 -32.1592 -32.1388 -32.1359 -32.1259 -32.1167 -32.0563 -32.0523
    -8.3970  -3.6044  -3.4866  -2.9405  -2.1481  -1.6964  -1.2246  -1.1803
    -0.9936  -0.8789  -0.8357  -0.6612  -0.3456   0.0983   0.1570   0.1583
     0.3618   0.3826   0.4099   0.5204   0.8531   0.9050   0.9490   1.0135
     1.0860   1.1656   1.3994   1.5603   1.5756   1.5859   1.7380   1.8410
     1.8492   1.9770   2.1134   2.2980   2.4263   2.4387   2.5733   2.7538
     2.8606   3.4328

          k =-0.0837 0.0806 0.0000 ( 19521 PWs)   bands (ev):

   -66.1491 -66.1186 -66.1037 -66.0918 -66.0902 -66.0759 -66.0746 -66.0604
   -66.0270 -66.0152 -66.0066 -65.9949 -32.7495 -32.7373 -32.7101 -32.7045
   -32.6988 -32.6873 -32.6522 -32.6447 -32.5994 -32.5794 -32.5561 -32.5406
   -32.5252 -32.5036 -32.4624 -32.4376 -32.3839 -32.3682 -32.3559 -32.3487
   -32.3421 -32.3075 -32.2938 -32.2622 -32.2603 -32.2238 -32.2024 -32.1888
   -32.1798 -32.1633 -32.1410 -32.1330 -32.1247 -32.1091 -32.0933 -32.0556
    -8.3971  -3.8442  -3.1263  -2.7872  -2.1329  -1.9902  -1.5697  -1.2003
    -0.9668  -0.7662  -0.6737  -0.4488  -0.2621  -0.0187   0.0549   0.1394
     0.1848   0.3517   0.4439   0.6373   0.7416   0.8246   0.9593   1.0276
     1.1478   1.2113   1.2917   1.4101   1.5339   1.6438   1.7244   1.7772
     1.8731   2.0418   2.1779   2.2535   2.4392   2.5657   2.7017   2.8108
     3.0201   3.2812

          k =-0.0837 0.1128 0.0000 ( 19521 PWs)   bands (ev):

   -66.1491 -66.1186 -66.1037 -66.0918 -66.0902 -66.0759 -66.0746 -66.0604
   -66.0270 -66.0152 -66.0066 -65.9949 -32.7495 -32.7373 -32.7101 -32.7045
   -32.6988 -32.6873 -32.6522 -32.6447 -32.5994 -32.5794 -32.5561 -32.5406
   -32.5252 -32.5036 -32.4624 -32.4376 -32.3839 -32.3682 -32.3559 -32.3487
   -32.3421 -32.3075 -32.2938 -32.2622 -32.2603 -32.2238 -32.2024 -32.1888
   -32.1798 -32.1633 -32.1410 -32.1330 -32.1247 -32.1091 -32.0933 -32.0556
    -8.3971  -3.8442  -3.1263  -2.7872  -2.1329  -1.9902  -1.5697  -1.2003
    -0.9668  -0.7662  -0.6737  -0.4488  -0.2621  -0.0187   0.0549   0.1394
     0.1848   0.3517   0.4439   0.6373   0.7416   0.8246   0.9593   1.0276
     1.1478   1.2113   1.2917   1.4101   1.5339   1.6438   1.7244   1.7772
     1.8731   2.0418   2.1779   2.2535   2.4392   2.5657   2.7017   2.8108
     3.0201   3.2812

          k =-0.0837-0.0483 0.0000 ( 19532 PWs)   bands (ev):

   -66.1490 -66.1155 -66.1103 -66.0915 -66.0858 -66.0775 -66.0733 -66.0615
   -66.0233 -66.0220 -65.9998 -65.9985 -32.7411 -32.7284 -32.7230 -32.7200
   -32.7192 -32.7023 -32.6393 -32.6344 -32.6154 -32.5826 -32.5546 -32.5426
   -32.4594 -32.4500 -32.4251 -32.4181 -32.3947 -32.3942 -32.3732 -32.3729
   -32.3327 -32.3197 -32.3010 -32.2936 -32.2870 -32.2862 -32.1923 -32.1779
   -32.1611 -32.1592 -32.1388 -32.1359 -32.1259 -32.1167 -32.0563 -32.0523
    -8.3970  -3.6044  -3.4866  -2.9405  -2.1481  -1.6964  -1.2246  -1.1803
    -0.9936  -0.8789  -0.8357  -0.6612  -0.3456   0.0983   0.1570   0.1583
     0.3618   0.3826   0.4099   0.5204   0.8531   0.9050   0.9490   1.0135
     1.0860   1.1656   1.3994   1.5603   1.5756   1.5859   1.7380   1.8410
     1.8492   1.9770   2.1134   2.2980   2.4263   2.4387   2.5733   2.7538
     2.8606   3.4328

     the Fermi energy is     2.1809 ev

!    total energy              =   -1731.09569262 Ry
     Harris-Foulkes estimate   =   -1731.09569018 Ry
     estimated scf accuracy    <       0.00000343 Ry

     The total energy is the sum of the following terms:

     one-electron contribution =  -11636.44945538 Ry
     hartree contribution      =    5803.08591752 Ry
     xc contribution           =    -527.09915564 Ry
     ewald contribution        =    4629.47196273 Ry
     electric field correction =       0.00002157 Ry
     smearing contrib. (-TS)   =      -0.10498342 Ry

     convergence has been achieved in   9 iterations
 
 BEEF-vdW xc energy contributions
           1 :   -463.954773964494     
           2 :    428.246640942613     
           3 :   -365.923696221158     
           4 :    291.402867293898     
           5 :   -219.129137529600     
           6 :    159.146948295585     
           7 :   -115.097759846487     
           8 :    85.0295907022902     
           9 :   -64.1182777227563     
          10 :    47.7005966459622     
          11 :   -33.1957787420655     
          12 :    20.3359525064163     
          13 :   -10.0999666956270     
          14 :    3.29946502364362     
          15 :   0.301133674084042     
          16 :   -1.95460571830392     
          17 :    3.20461913498855     
          18 :   -5.03404022167683     
          19 :    7.42910076290286     
          20 :   -9.57790789861690     
          21 :    10.5269728563682     
          22 :   -9.86515536432830     
          23 :    8.02196361509363     
          24 :   -6.02573953406079     
          25 :    4.90182175079894     
          26 :   -5.09708982262686     
          27 :    6.27413475408378     
          28 :   -7.57225076841326     
          29 :    8.14623485957947     
          30 :   -7.64381796464659     
          31 :   -41.5665373056174     
          32 :   -30.8597370630752     

     Forces acting on atoms (Ry/au):


     negative rho (up, down):  1.177E+00 0.000E+00
     atom    1 type  1   force =     0.00112347    0.00064423    0.00218282
     atom    2 type  1   force =    -0.00112372    0.00064215    0.00218463
     atom    3 type  1   force =    -0.00000171   -0.00129183    0.00218677
     atom    4 type  1   force =     0.00000152    0.00000637    0.00089279
     atom    5 type  1   force =     0.00000187    0.00164174    0.00239967
     atom    6 type  1   force =    -0.00000219   -0.00000044    0.00780728
     atom    7 type  1   force =    -0.00142400   -0.00082306    0.00240032
     atom    8 type  1   force =     0.00142381   -0.00082074    0.00239800
     atom    9 type  1   force =    -0.00000069   -0.00000387   -0.03450757
     atom   10 type  1   force =     0.00000152    0.00897766    0.03993827
     atom   11 type  1   force =     0.00777801   -0.00448466    0.03994172
     atom   12 type  1   force =    -0.00777692   -0.00448562    0.03994374
     atom   13 type  2   force =    -0.00000093   -0.00000184   -0.03645456
     atom   14 type  3   force =    -0.00000004   -0.00000009   -0.07131388

     Total force =     0.112397     Total SCF correction =     0.001759


     entering subroutine stress ...


     negative rho (up, down):  1.177E+00 0.000E+00
          total   stress  (Ry/bohr**3)                   (kbar)     P=  -35.74
  -0.00028136   0.00000000  -0.00000000        -41.39      0.00     -0.00
   0.00000000  -0.00028137  -0.00000000          0.00    -41.39     -0.00
  -0.00000000  -0.00000000  -0.00016624         -0.00     -0.00    -24.45


     number of scf cycles    =   2
     number of bfgs steps    =   1

     energy   old            =   -1731.0759113678 Ry
     energy   new            =   -1731.0956926209 Ry

     CASE: energy  _new < energy  _old

     new trust radius        =       0.1386957165 bohr
     new conv_thr            =       0.0000001000 Ry


ATOMIC_POSITIONS (crystal)
Ta1      0.166666667   0.166666667   0.401991699    0   0   0
Ta1      0.666666667   0.166666667   0.401991699    0   0   0
Ta1      0.166666667   0.666666667   0.401991699    0   0   0
Ta1      0.666666667   0.666666667   0.401991699    0   0   0
Ta1      0.833333333   0.333333333   0.500000000    0   0   0
Ta1      0.333333333   0.333333333   0.500000000    0   0   0
Ta1      0.833333333   0.833333333   0.500000000    0   0   0
Ta1      0.333333333   0.833333333   0.500000000    0   0   0
Ta1      0.000000059  -0.000000492   0.595886149
Ta1      0.497809241   0.004381800   0.601176937
Ta1      0.004381194   0.497810432   0.601177013
Ta1      0.497808862   0.497809905   0.601176942
C1       0.333333249   0.333333018   0.656654187
H1       0.333333345   0.333333176   0.703859149



     Writing output data file calc.save
     Check: negative starting charge=   -1.121182
     NEW-OLD atomic charge density approx. for the potential
     Check: negative starting charge=   -1.123306

     negative rho (up, down):  1.178E+00 0.000E+00
 
     Adding external electric field

     Computed dipole along edir(3) : 
        Dipole                0.0946 Ry au,          0.2404 Debye
        Dipole field          0.0002 Ry au
 
        Potential amp.       -0.0210 Ry
        Total length         45.8339 bohr
 

     total cpu time spent up to now is     1030.0 secs

     per-process dynamical memory:    93.6 Mb

     Self-consistent Calculation

     iteration #  1     ecut=    36.75 Ry     beta=0.30
     Davidson diagonalization with overlap
     c_bands:  1 eigenvalues not converged
     ethr =  1.00E-06,  avg # of iterations = 12.2

     negative rho (up, down):  1.179E+00 0.000E+00
 
     Adding external electric field

     Computed dipole along edir(3) : 
        Dipole               -0.4332 Ry au,         -1.1012 Debye
        Dipole field         -0.0010 Ry au
 
        Potential amp.        0.0963 Ry
        Total length         45.8339 bohr
 

     total cpu time spent up to now is     1072.2 secs

     total energy              =   -1731.09703833 Ry
     Harris-Foulkes estimate   =   -1731.11932488 Ry
     estimated scf accuracy    <       0.04891328 Ry

     iteration #  2     ecut=    36.75 Ry     beta=0.30
     Davidson diagonalization with overlap
     ethr =  3.04E-05,  avg # of iterations =  8.2

     negative rho (up, down):  1.179E+00 0.000E+00
 
     Adding external electric field

     Computed dipole along edir(3) : 
        Dipole                0.1112 Ry au,          0.2827 Debye
        Dipole field          0.0003 Ry au
 
        Potential amp.       -0.0247 Ry
        Total length         45.8339 bohr
 

     total cpu time spent up to now is     1106.9 secs

     total energy              =   -1730.89838914 Ry
     Harris-Foulkes estimate   =   -1731.35608804 Ry
[...]

   -66.0584 -66.0208 -66.0162 -66.0045 -65.9985 -65.9759 -65.9619 -65.9557
   -65.9054 -65.8790 -65.8714 -65.7242 -32.7577 -32.7093 -32.6829 -32.6770
   -32.6674 -32.6510 -32.6400 -32.6071 -32.5526 -32.5469 -32.4705 -32.4325
   -32.4295 -32.4080 -32.3097 -32.3039 -32.2920 -32.2554 -32.2303 -32.1942
   -32.1830 -32.1612 -32.1560 -32.1396 -32.1147 -32.1057 -32.0749 -32.0679
   -32.0556 -32.0426 -32.0164 -31.9976 -31.9554 -31.8685 -31.8445 -31.8233
    -8.8973  -4.5545  -3.5741  -2.5601  -2.1624  -2.0173  -1.7138  -1.5724
    -1.3487  -1.2329  -1.0912  -0.7173  -0.6215  -0.4200  -0.3093  -0.2337
     0.1049   0.1228   0.3331   0.6914   0.9540   1.0617   1.3221   1.4077
     1.5994   1.6887   1.7297   1.7553   2.0079   2.0926   2.2442   2.3130
     2.3946   2.4930   2.5320   2.5973   2.6531   2.8597   2.9749   3.0461
     3.0692   3.1716

          k = 0.0558-0.0322 0.0000 ( 19517 PWs)   bands (ev):

   -66.0551 -66.0259 -66.0132 -66.0057 -65.9963 -65.9758 -65.9636 -65.9555
   -65.9045 -65.8805 -65.8716 -65.7242 -32.7389 -32.6903 -32.6776 -32.6632
   -32.6445 -32.6287 -32.6188 -32.5893 -32.5536 -32.4955 -32.4696 -32.4384
   -32.4330 -32.4179 -32.3030 -32.2993 -32.2753 -32.2619 -32.2473 -32.2381
   -32.2093 -32.1836 -32.1582 -32.1444 -32.1241 -32.1174 -32.0903 -32.0880
   -32.0725 -32.0426 -32.0335 -31.9874 -31.9540 -31.8896 -31.8412 -31.8216
    -8.8846  -4.3637  -3.4848  -2.6255  -2.3336  -1.7564  -1.4719  -1.4513
    -1.3108  -1.1694  -1.0388  -0.5873  -0.5648  -0.3504  -0.1454  -0.1385
     0.1355   0.1972   0.4048   0.6945   0.9251   1.0077   1.1889   1.2488
     1.4778   1.5648   1.6639   1.7148   1.9736   1.9987   2.1637   2.2092
     2.2609   2.3048   2.3915   2.5461   2.5837   2.6862   2.8441   3.0458
     3.1824   3.3138

          k = 0.0558 0.0000 0.0000 ( 19485 PWs)   bands (ev):

   -66.0584 -66.0208 -66.0162 -66.0045 -65.9985 -65.9759 -65.9619 -65.9557
   -65.9054 -65.8790 -65.8714 -65.7242 -32.7577 -32.7093 -32.6829 -32.6770
   -32.6674 -32.6510 -32.6400 -32.6071 -32.5526 -32.5469 -32.4705 -32.4325
   -32.4295 -32.4080 -32.3097 -32.3039 -32.2920 -32.2554 -32.2303 -32.1942
   -32.1830 -32.1612 -32.1560 -32.1396 -32.1147 -32.1057 -32.0749 -32.0679
   -32.0556 -32.0426 -32.0164 -31.9976 -31.9554 -31.8685 -31.8445 -31.8233
    -8.8973  -4.5545  -3.5741  -2.5601  -2.1624  -2.0173  -1.7138  -1.5724
    -1.3487  -1.2329  -1.0912  -0.7173  -0.6215  -0.4200  -0.3093  -0.2337
     0.1049   0.1228   0.3331   0.6914   0.9540   1.0617   1.3221   1.4077
     1.5994   1.6887   1.7297   1.7553   2.0079   2.0926   2.2442   2.3130
     2.3946   2.4930   2.5320   2.5973   2.6531   2.8597   2.9749   3.0461
     3.0692   3.1716

          k = 0.0558 0.0322 0.0000 ( 19517 PWs)   bands (ev):

   -66.0551 -66.0259 -66.0132 -66.0057 -65.9963 -65.9758 -65.9636 -65.9555
   -65.9045 -65.8805 -65.8716 -65.7242 -32.7389 -32.6903 -32.6776 -32.6632
   -32.6445 -32.6287 -32.6188 -32.5893 -32.5536 -32.4955 -32.4696 -32.4384
   -32.4330 -32.4179 -32.3030 -32.2993 -32.2753 -32.2619 -32.2473 -32.2381
   -32.2093 -32.1836 -32.1582 -32.1444 -32.1241 -32.1174 -32.0903 -32.0880
   -32.0725 -32.0426 -32.0335 -31.9874 -31.9540 -31.8896 -31.8412 -31.8216
    -8.8846  -4.3637  -3.4848  -2.6255  -2.3336  -1.7564  -1.4719  -1.4513
    -1.3108  -1.1694  -1.0388  -0.5873  -0.5648  -0.3504  -0.1454  -0.1385
     0.1355   0.1972   0.4048   0.6945   0.9251   1.0077   1.1889   1.2488
     1.4778   1.5648   1.6639   1.7148   1.9736   1.9987   2.1637   2.2092
     2.2609   2.3048   2.3915   2.5461   2.5837   2.6862   2.8441   3.0458
     3.1824   3.3138

          k = 0.0558-0.1289 0.0000 ( 19521 PWs)   bands (ev):

   -66.0463 -66.0312 -66.0193 -66.0033 -65.9907 -65.9768 -65.9663 -65.9560
   -65.9014 -65.8856 -65.8711 -65.7243 -32.6930 -32.6463 -32.6313 -32.6158
   -32.6097 -32.6061 -32.5619 -32.5434 -32.4949 -32.4862 -32.4740 -32.4399
   -32.4280 -32.4028 -32.3641 -32.3329 -32.2950 -32.2887 -32.2757 -32.2524
   -32.2283 -32.2068 -32.1986 -32.1567 -32.1468 -32.1314 -32.1168 -32.0980
   -32.0728 -32.0640 -32.0419 -32.0120 -31.9845 -31.8946 -31.8419 -31.8347
    -8.8596  -3.8390  -3.2911  -2.7635  -2.1346  -1.9383  -1.5669  -1.2152
    -0.9297  -0.7822  -0.6852  -0.4053  -0.3197  -0.1136   0.1068   0.1494
     0.2346   0.3538   0.5562   0.6412   0.8185   0.9004   1.0015   1.0812
     1.1920   1.2280   1.3211   1.4414   1.5528   1.6193   1.7820   1.8455
     2.0257   2.0760   2.1552   2.3484   2.5243   2.7014   2.7582   3.0565
     3.1403   3.3550

          k = 0.0558-0.0967 0.0000 ( 19521 PWs)   bands (ev):

   -66.0367 -66.0349 -66.0268 -66.0016 -65.9866 -65.9787 -65.9674 -65.9565
   -65.8978 -65.8904 -65.8706 -65.7244 -32.6470 -32.6204 -32.6183 -32.5812
   -32.5800 -32.5698 -32.5535 -32.5181 -32.5175 -32.4565 -32.4461 -32.4254
   -32.4146 -32.4008 -32.3981 -32.3900 -32.3323 -32.3291 -32.2826 -32.2712
   -32.2498 -32.2422 -32.1751 -32.1581 -32.1394 -32.1204 -32.1118 -32.0977
   -32.0834 -32.0625 -32.0426 -32.0395 -32.0304 -31.8801 -31.8701 -31.8310
    -8.8472  -3.4206  -2.9529  -2.8899  -2.6026  -1.8195  -1.5582  -1.2122
    -0.5909  -0.5255  -0.2573  -0.2138  -0.1007  -0.0657   0.1561   0.2980
     0.3301   0.4938   0.5573   0.5735   0.6062   0.7175   0.8088   0.8494
     0.9557   0.9768   1.1455   1.4148   1.4684   1.4826   1.5615   1.5622
     1.8693   1.9938   2.1054   2.2252   2.3189   2.8204   2.9113   3.0908
     3.2347   3.5171

          k = 0.0558-0.0645 0.0000 ( 19521 PWs)   bands (ev):

   -66.0463 -66.0312 -66.0193 -66.0033 -65.9907 -65.9768 -65.9663 -65.9560
   -65.9014 -65.8856 -65.8711 -65.7243 -32.6930 -32.6463 -32.6313 -32.6158
   -32.6097 -32.6061 -32.5619 -32.5434 -32.4949 -32.4862 -32.4740 -32.4399
   -32.4280 -32.4028 -32.3641 -32.3329 -32.2950 -32.2887 -32.2757 -32.2524
   -32.2283 -32.2068 -32.1986 -32.1567 -32.1468 -32.1314 -32.1168 -32.0980
   -32.0728 -32.0640 -32.0419 -32.0120 -31.9845 -31.8946 -31.8419 -31.8347
    -8.8596  -3.8390  -3.2911  -2.7635  -2.1346  -1.9383  -1.5669  -1.2152
    -0.9297  -0.7822  -0.6852  -0.4053  -0.3197  -0.1136   0.1068   0.1494
     0.2346   0.3538   0.5562   0.6412   0.8185   0.9004   1.0015   1.0812
     1.1920   1.2280   1.3211   1.4414   1.5528   1.6193   1.7820   1.8455
     2.0257   2.0760   2.1552   2.3484   2.5243   2.7014   2.7582   3.0565
     3.1403   3.3550

          k =-0.0837 0.0483 0.0000 ( 19532 PWs)   bands (ev):

   -66.0433 -66.0375 -66.0132 -66.0060 -65.9904 -65.9772 -65.9667 -65.9555
   -65.9019 -65.8846 -65.8716 -65.7243 -32.6906 -32.6439 -32.6404 -32.6264
   -32.6231 -32.6157 -32.5522 -32.5213 -32.5086 -32.5049 -32.4771 -32.4393
   -32.3669 -32.3533 -32.3329 -32.3091 -32.2980 -32.2956 -32.2889 -32.2831
   -32.2583 -32.2443 -32.1981 -32.1797 -32.1620 -32.1459 -32.0988 -32.0929
   -32.0868 -32.0745 -32.0230 -31.9977 -31.9637 -31.9100 -31.8366 -31.8286
    -8.8595  -3.6687  -3.4594  -3.0356  -2.1309  -1.6689  -1.2654  -1.1395
    -0.9657  -0.9075  -0.7896  -0.5317  -0.4782  -0.1097   0.1634   0.1961
     0.3679   0.4155   0.4992   0.6433   0.7965   1.0000   1.0173   1.0176
     1.1931   1.2423   1.4500   1.5918   1.6621   1.6746   1.7340   1.7965
     1.8682   1.9208   2.1219   2.4798   2.5187   2.5198   2.6792   3.0703
     3.1947   3.3531

          k =-0.0837 0.0806 0.0000 ( 19521 PWs)   bands (ev):

   -66.0463 -66.0312 -66.0193 -66.0033 -65.9907 -65.9768 -65.9663 -65.9560
   -65.9014 -65.8856 -65.8711 -65.7243 -32.6930 -32.6463 -32.6313 -32.6158
   -32.6097 -32.6061 -32.5619 -32.5434 -32.4949 -32.4862 -32.4740 -32.4399
   -32.4280 -32.4028 -32.3641 -32.3329 -32.2950 -32.2887 -32.2757 -32.2524
   -32.2283 -32.2068 -32.1986 -32.1567 -32.1468 -32.1314 -32.1168 -32.0980
   -32.0728 -32.0640 -32.0419 -32.0120 -31.9845 -31.8946 -31.8419 -31.8347
    -8.8596  -3.8390  -3.2911  -2.7635  -2.1346  -1.9383  -1.5669  -1.2152
    -0.9297  -0.7822  -0.6852  -0.4053  -0.3197  -0.1136   0.1068   0.1494
     0.2346   0.3538   0.5562   0.6412   0.8185   0.9004   1.0015   1.0812
     1.1920   1.2280   1.3211   1.4414   1.5528   1.6193   1.7820   1.8455
     2.0257   2.0760   2.1552   2.3484   2.5243   2.7014   2.7583   3.0565
     3.1403   3.3550

          k =-0.0837 0.1128 0.0000 ( 19521 PWs)   bands (ev):

   -66.0463 -66.0312 -66.0193 -66.0033 -65.9907 -65.9768 -65.9663 -65.9560
   -65.9014 -65.8856 -65.8711 -65.7243 -32.6930 -32.6463 -32.6313 -32.6158
   -32.6097 -32.6061 -32.5619 -32.5434 -32.4949 -32.4862 -32.4740 -32.4399
   -32.4280 -32.4028 -32.3641 -32.3329 -32.2950 -32.2887 -32.2757 -32.2524
   -32.2283 -32.2068 -32.1986 -32.1567 -32.1468 -32.1314 -32.1168 -32.0980
   -32.0728 -32.0640 -32.0419 -32.0120 -31.9845 -31.8946 -31.8419 -31.8347
    -8.8596  -3.8390  -3.2911  -2.7635  -2.1346  -1.9383  -1.5669  -1.2152
    -0.9297  -0.7822  -0.6852  -0.4053  -0.3197  -0.1136   0.1068   0.1494
     0.2346   0.3538   0.5562   0.6412   0.8185   0.9004   1.0015   1.0812
     1.1920   1.2280   1.3211   1.4414   1.5528   1.6193   1.7820   1.8455
     2.0257   2.0760   2.1552   2.3484   2.5243   2.7014   2.7583   3.0565
     3.1403   3.3550

          k =-0.0837-0.0483 0.0000 ( 19532 PWs)   bands (ev):

   -66.0433 -66.0375 -66.0132 -66.0060 -65.9904 -65.9772 -65.9667 -65.9555
   -65.9019 -65.8846 -65.8716 -65.7243 -32.6906 -32.6439 -32.6404 -32.6264
   -32.6231 -32.6157 -32.5522 -32.5213 -32.5086 -32.5049 -32.4771 -32.4393
   -32.3669 -32.3533 -32.3329 -32.3091 -32.2980 -32.2956 -32.2889 -32.2831
   -32.2583 -32.2443 -32.1981 -32.1797 -32.1620 -32.1459 -32.0988 -32.0929
   -32.0868 -32.0745 -32.0230 -31.9977 -31.9637 -31.9100 -31.8366 -31.8286
    -8.8595  -3.6687  -3.4594  -3.0356  -2.1309  -1.6689  -1.2654  -1.1395
    -0.9657  -0.9075  -0.7896  -0.5317  -0.4782  -0.1097   0.1634   0.1961
     0.3679   0.4155   0.4992   0.6433   0.7965   1.0000   1.0173   1.0176
     1.1931   1.2423   1.4500   1.5918   1.6621   1.6746   1.7340   1.7965
     1.8682   1.9208   2.1219   2.4798   2.5187   2.5198   2.6792   3.0703
     3.1947   3.3531

     the Fermi energy is     2.2401 ev

!    total energy              =   -1731.14117714 Ry
     Harris-Foulkes estimate   =   -1731.14117726 Ry
     estimated scf accuracy    <       0.00000006 Ry

     The total energy is the sum of the following terms:

     one-electron contribution =  -11748.32741984 Ry
     hartree contribution      =    5859.64516782 Ry
     xc contribution           =    -527.44730500 Ry
     ewald contribution        =    4685.08587967 Ry
     electric field correction =       0.00005149 Ry
     smearing contrib. (-TS)   =      -0.09755129 Ry

     convergence has been achieved in   7 iterations
 
 BEEF-vdW xc energy contributions
           1 :   -464.293796267911     
           2 :    428.638708724323     
           3 :   -366.372724142364     
           4 :    291.852332010945     
           5 :   -219.484903906651     
           6 :    159.321768098522     
           7 :   -115.059742458454     
           8 :    84.8263598582327     
           9 :   -63.8581654018074     
          10 :    47.4961463992391     
          11 :   -33.1012749531895     
          12 :    20.3188758871074     
          13 :   -10.0662045307000     
          14 :    3.15682614178604     
          15 :   0.581714299446560     
          16 :   -2.31915618086896     
          17 :    3.54840765309422     
          18 :   -5.26237427486279     
          19 :    7.50782361852822     
          20 :   -9.54520166269009     
          21 :    10.4644509749222     
          22 :   -9.85049916205861     
          23 :    8.09108519992316     
          24 :   -6.16169967107135     
          25 :    5.05119305508987     
          26 :   -5.20209442356526     
          27 :    6.30472509078214     
          28 :   -7.54339555088575     
          29 :    8.11126489864637     
          30 :   -7.66568605663156     
          31 :   -41.5883670904399     
          32 :   -30.8907622931602     

     Forces acting on atoms (Ry/au):


     negative rho (up, down):  1.178E+00 0.000E+00
     atom    1 type  1   force =     0.00229280    0.00132374    0.00339778
     atom    2 type  1   force =    -0.00229280    0.00132373    0.00339778
     atom    3 type  1   force =    -0.00000000   -0.00264752    0.00339772
     atom    4 type  1   force =     0.00000001   -0.00000005    0.00116201
     atom    5 type  1   force =    -0.00000002    0.02540073   -0.01288019
     atom    6 type  1   force =     0.00000003   -0.00000018    0.02754646
     atom    7 type  1   force =    -0.02199769   -0.01270035   -0.01288007
     atom    8 type  1   force =     0.02199767   -0.01270036   -0.01287998
     atom    9 type  1   force =     0.00000005    0.00000000   -0.00018829
     atom   10 type  1   force =    -0.00000003    0.00000533   -0.00003165
     atom   11 type  1   force =     0.00000459   -0.00000257   -0.00003161
     atom   12 type  1   force =    -0.00000460   -0.00000260   -0.00003169
     atom   13 type  2   force =    -0.00000001   -0.00000002   -0.00079360
     atom   14 type  3   force =     0.00000000    0.00000010    0.00081533

     Total force =     0.001155     Total SCF correction =     0.000939
     SCF correction compared to forces is large: reduce conv_thr to get better values


     entering subroutine stress ...


     negative rho (up, down):  1.178E+00 0.000E+00
          total   stress  (Ry/bohr**3)                   (kbar)     P=  -23.39
  -0.00020965   0.00000000  -0.00000000        -30.84      0.00     -0.00
   0.00000000  -0.00020965   0.00000000          0.00    -30.84      0.00
  -0.00000000   0.00000000  -0.00005776         -0.00      0.00     -8.50


     bfgs converged in  16 scf cycles and  15 bfgs steps
     (criteria: energy <  1.0E+00, force <  1.9E-03)

     End of BFGS Geometry Optimization

     Final energy   =   -1731.1411771426 Ry
Begin final coordinates

ATOMIC_POSITIONS (crystal)
Ta1      0.166666667   0.166666667   0.401991699    0   0   0
Ta1      0.666666667   0.166666667   0.401991699    0   0   0
Ta1      0.166666667   0.666666667   0.401991699    0   0   0
Ta1      0.666666667   0.666666667   0.401991699    0   0   0
Ta1      0.833333333   0.333333333   0.500000000    0   0   0
Ta1      0.333333333   0.333333333   0.500000000    0   0   0
Ta1      0.833333333   0.833333333   0.500000000    0   0   0
Ta1      0.333333333   0.833333333   0.500000000    0   0   0
Ta1     -0.000000399   0.000000711   0.586337766
Ta1      0.500957835  -0.001915622   0.600659664
Ta1     -0.001916725   0.500959014   0.600659663
Ta1      0.500957701   0.500959055   0.600659679
C1       0.333333040   0.333333926   0.650458644
H1       0.333333257   0.333333357   0.694713632
End final coordinates



     Writing output data file calc.save
 
     init_run     :     16.51s CPU     17.08s WALL (       1 calls)
     electrons    :   6040.14s CPU   6556.03s WALL (      16 calls)
     update_pot   :     48.93s CPU     52.47s WALL (      15 calls)
     forces       :    441.52s CPU    484.63s WALL (      16 calls)
     stress       :   1279.08s CPU   1391.68s WALL (      16 calls)

     Called by init_run:
     wfcinit      :      5.68s CPU      5.78s WALL (       1 calls)
     potinit      :      2.07s CPU      2.29s WALL (       1 calls)

     Called by electrons:
     c_bands      :   1980.35s CPU   2093.95s WALL (     180 calls)
     sum_band     :   1421.89s CPU   1552.70s WALL (     180 calls)
     v_of_rho     :    315.84s CPU    366.21s WALL (     192 calls)
     newd         :   1479.30s CPU   1518.38s WALL (     192 calls)
     mix_rho      :     10.47s CPU     10.77s WALL (     180 calls)
     vdW_energy   :    174.28s CPU    191.83s WALL (     768 calls)
     vdW_ffts     :    405.94s CPU    418.51s WALL (    1568 calls)
     vdW_v        :    154.03s CPU    162.23s WALL (     768 calls)

     Called by c_bands:
     init_us_2    :     14.47s CPU     14.53s WALL (    1965 calls)
     cegterg      :   1758.14s CPU   1809.07s WALL (     900 calls)

     Called by *egterg:
     h_psi        :   1161.02s CPU   1199.61s WALL (    4588 calls)
     s_psi        :    135.31s CPU    135.73s WALL (    4588 calls)
     g_psi        :      6.57s CPU      6.57s WALL (    3683 calls)
     cdiaghg      :    147.98s CPU    149.81s WALL (    4488 calls)

     Called by h_psi:
     add_vuspsi   :    137.62s CPU    138.02s WALL (    4588 calls)

     General routines
     calbec       :    210.69s CPU    215.52s WALL (    5648 calls)
     fft          :    706.16s CPU    788.71s WALL (   46351 calls)
     ffts         :      0.72s CPU      0.77s WALL (     372 calls)
     fftw         :    693.38s CPU    732.18s WALL (  500686 calls)
     interpolate  :      6.72s CPU      6.93s WALL (     372 calls)
     davcio       :      0.00s CPU      0.03s WALL (       5 calls)
 
     Parallel routines
     fft_scatter  :    838.18s CPU    955.52s WALL (  547409 calls)
 
     PWSCF        :     2h12m CPU        2h23m WALL

 
   This run was terminated on:   9:17:34  23Apr2018            

=------------------------------------------------------------------------------=
   JOB DONE.
=------------------------------------------------------------------------------=
Job  /afs/slac/g/suncat/bin/suncat-tsmpirun -x LD_LIBRARY_PATH -wdir /scratch/qe440689_VZhru pw.x -npool 4 -in pw.inp

TID   HOST_NAME   COMMAND_LINE            STATUS            TERMINATION_TIME
===== ========== ================  =======================  ===================
00000 suncat0186 pw.x -npool 4 -i  Done                     04/23/2018 09:17:34
00001 suncat0186 pw.x -npool 4 -i  Done                     04/23/2018 09:17:34
00002 suncat0186 pw.x -npool 4 -i  Done                     04/23/2018 09:17:34
00003 suncat0186 pw.x -npool 4 -i  Done                     04/23/2018 09:17:34
00004 suncat0186 pw.x -npool 4 -i  Done                     04/23/2018 09:17:34
00005 suncat0186 pw.x -npool 4 -i  Done                     04/23/2018 09:17:34
00006 suncat0186 pw.x -npool 4 -i  Done                     04/23/2018 09:17:34
00007 suncat0186 pw.x -npool 4 -i  Done                     04/23/2018 09:17:34
00008 suncat0182 pw.x -npool 4 -i  Done                     04/23/2018 09:17:34
00009 suncat0182 pw.x -npool 4 -i  Done                     04/23/2018 09:17:34
00010 suncat0182 pw.x -npool 4 -i  Done                     04/23/2018 09:17:34
00011 suncat0182 pw.x -npool 4 -i  Done                     04/23/2018 09:17:34
00012 suncat0182 pw.x -npool 4 -i  Done                     04/23/2018 09:17:34
00013 suncat0182 pw.x -npool 4 -i  Done                     04/23/2018 09:17:34
00014 suncat0182 pw.x -npool 4 -i  Done                     04/23/2018 09:17:34
00015 suncat0182 pw.x -npool 4 -i  Done                     04/23/2018 09:17:34
00016 suncat0201 pw.x -npool 4 -i  Done                     04/23/2018 09:17:34
00017 suncat0201 pw.x -npool 4 -i  Done                     04/23/2018 09:17:34
00018 suncat0201 pw.x -npool 4 -i  Done                     04/23/2018 09:17:34
00019 suncat0201 pw.x -npool 4 -i  Done                     04/23/2018 09:17:34
00020 suncat0201 pw.x -npool 4 -i  Done                     04/23/2018 09:17:34
00021 suncat0201 pw.x -npool 4 -i  Done                     04/23/2018 09:17:34
00022 suncat0201 pw.x -npool 4 -i  Done                     04/23/2018 09:17:34
00023 suncat0201 pw.x -npool 4 -i  Done                     04/23/2018 09:17:34
00024 suncat0099 pw.x -npool 4 -i  Done                     04/23/2018 09:17:34
00025 suncat0099 pw.x -npool 4 -i  Done                     04/23/2018 09:17:34
00026 suncat0099 pw.x -npool 4 -i  Done                     04/23/2018 09:17:34
00027 suncat0099 pw.x -npool 4 -i  Done                     04/23/2018 09:17:34
00028 suncat0099 pw.x -npool 4 -i  Done                     04/23/2018 09:17:34
00029 suncat0099 pw.x -npool 4 -i  Done                     04/23/2018 09:17:34
00030 suncat0099 pw.x -npool 4 -i  Done                     04/23/2018 09:17:34
00031 suncat0099 pw.x -npool 4 -i  Done                     04/23/2018 09:17:34
