  python dir          : /u/if/mamunm/src/espresso
  espresso dir        : /nfs/slac/g/suncatfs/sw/espv18/espresso-dynpy-beef/bin
  pseudo dir          : /u/if/mamunm/psp/gbrv1.5pbe
  ase-espresso py git : GITVERSION



     Program PWSCF v.5.1rc2 (svn rev. 11289) starts on 21Apr2018 at 21: 9:29 

     This program is part of the open-source Quantum ESPRESSO suite
     for quantum simulation of materials; please cite
         "P. Giannozzi et al., J. Phys.:Condens. Matter 21 395502 (2009);
          URL http://www.quantum-espresso.org", 
     in publications or presentations arising from this work. More details at
     http://www.quantum-espresso.org/quote

     Parallel version (MPI), running on    32 processors
     K-points division:     npool     =       4
     R & G space division:  proc/nbgrp/npool/nimage =       8
     Reading input from pw.inp
     Message from routine read_cards :
     DEPRECATED: no units specified in CELL_PARAMETERS card

     Current dimensions of program PWSCF are:
     Max number of different atomic species (ntypx) = 10
     Max number of k-points (npk) =  40000
     Max angular momentum in pseudopotentials (lmaxx) =  3
     Presently stress not available with electric field


     **************************************************************************
     Initializing libbeef V0.1.1 with the BEEF-vdW functional.
     Citation: Wellendorff et al., PRB 85, 235149 (2012).
     **************************************************************************


     IMPORTANT: XC functional enforced from input :
     Exchange-correlation      = BEEF-VDW ( 1  4 27 13 2)
     Any further DFT definition will be discarded
     Please, verify this is what you really want


     Subspace diagonalization in iterative solution of the eigenvalue problem:
     a serial algorithm will be used

 
     Parallelization info
     --------------------
     sticks:   dense  smooth     PW     G-vecs:    dense   smooth      PW
     Min         358     144     41                67928    17211    2707
     Max         359     145     43                67951    17239    2717
     Sum        2869    1159    337               543535   137813   21685
 


     bravais-lattice index     =            0
     lattice parameter (alat)  =       1.8897  a.u.
     unit-cell volume          =    4569.9960 (a.u.)^3
     number of atoms/cell      =           14
     number of atomic types    =            3
     number of electrons       =       199.00
     number of Kohn-Sham states=          109
     kinetic-energy cutoff     =      36.7493  Ry
     charge density cutoff     =     367.4932  Ry
     convergence threshold     =      1.0E-05
     mixing beta               =       0.3000
     number of iterations used =           10  plain     mixing
     Exchange-correlation      = BEEF-VDW ( 1  4 27 13 2)
     nstep                     =           50


     celldm(1)=   1.889726  celldm(2)=   0.000000  celldm(3)=   0.000000
     celldm(4)=   0.000000  celldm(5)=   0.000000  celldm(6)=   0.000000

     crystal axes: (cart. coord. in units of alat)
               a(1) = (   5.637663   0.000000   0.000000 )  
               a(2) = (   2.818831   4.882359   0.000000 )  
               a(3) = (   0.000000   0.000000  24.603132 )  

     reciprocal axes: (cart. coord. in units 2 pi/alat)
               b(1) = (  0.177378 -0.102410  0.000000 )  
               b(2) = (  0.000000  0.204819  0.000000 )  
               b(3) = (  0.000000  0.000000  0.040645 )  


     PseudoPot. # 1 for Pd read from file:
     /u/if/mamunm/psp/gbrv1.5pbe/Pd.UPF
     MD5 check sum: 2d733d2bc2cbfd217af676df1668a4bc
     Pseudo is Ultrasoft + core correction, Zval = 16.0
     Generated by new atomic code, or converted to UPF format
     Using radial grid of  887 points,  6 beta functions with: 
                l(1) =   0
                l(2) =   0
                l(3) =   1
                l(4) =   1
                l(5) =   2
                l(6) =   2
     Q(r) pseudized with  8 coefficients,  rinner =    1.130   1.130   1.130
                                                       1.130   1.130

     PseudoPot. # 2 for O  read from file:
     /u/if/mamunm/psp/gbrv1.5pbe/O.UPF
     MD5 check sum: 734c27235a0248c51dbae37a1fbe46ec
     Pseudo is Ultrasoft + core correction, Zval =  6.0
     Generated by new atomic code, or converted to UPF format
     Using radial grid of  737 points,  5 beta functions with: 
                l(1) =   0
                l(2) =   0
                l(3) =   1
                l(4) =   1
                l(5) =   2
     Q(r) pseudized with  8 coefficients,  rinner =    0.900   0.900   0.900
                                                       0.900   0.900

     PseudoPot. # 3 for H  read from file:
     /u/if/mamunm/psp/gbrv1.5pbe/H.UPF
     MD5 check sum: 761ae9a214b05c3daf00ab9f6b793d6f
     Pseudo is Ultrasoft, Zval =  1.0
     Generated by new atomic code, or converted to UPF format
     Using radial grid of  615 points,  2 beta functions with: 
                l(1) =   0
                l(2) =   0
     Q(r) pseudized with  8 coefficients,  rinner =    0.700

     vdW kernel table read from file vdW_kernel_table
     MD5 check sum: 095c7af220d748ca6e76c0b4c6cfb241

     atomic species   valence    mass     pseudopotential
        Pd1           16.00   106.42000     Pd( 1.00)
        O1             6.00    15.99900     O ( 1.00)
        H1             1.00     1.00800     H ( 1.00)

     No symmetry found



   Cartesian axes

     site n.     atom                  positions (alat units)
         1           Pd1 tau(   1) = (   1.4094157   0.8137265  10.0000000  )
         2           Pd1 tau(   2) = (   4.2282471   0.8137265  10.0000000  )
         3           Pd1 tau(   3) = (   2.8188314   3.2549061  10.0000000  )
         4           Pd1 tau(   4) = (   5.6376627   3.2549061  10.0000000  )
         5           Pd1 tau(   5) = (   5.6376627   1.6274531  12.3015662  )
         6           Pd1 tau(   6) = (   2.8188314   1.6274531  12.3015662  )
         7           Pd1 tau(   7) = (   7.0470784   4.0686326  12.3015662  )
         8           Pd1 tau(   8) = (   4.2282471   4.0686326  12.3015662  )
         9           Pd1 tau(   9) = (   0.0000000   0.0000000  14.6031324  )
        10           Pd1 tau(  10) = (   2.8188314   0.0000000  14.6031324  )
        11           Pd1 tau(  11) = (   1.4094157   2.4411796  14.6031324  )
        12           Pd1 tau(  12) = (   4.2282471   2.4411796  14.6031324  )
        13           O1  tau(  13) = (   1.4094157   0.0000000  16.1406324  )
        14           H1  tau(  14) = (   1.4094157   0.0000000  17.0906324  )

     number of k points=    20  Fermi-Dirac smearing, width (Ry)=  0.0110
                       cart. coord. in units 2pi/alat
        k(    1) = (   0.0000000   0.0000000   0.0000000), wk =   0.0555556
        k(    2) = (   0.0000000   0.0341365   0.0000000), wk =   0.1111111
        k(    3) = (   0.0000000   0.0682730   0.0000000), wk =   0.1111111
        k(    4) = (   0.0000000  -0.1024095   0.0000000), wk =   0.0555556
        k(    5) = (   0.0295631  -0.0170683   0.0000000), wk =   0.1111111
        k(    6) = (   0.0295631   0.0170683   0.0000000), wk =   0.1111111
        k(    7) = (   0.0295631   0.0512048   0.0000000), wk =   0.1111111
        k(    8) = (   0.0295631  -0.1194778   0.0000000), wk =   0.1111111
        k(    9) = (   0.0295631  -0.0853413   0.0000000), wk =   0.1111111
        k(   10) = (   0.0295631  -0.0512048   0.0000000), wk =   0.1111111
        k(   11) = (   0.0591262  -0.0341365   0.0000000), wk =   0.1111111
        k(   12) = (   0.0591262  -0.0000000   0.0000000), wk =   0.1111111
        k(   13) = (   0.0591262   0.0341365   0.0000000), wk =   0.1111111
        k(   14) = (   0.0591262  -0.1365460   0.0000000), wk =   0.1111111
        k(   15) = (   0.0591262  -0.1024095   0.0000000), wk =   0.1111111
        k(   16) = (   0.0591262  -0.0682730   0.0000000), wk =   0.1111111
        k(   17) = (  -0.0886892   0.0512048   0.0000000), wk =   0.0555556
        k(   18) = (  -0.0886892   0.0853413   0.0000000), wk =   0.1111111
        k(   19) = (  -0.0886892   0.1194778   0.0000000), wk =   0.1111111
        k(   20) = (  -0.0886892  -0.0512048   0.0000000), wk =   0.0555556

     Dense  grid:   543535 G-vectors     FFT dimensions: (  72,  72, 288)

     Smooth grid:   137813 G-vectors     FFT dimensions: (  45,  45, 180)

     Largest allocated arrays     est. size (Mb)     dimensions
        Kohn-Sham Wavefunctions         3.65 Mb     (    2194,  109)
        NL pseudopotentials             7.73 Mb     (    2194,  231)
        Each V/rho on FFT grid          2.85 Mb     (  186624)
        Each G-vector array             0.52 Mb     (   67930)
        G-vector shells                 0.13 Mb     (   17595)
     Largest temporary arrays     est. size (Mb)     dimensions
        Auxiliary wavefunctions        14.60 Mb     (    2194,  436)
        Each subspace H/S matrix        2.90 Mb     (     436,  436)
        Each <psi_i|beta_j> matrix      0.38 Mb     (     231,  109)
        Arrays for rho mixing          28.48 Mb     (  186624,   10)

     Initial potential from superposition of free atoms
     Check: negative starting charge=   -0.904177

     starting charge  192.99991, renormalised to  199.00000

     negative rho (up, down):  9.323E-01 0.000E+00


     ************************************************************************
     *
     * You are using vdW-DF for exchange-correlation in this calculation.
     * Please cite the following three references that made this development
     * possible:
     *
     *   M. Dion, H. Rydberg, E. Schroder, D. C. Langreth, and
     *   B. I. Lundqvist, Phys. Rev. Lett. 92, 246401 (2004).
     *
     *   T. Thonhauser, V. R. Cooper, S. Li, A. Puzder, P. Hyldgaard, and
     *   D. C. Langreth, Phys. Rev. B 76, 125112 (2007).
     *
     *   G. Roman-Perez and J. M. Soler, Phys. Rev. Lett. 103, 096102 (2009).
     *
     *
     * If you are using vdW-DF2, please also cite:
     *
     *   K. Lee, E. D. Murray, L. Kong, B. I. Lundqvist, and
     *   D. C. Langreth, Phys. Rev. B 82, 081101(R) (2010).
     *
     *
     * If you are calculating the stress with vdW-DF, please also cite:
     *
     *   R. Sabatini, E. Kucukbenli, B. Kolb, T. Thonhauser, and
     *   S. de Gironcoli, J. Phys.: Condens. Matter 24, 424209 (2012).
     *
     ************************************************************************

     Carrying out vdW-DF run using the following parameters:

     Nqs =      20    Nr_points =    1024   r_max =   100.000
     q_mesh =
               0.00001000     0.04494208     0.09755937     0.15916263
               0.23128650     0.31572767     0.41458969     0.53033537
               0.66584808     0.82450364     1.01025438     1.22772762
               1.48234092     1.78043706     2.12944203     2.53805004
               3.01644009     3.57652955     4.23227104     5.00000000

     Gradients computed in reciprocal space

     ************************************************************************


 
     Adding external electric field

     Computed dipole along edir(3) : 
        Dipole               -1.6345 Ry au,         -4.1545 Debye
        Dipole field         -0.0045 Ry au
 
        Potential amp.        0.4075 Ry
        Total length         45.3309 bohr
 
     Starting wfc are  149 randomized atomic wfcs

     total cpu time spent up to now is       12.9 secs

     per-process dynamical memory:    85.8 Mb

     Self-consistent Calculation

     iteration #  1     ecut=    36.75 Ry     beta=0.30
     Davidson diagonalization with overlap
     ethr =  1.00E-02,  avg # of iterations =  4.5

     negative rho (up, down):  9.264E-01 0.000E+00
 
     Adding external electric field

     Computed dipole along edir(3) : 
        Dipole               31.7409 Ry au,         80.6772 Debye
        Dipole field          0.0873 Ry au
 
        Potential amp.       -7.9129 Ry
        Total length         45.3309 bohr
 

     total cpu time spent up to now is       34.8 secs

     total energy              =   -2368.92079414 Ry
     Harris-Foulkes estimate   =   -2433.37376076 Ry
     estimated scf accuracy    <     135.77664493 Ry

     iteration #  2     ecut=    36.75 Ry     beta=0.30
     Davidson diagonalization with overlap
     ethr =  1.00E-02,  avg # of iterations = 15.4

     negative rho (up, down):  9.205E-01 0.000E+00
 
     Adding external electric field

     Computed dipole along edir(3) : 
        Dipole                1.4708 Ry au,          3.7383 Debye
        Dipole field          0.0040 Ry au
 
        Potential amp.       -0.3667 Ry
        Total length         45.3309 bohr
 

     total cpu time spent up to now is       83.3 secs

     total energy              =   -2231.75833058 Ry
     Harris-Foulkes estimate   =   -2784.40421937 Ry
     estimated scf accuracy    <   15528.36119641 Ry

     iteration #  3     ecut=    36.75 Ry     beta=0.30
     Davidson diagonalization with overlap
     ethr =  1.00E-02,  avg # of iterations =  8.4

     negative rho (up, down):  9.286E-01 0.000E+00
 
     Adding external electric field

     Computed dipole along edir(3) : 
        Dipole                3.5058 Ry au,          8.9108 Debye
        Dipole field          0.0096 Ry au
 
        Potential amp.       -0.8740 Ry
        Total length         45.3309 bohr
 

     total cpu time spent up to now is      124.0 secs

     total energy              =   -2404.21326085 Ry
     Harris-Foulkes estimate   =   -2498.48656489 Ry
     estimated scf accuracy    <    1463.65786375 Ry

     iteration #  4     ecut=    36.75 Ry     beta=0.30
     Davidson diagonalization with overlap
     ethr =  1.00E-02,  avg # of iterations =  6.0

     negative rho (up, down):  9.320E-01 0.000E+00
 
     Adding external electric field

     Computed dipole along edir(3) : 
        Dipole                3.9455 Ry au,         10.0284 Debye
        Dipole field          0.0108 Ry au
 
        Potential amp.       -0.9836 Ry
        Total length         45.3309 bohr
 

     total cpu time spent up to now is      153.2 secs

     total energy              =   -2429.00061658 Ry
     Harris-Foulkes estimate   =   -2434.89837609 Ry
     estimated scf accuracy    <      30.08263750 Ry

     iteration #  5     ecut=    36.75 Ry     beta=0.30
     Davidson diagonalization with overlap
     ethr =  1.00E-02,  avg # of iterations =  2.0

     negative rho (up, down):  9.333E-01 0.000E+00
 
     Adding external electric field

     Computed dipole along edir(3) : 
        Dipole                2.2942 Ry au,          5.8312 Debye
        Dipole field          0.0063 Ry au
 
        Potential amp.       -0.5719 Ry
        Total length         45.3309 bohr
 

     total cpu time spent up to now is      171.8 secs

     total energy              =   -2430.54240906 Ry
     Harris-Foulkes estimate   =   -2433.12269086 Ry
     estimated scf accuracy    <      36.32520520 Ry

     iteration #  6     ecut=    36.75 Ry     beta=0.30
     Davidson diagonalization with overlap
     ethr =  1.00E-02,  avg # of iterations =  1.6

     negative rho (up, down):  9.343E-01 0.000E+00
 
     Adding external electric field

     Computed dipole along edir(3) : 
        Dipole                1.1715 Ry au,          2.9776 Debye
        Dipole field          0.0032 Ry au
 
        Potential amp.       -0.2920 Ry
        Total length         45.3309 bohr
 

     total cpu time spent up to now is      189.8 secs

     total energy              =   -2431.14497182 Ry
     Harris-Foulkes estimate   =   -2431.37565777 Ry
     estimated scf accuracy    <       1.53229856 Ry

     iteration #  7     ecut=    36.75 Ry     beta=0.30
     Davidson diagonalization with overlap
     ethr =  7.70E-04,  avg # of iterations =  2.8

     negative rho (up, down):  9.349E-01 0.000E+00
 
     Adding external electric field

     Computed dipole along edir(3) : 
        Dipole                0.8720 Ry au,          2.2164 Debye
        Dipole field          0.0024 Ry au
 
        Potential amp.       -0.2174 Ry
        Total length         45.3309 bohr
 

     total cpu time spent up to now is      209.2 secs

     total energy              =   -2431.10880337 Ry
     Harris-Foulkes estimate   =   -2431.28091860 Ry
     estimated scf accuracy    <       2.37712889 Ry

     iteration #  8     ecut=    36.75 Ry     beta=0.30
     Davidson diagonalization with overlap
     ethr =  7.70E-04,  avg # of iterations =  1.0

     negative rho (up, down):  9.359E-01 0.000E+00
 
     Adding external electric field

     Computed dipole along edir(3) : 
        Dipole                0.4789 Ry au,          1.2172 Debye
        Dipole field          0.0013 Ry au
 
        Potential amp.       -0.1194 Ry
        Total length         45.3309 bohr
 

     total cpu time spent up to now is      227.0 secs

     total energy              =   -2431.14687315 Ry
     Harris-Foulkes estimate   =   -2431.19106067 Ry
     estimated scf accuracy    <       0.18521048 Ry

     iteration #  9     ecut=    36.75 Ry     beta=0.30
     Davidson diagonalization with overlap
     ethr =  9.31E-05,  avg # of iterations =  3.9

     negative rho (up, down):  9.370E-01 0.000E+00
 
     Adding external electric field

     Computed dipole along edir(3) : 
        Dipole                0.0894 Ry au,          0.2272 Debye
        Dipole field          0.0002 Ry au
 
        Potential amp.       -0.0223 Ry
        Total length         45.3309 bohr
 

     total cpu time spent up to now is      246.8 secs

     total energy              =   -2431.12807208 Ry
     Harris-Foulkes estimate   =   -2431.16565396 Ry
     estimated scf accuracy    <       0.32559906 Ry

     iteration # 10     ecut=    36.75 Ry     beta=0.30
     Davidson diagonalization with overlap
     ethr =  9.31E-05,  avg # of iterations =  1.1

     negative rho (up, down):  9.377E-01 0.000E+00
 
     Adding external electric field

     Computed dipole along edir(3) : 
        Dipole               -0.1005 Ry au,         -0.2556 Debye
        Dipole field         -0.0003 Ry au
 
        Potential amp.        0.0251 Ry
        Total length         45.3309 bohr
 

     total cpu time spent up to now is      264.9 secs

     total energy              =   -2431.12206917 Ry
     Harris-Foulkes estimate   =   -2431.16019282 Ry
     estimated scf accuracy    <       0.92209688 Ry

     iteration # 11     ecut=    36.75 Ry     beta=0.30
     Davidson diagonalization with overlap
     ethr =  9.31E-05,  avg # of iterations =  2.2

     negative rho (up, down):  9.381E-01 0.000E+00
 
     Adding external electric field

     Computed dipole along edir(3) : 
        Dipole               -0.1588 Ry au,         -0.4036 Debye
        Dipole field         -0.0004 Ry au
 
        Potential amp.        0.0396 Ry
        Total length         45.3309 bohr
 

     total cpu time spent up to now is      283.7 secs

     total energy              =   -2431.13282240 Ry
     Harris-Foulkes estimate   =   -2431.14419371 Ry
     estimated scf accuracy    <       0.12264884 Ry

     iteration # 12     ecut=    36.75 Ry     beta=0.30
     Davidson diagonalization with overlap
     ethr =  6.16E-05,  avg # of iterations =  1.9

     negative rho (up, down):  9.388E-01 0.000E+00
 
     Adding external electric field

     Computed dipole along edir(3) : 
        Dipole               -0.2424 Ry au,         -0.6160 Debye
        Dipole field         -0.0007 Ry au
 
        Potential amp.        0.0604 Ry
        Total length         45.3309 bohr
 

     total cpu time spent up to now is      302.5 secs

     total energy              =   -2431.13148254 Ry
     Harris-Foulkes estimate   =   -2431.13931920 Ry
     estimated scf accuracy    <       0.10890619 Ry

     iteration # 13     ecut=    36.75 Ry     beta=0.30
     Davidson diagonalization with overlap
     ethr =  5.47E-05,  avg # of iterations =  2.7

     negative rho (up, down):  9.391E-01 0.000E+00
 
     Adding external electric field

     Computed dipole along edir(3) : 
        Dipole               -0.0389 Ry au,         -0.0990 Debye
        Dipole field         -0.0001 Ry au
 
        Potential amp.        0.0097 Ry
        Total length         45.3309 bohr
 

     total cpu time spent up to now is      321.8 secs

     total energy              =   -2431.13184429 Ry
     Harris-Foulkes estimate   =   -2431.13581298 Ry
     estimated scf accuracy    <       0.04762727 Ry

     iteration # 14     ecut=    36.75 Ry     beta=0.30
     Davidson diagonalization with overlap
     ethr =  2.39E-05,  avg # of iterations =  5.3

     negative rho (up, down):  9.395E-01 0.000E+00
 
     Adding external electric field

     Computed dipole along edir(3) : 
        Dipole                0.0187 Ry au,          0.0475 Debye
        Dipole field          0.0001 Ry au
 
        Potential amp.       -0.0047 Ry
        Total length         45.3309 bohr
 

     total cpu time spent up to now is      342.5 secs

     total energy              =   -2431.13203989 Ry
     Harris-Foulkes estimate   =   -2431.13432426 Ry
     estimated scf accuracy    <       0.03655571 Ry

     iteration # 15     ecut=    36.75 Ry     beta=0.30
     Davidson diagonalization with overlap
     ethr =  1.84E-05,  avg # of iterations =  1.0

     negative rho (up, down):  9.396E-01 0.000E+00
 
     Adding external electric field

     Computed dipole along edir(3) : 
        Dipole                0.0794 Ry au,          0.2017 Debye
        Dipole field          0.0002 Ry au
 
        Potential amp.       -0.0198 Ry
        Total length         45.3309 bohr
 

     total cpu time spent up to now is      360.6 secs

     total energy              =   -2431.13245747 Ry
     Harris-Foulkes estimate   =   -2431.13408094 Ry
     estimated scf accuracy    <       0.04348807 Ry

     iteration # 16     ecut=    36.75 Ry     beta=0.30
     Davidson diagonalization with overlap
     ethr =  1.84E-05,  avg # of iterations =  1.0

     negative rho (up, down):  9.401E-01 0.000E+00
 
     Adding external electric field

     Computed dipole along edir(3) : 
        Dipole                0.1970 Ry au,          0.5007 Debye
        Dipole field          0.0005 Ry au
 
        Potential amp.       -0.0491 Ry
        Total length         45.3309 bohr
 

     total cpu time spent up to now is      378.7 secs

     total energy              =   -2431.13320885 Ry
     Harris-Foulkes estimate   =   -2431.13338600 Ry
     estimated scf accuracy    <       0.00247893 Ry

     iteration # 17     ecut=    36.75 Ry     beta=0.30
     Davidson diagonalization with overlap
     ethr =  1.25E-06,  avg # of iterations =  4.5

     negative rho (up, down):  9.407E-01 0.000E+00
 
     Adding external electric field

     Computed dipole along edir(3) : 
        Dipole                0.2603 Ry au,          0.6617 Debye
        Dipole field          0.0007 Ry au
 
        Potential amp.       -0.0649 Ry
        Total length         45.3309 bohr
 

     total cpu time spent up to now is      398.5 secs

     total energy              =   -2431.13341476 Ry
     Harris-Foulkes estimate   =   -2431.13329788 Ry
     estimated scf accuracy    <       0.00023608 Ry

     iteration # 18     ecut=    36.75 Ry     beta=0.30
     Davidson diagonalization with overlap
     ethr =  1.19E-07,  avg # of iterations =  3.4

     negative rho (up, down):  9.410E-01 0.000E+00
 
     Adding external electric field

     Computed dipole along edir(3) : 
        Dipole                0.2648 Ry au,          0.6730 Debye
        Dipole field          0.0007 Ry au
 
        Potential amp.       -0.0660 Ry
        Total length         45.3309 bohr
 

     total cpu time spent up to now is      418.7 secs

     total energy              =   -2431.13341961 Ry
     Harris-Foulkes estimate   =   -2431.13345338 Ry
     estimated scf accuracy    <       0.00030293 Ry

     iteration # 19     ecut=    36.75 Ry     beta=0.30
     Davidson diagonalization with overlap
     ethr =  1.19E-07,  avg # of iterations =  1.2

     negative rho (up, down):  9.412E-01 0.000E+00
 
     Adding external electric field

     Computed dipole along edir(3) : 
        Dipole                0.2711 Ry au,          0.6890 Debye
        Dipole field          0.0007 Ry au
 
        Potential amp.       -0.0676 Ry
        Total length         45.3309 bohr
 

     total cpu time spent up to now is      437.1 secs

     total energy              =   -2431.13343833 Ry
     Harris-Foulkes estimate   =   -2431.13343758 Ry
     estimated scf accuracy    <       0.00005781 Ry

     iteration # 20     ecut=    36.75 Ry     beta=0.30
     Davidson diagonalization with overlap
     ethr =  2.91E-08,  avg # of iterations =  1.2

     negative rho (up, down):  9.415E-01 0.000E+00
 
     Adding external electric field

     Computed dipole along edir(3) : 
        Dipole                0.2754 Ry au,          0.6999 Debye
        Dipole field          0.0008 Ry au
 
        Potential amp.       -0.0686 Ry
        Total length         45.3309 bohr
 

     total cpu time spent up to now is      455.4 secs

     total energy              =   -2431.13343940 Ry
     Harris-Foulkes estimate   =   -2431.13343921 Ry
     estimated scf accuracy    <       0.00002577 Ry

     iteration # 21     ecut=    36.75 Ry     beta=0.30
     Davidson diagonalization with overlap
     ethr =  1.30E-08,  avg # of iterations =  2.0

     negative rho (up, down):  9.416E-01 0.000E+00
 
     Adding external electric field

     Computed dipole along edir(3) : 
        Dipole                0.2794 Ry au,          0.7101 Debye
        Dipole field          0.0008 Ry au
 
        Potential amp.       -0.0696 Ry
        Total length         45.3309 bohr
 

     total cpu time spent up to now is      474.0 secs

     total energy              =   -2431.13344042 Ry
     Harris-Foulkes estimate   =   -2431.13343676 Ry
     estimated scf accuracy    <       0.00001101 Ry

     iteration # 22     ecut=    36.75 Ry     beta=0.30
     Davidson diagonalization with overlap
     ethr =  5.53E-09,  avg # of iterations =  2.0

     negative rho (up, down):  9.417E-01 0.000E+00

     negative rho (up, down):  9.417E-01 0.000E+00

     negative rho (up, down):  9.417E-01 0.000E+00

     negative rho (up, down):  9.417E-01 0.000E+00

     negative rho (up, down):  9.417E-01 0.000E+00

     negative rho (up, down):  9.417E-01 0.000E+00

     negative rho (up, down):  9.417E-01 0.000E+00

     negative rho (up, down):  9.417E-01 0.000E+00

     negative rho (up, down):  9.417E-01 0.000E+00

     negative rho (up, down):  9.417E-01 0.000E+00

     negative rho (up, down):  9.417E-01 0.000E+00

     negative rho (up, down):  9.417E-01 0.000E+00

     negative rho (up, down):  9.417E-01 0.000E+00

     negative rho (up, down):  9.417E-01 0.000E+00

     negative rho (up, down):  9.417E-01 0.000E+00

     negative rho (up, down):  9.417E-01 0.000E+00

     negative rho (up, down):  9.417E-01 0.000E+00

     negative rho (up, down):  9.417E-01 0.000E+00

     negative rho (up, down):  9.417E-01 0.000E+00

     negative rho (up, down):  9.417E-01 0.000E+00

     negative rho (up, down):  9.417E-01 0.000E+00

     negative rho (up, down):  9.417E-01 0.000E+00

     negative rho (up, down):  9.417E-01 0.000E+00

     negative rho (up, down):  9.417E-01 0.000E+00

     negative rho (up, down):  9.417E-01 0.000E+00

     negative rho (up, down):  9.417E-01 0.000E+00

     negative rho (up, down):  9.417E-01 0.000E+00

     negative rho (up, down):  9.417E-01 0.000E+00

     negative rho (up, down):  9.417E-01 0.000E+00

     negative rho (up, down):  9.417E-01 0.000E+00

     negative rho (up, down):  9.417E-01 0.000E+00

     negative rho (up, down):  9.417E-01 0.000E+00

     negative rho (up, down):  9.417E-01 0.000E+00

     negative rho (up, down):  9.417E-01 0.000E+00

     negative rho (up, down):  9.417E-01 0.000E+00
 
     Adding external electric field

     Computed dipole along edir(3) : 
        Dipole                0.2841 Ry au,          0.7221 Debye
        Dipole field          0.0008 Ry au
 
        Potential amp.       -0.0708 Ry
        Total length         45.3309 bohr
 

     total cpu time spent up to now is      541.2 secs

     End of self-consistent calculation

          k = 0.0000 0.0000 0.0000 ( 17231 PWs)   bands (ev):

   -48.7204 -48.6245 -48.5645 -48.5452 -48.5280 -48.5140 -48.4936 -48.4859
   -48.4626 -48.3960 -48.3956 -48.3800 -48.3699 -48.3504 -48.3497 -48.3279
   -48.2854 -48.2833 -48.2727 -48.2670 -48.2552 -48.1726 -48.1084 -48.1044
   -48.0931 -48.0799 -48.0654 -48.0448 -48.0410 -48.0332 -47.9773 -47.9554
   -47.9374 -47.9336 -47.9304 -47.9209 -18.3749  -6.8026  -4.2797  -3.3476
    -3.3171  -3.1129  -3.0552  -3.0248  -3.0204  -2.9419  -2.7969  -2.7332
    -2.7201  -2.6847  -2.6148  -2.5542  -2.4804  -2.3805  -1.9768  -1.5705
    -1.3912  -1.3248  -1.2480  -1.2279  -1.1462  -1.0502  -1.0449  -0.9235
    -0.8877  -0.8208  -0.7801  -0.7388  -0.7354  -0.7270  -0.7223  -0.5300
    -0.1183  -0.0684  -0.0325   0.1780   0.2832   0.3095   0.3108   0.4056
     0.5339   0.6588   0.6738   0.7120   0.7516   1.0403   1.0517   1.0870
     1.1341   1.1625   1.1667   1.2260   1.2946   1.3424   1.3542   1.4014
     1.4740   1.5321   1.5850   1.5927   1.5942   1.6404   1.8835   3.0831
     3.6675   3.7991   3.9645   4.7981   4.9029

          k = 0.0000 0.0341 0.0000 ( 17192 PWs)   bands (ev):

   -48.7185 -48.6224 -48.5520 -48.5402 -48.5228 -48.5045 -48.4883 -48.4804
   -48.4613 -48.3960 -48.3956 -48.3818 -48.3793 -48.3522 -48.3500 -48.3263
   -48.2991 -48.2867 -48.2621 -48.2613 -48.2456 -48.1770 -48.1174 -48.1023
   -48.0993 -48.0845 -48.0717 -48.0564 -48.0486 -48.0338 -47.9761 -47.9548
   -47.9385 -47.9334 -47.9303 -47.9210 -18.3746  -6.7926  -4.0827  -3.2930
    -3.2536  -2.9670  -2.9319  -2.8821  -2.8802  -2.8162  -2.7103  -2.6395
    -2.6216  -2.5984  -2.5428  -2.4381  -2.3198  -2.3022  -1.9189  -1.5505
    -1.3972  -1.3033  -1.2139  -1.1909  -1.1690  -1.1236  -1.0210  -0.9288
    -0.9037  -0.8650  -0.8065  -0.7879  -0.7176  -0.6795  -0.6139  -0.5618
    -0.2439  -0.1679  -0.1550   0.0656   0.1895   0.2419   0.2549   0.3242
     0.4154   0.4614   0.5720   0.6465   0.7281   0.9111   0.9274   0.9399
     0.9725   0.9997   1.0119   1.1446   1.1467   1.1766   1.1991   1.2109
     1.2916   1.3255   1.3675   1.4242   1.4350   1.5780   2.2703   2.5466
     3.5615   3.7037   3.7475   3.9726   4.7472

          k = 0.0000 0.0683 0.0000 ( 17196 PWs)   bands (ev):

   -48.7147 -48.6187 -48.5280 -48.5253 -48.5085 -48.4833 -48.4725 -48.4682
   -48.4588 -48.4036 -48.3968 -48.3957 -48.3908 -48.3546 -48.3529 -48.3294
   -48.3221 -48.2958 -48.2464 -48.2381 -48.2131 -48.1861 -48.1397 -48.1197
   -48.0987 -48.0966 -48.0905 -48.0817 -48.0586 -48.0349 -47.9737 -47.9535
   -47.9410 -47.9332 -47.9302 -47.9211 -18.3741  -6.7735  -3.5528  -3.2587
    -3.0195  -2.7961  -2.6198  -2.5915  -2.5392  -2.4907  -2.4137  -2.3800
    -2.3413  -2.3412  -2.3041  -2.1760  -2.0874  -1.8881  -1.7441  -1.5522
    -1.5150  -1.4502  -1.3360  -1.2516  -1.1218  -1.0629  -1.0548  -0.9963
    -0.9721  -0.8670  -0.7820  -0.6907  -0.6372  -0.5853  -0.5736  -0.5360
    -0.5152  -0.4539  -0.2814  -0.1994  -0.1157   0.0191   0.0604   0.0895
     0.1000   0.1461   0.2116   0.2890   0.3052   0.4185   0.5467   0.5698
     0.5956   0.6901   0.7163   0.8248   0.8377   0.8915   0.9592   0.9941
     1.1175   1.1740   1.2459   1.2459   1.3419   1.4174   1.5348   2.3958
     2.9963   3.8356   3.9644   4.5638   4.7660

          k = 0.0000-0.1024 0.0000 ( 17240 PWs)   bands (ev):

   -48.7128 -48.6170 -48.5203 -48.5180 -48.4816 -48.4726 -48.4663 -48.4614
   -48.4602 -48.4144 -48.3998 -48.3962 -48.3930 -48.3763 -48.3517 -48.3383
   -48.3178 -48.3029 -48.2366 -48.2221 -48.1907 -48.1758 -48.1489 -48.1454
   -48.1310 -48.1052 -48.0857 -48.0814 -48.0678 -48.0355 -47.9725 -47.9526
   -47.9425 -47.9331 -47.9301 -47.9212 -18.3739  -6.7644  -3.2463  -2.9860
    -2.9517  -2.8562  -2.4809  -2.4283  -2.3327  -2.3196  -2.2168  -2.1935
    -2.1292  -2.0528  -1.9747  -1.9555  -1.8534  -1.8273  -1.7180  -1.6654
    -1.4266  -1.4201  -1.3367  -1.3235  -1.2853  -1.2817  -1.1229  -1.0371
    -0.8468  -0.7929  -0.7725  -0.7141  -0.6489  -0.6088  -0.5580  -0.5116
    -0.4828  -0.4719  -0.4546  -0.4226  -0.3618  -0.3486  -0.1293  -0.1052
    -0.0615   0.0084   0.0169   0.1069   0.1481   0.2514   0.2731   0.3135
     0.3332   0.3860   0.4537   0.5287   0.6255   0.7182   0.7964   0.8572
     1.1080   1.1571   1.2368   1.3566   1.4050   1.5251   1.5831   1.7302
     3.7456   3.8067   3.8803   4.1908   5.0916

          k = 0.0296-0.0171 0.0000 ( 17192 PWs)   bands (ev):

   -48.7118 -48.6268 -48.5560 -48.5386 -48.5230 -48.5030 -48.4907 -48.4830
   -48.4595 -48.3976 -48.3942 -48.3878 -48.3716 -48.3573 -48.3449 -48.3335
   -48.2977 -48.2875 -48.2644 -48.2573 -48.2467 -48.1656 -48.1137 -48.1120
   -48.0935 -48.0822 -48.0682 -48.0595 -48.0456 -48.0441 -47.9759 -47.9554
   -47.9372 -47.9332 -47.9311 -47.9214 -18.3744  -6.7777  -4.0919  -3.3285
    -3.2596  -2.9662  -2.9194  -2.8837  -2.8805  -2.8201  -2.7003  -2.6707
    -2.6249  -2.5905  -2.5293  -2.4519  -2.3552  -2.2484  -1.9470  -1.5455
    -1.3764  -1.2893  -1.2172  -1.1868  -1.1686  -1.1246  -1.0574  -0.9434
    -0.9184  -0.8256  -0.8056  -0.7783  -0.7151  -0.7011  -0.6133  -0.5495
    -0.2672  -0.1866  -0.1022   0.1389   0.2189   0.2388   0.2686   0.2898
     0.3989   0.4579   0.5778   0.6548   0.6980   0.8929   0.9287   0.9483
     0.9767   1.0091   1.0475   1.0990   1.1519   1.1736   1.1806   1.2264
     1.2664   1.3313   1.3872   1.4200   1.4326   1.5291   2.2416   2.6021
     3.5812   3.6445   3.8447   3.9521   4.7666

          k = 0.0296 0.0171 0.0000 ( 17192 PWs)   bands (ev):

   -48.7118 -48.6268 -48.5560 -48.5386 -48.5230 -48.5030 -48.4907 -48.4830
   -48.4595 -48.3975 -48.3942 -48.3878 -48.3715 -48.3573 -48.3449 -48.3335
   -48.2978 -48.2875 -48.2644 -48.2573 -48.2468 -48.1656 -48.1137 -48.1120
   -48.0936 -48.0822 -48.0682 -48.0595 -48.0456 -48.0441 -47.9759 -47.9554
   -47.9372 -47.9332 -47.9311 -47.9214 -18.3744  -6.7777  -4.0919  -3.3285
    -3.2596  -2.9663  -2.9194  -2.8837  -2.8805  -2.8201  -2.7003  -2.6707
    -2.6249  -2.5904  -2.5293  -2.4518  -2.3552  -2.2484  -1.9470  -1.5455
    -1.3764  -1.2893  -1.2171  -1.1868  -1.1687  -1.1246  -1.0574  -0.9434
    -0.9184  -0.8256  -0.8056  -0.7783  -0.7151  -0.7011  -0.6133  -0.5495
    -0.2672  -0.1866  -0.1022   0.1388   0.2189   0.2388   0.2687   0.2898
     0.3989   0.4579   0.5779   0.6548   0.6980   0.8929   0.9287   0.9483
     0.9767   1.0091   1.0475   1.0990   1.1519   1.1735   1.1806   1.2264
     1.2664   1.3313   1.3872   1.4200   1.4326   1.5291   2.2416   2.6021
     3.5812   3.6445   3.8447   3.9521   4.7666

          k = 0.0296 0.0512 0.0000 ( 17186 PWs)   bands (ev):

   -48.7088 -48.6245 -48.5377 -48.5267 -48.5138 -48.4874 -48.4804 -48.4746
   -48.4569 -48.4057 -48.3975 -48.3939 -48.3760 -48.3608 -48.3461 -48.3317
   -48.3201 -48.2937 -48.2517 -48.2388 -48.2282 -48.1728 -48.1381 -48.1051
   -48.0992 -48.0901 -48.0844 -48.0771 -48.0555 -48.0445 -47.9741 -47.9545
   -47.9391 -47.9330 -47.9308 -47.9215 -18.3740  -6.7632  -3.7325  -3.2931
    -3.0947  -2.7508  -2.7264  -2.6621  -2.6158  -2.5773  -2.5382  -2.4902
    -2.4439  -2.4089  -2.3647  -2.2550  -2.1112  -2.0598  -1.8299  -1.5458
    -1.4332  -1.3636  -1.2999  -1.2605  -1.1779  -1.0944  -1.0728  -0.9972
    -0.8853  -0.8278  -0.7864  -0.7440  -0.6867  -0.6634  -0.6164  -0.4860
    -0.3911  -0.3567  -0.3412  -0.1005   0.0099   0.0941   0.1372   0.1723
     0.2198   0.2989   0.3524   0.3877   0.4237   0.4597   0.5514   0.6730
     0.7179   0.7444   0.7762   0.8690   0.9517   1.0344   1.0569   1.1142
     1.1526   1.1938   1.2550   1.3012   1.3242   1.4496   2.2363   2.2766
     2.8249   3.2577   3.5886   4.3121   5.2714

          k = 0.0296-0.1195 0.0000 ( 17183 PWs)   bands (ev):

   -48.7057 -48.6224 -48.5198 -48.5153 -48.4909 -48.4743 -48.4664 -48.4602
   -48.4567 -48.4227 -48.4000 -48.3993 -48.3883 -48.3670 -48.3541 -48.3358
   -48.3241 -48.3055 -48.2338 -48.2147 -48.1917 -48.1801 -48.1667 -48.1322
   -48.1094 -48.1012 -48.0901 -48.0833 -48.0698 -48.0452 -47.9723 -47.9533
   -47.9414 -47.9328 -47.9306 -47.9215 -18.3736  -6.7493  -3.3216  -3.0845
    -2.8750  -2.6751  -2.4370  -2.3633  -2.3448  -2.3048  -2.2692  -2.1994
    -2.1516  -2.1234  -2.0244  -1.9451  -1.8725  -1.7888  -1.7100  -1.6771
    -1.5209  -1.4592  -1.3990  -1.3151  -1.2434  -1.2025  -1.1350  -1.0896
    -0.9642  -0.8908  -0.8463  -0.7889  -0.7379  -0.7211  -0.6577  -0.5708
    -0.5291  -0.5067  -0.3718  -0.3308  -0.2996  -0.2596  -0.2273  -0.0885
    -0.0370   0.0193   0.1127   0.1596   0.1945   0.2695   0.3693   0.3854
     0.4527   0.5057   0.6234   0.6780   0.7932   0.8561   0.9172   1.0188
     1.0958   1.1372   1.1669   1.2371   1.2725   1.3835   1.5326   2.1414
     2.4019   3.3886   3.6859   4.6313   5.2765

          k = 0.0296-0.0853 0.0000 ( 17183 PWs)   bands (ev):

   -48.7057 -48.6224 -48.5198 -48.5153 -48.4909 -48.4743 -48.4664 -48.4602
   -48.4568 -48.4228 -48.3999 -48.3992 -48.3882 -48.3670 -48.3542 -48.3358
   -48.3241 -48.3055 -48.2338 -48.2147 -48.1917 -48.1801 -48.1667 -48.1322
   -48.1094 -48.1012 -48.0901 -48.0833 -48.0698 -48.0452 -47.9723 -47.9533
   -47.9414 -47.9328 -47.9306 -47.9215 -18.3736  -6.7493  -3.3216  -3.0845
    -2.8750  -2.6751  -2.4370  -2.3633  -2.3448  -2.3048  -2.2692  -2.1993
    -2.1516  -2.1234  -2.0244  -1.9451  -1.8725  -1.7888  -1.7100  -1.6771
    -1.5209  -1.4592  -1.3990  -1.3151  -1.2434  -1.2025  -1.1350  -1.0896
    -0.9642  -0.8908  -0.8463  -0.7889  -0.7379  -0.7211  -0.6577  -0.5708
    -0.5291  -0.5067  -0.3718  -0.3308  -0.2996  -0.2596  -0.2273  -0.0885
    -0.0370   0.0194   0.1127   0.1596   0.1945   0.2695   0.3693   0.3854
     0.4527   0.5057   0.6234   0.6781   0.7932   0.8561   0.9172   1.0188
     1.0958   1.1372   1.1669   1.2371   1.2725   1.3835   1.5326   2.1414
     2.4019   3.3886   3.6859   4.6313   5.2765

          k = 0.0296-0.0512 0.0000 ( 17186 PWs)   bands (ev):

   -48.7088 -48.6245 -48.5377 -48.5267 -48.5138 -48.4874 -48.4804 -48.4746
   -48.4569 -48.4058 -48.3975 -48.3939 -48.3759 -48.3607 -48.3462 -48.3317
   -48.3201 -48.2938 -48.2517 -48.2388 -48.2282 -48.1728 -48.1382 -48.1051
   -48.0992 -48.0901 -48.0844 -48.0771 -48.0556 -48.0445 -47.9741 -47.9545
   -47.9391 -47.9330 -47.9308 -47.9215 -18.3740  -6.7632  -3.7325  -3.2931
    -3.0947  -2.7508  -2.7264  -2.6622  -2.6158  -2.5773  -2.5382  -2.4902
    -2.4439  -2.4089  -2.3647  -2.2550  -2.1112  -2.0598  -1.8299  -1.5459
    -1.4332  -1.3636  -1.2999  -1.2605  -1.1778  -1.0943  -1.0728  -0.9972
    -0.8853  -0.8278  -0.7864  -0.7440  -0.6867  -0.6634  -0.6164  -0.4860
    -0.3911  -0.3566  -0.3412  -0.1005   0.0099   0.0941   0.1372   0.1723
     0.2198   0.2989   0.3524   0.3877   0.4237   0.4597   0.5514   0.6730
     0.7179   0.7444   0.7762   0.8690   0.9517   1.0344   1.0569   1.1142
     1.1526   1.1938   1.2550   1.3012   1.3242   1.4496   2.2363   2.2766
     2.8249   3.2577   3.5886   4.3121   5.2714

          k = 0.0591-0.0341 0.0000 ( 17196 PWs)   bands (ev):

   -48.6896 -48.6386 -48.5384 -48.5181 -48.5095 -48.4863 -48.4780 -48.4742
   -48.4500 -48.4133 -48.4018 -48.3888 -48.3810 -48.3598 -48.3497 -48.3427
   -48.3283 -48.2940 -48.2460 -48.2344 -48.2149 -48.1451 -48.1352 -48.1298
   -48.1009 -48.0874 -48.0857 -48.0774 -48.0688 -48.0560 -47.9731 -47.9555
   -47.9366 -47.9334 -47.9316 -47.9224 -18.3733  -6.7279  -3.6492  -3.2925
    -3.0627  -2.7785  -2.5943  -2.5816  -2.5473  -2.4649  -2.4217  -2.3860
    -2.3689  -2.3439  -2.3192  -2.2047  -2.0575  -1.8890  -1.8032  -1.5658
    -1.4975  -1.3988  -1.3105  -1.2468  -1.1477  -1.0918  -1.0358  -1.0195
    -0.9399  -0.8793  -0.7440  -0.6856  -0.6399  -0.6073  -0.5916  -0.5548
    -0.5132  -0.3798  -0.2576  -0.1327  -0.0425   0.0146   0.0518   0.0783
     0.1175   0.1635   0.1927   0.2515   0.3739   0.4063   0.4883   0.5823
     0.6150   0.6757   0.7052   0.7938   0.8285   0.8803   0.9311   0.9559
     1.0804   1.1778   1.2116   1.2465   1.3689   1.4156   1.5159   2.4891
     3.1089   3.8851   3.9016   4.5963   4.8390

          k = 0.0591-0.0000 0.0000 ( 17186 PWs)   bands (ev):

   -48.6910 -48.6388 -48.5434 -48.5237 -48.5147 -48.4895 -48.4822 -48.4785
   -48.4519 -48.4108 -48.3996 -48.3895 -48.3675 -48.3664 -48.3537 -48.3377
   -48.3183 -48.2944 -48.2515 -48.2353 -48.2305 -48.1414 -48.1399 -48.1070
   -48.0961 -48.0876 -48.0852 -48.0738 -48.0698 -48.0527 -47.9737 -47.9557
   -47.9357 -47.9337 -47.9317 -47.9224 -18.3735  -6.7328  -3.7751  -3.3199
    -3.1253  -2.7513  -2.7187  -2.6543  -2.6163  -2.5704  -2.5456  -2.4632
    -2.4564  -2.4336  -2.3675  -2.2763  -2.1656  -1.9592  -1.8891  -1.5462
    -1.4352  -1.3410  -1.3013  -1.2278  -1.1426  -1.1135  -1.0857  -1.0443
    -0.9091  -0.8065  -0.7768  -0.7306  -0.6806  -0.6532  -0.6269  -0.5134
    -0.4381  -0.3378  -0.2785  -0.0453   0.0111   0.1239   0.1363   0.1801
     0.2586   0.2964   0.3211   0.3837   0.4264   0.4418   0.5625   0.6810
     0.6952   0.7488   0.8091   0.8894   0.9024   0.9634   1.0580   1.1016
     1.1504   1.2020   1.2468   1.2923   1.4109   1.4357   2.1925   2.2740
     2.9077   3.1718   3.6465   4.3571   5.3055

          k = 0.0591 0.0341 0.0000 ( 17196 PWs)   bands (ev):

   -48.6896 -48.6386 -48.5385 -48.5180 -48.5095 -48.4863 -48.4780 -48.4741
   -48.4500 -48.4133 -48.4018 -48.3887 -48.3809 -48.3598 -48.3499 -48.3427
   -48.3284 -48.2939 -48.2461 -48.2343 -48.2149 -48.1451 -48.1353 -48.1297
   -48.1009 -48.0874 -48.0857 -48.0774 -48.0688 -48.0560 -47.9731 -47.9555
   -47.9366 -47.9334 -47.9316 -47.9224 -18.3733  -6.7279  -3.6492  -3.2925
    -3.0627  -2.7785  -2.5943  -2.5816  -2.5473  -2.4649  -2.4217  -2.3860
    -2.3689  -2.3439  -2.3192  -2.2047  -2.0575  -1.8890  -1.8032  -1.5658
    -1.4975  -1.3988  -1.3105  -1.2468  -1.1477  -1.0918  -1.0358  -1.0195
    -0.9399  -0.8793  -0.7440  -0.6856  -0.6399  -0.6073  -0.5916  -0.5548
    -0.5132  -0.3798  -0.2576  -0.1327  -0.0425   0.0146   0.0519   0.0783
     0.1175   0.1635   0.1927   0.2515   0.3739   0.4063   0.4883   0.5823
     0.6150   0.6757   0.7052   0.7938   0.8285   0.8803   0.9311   0.9559
     1.0805   1.1778   1.2116   1.2465   1.3689   1.4157   1.5159   2.4891
     3.1089   3.8851   3.9016   4.5963   4.8390

          k = 0.0591-0.1365 0.0000 ( 17183 PWs)   bands (ev):

   -48.6869 -48.6383 -48.5243 -48.5110 -48.4945 -48.4784 -48.4710 -48.4645
   -48.4443 -48.4257 -48.4090 -48.3928 -48.3811 -48.3707 -48.3511 -48.3465
   -48.3315 -48.3022 -48.2326 -48.2125 -48.1926 -48.1670 -48.1506 -48.1364
   -48.1127 -48.0939 -48.0858 -48.0795 -48.0705 -48.0686 -47.9718 -47.9548
   -47.9386 -47.9328 -47.9315 -47.9224 -18.3731  -6.7186  -3.4521  -3.0578
    -2.9023  -2.6392  -2.4038  -2.3872  -2.3455  -2.3161  -2.2621  -2.1863
    -2.1527  -2.1462  -2.0295  -1.9612  -1.8542  -1.7980  -1.7249  -1.6715
    -1.5145  -1.4768  -1.3974  -1.3162  -1.2617  -1.1960  -1.1253  -1.0932
    -0.9493  -0.8654  -0.8265  -0.8065  -0.7491  -0.6955  -0.6421  -0.6042
    -0.4956  -0.4454  -0.3782  -0.3317  -0.2862  -0.2428  -0.2150  -0.1220
    -0.0347   0.0367   0.0817   0.1625   0.2062   0.2656   0.3593   0.3759
     0.4384   0.4938   0.6288   0.6756   0.7977   0.8357   0.9055   1.0350
     1.0700   1.1351   1.1601   1.1973   1.2773   1.3320   1.5952   2.2567
     2.4227   3.3296   3.7353   4.6856   5.3126

          k = 0.0591-0.1024 0.0000 ( 17208 PWs)   bands (ev):

   -48.6855 -48.6381 -48.5128 -48.5035 -48.4948 -48.4782 -48.4671 -48.4541
   -48.4321 -48.4290 -48.4216 -48.4052 -48.3866 -48.3713 -48.3530 -48.3397
   -48.3293 -48.3131 -48.2106 -48.2043 -48.1805 -48.1764 -48.1689 -48.1531
   -48.0977 -48.0929 -48.0924 -48.0847 -48.0800 -48.0719 -47.9712 -47.9543
   -47.9397 -47.9325 -47.9313 -47.9225 -18.3730  -6.7142  -3.4046  -2.8374
    -2.5908  -2.5803  -2.4580  -2.1329  -2.1188  -2.1034  -2.0862  -2.0764
    -2.0195  -2.0060  -1.9555  -1.9292  -1.9033  -1.8808  -1.8582  -1.5667
    -1.5215  -1.3928  -1.3604  -1.3538  -1.3007  -1.2696  -1.2607  -1.1149
    -1.0329  -1.0162  -1.0054  -0.9840  -0.9675  -0.9284  -0.6620  -0.6521
    -0.6213  -0.5734  -0.5250  -0.4951  -0.4775  -0.4554  -0.2631  -0.1510
    -0.0197   0.0762   0.1773   0.1982   0.2526   0.3162   0.3954   0.4231
     0.5068   0.6543   0.7685   0.7744   0.8368   0.8971   0.9578   0.9829
     1.0436   1.0855   1.1083   1.1632   1.1863   1.1934   1.2726   2.0197
     2.1050   2.5503   4.3101   4.5517   4.8181

          k = 0.0591-0.0683 0.0000 ( 17183 PWs)   bands (ev):

   -48.6869 -48.6383 -48.5242 -48.5111 -48.4945 -48.4785 -48.4710 -48.4646
   -48.4444 -48.4258 -48.4090 -48.3927 -48.3812 -48.3706 -48.3511 -48.3465
   -48.3314 -48.3024 -48.2325 -48.2126 -48.1926 -48.1670 -48.1506 -48.1364
   -48.1127 -48.0939 -48.0858 -48.0795 -48.0705 -48.0686 -47.9718 -47.9548
   -47.9385 -47.9328 -47.9314 -47.9224 -18.3731  -6.7186  -3.4521  -3.0578
    -2.9023  -2.6391  -2.4037  -2.3872  -2.3456  -2.3161  -2.2622  -2.1863
    -2.1527  -2.1462  -2.0295  -1.9612  -1.8541  -1.7980  -1.7249  -1.6715
    -1.5145  -1.4768  -1.3974  -1.3162  -1.2617  -1.1960  -1.1253  -1.0932
    -0.9494  -0.8654  -0.8265  -0.8065  -0.7491  -0.6954  -0.6421  -0.6042
    -0.4956  -0.4454  -0.3782  -0.3317  -0.2862  -0.2427  -0.2150  -0.1220
    -0.0347   0.0367   0.0817   0.1625   0.2062   0.2657   0.3593   0.3759
     0.4384   0.4938   0.6288   0.6756   0.7977   0.8357   0.9056   1.0350
     1.0701   1.1351   1.1600   1.1973   1.2773   1.3320   1.5952   2.2567
     2.4227   3.3296   3.7353   4.6856   5.3126

          k =-0.0887 0.0512 0.0000 ( 17240 PWs)   bands (ev):

   -48.6649 -48.6590 -48.5290 -48.5090 -48.4924 -48.4765 -48.4749 -48.4701
   -48.4393 -48.4226 -48.4016 -48.3958 -48.3825 -48.3760 -48.3568 -48.3504
   -48.3329 -48.2978 -48.2340 -48.2201 -48.1700 -48.1578 -48.1420 -48.1414
   -48.1179 -48.1074 -48.0874 -48.0761 -48.0748 -48.0663 -47.9715 -47.9556
   -47.9359 -47.9346 -47.9312 -47.9230 -18.3728  -6.7030  -3.5074  -2.9821
    -2.9536  -2.7950  -2.4830  -2.3777  -2.3624  -2.3212  -2.2419  -2.1925
    -2.1255  -2.0277  -2.0017  -1.9801  -1.8682  -1.7871  -1.7522  -1.6668
    -1.4440  -1.4204  -1.3757  -1.3425  -1.2951  -1.2794  -1.0676  -1.0039
    -0.8236  -0.7573  -0.7364  -0.6708  -0.6614  -0.5911  -0.5390  -0.5085
    -0.4959  -0.4590  -0.4312  -0.4107  -0.3816  -0.3372  -0.1205  -0.0971
    -0.0669  -0.0197   0.0381   0.1498   0.1960   0.2141   0.2549   0.2772
     0.3450   0.3703   0.3944   0.5092   0.6684   0.6810   0.7828   0.8612
     1.1204   1.1742   1.2060   1.2392   1.3863   1.4109   1.6560   1.9704
     3.7865   3.8969   4.0456   4.0827   5.0655

          k =-0.0887 0.0853 0.0000 ( 17183 PWs)   bands (ev):

   -48.6650 -48.6588 -48.5249 -48.5092 -48.4980 -48.4834 -48.4737 -48.4584
   -48.4391 -48.4307 -48.4076 -48.3912 -48.3823 -48.3735 -48.3581 -48.3429
   -48.3323 -48.3025 -48.2320 -48.2120 -48.1910 -48.1701 -48.1359 -48.1171
   -48.1132 -48.1054 -48.0901 -48.0868 -48.0748 -48.0668 -47.9716 -47.9555
   -47.9366 -47.9340 -47.9312 -47.9230 -18.3728  -6.7031  -3.5056  -3.0179
    -2.9397  -2.6394  -2.4000  -2.3722  -2.3497  -2.3168  -2.2628  -2.1858
    -2.1679  -2.1294  -2.0396  -1.9850  -1.8609  -1.8231  -1.6934  -1.6730
    -1.5233  -1.4438  -1.4075  -1.3327  -1.2334  -1.2091  -1.1221  -1.0830
    -0.9442  -0.8622  -0.8173  -0.7966  -0.7478  -0.7120  -0.6436  -0.6030
    -0.5146  -0.4834  -0.3998  -0.3062  -0.2956  -0.2434  -0.2121  -0.0862
    -0.0070   0.0280   0.0842   0.1458   0.1950   0.2767   0.3641   0.4018
     0.4539   0.5266   0.6179   0.6606   0.8026   0.8364   0.9097   1.0264
     1.0770   1.1123   1.1550   1.1878   1.2752   1.3358   1.6713   2.1929
     2.3877   3.3555   3.7840   4.6304   5.3262

          k =-0.0887 0.1195 0.0000 ( 17183 PWs)   bands (ev):

   -48.6650 -48.6588 -48.5250 -48.5091 -48.4980 -48.4834 -48.4737 -48.4583
   -48.4391 -48.4307 -48.4077 -48.3911 -48.3822 -48.3735 -48.3582 -48.3430
   -48.3323 -48.3024 -48.2321 -48.2120 -48.1910 -48.1701 -48.1359 -48.1171
   -48.1132 -48.1054 -48.0901 -48.0868 -48.0748 -48.0668 -47.9716 -47.9555
   -47.9367 -47.9340 -47.9312 -47.9230 -18.3728  -6.7031  -3.5056  -3.0178
    -2.9397  -2.6394  -2.4000  -2.3722  -2.3497  -2.3168  -2.2628  -2.1858
    -2.1679  -2.1294  -2.0396  -1.9850  -1.8609  -1.8232  -1.6934  -1.6730
    -1.5233  -1.4438  -1.4075  -1.3327  -1.2334  -1.2091  -1.1221  -1.0830
    -0.9442  -0.8622  -0.8173  -0.7966  -0.7478  -0.7120  -0.6435  -0.6030
    -0.5146  -0.4834  -0.3998  -0.3061  -0.2956  -0.2435  -0.2121  -0.0862
    -0.0070   0.0280   0.0842   0.1458   0.1949   0.2767   0.3641   0.4018
     0.4539   0.5265   0.6179   0.6606   0.8026   0.8364   0.9097   1.0265
     1.0769   1.1124   1.1550   1.1878   1.2753   1.3358   1.6713   2.1929
     2.3877   3.3555   3.7840   4.6304   5.3263

          k =-0.0887-0.0512 0.0000 ( 17240 PWs)   bands (ev):

   -48.6650 -48.6590 -48.5291 -48.5090 -48.4925 -48.4764 -48.4748 -48.4701
   -48.4393 -48.4226 -48.4019 -48.3956 -48.3823 -48.3763 -48.3568 -48.3506
   -48.3329 -48.2976 -48.2341 -48.2200 -48.1700 -48.1578 -48.1420 -48.1415
   -48.1179 -48.1074 -48.0874 -48.0761 -48.0748 -48.0663 -47.9715 -47.9556
   -47.9360 -47.9345 -47.9312 -47.9230 -18.3728  -6.7030  -3.5074  -2.9821
    -2.9536  -2.7951  -2.4830  -2.3777  -2.3624  -2.3212  -2.2419  -2.1925
    -2.1256  -2.0277  -2.0017  -1.9801  -1.8683  -1.7870  -1.7522  -1.6668
    -1.4440  -1.4204  -1.3756  -1.3425  -1.2951  -1.2794  -1.0677  -1.0039
    -0.8236  -0.7573  -0.7364  -0.6708  -0.6614  -0.5911  -0.5391  -0.5084
    -0.4958  -0.4590  -0.4312  -0.4106  -0.3816  -0.3372  -0.1205  -0.0971
    -0.0668  -0.0197   0.0380   0.1498   0.1960   0.2141   0.2549   0.2771
     0.3450   0.3703   0.3944   0.5092   0.6684   0.6810   0.7828   0.8611
     1.1205   1.1741   1.2061   1.2392   1.3863   1.4110   1.6560   1.9704
     3.7865   3.8969   4.0456   4.0827   5.0655

     the Fermi energy is     1.3715 ev

!    total energy              =   -2431.13343976 Ry
     Harris-Foulkes estimate   =   -2431.13343422 Ry
     estimated scf accuracy    <       0.00000133 Ry

     The total energy is the sum of the following terms:

     one-electron contribution =  -20773.53133228 Ry
     hartree contribution      =   10441.69743581 Ry
     xc contribution           =    -398.54153328 Ry
     ewald contribution        =    8299.36415231 Ry
     electric field correction =       0.00022192 Ry
     smearing contrib. (-TS)   =      -0.12238426 Ry

     convergence has been achieved in  22 iterations
 
 BEEF-vdW xc energy contributions
           1 :   -346.826019065972     
           2 :    316.588477689993     
           3 :   -265.130993683334     
           4 :    206.412469407883     
           5 :   -153.813777188848     
           6 :    115.751652695498     
           7 :   -93.9240978436355     
           8 :    84.4150354277502     
           9 :   -80.7353165125887     
          10 :    77.1751363065779     
          11 :   -70.9679414303779     
          12 :    62.5461106462047     
          13 :   -54.2043709575682     
          14 :    48.1908835325476     
          15 :   -45.3356339456734     
          16 :    44.8054312057382     
          17 :   -44.8572657397781     
          18 :    43.9589246179034     
          19 :   -41.5833476691527     
          20 :    38.2863084987940     
          21 :   -35.1541483018172     
          22 :    33.0483352420891     
          23 :   -32.1186210861194     
          24 :    31.8205306715058     
          25 :   -31.3493718053418     
          26 :    30.1690279424084     
          27 :   -28.3041872610889     
          28 :    26.2496344241914     
          29 :   -24.5991367758137     
          30 :    23.6512078055753     
          31 :   -33.8852431746739     
          32 :   -24.9607000300792     

     Forces acting on atoms (Ry/au):


     negative rho (up, down):  9.417E-01 0.000E+00
     atom    1 type  1   force =    -0.00000760    0.00021109    0.00110730
     atom    2 type  1   force =     0.00000954   -0.00028599    0.00152624
     atom    3 type  1   force =    -0.00032013   -0.00004728   -0.00052208
     atom    4 type  1   force =     0.00032141   -0.00005994   -0.00052015
     atom    5 type  1   force =    -0.00202052   -0.00010042   -0.00182528
     atom    6 type  1   force =     0.00202160   -0.00009715   -0.00182991
     atom    7 type  1   force =     0.00000133    0.00524675    0.01582642
     atom    8 type  1   force =     0.00000107   -0.00097941   -0.01003567
     atom    9 type  1   force =    -0.03158421   -0.00508265   -0.01364315
     atom   10 type  1   force =     0.03158583   -0.00509670   -0.01363286
     atom   11 type  1   force =    -0.00000855    0.00820471   -0.00509771
     atom   12 type  1   force =     0.00001153   -0.00469019   -0.00476631
     atom   13 type  2   force =    -0.00001168    0.00150755   -0.01584114
     atom   14 type  3   force =     0.00000037    0.00126964    0.04925430

     Total force =     0.072373     Total SCF correction =     0.001881


     entering subroutine stress ...


     negative rho (up, down):  9.417E-01 0.000E+00
          total   stress  (Ry/bohr**3)                   (kbar)     P=   -5.10
  -0.00004965   0.00000000   0.00000001         -7.30      0.00      0.00
   0.00000000  -0.00007283  -0.00000125          0.00    -10.71     -0.18
   0.00000001  -0.00000125   0.00001851          0.00     -0.18      2.72


     BFGS Geometry Optimization

     number of scf cycles    =   1
     number of bfgs steps    =   0

     energy   new            =   -2431.1334397571 Ry

     new trust radius        =       0.0492706589 bohr
     new conv_thr            =       0.0000099958 Ry


ATOMIC_POSITIONS (crystal)
Pd1      0.166666667   0.166666667   0.406452311    0   0   0
Pd1      0.666666667   0.166666667   0.406452311    0   0   0
Pd1      0.166666667   0.666666667   0.406452311    0   0   0
Pd1      0.666666667   0.666666667   0.406452311    0   0   0
Pd1      0.833333333   0.333333333   0.500000000    0   0   0
Pd1      0.333333333   0.333333333   0.500000000    0   0   0
Pd1      0.833333333   0.833333333   0.500000000    0   0   0
Pd1      0.333333333   0.833333333   0.500000000    0   0   0
Pd1     -0.002689197  -0.000550886   0.593254245
Pd1      0.503240997  -0.000552409   0.593254466
Pd1     -0.000445438   0.500889272   0.593438045
Pd1      0.500255256   0.499491651   0.593445173
O1       0.249917205   0.000163397   0.655699012
H1       0.249931229   0.000137610   0.695712089



     Writing output data file calc.save
     Check: negative starting charge=   -0.904177
     NEW-OLD atomic charge density approx. for the potential
     Check: negative starting charge=   -0.904090

     negative rho (up, down):  9.417E-01 0.000E+00
 
     Adding external electric field

     Computed dipole along edir(3) : 
        Dipole                0.2655 Ry au,          0.6749 Debye
        Dipole field          0.0007 Ry au
 
        Potential amp.       -0.0662 Ry
        Total length         45.3309 bohr
 

     total cpu time spent up to now is      613.9 secs

     per-process dynamical memory:   111.0 Mb

     Self-consistent Calculation

     iteration #  1     ecut=    36.75 Ry     beta=0.30
     Davidson diagonalization with overlap
     ethr =  1.00E-06,  avg # of iterations =  4.0

     negative rho (up, down):  9.417E-01 0.000E+00
 
     Adding external electric field

     Computed dipole along edir(3) : 
        Dipole                0.6101 Ry au,          1.5506 Debye
        Dipole field          0.0017 Ry au
 
        Potential amp.       -0.1521 Ry
        Total length         45.3309 bohr
 

     total cpu time spent up to now is      646.3 secs

     total energy              =   -2431.12678518 Ry
     Harris-Foulkes estimate   =   -2431.13577143 Ry
     estimated scf accuracy    <       0.01985498 Ry

     iteration #  2     ecut=    36.75 Ry     beta=0.30
     Davidson diagonalization with overlap
     ethr =  9.98E-06,  avg # of iterations =  5.3

     negative rho (up, down):  9.417E-01 0.000E+00
 
     Adding external electric field

     Computed dipole along edir(3) : 
        Dipole                0.2875 Ry au,          0.7308 Debye
        Dipole field          0.0008 Ry au
 
        Potential amp.       -0.0717 Ry
        Total length         45.3309 bohr
 

     total cpu time spent up to now is      671.9 secs

     total energy              =   -2431.05278614 Ry
     Harris-Foulkes estimate   =   -2431.23955405 Ry
     estimated scf accuracy    <       6.86026987 Ry

     iteration #  3     ecut=    36.75 Ry     beta=0.30
     Davidson diagonalization with overlap
     ethr =  9.98E-06,  avg # of iterations =  4.7

     negative rho (up, down):  9.418E-01 0.000E+00
 
     Adding external electric field

     Computed dipole along edir(3) : 
        Dipole                0.2889 Ry au,          0.7342 Debye
        Dipole field          0.0008 Ry au
 
        Potential amp.       -0.0720 Ry
        Total length         45.3309 bohr
 

     total cpu time spent up to now is      696.1 secs

     total energy              =   -2431.13237420 Ry
     Harris-Foulkes estimate   =   -2431.13924874 Ry
     estimated scf accuracy    <       0.07272066 Ry

     iteration #  4     ecut=    36.75 Ry     beta=0.30
     Davidson diagonalization with overlap
     ethr =  9.98E-06,  avg # of iterations =  2.4

     negative rho (up, down):  9.418E-01 0.000E+00
 
     Adding external electric field

     Computed dipole along edir(3) : 
        Dipole                0.2814 Ry au,          0.7152 Debye
        Dipole field          0.0008 Ry au
 
        Potential amp.       -0.0701 Ry
        Total length         45.3309 bohr
 

     total cpu time spent up to now is      716.5 secs

     total energy              =   -2431.13580627 Ry
     Harris-Foulkes estimate   =   -2431.13605162 Ry
     estimated scf accuracy    <       0.00123001 Ry

     iteration #  5     ecut=    36.75 Ry     beta=0.30
     Davidson diagonalization with overlap
     ethr =  6.18E-07,  avg # of iterations =  3.0

     negative rho (up, down):  9.418E-01 0.000E+00
 
     Adding external electric field

     Computed dipole along edir(3) : 
        Dipole                0.2808 Ry au,          0.7138 Debye
        Dipole field          0.0008 Ry au
 
        Potential amp.       -0.0700 Ry
        Total length         45.3309 bohr
 

     total cpu time spent up to now is      737.3 secs

     total energy              =   -2431.13590395 Ry
     Harris-Foulkes estimate   =   -2431.13596246 Ry
     estimated scf accuracy    <       0.00041366 Ry

     iteration #  6     ecut=    36.75 Ry     beta=0.30
     Davidson diagonalization with overlap
     ethr =  2.08E-07,  avg # of iterations =  1.2

     negative rho (up, down):  9.418E-01 0.000E+00
 
     Adding external electric field

     Computed dipole along edir(3) : 
        Dipole                0.2822 Ry au,          0.7173 Debye
        Dipole field          0.0008 Ry au
 
        Potential amp.       -0.0704 Ry
        Total length         45.3309 bohr
 

     total cpu time spent up to now is      757.1 secs

     total energy              =   -2431.13591922 Ry
     Harris-Foulkes estimate   =   -2431.13594873 Ry
     estimated scf accuracy    <       0.00019541 Ry

     iteration #  7     ecut=    36.75 Ry     beta=0.30
     Davidson diagonalization with overlap
     ethr =  9.82E-08,  avg # of iterations =  2.0

     negative rho (up, down):  9.418E-01 0.000E+00
 
     Adding external electric field

     Computed dipole along edir(3) : 
        Dipole                0.2826 Ry au,          0.7184 Debye
        Dipole field          0.0008 Ry au
 
        Potential amp.       -0.0705 Ry
        Total length         45.3309 bohr
 

     total cpu time spent up to now is      777.2 secs

     total energy              =   -2431.13592839 Ry
     Harris-Foulkes estimate   =   -2431.13594032 Ry
     estimated scf accuracy    <       0.00016079 Ry

     iteration #  8     ecut=    36.75 Ry     beta=0.30
     Davidson diagonalization with overlap
     ethr =  8.08E-08,  avg # of iterations =  1.0

     negative rho (up, down):  9.418E-01 0.000E+00
 
     Adding external electric field

     Computed dipole along edir(3) : 
        Dipole                0.2827 Ry au,          0.7185 Debye
        Dipole field          0.0008 Ry au
 
        Potential amp.       -0.0705 Ry
        Total length         45.3309 bohr
 

     total cpu time spent up to now is      796.7 secs

     total energy              =   -2431.13593459 Ry
     Harris-Foulkes estimate   =   -2431.13593819 Ry
     estimated scf accuracy    <       0.00006116 Ry

     iteration #  9     ecut=    36.75 Ry     beta=0.30
     Davidson diagonalization with overlap
     ethr =  3.07E-08,  avg # of iterations =  1.0

     negative rho (up, down):  9.419E-01 0.000E+00

     negative rho (up, down):  9.419E-01 0.000E+00

     negative rho (up, down):  9.419E-01 0.000E+00

     negative rho (up, down):  9.419E-01 0.000E+00

     negative rho (up, down):  9.419E-01 0.000E+00

     negative rho (up, down):  9.419E-01 0.000E+00

     negative rho (up, down):  9.419E-01 0.000E+00

     negative rho (up, down):  9.419E-01 0.000E+00

     negative rho (up, down):  9.419E-01 0.000E+00

     negative rho (up, down):  9.419E-01 0.000E+00

     negative rho (up, down):  9.419E-01 0.000E+00

     negative rho (up, down):  9.419E-01 0.000E+00

     negative rho (up, down):  9.419E-01 0.000E+00

     negative rho (up, down):  9.419E-01 0.000E+00

     negative rho (up, down):  9.419E-01 0.000E+00

     negative rho (up, down):  9.419E-01 0.000E+00

     negative rho (up, down):  9.419E-01 0.000E+00

     negative rho (up, down):  9.419E-01 0.000E+00

     negative rho (up, down):  9.419E-01 0.000E+00

     negative rho (up, down):  9.419E-01 0.000E+00

     negative rho (up, down):  9.419E-01 0.000E+00

     negative rho (up, down):  9.419E-01 0.000E+00

     negative rho (up, down):  9.419E-01 0.000E+00

     negative rho (up, down):  9.419E-01 0.000E+00

     negative rho (up, down):  9.419E-01 0.000E+00

     negative rho (up, down):  9.419E-01 0.000E+00

     negative rho (up, down):  9.419E-01 0.000E+00

     negative rho (up, down):  9.419E-01 0.000E+00

     negative rho (up, down):  9.419E-01 0.000E+00

     negative rho (up, down):  9.419E-01 0.000E+00

     negative rho (up, down):  9.419E-01 0.000E+00

     negative rho (up, down):  9.419E-01 0.000E+00

     negative rho (up, down):  9.419E-01 0.000E+00

     negative rho (up, down):  9.419E-01 0.000E+00

     negative rho (up, down):  9.419E-01 0.000E+00
 
     Adding external electric field

     Computed dipole along edir(3) : 
        Dipole                0.2781 Ry au,          0.7068 Debye
        Dipole field          0.0008 Ry au
 
        Potential amp.       -0.0693 Ry
        Total length         45.3309 bohr
 

     total cpu time spent up to now is      865.1 secs

     End of self-consistent calculation

          k = 0.0000 0.0000 0.0000 ( 17231 PWs)   bands (ev):

   -48.7141 -48.6178 -48.5679 -48.5439 -48.5320 -48.5123 -48.4955 -48.4835
   -48.4590 -48.3952 -48.3943 -48.3806 -48.3712 -48.3462 -48.3460 -48.3241
   -48.2822 -48.2816 -48.2709 -48.2650 -48.2529 -48.1726 -48.1064 -48.1023
   -48.0913 -48.0802 -48.0648 -48.0430 -48.0391 -48.0335 -47.9745 -47.9534
   -47.9355 -47.9342 -47.9279 -47.9207 -18.1184  -6.6087  -4.2794  -3.3241
    -3.2653  -3.1100  -3.0550  -3.0237  -3.0229  -2.9423  -2.7963  -2.7280
    -2.7132  -2.6888  -2.6084  -2.5541  -2.4781  -2.3765  -1.9574  -1.5681
    -1.3968  -1.3143  -1.2458  -1.2394  -1.1430  -1.0508  -1.0466  -0.9236
    -0.8893  -0.8076  -0.7841  -0.7409  -0.7333  -0.7252  -0.7206  -0.5356
    -0.1195  -0.0749  -0.0329   0.1838   0.2821   0.3091   0.3120   0.4096
     0.5341   0.6602   0.6725   0.7125   0.7635   1.0448   1.0542   1.0893
     1.1382   1.1656   1.1695   1.2299   1.2972   1.3421   1.3543   1.4022
     1.4760   1.5327   1.5870   1.5947   1.5967   1.6500   1.8758   3.0852
     3.6687   3.7998   3.9478   4.7611   4.9064

          k = 0.0000 0.0341 0.0000 ( 17192 PWs)   bands (ev):

   -48.7121 -48.6152 -48.5559 -48.5396 -48.5278 -48.5027 -48.4894 -48.4779
   -48.4577 -48.3954 -48.3944 -48.3821 -48.3807 -48.3485 -48.3455 -48.3226
   -48.2956 -48.2851 -48.2603 -48.2593 -48.2435 -48.1771 -48.1154 -48.1000
   -48.0977 -48.0849 -48.0712 -48.0545 -48.0467 -48.0340 -47.9732 -47.9529
   -47.9367 -47.9339 -47.9278 -47.9208 -18.1181  -6.5976  -4.0829  -3.2359
    -3.2268  -2.9663  -2.9313  -2.8855  -2.8794  -2.8156  -2.7082  -2.6351
    -2.6189  -2.6022  -2.5386  -2.4355  -2.3177  -2.2988  -1.9009  -1.5491
    -1.4052  -1.2950  -1.2216  -1.1885  -1.1703  -1.1200  -1.0270  -0.9293
    -0.9008  -0.8684  -0.8074  -0.7866  -0.7137  -0.6779  -0.6113  -0.5612
    -0.2456  -0.1751  -0.1560   0.0707   0.1865   0.2433   0.2563   0.3304
     0.4152   0.4608   0.5749   0.6460   0.7392   0.9153   0.9309   0.9423
     0.9775   1.0027   1.0124   1.1411   1.1483   1.1785   1.2006   1.2136
     1.2928   1.3274   1.3723   1.4260   1.4370   1.5827   2.2647   2.5492
     3.5661   3.7065   3.7505   3.9606   4.7566

          k = 0.0000 0.0683 0.0000 ( 17196 PWs)   bands (ev):

   -48.7081 -48.6104 -48.5324 -48.5290 -48.5125 -48.4815 -48.4728 -48.4656
   -48.4554 -48.4045 -48.3969 -48.3939 -48.3898 -48.3506 -48.3492 -48.3246
   -48.3184 -48.2945 -48.2444 -48.2363 -48.2110 -48.1862 -48.1376 -48.1178
   -48.0981 -48.0956 -48.0885 -48.0814 -48.0568 -48.0351 -47.9707 -47.9516
   -47.9393 -47.9337 -47.9276 -47.9209 -18.1176  -6.5766  -3.5534  -3.1947
    -2.9824  -2.7951  -2.6153  -2.5902  -2.5432  -2.4936  -2.4133  -2.3815
    -2.3421  -2.3413  -2.3042  -2.1692  -2.0845  -1.8867  -1.7367  -1.5526
    -1.5209  -1.4558  -1.3384  -1.2479  -1.1207  -1.0673  -1.0556  -0.9991
    -0.9741  -0.8700  -0.7779  -0.6865  -0.6361  -0.5865  -0.5754  -0.5345
    -0.5152  -0.4605  -0.2759  -0.2002  -0.1209   0.0218   0.0632   0.0959
     0.1021   0.1456   0.2117   0.2961   0.3123   0.4148   0.5520   0.5732
     0.5972   0.6992   0.7171   0.8272   0.8397   0.8939   0.9606   1.0011
     1.1174   1.1765   1.2399   1.2478   1.3496   1.4190   1.5380   2.4002
     2.9934   3.8401   3.9611   4.5596   4.7690

          k = 0.0000-0.1024 0.0000 ( 17240 PWs)   bands (ev):

   -48.7061 -48.6083 -48.5268 -48.5223 -48.4826 -48.4749 -48.4673 -48.4588
   -48.4559 -48.4141 -48.3995 -48.3950 -48.3908 -48.3717 -48.3479 -48.3330
   -48.3138 -48.3022 -48.2346 -48.2204 -48.1908 -48.1731 -48.1473 -48.1436
   -48.1293 -48.1055 -48.0854 -48.0792 -48.0661 -48.0357 -47.9694 -47.9508
   -47.9408 -47.9336 -47.9275 -47.9210 -18.1173  -6.5666  -3.1801  -2.9877
    -2.9499  -2.8049  -2.4754  -2.4255  -2.3377  -2.3230  -2.2241  -2.1944
    -2.1309  -2.0548  -1.9766  -1.9579  -1.8494  -1.8224  -1.7184  -1.6683
    -1.4308  -1.4189  -1.3352  -1.3259  -1.2947  -1.2937  -1.1159  -1.0371
    -0.8507  -0.7855  -0.7751  -0.7181  -0.6500  -0.6077  -0.5550  -0.5127
    -0.4843  -0.4740  -0.4491  -0.4261  -0.3582  -0.3507  -0.1179  -0.1025
    -0.0613   0.0158   0.0244   0.1044   0.1517   0.2531   0.2734   0.3064
     0.3343   0.3882   0.4583   0.5440   0.6333   0.7197   0.7985   0.8599
     1.1078   1.1594   1.2393   1.3643   1.4066   1.5281   1.5927   1.7192
     3.7586   3.8039   3.8851   4.1793   5.1009

          k = 0.0296-0.0171 0.0000 ( 17192 PWs)   bands (ev):

   -48.7056 -48.6190 -48.5595 -48.5391 -48.5271 -48.5014 -48.4917 -48.4810
   -48.4558 -48.3970 -48.3929 -48.3881 -48.3724 -48.3547 -48.3406 -48.3293
   -48.2953 -48.2846 -48.2626 -48.2553 -48.2446 -48.1657 -48.1115 -48.1101
   -48.0917 -48.0825 -48.0677 -48.0577 -48.0444 -48.0436 -47.9730 -47.9534
   -47.9355 -47.9336 -47.9286 -47.9211 -18.1178  -6.5813  -4.0916  -3.2809
    -3.2284  -2.9641  -2.9209  -2.8845  -2.8795  -2.8204  -2.7003  -2.6699
    -2.6209  -2.5911  -2.5238  -2.4500  -2.3528  -2.2446  -1.9306  -1.5453
    -1.3790  -1.2834  -1.2229  -1.1861  -1.1711  -1.1208  -1.0615  -0.9397
    -0.9185  -0.8290  -0.8086  -0.7784  -0.7176  -0.6931  -0.6105  -0.5497
    -0.2673  -0.1880  -0.1075   0.1412   0.2201   0.2403   0.2734   0.2907
     0.3995   0.4595   0.5805   0.6547   0.7027   0.8946   0.9321   0.9507
     0.9808   1.0121   1.0493   1.1010   1.1531   1.1755   1.1856   1.2273
     1.2696   1.3336   1.3901   1.4223   1.4349   1.5330   2.2421   2.5970
     3.5880   3.6420   3.8478   3.9351   4.7446

          k = 0.0296 0.0171 0.0000 ( 17192 PWs)   bands (ev):

   -48.7056 -48.6190 -48.5595 -48.5391 -48.5271 -48.5014 -48.4917 -48.4810
   -48.4558 -48.3970 -48.3929 -48.3881 -48.3724 -48.3547 -48.3406 -48.3293
   -48.2953 -48.2846 -48.2626 -48.2554 -48.2446 -48.1657 -48.1115 -48.1102
   -48.0917 -48.0825 -48.0677 -48.0577 -48.0444 -48.0436 -47.9730 -47.9535
   -47.9355 -47.9336 -47.9286 -47.9211 -18.1178  -6.5813  -4.0916  -3.2809
    -3.2284  -2.9641  -2.9209  -2.8845  -2.8795  -2.8204  -2.7003  -2.6699
    -2.6209  -2.5911  -2.5238  -2.4501  -2.3528  -2.2446  -1.9306  -1.5453
    -1.3790  -1.2834  -1.2229  -1.1861  -1.1710  -1.1208  -1.0615  -0.9397
    -0.9185  -0.8290  -0.8086  -0.7784  -0.7176  -0.6931  -0.6105  -0.5497
    -0.2673  -0.1880  -0.1075   0.1412   0.2201   0.2403   0.2734   0.2907
     0.3995   0.4595   0.5805   0.6547   0.7027   0.8946   0.9320   0.9507
     0.9809   1.0121   1.0493   1.1010   1.1531   1.1755   1.1855   1.2273
     1.2696   1.3336   1.3901   1.4223   1.4349   1.5330   2.2421   2.5970
     3.5880   3.6420   3.8478   3.9351   4.7446

          k = 0.0296 0.0512 0.0000 ( 17186 PWs)   bands (ev):

   -48.7024 -48.6161 -48.5414 -48.5299 -48.5181 -48.4863 -48.4795 -48.4727
   -48.4533 -48.4062 -48.3970 -48.3926 -48.3760 -48.3581 -48.3417 -48.3281
   -48.3161 -48.2915 -48.2497 -48.2369 -48.2262 -48.1729 -48.1361 -48.1031
   -48.0972 -48.0905 -48.0826 -48.0766 -48.0537 -48.0447 -47.9711 -47.9527
   -47.9374 -47.9334 -47.9284 -47.9212 -18.1174  -6.5652  -3.7314  -3.2388
    -3.0583  -2.7504  -2.7282  -2.6627  -2.6153  -2.5780  -2.5364  -2.4881
    -2.4459  -2.4095  -2.3615  -2.2520  -2.1073  -2.0563  -1.8217  -1.5475
    -1.4362  -1.3677  -1.3044  -1.2578  -1.1724  -1.0963  -1.0744  -0.9987
    -0.8879  -0.8300  -0.7841  -0.7463  -0.6854  -0.6635  -0.6151  -0.4856
    -0.3929  -0.3547  -0.3414  -0.0997   0.0079   0.0979   0.1400   0.1739
     0.2228   0.2997   0.3543   0.3913   0.4285   0.4635   0.5554   0.6753
     0.7202   0.7488   0.7791   0.8727   0.9543   1.0377   1.0592   1.1185
     1.1536   1.1938   1.2574   1.3019   1.3222   1.4526   2.2385   2.2802
     2.8235   3.2588   3.5854   4.3064   5.2530

          k = 0.0296-0.1195 0.0000 ( 17183 PWs)   bands (ev):

   -48.6992 -48.6134 -48.5264 -48.5196 -48.4944 -48.4738 -48.4638 -48.4591
   -48.4542 -48.4212 -48.3998 -48.3983 -48.3864 -48.3639 -48.3507 -48.3311
   -48.3197 -48.3040 -48.2317 -48.2128 -48.1895 -48.1802 -48.1649 -48.1303
   -48.1076 -48.1015 -48.0881 -48.0830 -48.0680 -48.0454 -47.9691 -47.9516
   -47.9397 -47.9333 -47.9281 -47.9213 -18.1170  -6.5500  -3.2731  -3.0725
    -2.8241  -2.6729  -2.4323  -2.3675  -2.3483  -2.3069  -2.2693  -2.2040
    -2.1543  -2.1220  -2.0250  -1.9453  -1.8691  -1.7910  -1.7110  -1.6784
    -1.5228  -1.4585  -1.4009  -1.3230  -1.2455  -1.2006  -1.1402  -1.0884
    -0.9611  -0.8925  -0.8522  -0.7882  -0.7346  -0.7231  -0.6604  -0.5652
    -0.5320  -0.5065  -0.3681  -0.3256  -0.3004  -0.2556  -0.2270  -0.0813
    -0.0313   0.0221   0.1146   0.1612   0.1983   0.2685   0.3702   0.3860
     0.4535   0.5139   0.6286   0.6830   0.7946   0.8603   0.9173   1.0185
     1.0991   1.1402   1.1698   1.2431   1.2741   1.3874   1.5316   2.1440
     2.4024   3.3948   3.6818   4.6225   5.2561

          k = 0.0296-0.0853 0.0000 ( 17183 PWs)   bands (ev):

   -48.6992 -48.6134 -48.5264 -48.5196 -48.4945 -48.4738 -48.4638 -48.4591
   -48.4542 -48.4211 -48.3999 -48.3983 -48.3864 -48.3639 -48.3507 -48.3311
   -48.3197 -48.3039 -48.2317 -48.2128 -48.1895 -48.1802 -48.1649 -48.1303
   -48.1076 -48.1015 -48.0881 -48.0830 -48.0680 -48.0454 -47.9691 -47.9516
   -47.9397 -47.9333 -47.9281 -47.9213 -18.1170  -6.5500  -3.2731  -3.0725
    -2.8241  -2.6729  -2.4323  -2.3675  -2.3483  -2.3069  -2.2693  -2.2040
    -2.1543  -2.1220  -2.0249  -1.9453  -1.8692  -1.7910  -1.7110  -1.6784
    -1.5228  -1.4585  -1.4009  -1.3230  -1.2455  -1.2005  -1.1402  -1.0884
    -0.9611  -0.8925  -0.8522  -0.7882  -0.7346  -0.7231  -0.6604  -0.5652
    -0.5320  -0.5065  -0.3681  -0.3256  -0.3004  -0.2556  -0.2270  -0.0813
    -0.0313   0.0221   0.1146   0.1612   0.1982   0.2685   0.3702   0.3860
     0.4535   0.5139   0.6286   0.6830   0.7947   0.8603   0.9173   1.0185
     1.0991   1.1402   1.1698   1.2431   1.2741   1.3874   1.5316   2.1440
     2.4024   3.3948   3.6818   4.6225   5.2561

          k = 0.0296-0.0512 0.0000 ( 17186 PWs)   bands (ev):

   -48.7024 -48.6161 -48.5414 -48.5299 -48.5182 -48.4863 -48.4794 -48.4727
   -48.4533 -48.4062 -48.3970 -48.3926 -48.3761 -48.3581 -48.3417 -48.3281
   -48.3161 -48.2914 -48.2498 -48.2368 -48.2262 -48.1729 -48.1361 -48.1031
   -48.0972 -48.0905 -48.0826 -48.0766 -48.0537 -48.0447 -47.9711 -47.9526
   -47.9374 -47.9334 -47.9284 -47.9212 -18.1174  -6.5652  -3.7314  -3.2388
    -3.0583  -2.7504  -2.7282  -2.6627  -2.6153  -2.5780  -2.5364  -2.4881
    -2.4459  -2.4095  -2.3615  -2.2520  -2.1073  -2.0563  -1.8217  -1.5475
    -1.4362  -1.3677  -1.3044  -1.2578  -1.1724  -1.0963  -1.0744  -0.9987
    -0.8879  -0.8300  -0.7841  -0.7463  -0.6854  -0.6635  -0.6151  -0.4856
    -0.3929  -0.3547  -0.3414  -0.0997   0.0080   0.0979   0.1400   0.1739
     0.2228   0.2997   0.3543   0.3913   0.4285   0.4635   0.5554   0.6753
     0.7202   0.7488   0.7791   0.8727   0.9543   1.0377   1.0592   1.1185
     1.1537   1.1938   1.2574   1.3019   1.3221   1.4526   2.2385   2.2802
     2.8235   3.2588   3.5854   4.3064   5.2530

          k = 0.0591-0.0341 0.0000 ( 17196 PWs)   bands (ev):

   -48.6840 -48.6291 -48.5422 -48.5229 -48.5127 -48.4851 -48.4772 -48.4726
   -48.4460 -48.4126 -48.4021 -48.3871 -48.3795 -48.3589 -48.3490 -48.3378
   -48.3233 -48.2905 -48.2440 -48.2324 -48.2129 -48.1453 -48.1330 -48.1281
   -48.0991 -48.0876 -48.0838 -48.0773 -48.0686 -48.0541 -47.9699 -47.9537
   -47.9354 -47.9325 -47.9302 -47.9220 -18.1166  -6.5263  -3.6404  -3.2558
    -3.0212  -2.7775  -2.5945  -2.5827  -2.5456  -2.4634  -2.4238  -2.3867
    -2.3686  -2.3420  -2.3187  -2.2011  -2.0524  -1.8876  -1.8008  -1.5679
    -1.5004  -1.4050  -1.3081  -1.2500  -1.1404  -1.0958  -1.0357  -1.0201
    -0.9449  -0.8830  -0.7389  -0.6784  -0.6478  -0.6070  -0.5934  -0.5554
    -0.5121  -0.3822  -0.2555  -0.1368  -0.0390   0.0171   0.0579   0.0815
     0.1220   0.1667   0.1957   0.2503   0.3741   0.4113   0.5018   0.5823
     0.6157   0.6793   0.7088   0.7962   0.8323   0.8838   0.9357   0.9588
     1.0867   1.1808   1.2135   1.2476   1.3709   1.4162   1.5152   2.4867
     3.1019   3.8874   3.9008   4.5929   4.8311

          k = 0.0591-0.0000 0.0000 ( 17186 PWs)   bands (ev):

   -48.6853 -48.6293 -48.5471 -48.5267 -48.5189 -48.4891 -48.4801 -48.4777
   -48.4478 -48.4096 -48.4000 -48.3877 -48.3683 -48.3651 -48.3518 -48.3317
   -48.3149 -48.2908 -48.2495 -48.2332 -48.2286 -48.1416 -48.1379 -48.1051
   -48.0941 -48.0859 -48.0855 -48.0739 -48.0693 -48.0508 -47.9706 -47.9539
   -47.9348 -47.9324 -47.9304 -47.9220 -18.1168  -6.5316  -3.7711  -3.2778
    -3.0884  -2.7540  -2.7171  -2.6540  -2.6188  -2.5706  -2.5433  -2.4654
    -2.4600  -2.4234  -2.3642  -2.2731  -2.1636  -1.9569  -1.8813  -1.5493
    -1.4367  -1.3463  -1.3060  -1.2296  -1.1329  -1.1146  -1.0844  -1.0443
    -0.9134  -0.8079  -0.7736  -0.7323  -0.6817  -0.6470  -0.6299  -0.5134
    -0.4379  -0.3412  -0.2777  -0.0513   0.0107   0.1294   0.1386   0.1835
     0.2552   0.3016   0.3270   0.3868   0.4300   0.4461   0.5697   0.6856
     0.6959   0.7532   0.8136   0.8937   0.9036   0.9694   1.0613   1.1056
     1.1511   1.2023   1.2483   1.2961   1.4091   1.4388   2.1940   2.2776
     2.9044   3.1746   3.6318   4.3478   5.3048

          k = 0.0591 0.0341 0.0000 ( 17196 PWs)   bands (ev):

   -48.6840 -48.6291 -48.5422 -48.5230 -48.5127 -48.4851 -48.4772 -48.4726
   -48.4460 -48.4126 -48.4020 -48.3871 -48.3796 -48.3589 -48.3489 -48.3378
   -48.3233 -48.2905 -48.2440 -48.2325 -48.2129 -48.1453 -48.1329 -48.1281
   -48.0991 -48.0876 -48.0838 -48.0773 -48.0686 -48.0541 -47.9699 -47.9537
   -47.9354 -47.9325 -47.9302 -47.9220 -18.1166  -6.5263  -3.6404  -3.2558
    -3.0212  -2.7775  -2.5945  -2.5827  -2.5456  -2.4634  -2.4238  -2.3867
    -2.3686  -2.3420  -2.3187  -2.2011  -2.0524  -1.8876  -1.8008  -1.5679
    -1.5004  -1.4050  -1.3081  -1.2500  -1.1404  -1.0958  -1.0357  -1.0201
    -0.9449  -0.8830  -0.7389  -0.6783  -0.6477  -0.6070  -0.5934  -0.5554
    -0.5121  -0.3822  -0.2555  -0.1368  -0.0390   0.0171   0.0579   0.0815
     0.1220   0.1667   0.1957   0.2503   0.3741   0.4113   0.5018   0.5823
     0.6157   0.6793   0.7088   0.7962   0.8323   0.8838   0.9357   0.9588
     1.0867   1.1808   1.2134   1.2476   1.3710   1.4162   1.5152   2.4867
     3.1019   3.8874   3.9008   4.5929   4.8311

          k = 0.0591-0.1365 0.0000 ( 17183 PWs)   bands (ev):

   -48.6811 -48.6285 -48.5289 -48.5176 -48.4973 -48.4771 -48.4709 -48.4618
   -48.4414 -48.4241 -48.4084 -48.3920 -48.3790 -48.3689 -48.3499 -48.3433
   -48.3253 -48.2989 -48.2304 -48.2106 -48.1905 -48.1652 -48.1508 -48.1345
   -48.1109 -48.0942 -48.0838 -48.0792 -48.0704 -48.0669 -47.9686 -47.9531
   -47.9371 -47.9326 -47.9296 -47.9220 -18.1164  -6.5161  -3.4164  -3.0426
    -2.8507  -2.6362  -2.4040  -2.3945  -2.3433  -2.3167  -2.2595  -2.1907
    -2.1524  -2.1484  -2.0292  -1.9612  -1.8542  -1.8013  -1.7247  -1.6725
    -1.5167  -1.4756  -1.4030  -1.3163  -1.2626  -1.1976  -1.1316  -1.0910
    -0.9490  -0.8705  -0.8287  -0.8086  -0.7469  -0.6985  -0.6403  -0.6057
    -0.4952  -0.4393  -0.3744  -0.3292  -0.2833  -0.2396  -0.2124  -0.1127
    -0.0303   0.0392   0.0833   0.1648   0.2078   0.2696   0.3608   0.3779
     0.4447   0.4923   0.6357   0.6781   0.7990   0.8387   0.9096   1.0368
     1.0742   1.1383   1.1629   1.2028   1.2806   1.3363   1.5892   2.2555
     2.4238   3.3362   3.7251   4.6828   5.2996

          k = 0.0591-0.1024 0.0000 ( 17208 PWs)   bands (ev):

   -48.6797 -48.6282 -48.5209 -48.5074 -48.4995 -48.4753 -48.4672 -48.4493
   -48.4321 -48.4266 -48.4194 -48.4051 -48.3845 -48.3694 -48.3522 -48.3354
   -48.3239 -48.3097 -48.2084 -48.2021 -48.1787 -48.1745 -48.1671 -48.1533
   -48.0980 -48.0909 -48.0906 -48.0829 -48.0796 -48.0720 -47.9679 -47.9527
   -47.9381 -47.9325 -47.9293 -47.9220 -18.1162  -6.5112  -3.3593  -2.7724
    -2.5869  -2.5765  -2.4580  -2.1366  -2.1189  -2.1065  -2.0930  -2.0813
    -2.0294  -2.0039  -1.9592  -1.9339  -1.9012  -1.8794  -1.8597  -1.5673
    -1.5279  -1.3964  -1.3676  -1.3515  -1.3053  -1.2647  -1.2502  -1.1168
    -1.0314  -1.0143  -1.0070  -0.9972  -0.9680  -0.9309  -0.6599  -0.6496
    -0.6182  -0.5602  -0.5263  -0.4922  -0.4756  -0.4608  -0.2519  -0.1399
    -0.0212   0.0810   0.1777   0.2034   0.2562   0.3132   0.3913   0.4255
     0.5129   0.6611   0.7677   0.7753   0.8384   0.9012   0.9560   0.9858
     1.0491   1.0884   1.1117   1.1667   1.1903   1.2005   1.2785   2.0241
     2.1077   2.5394   4.3207   4.5529   4.7867

          k = 0.0591-0.0683 0.0000 ( 17183 PWs)   bands (ev):

   -48.6811 -48.6285 -48.5289 -48.5176 -48.4973 -48.4770 -48.4710 -48.4618
   -48.4414 -48.4241 -48.4084 -48.3920 -48.3789 -48.3690 -48.3500 -48.3433
   -48.3253 -48.2989 -48.2305 -48.2106 -48.1905 -48.1652 -48.1508 -48.1345
[...]
     0.8964   0.9589   1.0115   1.0346   1.1727   1.2142   1.3446   2.2850
     2.8860   3.6542   3.7156   4.4668   4.6662

          k = 0.0591-0.0000 0.0000 ( 17186 PWs)   bands (ev):

   -48.8324 -48.7753 -48.7699 -48.7347 -48.7123 -48.6867 -48.6745 -48.6528
   -48.6313 -48.6122 -48.5987 -48.5831 -48.5825 -48.5604 -48.5313 -48.5160
   -48.5010 -48.4876 -48.4596 -48.4417 -48.4403 -48.3972 -48.3546 -48.3478
   -48.3161 -48.3040 -48.2977 -48.2957 -48.2862 -48.2610 -48.2430 -48.1774
   -48.1657 -48.1410 -48.1386 -48.1335 -18.1751  -6.0445  -3.9555  -3.1866
    -3.0856  -2.9731  -2.9328  -2.8436  -2.8185  -2.7786  -2.7429  -2.6970
    -2.6648  -2.6239  -2.5375  -2.3937  -2.3455  -2.2822  -2.0669  -1.7757
    -1.6455  -1.6359  -1.5168  -1.4860  -1.3715  -1.3238  -1.2738  -1.2518
    -1.0651  -1.0564  -1.0080  -0.9689  -0.8927  -0.8520  -0.8179  -0.7183
    -0.6672  -0.5442  -0.4975  -0.2918  -0.2406  -0.1039  -0.0749  -0.0293
     0.0185   0.0922   0.1262   0.1799   0.2135   0.2390   0.2716   0.4757
     0.4957   0.5250   0.5807   0.6921   0.7241   0.7809   0.8507   0.9105
     0.9476   0.9691   1.0280   1.0912   1.1888   1.2891   2.0001   2.0937
     2.6589   2.9882   3.4476   4.2308   5.0921

          k = 0.0591 0.0341 0.0000 ( 17196 PWs)   bands (ev):

   -48.8307 -48.7759 -48.7606 -48.7323 -48.7104 -48.6805 -48.6690 -48.6502
   -48.6293 -48.6161 -48.5997 -48.5870 -48.5832 -48.5567 -48.5467 -48.5147
   -48.4997 -48.4882 -48.4540 -48.4429 -48.4236 -48.4016 -48.3566 -48.3423
   -48.3392 -48.3095 -48.3007 -48.2938 -48.2866 -48.2643 -48.2429 -48.1769
   -48.1656 -48.1417 -48.1383 -48.1335 -18.1750  -6.0344  -3.8032  -3.1808
    -3.0309  -2.9873  -2.8083  -2.7842  -2.7257  -2.6746  -2.6335  -2.6026
    -2.5925  -2.5544  -2.4793  -2.3730  -2.2834  -2.1087  -1.9959  -1.7732
    -1.7215  -1.6820  -1.5669  -1.4930  -1.3373  -1.3102  -1.2336  -1.2250
    -1.1460  -1.0729  -0.9830  -0.8647  -0.8469  -0.8162  -0.8121  -0.7685
    -0.7378  -0.6342  -0.4657  -0.3641  -0.2887  -0.2032  -0.1563  -0.1267
    -0.1005  -0.0487  -0.0211   0.0202   0.1001   0.1864   0.3043   0.3656
     0.3985   0.4719   0.5257   0.6046   0.6210   0.6464   0.7241   0.7496
     0.8964   0.9589   1.0115   1.0346   1.1727   1.2142   1.3446   2.2850
     2.8860   3.6542   3.7156   4.4668   4.6662

          k = 0.0591-0.1365 0.0000 ( 17183 PWs)   bands (ev):

   -48.8271 -48.7710 -48.7477 -48.7264 -48.7050 -48.6655 -48.6573 -48.6445
   -48.6313 -48.6225 -48.6067 -48.5911 -48.5832 -48.5634 -48.5559 -48.5174
   -48.5041 -48.4879 -48.4409 -48.4214 -48.4106 -48.3986 -48.3754 -48.3641
   -48.3444 -48.3212 -48.3025 -48.2939 -48.2911 -48.2770 -48.2426 -48.1760
   -48.1651 -48.1432 -48.1377 -48.1334 -18.1746  -6.0142  -3.4243  -3.1016
    -2.9101  -2.8236  -2.6285  -2.6040  -2.5356  -2.5221  -2.4775  -2.3881
    -2.3621  -2.3414  -2.2115  -2.1734  -2.0744  -2.0481  -1.9179  -1.8734
    -1.7400  -1.6809  -1.6138  -1.5666  -1.4733  -1.4103  -1.3431  -1.2898
    -1.1696  -1.0830  -1.0476  -1.0040  -0.9548  -0.9134  -0.8595  -0.8102
    -0.7183  -0.6862  -0.6014  -0.5303  -0.4822  -0.4588  -0.4114  -0.3869
    -0.2497  -0.1739  -0.1265  -0.0609  -0.0041   0.0402   0.1203   0.1816
     0.1917   0.2784   0.4292   0.4499   0.6019   0.6348   0.6995   0.8329
     0.8671   0.9260   0.9543   1.0311   1.0715   1.0933   1.3966   2.0509
     2.2237   3.1203   3.5309   4.4427   5.2277

          k = 0.0591-0.1024 0.0000 ( 17208 PWs)   bands (ev):

   -48.8251 -48.7680 -48.7392 -48.7242 -48.7056 -48.6539 -48.6443 -48.6360
   -48.6345 -48.6294 -48.6199 -48.6019 -48.5850 -48.5575 -48.5511 -48.5293
   -48.5043 -48.4881 -48.4186 -48.4175 -48.4061 -48.3898 -48.3847 -48.3770
   -48.3689 -48.3020 -48.3002 -48.2989 -48.2974 -48.2928 -48.2424 -48.1756
   -48.1648 -48.1441 -48.1374 -48.1334 -18.1745  -6.0040  -3.2422  -2.8906
    -2.7853  -2.7668  -2.5704  -2.3609  -2.3524  -2.3239  -2.2968  -2.2747
    -2.2151  -2.1978  -2.1769  -2.1486  -2.1142  -2.0983  -2.0687  -1.7745
    -1.7633  -1.5849  -1.5509  -1.5409  -1.5005  -1.4916  -1.4530  -1.3553
    -1.3006  -1.2350  -1.2228  -1.2201  -1.1823  -1.1587  -0.8702  -0.8600
    -0.7863  -0.7430  -0.7263  -0.7070  -0.6938  -0.6488  -0.5732  -0.3659
    -0.2087  -0.1089  -0.0604  -0.0222   0.0090   0.0849   0.1602   0.2019
     0.3021   0.3178   0.5785   0.5989   0.6314   0.7132   0.7268   0.7759
     0.8527   0.8816   0.9087   0.9497   0.9883   1.0139   1.0923   1.7590
     1.9140   2.3773   4.1234   4.3114   4.6256

          k = 0.0591-0.0683 0.0000 ( 17183 PWs)   bands (ev):

   -48.8271 -48.7710 -48.7477 -48.7264 -48.7050 -48.6655 -48.6573 -48.6445
   -48.6313 -48.6225 -48.6067 -48.5911 -48.5832 -48.5634 -48.5559 -48.5174
   -48.5041 -48.4879 -48.4409 -48.4214 -48.4106 -48.3986 -48.3754 -48.3641
   -48.3444 -48.3212 -48.3025 -48.2939 -48.2911 -48.2770 -48.2426 -48.1760
   -48.1651 -48.1432 -48.1377 -48.1334 -18.1746  -6.0142  -3.4243  -3.1016
    -2.9101  -2.8236  -2.6285  -2.6040  -2.5356  -2.5221  -2.4775  -2.3881
    -2.3621  -2.3414  -2.2115  -2.1734  -2.0744  -2.0481  -1.9179  -1.8734
    -1.7400  -1.6809  -1.6138  -1.5666  -1.4733  -1.4103  -1.3430  -1.2898
    -1.1696  -1.0830  -1.0476  -1.0040  -0.9548  -0.9134  -0.8595  -0.8102
    -0.7183  -0.6862  -0.6014  -0.5303  -0.4822  -0.4588  -0.4114  -0.3869
    -0.2497  -0.1739  -0.1265  -0.0609  -0.0041   0.0402   0.1203   0.1816
     0.1917   0.2784   0.4292   0.4499   0.6019   0.6348   0.6995   0.8329
     0.8671   0.9260   0.9543   1.0311   1.0715   1.0933   1.3966   2.0509
     2.2237   3.1203   3.5309   4.4427   5.2277

          k =-0.0887 0.0512 0.0000 ( 17240 PWs)   bands (ev):

   -48.8181 -48.7755 -48.7537 -48.7202 -48.7026 -48.6759 -48.6578 -48.6520
   -48.6236 -48.6134 -48.6039 -48.5948 -48.5845 -48.5776 -48.5564 -48.5120
   -48.5030 -48.4923 -48.4418 -48.4292 -48.3963 -48.3756 -48.3672 -48.3580
   -48.3516 -48.3492 -48.3151 -48.2898 -48.2838 -48.2747 -48.2424 -48.1756
   -48.1660 -48.1405 -48.1399 -48.1335 -18.1745  -6.0090  -3.3953  -3.1797
    -2.9164  -2.8409  -2.6875  -2.6213  -2.5986  -2.5315  -2.4205  -2.4121
    -2.3410  -2.2271  -2.2044  -2.1437  -2.0868  -2.0507  -1.9590  -1.9103
    -1.6503  -1.6374  -1.5741  -1.5637  -1.5495  -1.4994  -1.2725  -1.2540
    -1.0556  -0.9873  -0.9047  -0.8680  -0.8518  -0.8351  -0.7711  -0.7395
    -0.7087  -0.6672  -0.6443  -0.5998  -0.5743  -0.5219  -0.4414  -0.3289
    -0.2873  -0.2542  -0.1853  -0.1197  -0.0616   0.0065   0.0691   0.0757
     0.1326   0.1603   0.2065   0.3438   0.4428   0.5000   0.5650   0.6737
     0.9296   0.9569   1.0063   1.0661   1.1489   1.2078   1.3883   1.8505
     3.5919   3.6863   3.7584   3.9126   4.8406

          k =-0.0887 0.0853 0.0000 ( 17183 PWs)   bands (ev):

   -48.8179 -48.7742 -48.7535 -48.7197 -48.7091 -48.6660 -48.6585 -48.6520
   -48.6287 -48.6210 -48.6043 -48.5950 -48.5825 -48.5715 -48.5495 -48.5181
   -48.5043 -48.4916 -48.4401 -48.4208 -48.3991 -48.3931 -48.3780 -48.3604
   -48.3445 -48.3218 -48.3125 -48.2948 -48.2915 -48.2751 -48.2424 -48.1757
   -48.1659 -48.1412 -48.1393 -48.1335 -18.1745  -6.0088  -3.4428  -3.0815
    -2.8678  -2.8256  -2.6206  -2.5690  -2.5590  -2.5296  -2.5023  -2.3881
    -2.3697  -2.3319  -2.2433  -2.1627  -2.0748  -2.0412  -1.9371  -1.8932
    -1.7425  -1.6782  -1.6271  -1.5408  -1.4568  -1.4359  -1.3581  -1.3074
    -1.1655  -1.0910  -1.0584  -1.0038  -0.9585  -0.9039  -0.8602  -0.7841
    -0.7266  -0.6721  -0.5831  -0.5387  -0.4959  -0.4604  -0.4351  -0.3784
    -0.2565  -0.1805  -0.1341  -0.0702  -0.0213   0.0608   0.1022   0.1512
     0.2226   0.3458   0.4109   0.4510   0.5927   0.6304   0.7226   0.8346
     0.8748   0.9096   0.9507   1.0008   1.0705   1.1348   1.4691   1.9971
     2.2123   3.1586   3.5380   4.4326   5.2472

          k =-0.0887 0.1195 0.0000 ( 17183 PWs)   bands (ev):

   -48.8179 -48.7742 -48.7535 -48.7197 -48.7091 -48.6660 -48.6585 -48.6520
   -48.6287 -48.6210 -48.6043 -48.5950 -48.5825 -48.5715 -48.5495 -48.5181
   -48.5043 -48.4916 -48.4401 -48.4208 -48.3991 -48.3931 -48.3780 -48.3604
   -48.3445 -48.3218 -48.3125 -48.2948 -48.2915 -48.2751 -48.2424 -48.1757
   -48.1659 -48.1412 -48.1393 -48.1335 -18.1745  -6.0088  -3.4428  -3.0815
    -2.8678  -2.8256  -2.6206  -2.5690  -2.5590  -2.5296  -2.5023  -2.3881
    -2.3697  -2.3319  -2.2433  -2.1627  -2.0748  -2.0412  -1.9371  -1.8932
    -1.7425  -1.6782  -1.6271  -1.5408  -1.4568  -1.4359  -1.3581  -1.3074
    -1.1655  -1.0910  -1.0584  -1.0038  -0.9585  -0.9039  -0.8602  -0.7841
    -0.7266  -0.6721  -0.5831  -0.5387  -0.4959  -0.4604  -0.4351  -0.3784
    -0.2565  -0.1805  -0.1341  -0.0702  -0.0213   0.0608   0.1022   0.1512
     0.2226   0.3458   0.4109   0.4510   0.5927   0.6304   0.7226   0.8346
     0.8748   0.9096   0.9507   1.0008   1.0705   1.1348   1.4691   1.9971
     2.2123   3.1586   3.5380   4.4326   5.2472

          k =-0.0887-0.0512 0.0000 ( 17240 PWs)   bands (ev):

   -48.8181 -48.7755 -48.7537 -48.7202 -48.7026 -48.6759 -48.6578 -48.6520
   -48.6236 -48.6134 -48.6039 -48.5948 -48.5845 -48.5776 -48.5564 -48.5120
   -48.5030 -48.4923 -48.4418 -48.4292 -48.3963 -48.3756 -48.3672 -48.3580
   -48.3517 -48.3492 -48.3151 -48.2898 -48.2838 -48.2747 -48.2424 -48.1756
   -48.1660 -48.1405 -48.1399 -48.1335 -18.1745  -6.0090  -3.3953  -3.1797
    -2.9164  -2.8409  -2.6875  -2.6213  -2.5986  -2.5315  -2.4205  -2.4121
    -2.3410  -2.2271  -2.2044  -2.1437  -2.0868  -2.0507  -1.9590  -1.9103
    -1.6503  -1.6374  -1.5741  -1.5637  -1.5495  -1.4994  -1.2725  -1.2540
    -1.0556  -0.9873  -0.9047  -0.8680  -0.8518  -0.8351  -0.7711  -0.7395
    -0.7087  -0.6672  -0.6443  -0.5998  -0.5743  -0.5219  -0.4414  -0.3289
    -0.2873  -0.2542  -0.1853  -0.1197  -0.0616   0.0065   0.0691   0.0757
     0.1326   0.1603   0.2065   0.3438   0.4428   0.5000   0.5650   0.6737
     0.9296   0.9569   1.0063   1.0661   1.1489   1.2078   1.3883   1.8505
     3.5919   3.6863   3.7584   3.9126   4.8406

     the Fermi energy is     1.1648 ev

!    total energy              =   -2431.15372650 Ry
     Harris-Foulkes estimate   =   -2431.15372639 Ry
     estimated scf accuracy    <       0.00000005 Ry

     The total energy is the sum of the following terms:

     one-electron contribution =  -20773.80798436 Ry
     hartree contribution      =   10440.65749415 Ry
     xc contribution           =    -398.47827250 Ry
     ewald contribution        =    8300.59851181 Ry
     electric field correction =       0.00004098 Ry
     smearing contrib. (-TS)   =      -0.12351657 Ry

     convergence has been achieved in   8 iterations
 
 BEEF-vdW xc energy contributions
           1 :   -346.763443376846     
           2 :    316.515849782432     
           3 :   -265.053600469806     
           4 :    206.346678606373     
           5 :   -153.773313823834     
           6 :    115.739629449019     
           7 :   -93.9330084723204     
           8 :    84.4326747703888     
           9 :   -80.7519216444434     
          10 :    77.1879497473108     
          11 :   -70.9808439091033     
          12 :    62.5640172446931     
          13 :   -54.2258160244499     
          14 :    48.2080366821054     
          15 :   -45.3432982638839     
          16 :    44.8074046428620     
          17 :   -44.8634695324208     
          18 :    43.9786274147012     
          19 :   -41.6194135287392     
          20 :    38.3322738454435     
          21 :   -35.1959516713582     
          22 :    33.0708718710796     
          23 :   -32.1142132517763     
          24 :    31.7947585797881     
          25 :   -31.3181374792754     
          26 :    30.1479432554476     
          27 :   -28.3002657913573     
          28 :    26.2593611174620     
          29 :   -24.6105584293066     
          30 :    23.6501868874338     
          31 :   -33.8821697254652     
          32 :   -24.9561046162110     

     Forces acting on atoms (Ry/au):


     negative rho (up, down):  9.447E-01 0.000E+00
     atom    1 type  1   force =    -0.00000001   -0.00017185    0.00102145
     atom    2 type  1   force =    -0.00000004   -0.00049380    0.00081408
     atom    3 type  1   force =     0.00019791    0.00025238   -0.00119552
     atom    4 type  1   force =    -0.00019797    0.00025239   -0.00119535
     atom    5 type  1   force =    -0.00058733   -0.00145805   -0.00594355
     atom    6 type  1   force =     0.00058721   -0.00145813   -0.00594327
     atom    7 type  1   force =    -0.00000007    0.00563863    0.01654770
     atom    8 type  1   force =    -0.00000021    0.00142021   -0.00434365
     atom    9 type  1   force =     0.00022641   -0.00016927    0.00072438
     atom   10 type  1   force =    -0.00022676   -0.00016803    0.00072472
     atom   11 type  1   force =     0.00000056   -0.00062326    0.00034829
     atom   12 type  1   force =    -0.00000041   -0.00067180   -0.00004723
     atom   13 type  2   force =     0.00000062   -0.00120978   -0.00027701
     atom   14 type  3   force =     0.00000007   -0.00113966   -0.00123504

     Total force =     0.002557     Total SCF correction =     0.000708
     SCF correction compared to forces is large: reduce conv_thr to get better values


     entering subroutine stress ...


     negative rho (up, down):  9.447E-01 0.000E+00
          total   stress  (Ry/bohr**3)                   (kbar)     P=   -7.53
  -0.00007426   0.00000000   0.00000000        -10.92      0.00      0.00
   0.00000000  -0.00006158  -0.00000582          0.00     -9.06     -0.86
   0.00000000  -0.00000582  -0.00001767          0.00     -0.86     -2.60


     bfgs converged in  38 scf cycles and  37 bfgs steps
     (criteria: energy <  1.0E+00, force <  1.9E-03)

     End of BFGS Geometry Optimization

     Final energy   =   -2431.1537264969 Ry
Begin final coordinates

ATOMIC_POSITIONS (crystal)
Pd1      0.166666667   0.166666667   0.406452311    0   0   0
Pd1      0.666666667   0.166666667   0.406452311    0   0   0
Pd1      0.166666667   0.666666667   0.406452311    0   0   0
Pd1      0.666666667   0.666666667   0.406452311    0   0   0
Pd1      0.833333333   0.333333333   0.500000000    0   0   0
Pd1      0.333333333   0.333333333   0.500000000    0   0   0
Pd1      0.833333333   0.833333333   0.500000000    0   0   0
Pd1      0.333333333   0.833333333   0.500000000    0   0   0
Pd1     -0.001761355  -0.004028777   0.594257866
Pd1      0.505788398  -0.004028887   0.594258125
Pd1     -0.003231962   0.506462101   0.592132162
Pd1      0.501246653   0.497505659   0.592240794
O1       0.200976000   0.098042125   0.658900376
H1       0.268692705  -0.037393557   0.688104565
End final coordinates



     Writing output data file calc.save
 
     init_run     :     11.84s CPU     12.36s WALL (       1 calls)
     electrons    :  11630.42s CPU  12351.18s WALL (      38 calls)
     update_pot   :    117.71s CPU    122.79s WALL (      37 calls)
     forces       :    545.43s CPU    578.27s WALL (      38 calls)
     stress       :   1756.16s CPU   1871.22s WALL (      38 calls)

     Called by init_run:
     wfcinit      :      4.76s CPU      4.84s WALL (       1 calls)
     potinit      :      1.90s CPU      2.05s WALL (       1 calls)

     Called by electrons:
     c_bands      :   4788.47s CPU   4954.72s WALL (     465 calls)
     sum_band     :   2368.86s CPU   2536.21s WALL (     465 calls)
     v_of_rho     :    751.29s CPU    815.26s WALL (     496 calls)
     newd         :   1807.18s CPU   1838.93s WALL (     496 calls)
     mix_rho      :     27.27s CPU     28.10s WALL (     465 calls)
     vdW_energy   :    396.28s CPU    440.50s WALL (    1864 calls)
     vdW_ffts     :    945.96s CPU    985.74s WALL (    3804 calls)
     vdW_v        :    374.98s CPU    390.15s WALL (    1864 calls)

     Called by c_bands:
     init_us_2    :     27.44s CPU     27.64s WALL (    5035 calls)
     cegterg      :   4533.21s CPU   4661.67s WALL (    2325 calls)

     Called by *egterg:
     h_psi        :   3041.19s CPU   3121.22s WALL (    7581 calls)
     s_psi        :    255.64s CPU    256.21s WALL (    7581 calls)
     g_psi        :     16.49s CPU     16.51s WALL (    5251 calls)
     cdiaghg      :    358.11s CPU    360.73s WALL (    7356 calls)

     Called by h_psi:
     add_vuspsi   :    262.81s CPU    263.43s WALL (    7581 calls)

     General routines
     calbec       :    417.19s CPU    425.12s WALL (   10286 calls)
     fft          :   1469.63s CPU   1576.99s WALL (  112715 calls)
     ffts         :      1.79s CPU      1.88s WALL (     961 calls)
     fftw         :   1974.42s CPU   2070.68s WALL ( 1425319 calls)
     interpolate  :     16.31s CPU     16.73s WALL (     961 calls)
     davcio       :      0.00s CPU      0.04s WALL (       5 calls)
 
     Parallel routines
     fft_scatter  :   1908.23s CPU   2096.58s WALL ( 1538995 calls)
 
     PWSCF        :     3h56m CPU        4h11m WALL

 
   This run was terminated on:   1:21:18  22Apr2018            

=------------------------------------------------------------------------------=
   JOB DONE.
=------------------------------------------------------------------------------=
Job  /afs/slac/g/suncat/bin/suncat-tsmpirun -x LD_LIBRARY_PATH -wdir /scratch/qe394316_gqfRP pw.x -npool 4 -in pw.inp

TID   HOST_NAME   COMMAND_LINE            STATUS            TERMINATION_TIME
===== ========== ================  =======================  ===================
00000 suncat0036 pw.x -npool 4 -i  Done                     04/22/2018 01:21:18
00001 suncat0036 pw.x -npool 4 -i  Done                     04/22/2018 01:21:18
00002 suncat0036 pw.x -npool 4 -i  Done                     04/22/2018 01:21:18
00003 suncat0036 pw.x -npool 4 -i  Done                     04/22/2018 01:21:18
00004 suncat0036 pw.x -npool 4 -i  Done                     04/22/2018 01:21:18
00005 suncat0036 pw.x -npool 4 -i  Done                     04/22/2018 01:21:18
00006 suncat0036 pw.x -npool 4 -i  Done                     04/22/2018 01:21:18
00007 suncat0036 pw.x -npool 4 -i  Done                     04/22/2018 01:21:18
00008 suncat0130 pw.x -npool 4 -i  Done                     04/22/2018 01:21:18
00009 suncat0130 pw.x -npool 4 -i  Done                     04/22/2018 01:21:18
00010 suncat0130 pw.x -npool 4 -i  Done                     04/22/2018 01:21:18
00011 suncat0130 pw.x -npool 4 -i  Done                     04/22/2018 01:21:18
00012 suncat0130 pw.x -npool 4 -i  Done                     04/22/2018 01:21:18
00013 suncat0130 pw.x -npool 4 -i  Done                     04/22/2018 01:21:18
00014 suncat0130 pw.x -npool 4 -i  Done                     04/22/2018 01:21:18
00015 suncat0130 pw.x -npool 4 -i  Done                     04/22/2018 01:21:18
00016 suncat0100 pw.x -npool 4 -i  Done                     04/22/2018 01:21:18
00017 suncat0100 pw.x -npool 4 -i  Done                     04/22/2018 01:21:18
00018 suncat0100 pw.x -npool 4 -i  Done                     04/22/2018 01:21:18
00019 suncat0100 pw.x -npool 4 -i  Done                     04/22/2018 01:21:18
00020 suncat0100 pw.x -npool 4 -i  Done                     04/22/2018 01:21:18
00021 suncat0100 pw.x -npool 4 -i  Done                     04/22/2018 01:21:18
00022 suncat0100 pw.x -npool 4 -i  Done                     04/22/2018 01:21:18
00023 suncat0100 pw.x -npool 4 -i  Done                     04/22/2018 01:21:18
00024 suncat0277 pw.x -npool 4 -i  Done                     04/22/2018 01:21:18
00025 suncat0277 pw.x -npool 4 -i  Done                     04/22/2018 01:21:18
00026 suncat0277 pw.x -npool 4 -i  Done                     04/22/2018 01:21:18
00027 suncat0277 pw.x -npool 4 -i  Done                     04/22/2018 01:21:18
00028 suncat0277 pw.x -npool 4 -i  Done                     04/22/2018 01:21:18
00029 suncat0277 pw.x -npool 4 -i  Done                     04/22/2018 01:21:18
00030 suncat0277 pw.x -npool 4 -i  Done                     04/22/2018 01:21:18
00031 suncat0277 pw.x -npool 4 -i  Done                     04/22/2018 01:21:18
