  python dir          : /u/if/mamunm/src/espresso
  espresso dir        : /nfs/slac/g/suncatfs/sw/espv18/espresso-dynpy-beef/bin
  pseudo dir          : /u/if/mamunm/psp/gbrv1.5pbe
  ase-espresso py git : GITVERSION



     Program PWSCF v.5.1rc2 (svn rev. 11289) starts on  2May2018 at 12:49:56 

     This program is part of the open-source Quantum ESPRESSO suite
     for quantum simulation of materials; please cite
         "P. Giannozzi et al., J. Phys.:Condens. Matter 21 395502 (2009);
          URL http://www.quantum-espresso.org", 
     in publications or presentations arising from this work. More details at
     http://www.quantum-espresso.org/quote

     Parallel version (MPI), running on    32 processors
     K-points division:     npool     =       4
     R & G space division:  proc/nbgrp/npool/nimage =       8
     Reading input from pw.inp
     Message from routine read_cards :
     DEPRECATED: no units specified in CELL_PARAMETERS card

     Current dimensions of program PWSCF are:
     Max number of different atomic species (ntypx) = 10
     Max number of k-points (npk) =  40000
     Max angular momentum in pseudopotentials (lmaxx) =  3
     Presently stress not available with electric field


     **************************************************************************
     Initializing libbeef V0.1.1 with the BEEF-vdW functional.
     Citation: Wellendorff et al., PRB 85, 235149 (2012).
     **************************************************************************


     IMPORTANT: XC functional enforced from input :
     Exchange-correlation      = BEEF-VDW ( 1  4 27 13 2)
     Any further DFT definition will be discarded
     Please, verify this is what you really want


     Subspace diagonalization in iterative solution of the eigenvalue problem:
     a serial algorithm will be used

 
     Parallelization info
     --------------------
     sticks:   dense  smooth     PW     G-vecs:    dense   smooth      PW
     Min         302     120     36                56578    14283    2310
     Max         304     121     38                56589    14330    2317
     Sum        2419     967    295               452661   114411   18499
 


     bravais-lattice index     =            0
     lattice parameter (alat)  =       1.8897  a.u.
     unit-cell volume          =    3807.2308 (a.u.)^3
     number of atoms/cell      =           13
     number of atomic types    =            2
     number of electrons       =       234.00
     number of Kohn-Sham states=          127
     kinetic-energy cutoff     =      36.7493  Ry
     charge density cutoff     =     367.4932  Ry
     convergence threshold     =      1.0E-05
     mixing beta               =       0.3000
     number of iterations used =           10  plain     mixing
     Exchange-correlation      = BEEF-VDW ( 1  4 27 13 2)
     nstep                     =           50


     celldm(1)=   1.889726  celldm(2)=   0.000000  celldm(3)=   0.000000
     celldm(4)=   0.000000  celldm(5)=   0.000000  celldm(6)=   0.000000

     crystal axes: (cart. coord. in units of alat)
               a(1) = (   5.184823   0.000000   0.000000 )  
               a(2) = (   2.592411   4.490188   0.000000 )  
               a(3) = (   0.000000   0.000000  24.233390 )  

     reciprocal axes: (cart. coord. in units 2 pi/alat)
               b(1) = (  0.192871 -0.111354  0.000000 )  
               b(2) = (  0.000000  0.222708  0.000000 )  
               b(3) = (  0.000000  0.000000  0.041265 )  


     PseudoPot. # 1 for Cu read from file:
     /u/if/mamunm/psp/gbrv1.5pbe/Cu.UPF
     MD5 check sum: 6e991ff952a84172a2a52a1c1e996048
     Pseudo is Ultrasoft + core correction, Zval = 19.0
     Generated by new atomic code, or converted to UPF format
     Using radial grid of  867 points,  6 beta functions with: 
                l(1) =   0
                l(2) =   0
                l(3) =   1
                l(4) =   1
                l(5) =   2
                l(6) =   2
     Q(r) pseudized with  8 coefficients,  rinner =    1.150   1.150   1.150
                                                       1.150   1.150

     PseudoPot. # 2 for S  read from file:
     /u/if/mamunm/psp/gbrv1.5pbe/S.UPF
     MD5 check sum: 88d86576ff6df21479756cfb9bdac1df
     Pseudo is Ultrasoft + core correction, Zval =  6.0
     Generated by new atomic code, or converted to UPF format
     Using radial grid of  907 points,  6 beta functions with: 
                l(1) =   0
                l(2) =   0
                l(3) =   1
                l(4) =   1
                l(5) =   2
                l(6) =   2
     Q(r) pseudized with  8 coefficients,  rinner =    1.300   1.300   1.300
                                                       1.300   1.300

     vdW kernel table read from file vdW_kernel_table
     MD5 check sum: 095c7af220d748ca6e76c0b4c6cfb241

     atomic species   valence    mass     pseudopotential
        Cu1           19.00    63.54600     Cu( 1.00)
        S1             6.00    32.06000     S ( 1.00)

     No symmetry found



   Cartesian axes

     site n.     atom                  positions (alat units)
         1           Cu1 tau(   1) = (   1.2962057   0.7483647  10.0000000  )
         2           Cu1 tau(   2) = (   3.8886170   0.7483647  10.0000000  )
         3           Cu1 tau(   3) = (   2.5924113   2.9934587  10.0000000  )
         4           Cu1 tau(   4) = (   5.1848226   2.9934587  10.0000000  )
         5           Cu1 tau(   5) = (   5.1848226   1.4967294  12.1166950  )
         6           Cu1 tau(   6) = (   2.5924113   1.4967294  12.1166950  )
         7           Cu1 tau(   7) = (   6.4810283   3.7418234  12.1166950  )
         8           Cu1 tau(   8) = (   3.8886170   3.7418234  12.1166950  )
         9           Cu1 tau(   9) = (   0.0000000   0.0000000  14.2333899  )
        10           Cu1 tau(  10) = (   2.5924113   0.0000000  14.2333899  )
        11           Cu1 tau(  11) = (   1.2962057   2.2450940  14.2333899  )
        12           Cu1 tau(  12) = (   3.8886170   2.2450940  14.2333899  )
        13           S1  tau(  13) = (   2.5924113   1.4967294  15.7738899  )

     number of k points=    20  Fermi-Dirac smearing, width (Ry)=  0.0110
                       cart. coord. in units 2pi/alat
        k(    1) = (   0.0000000   0.0000000   0.0000000), wk =   0.0555556
        k(    2) = (   0.0000000   0.0371180   0.0000000), wk =   0.1111111
        k(    3) = (   0.0000000   0.0742359   0.0000000), wk =   0.1111111
        k(    4) = (   0.0000000  -0.1113539   0.0000000), wk =   0.0555556
        k(    5) = (   0.0321451  -0.0185590   0.0000000), wk =   0.1111111
        k(    6) = (   0.0321451   0.0185590   0.0000000), wk =   0.1111111
        k(    7) = (   0.0321451   0.0556770   0.0000000), wk =   0.1111111
        k(    8) = (   0.0321451  -0.1299129   0.0000000), wk =   0.1111111
        k(    9) = (   0.0321451  -0.0927949   0.0000000), wk =   0.1111111
        k(   10) = (   0.0321451  -0.0556770   0.0000000), wk =   0.1111111
        k(   11) = (   0.0642902  -0.0371180   0.0000000), wk =   0.1111111
        k(   12) = (   0.0642902  -0.0000000   0.0000000), wk =   0.1111111
        k(   13) = (   0.0642902   0.0371180   0.0000000), wk =   0.1111111
        k(   14) = (   0.0642902  -0.1484719   0.0000000), wk =   0.1111111
        k(   15) = (   0.0642902  -0.1113539   0.0000000), wk =   0.1111111
        k(   16) = (   0.0642902  -0.0742359   0.0000000), wk =   0.1111111
        k(   17) = (  -0.0964353   0.0556770   0.0000000), wk =   0.0555556
        k(   18) = (  -0.0964353   0.0927949   0.0000000), wk =   0.1111111
        k(   19) = (  -0.0964353   0.1299129   0.0000000), wk =   0.1111111
        k(   20) = (  -0.0964353  -0.0556770   0.0000000), wk =   0.0555556

     Dense  grid:   452661 G-vectors     FFT dimensions: (  60,  60, 288)

     Smooth grid:   114411 G-vectors     FFT dimensions: (  40,  40, 180)

     Largest allocated arrays     est. size (Mb)     dimensions
        Kohn-Sham Wavefunctions         3.50 Mb     (    1804,  127)
        NL pseudopotentials             6.44 Mb     (    1804,  234)
        Each V/rho on FFT grid          1.98 Mb     (  129600)
        Each G-vector array             0.43 Mb     (   56584)
        G-vector shells                 0.12 Mb     (   15703)
     Largest temporary arrays     est. size (Mb)     dimensions
        Auxiliary wavefunctions        13.98 Mb     (    1804,  508)
        Each subspace H/S matrix        3.94 Mb     (     508,  508)
        Each <psi_i|beta_j> matrix      0.45 Mb     (     234,  127)
        Arrays for rho mixing          19.78 Mb     (  129600,   10)

     Initial potential from superposition of free atoms
     Check: negative starting charge=   -0.000109

     starting charge  221.99994, renormalised to  234.00000

     negative rho (up, down):  1.144E-04 0.000E+00


     ************************************************************************
     *
     * You are using vdW-DF for exchange-correlation in this calculation.
     * Please cite the following three references that made this development
     * possible:
     *
     *   M. Dion, H. Rydberg, E. Schroder, D. C. Langreth, and
     *   B. I. Lundqvist, Phys. Rev. Lett. 92, 246401 (2004).
     *
     *   T. Thonhauser, V. R. Cooper, S. Li, A. Puzder, P. Hyldgaard, and
     *   D. C. Langreth, Phys. Rev. B 76, 125112 (2007).
     *
     *   G. Roman-Perez and J. M. Soler, Phys. Rev. Lett. 103, 096102 (2009).
     *
     *
     * If you are using vdW-DF2, please also cite:
     *
     *   K. Lee, E. D. Murray, L. Kong, B. I. Lundqvist, and
     *   D. C. Langreth, Phys. Rev. B 82, 081101(R) (2010).
     *
     *
     * If you are calculating the stress with vdW-DF, please also cite:
     *
     *   R. Sabatini, E. Kucukbenli, B. Kolb, T. Thonhauser, and
     *   S. de Gironcoli, J. Phys.: Condens. Matter 24, 424209 (2012).
     *
     ************************************************************************

     Carrying out vdW-DF run using the following parameters:

     Nqs =      20    Nr_points =    1024   r_max =   100.000
     q_mesh =
               0.00001000     0.04494208     0.09755937     0.15916263
               0.23128650     0.31572767     0.41458969     0.53033537
               0.66584808     0.82450364     1.01025438     1.22772762
               1.48234092     1.78043706     2.12944203     2.53805004
               3.01644009     3.57652955     4.23227104     5.00000000

     Gradients computed in reciprocal space

     ************************************************************************


 
     Adding external electric field

     Computed dipole along edir(3) : 
        Dipole               -2.2412 Ry au,         -5.6965 Debye
        Dipole field         -0.0074 Ry au
 
        Potential amp.        0.6606 Ry
        Total length         44.6496 bohr
 
     Starting wfc are  160 randomized atomic wfcs

     total cpu time spent up to now is        9.5 secs

     per-process dynamical memory:    73.1 Mb

     Self-consistent Calculation

     iteration #  1     ecut=    36.75 Ry     beta=0.30
     Davidson diagonalization with overlap
     ethr =  1.00E-02,  avg # of iterations =  8.3

     negative rho (up, down):  2.824E-05 0.000E+00
 
     Adding external electric field

     Computed dipole along edir(3) : 
        Dipole               72.0033 Ry au,        183.0142 Debye
        Dipole field          0.2377 Ry au
 
        Potential amp.      -21.2227 Ry
        Total length         44.6496 bohr
 

     total cpu time spent up to now is       42.1 secs

     total energy              =   -4559.87749896 Ry
     Harris-Foulkes estimate   =   -4881.77832196 Ry
     estimated scf accuracy    <     678.24110548 Ry

     iteration #  2     ecut=    36.75 Ry     beta=0.30
     Davidson diagonalization with overlap
     ethr =  1.00E-02,  avg # of iterations = 20.1
 
     Adding external electric field

     Computed dipole along edir(3) : 
        Dipole               15.1513 Ry au,         38.5107 Debye
        Dipole field          0.0500 Ry au
 
        Potential amp.       -4.4658 Ry
        Total length         44.6496 bohr
 

     total cpu time spent up to now is      108.8 secs

     total energy              =   -4449.11059112 Ry
     Harris-Foulkes estimate   =   -5903.03766104 Ry
     estimated scf accuracy    <   23017.29210921 Ry

     iteration #  3     ecut=    36.75 Ry     beta=0.30
     Davidson diagonalization with overlap
     ethr =  1.00E-02,  avg # of iterations =  8.1
 
     Adding external electric field

     Computed dipole along edir(3) : 
        Dipole               18.4751 Ry au,         46.9590 Debye
        Dipole field          0.0610 Ry au
 
        Potential amp.       -5.4455 Ry
        Total length         44.6496 bohr
 

     total cpu time spent up to now is      144.9 secs

     total energy              =   -4832.15723335 Ry
     Harris-Foulkes estimate   =   -5070.86394204 Ry
     estimated scf accuracy    <    2220.95459362 Ry

     iteration #  4     ecut=    36.75 Ry     beta=0.30
     Davidson diagonalization with overlap
     ethr =  1.00E-02,  avg # of iterations =  7.2
 
     Adding external electric field

     Computed dipole along edir(3) : 
        Dipole               15.0307 Ry au,         38.2042 Debye
        Dipole field          0.0496 Ry au
 
        Potential amp.       -4.4302 Ry
        Total length         44.6496 bohr
 

     total cpu time spent up to now is      175.0 secs

     total energy              =   -4892.43649982 Ry
     Harris-Foulkes estimate   =   -4911.98696627 Ry
     estimated scf accuracy    <      71.51121452 Ry

     iteration #  5     ecut=    36.75 Ry     beta=0.30
     Davidson diagonalization with overlap
     ethr =  1.00E-02,  avg # of iterations =  2.6
 
     Adding external electric field

     Computed dipole along edir(3) : 
        Dipole               11.9019 Ry au,         30.2515 Debye
        Dipole field          0.0393 Ry au
 
        Potential amp.       -3.5080 Ry
        Total length         44.6496 bohr
 

     total cpu time spent up to now is      192.4 secs

     total energy              =   -4890.54769838 Ry
     Harris-Foulkes estimate   =   -4896.24687683 Ry
     estimated scf accuracy    <      35.51448866 Ry

     iteration #  6     ecut=    36.75 Ry     beta=0.30
     Davidson diagonalization with overlap
     ethr =  1.00E-02,  avg # of iterations =  1.0
 
     Adding external electric field

     Computed dipole along edir(3) : 
        Dipole               11.3259 Ry au,         28.7875 Debye
        Dipole field          0.0374 Ry au
 
        Potential amp.       -3.3383 Ry
        Total length         44.6496 bohr
 

     total cpu time spent up to now is      207.4 secs

     total energy              =   -4889.77939275 Ry
     Harris-Foulkes estimate   =   -4891.25894777 Ry
     estimated scf accuracy    <      50.01159995 Ry

     iteration #  7     ecut=    36.75 Ry     beta=0.30
     Davidson diagonalization with overlap
     ethr =  1.00E-02,  avg # of iterations =  1.0
 
     Adding external electric field

     Computed dipole along edir(3) : 
        Dipole                9.8669 Ry au,         25.0790 Debye
        Dipole field          0.0326 Ry au
 
        Potential amp.       -2.9082 Ry
        Total length         44.6496 bohr
 

     total cpu time spent up to now is      222.3 secs

     total energy              =   -4888.53704306 Ry
     Harris-Foulkes estimate   =   -4890.07713259 Ry
     estimated scf accuracy    <      33.30150513 Ry

     iteration #  8     ecut=    36.75 Ry     beta=0.30
     Davidson diagonalization with overlap
     ethr =  1.00E-02,  avg # of iterations =  1.0
 
     Adding external electric field

     Computed dipole along edir(3) : 
        Dipole                9.6422 Ry au,         24.5080 Debye
        Dipole field          0.0318 Ry au
 
        Potential amp.       -2.8420 Ry
        Total length         44.6496 bohr
 

     total cpu time spent up to now is      237.3 secs

     total energy              =   -4888.35030663 Ry
     Harris-Foulkes estimate   =   -4888.73029771 Ry
     estimated scf accuracy    <      46.74633901 Ry

     iteration #  9     ecut=    36.75 Ry     beta=0.30
     Davidson diagonalization with overlap
     ethr =  1.00E-02,  avg # of iterations =  1.0
 
     Adding external electric field

     Computed dipole along edir(3) : 
        Dipole                8.0851 Ry au,         20.5503 Debye
        Dipole field          0.0267 Ry au
 
        Potential amp.       -2.3831 Ry
        Total length         44.6496 bohr
 

     total cpu time spent up to now is      252.3 secs

     total energy              =   -4886.51977037 Ry
     Harris-Foulkes estimate   =   -4888.56651448 Ry
     estimated scf accuracy    <      41.06021954 Ry

     iteration # 10     ecut=    36.75 Ry     beta=0.30
     Davidson diagonalization with overlap
     ethr =  1.00E-02,  avg # of iterations =  1.0
 
     Adding external electric field

     Computed dipole along edir(3) : 
        Dipole                6.6823 Ry au,         16.9848 Debye
        Dipole field          0.0221 Ry au
 
        Potential amp.       -1.9696 Ry
        Total length         44.6496 bohr
 

     total cpu time spent up to now is      267.3 secs

     total energy              =   -4885.71600509 Ry
     Harris-Foulkes estimate   =   -4886.83715774 Ry
     estimated scf accuracy    <      15.69550293 Ry

     iteration # 11     ecut=    36.75 Ry     beta=0.30
     Davidson diagonalization with overlap
     ethr =  6.71E-03,  avg # of iterations =  1.0
 
     Adding external electric field

     Computed dipole along edir(3) : 
        Dipole                4.5374 Ry au,         11.5329 Debye
        Dipole field          0.0150 Ry au
 
        Potential amp.       -1.3374 Ry
        Total length         44.6496 bohr
 

     total cpu time spent up to now is      282.6 secs

     total energy              =   -4884.52541754 Ry
     Harris-Foulkes estimate   =   -4885.86169891 Ry
     estimated scf accuracy    <      12.69992671 Ry

     iteration # 12     ecut=    36.75 Ry     beta=0.30
     Davidson diagonalization with overlap
     ethr =  5.43E-03,  avg # of iterations =  1.0

     negative rho (up, down):  6.999E-03 0.000E+00
 
     Adding external electric field

     Computed dipole along edir(3) : 
        Dipole                0.0637 Ry au,          0.1619 Debye
        Dipole field          0.0002 Ry au
 
        Potential amp.       -0.0188 Ry
        Total length         44.6496 bohr
 

     total cpu time spent up to now is      297.7 secs

     total energy              =   -4882.95558639 Ry
     Harris-Foulkes estimate   =   -4884.71812581 Ry
     estimated scf accuracy    <       9.12965048 Ry

     iteration # 13     ecut=    36.75 Ry     beta=0.30
     Davidson diagonalization with overlap
     ethr =  3.90E-03,  avg # of iterations =  4.8

     negative rho (up, down):  2.006E-03 0.000E+00
 
     Adding external electric field

     Computed dipole along edir(3) : 
        Dipole               -0.4953 Ry au,         -1.2590 Debye
        Dipole field         -0.0016 Ry au
 
        Potential amp.        0.1460 Ry
        Total length         44.6496 bohr
 

     total cpu time spent up to now is      316.6 secs

     total energy              =   -4884.30359554 Ry
     Harris-Foulkes estimate   =   -4884.11427527 Ry
     estimated scf accuracy    <       4.50196709 Ry

     iteration # 14     ecut=    36.75 Ry     beta=0.30
     Davidson diagonalization with overlap
     ethr =  1.92E-03,  avg # of iterations =  2.3

     negative rho (up, down):  1.791E-03 0.000E+00
 
     Adding external electric field

     Computed dipole along edir(3) : 
        Dipole               -0.6808 Ry au,         -1.7305 Debye
        Dipole field         -0.0022 Ry au
 
        Potential amp.        0.2007 Ry
        Total length         44.6496 bohr
 

     total cpu time spent up to now is      332.9 secs

     total energy              =   -4884.51455439 Ry
     Harris-Foulkes estimate   =   -4884.34333361 Ry
     estimated scf accuracy    <       7.63050048 Ry

     iteration # 15     ecut=    36.75 Ry     beta=0.30
     Davidson diagonalization with overlap
     ethr =  1.92E-03,  avg # of iterations =  1.1

     negative rho (up, down):  2.056E-01 0.000E+00
 
     Adding external electric field

     Computed dipole along edir(3) : 
        Dipole               -3.3226 Ry au,         -8.4452 Debye
        Dipole field         -0.0110 Ry au
 
        Potential amp.        0.9793 Ry
        Total length         44.6496 bohr
 

     total cpu time spent up to now is      348.1 secs

     total energy              =   -4885.81973312 Ry
     Harris-Foulkes estimate   =   -4884.50287684 Ry
     estimated scf accuracy    <      10.53186724 Ry

     iteration # 16     ecut=    36.75 Ry     beta=0.30
     Davidson diagonalization with overlap
     ethr =  1.92E-03,  avg # of iterations =  7.8
 
     Adding external electric field

     Computed dipole along edir(3) : 
        Dipole                1.8848 Ry au,          4.7908 Debye
        Dipole field          0.0062 Ry au
 
        Potential amp.       -0.5555 Ry
        Total length         44.6496 bohr
 

     total cpu time spent up to now is      379.4 secs

     total energy              =   -4858.54605900 Ry
     Harris-Foulkes estimate   =   -4892.58477532 Ry
     estimated scf accuracy    <     963.18539951 Ry

     iteration # 17     ecut=    36.75 Ry     beta=0.30
     Davidson diagonalization with overlap
     ethr =  1.92E-03,  avg # of iterations =  6.4

     negative rho (up, down):  1.360E-05 0.000E+00
 
     Adding external electric field

     Computed dipole along edir(3) : 
        Dipole                2.5251 Ry au,          6.4181 Debye
        Dipole field          0.0083 Ry au
 
        Potential amp.       -0.7443 Ry
        Total length         44.6496 bohr
 

     total cpu time spent up to now is      403.7 secs

     total energy              =   -4883.78664992 Ry
     Harris-Foulkes estimate   =   -4883.79896870 Ry
     estimated scf accuracy    <       0.25007453 Ry

     iteration # 18     ecut=    36.75 Ry     beta=0.30
     Davidson diagonalization with overlap
     ethr =  1.07E-04,  avg # of iterations =  3.2

     negative rho (up, down):  1.424E-04 0.000E+00
 
     Adding external electric field

     Computed dipole along edir(3) : 
        Dipole                2.5306 Ry au,          6.4322 Debye
        Dipole field          0.0084 Ry au
 
        Potential amp.       -0.7459 Ry
        Total length         44.6496 bohr
 

     total cpu time spent up to now is      420.9 secs

     total energy              =   -4883.81958693 Ry
     Harris-Foulkes estimate   =   -4883.82468997 Ry
     estimated scf accuracy    <       0.22468066 Ry

     iteration # 19     ecut=    36.75 Ry     beta=0.30
     Davidson diagonalization with overlap
     ethr =  9.60E-05,  avg # of iterations =  1.0

     negative rho (up, down):  1.924E-03 0.000E+00
 
     Adding external electric field

     Computed dipole along edir(3) : 
        Dipole                2.1654 Ry au,          5.5039 Debye
        Dipole field          0.0071 Ry au
 
        Potential amp.       -0.6382 Ry
        Total length         44.6496 bohr
 

     total cpu time spent up to now is      436.1 secs

     total energy              =   -4883.78441397 Ry
     Harris-Foulkes estimate   =   -4883.82750849 Ry
     estimated scf accuracy    <       0.21155638 Ry

     iteration # 20     ecut=    36.75 Ry     beta=0.30
     Davidson diagonalization with overlap
     ethr =  9.04E-05,  avg # of iterations =  1.5

     negative rho (up, down):  5.827E-03 0.000E+00
 
     Adding external electric field

     Computed dipole along edir(3) : 
        Dipole                2.0065 Ry au,          5.1001 Debye
        Dipole field          0.0066 Ry au
 
        Potential amp.       -0.5914 Ry
        Total length         44.6496 bohr
 

     total cpu time spent up to now is      451.6 secs

     total energy              =   -4883.77508559 Ry
     Harris-Foulkes estimate   =   -4883.79010587 Ry
     estimated scf accuracy    <       0.10870507 Ry

     iteration # 21     ecut=    36.75 Ry     beta=0.30
     Davidson diagonalization with overlap
     ethr =  4.65E-05,  avg # of iterations =  1.9

     negative rho (up, down):  1.316E-03 0.000E+00
 
     Adding external electric field

     Computed dipole along edir(3) : 
        Dipole                2.1813 Ry au,          5.5444 Debye
        Dipole field          0.0072 Ry au
 
        Potential amp.       -0.6429 Ry
        Total length         44.6496 bohr
 

     total cpu time spent up to now is      467.5 secs

     total energy              =   -4883.78554803 Ry
     Harris-Foulkes estimate   =   -4883.77316072 Ry
     estimated scf accuracy    <       0.08713128 Ry

     iteration # 22     ecut=    36.75 Ry     beta=0.30
     Davidson diagonalization with overlap
     ethr =  3.72E-05,  avg # of iterations =  1.8

     negative rho (up, down):  1.506E-04 0.000E+00
 
     Adding external electric field

     Computed dipole along edir(3) : 
        Dipole                2.1525 Ry au,          5.4710 Debye
        Dipole field          0.0071 Ry au
 
        Potential amp.       -0.6344 Ry
        Total length         44.6496 bohr
 

     total cpu time spent up to now is      483.2 secs

     total energy              =   -4883.78414107 Ry
     Harris-Foulkes estimate   =   -4883.78794524 Ry
     estimated scf accuracy    <       0.13628320 Ry

     iteration # 23     ecut=    36.75 Ry     beta=0.30
     Davidson diagonalization with overlap
     ethr =  3.72E-05,  avg # of iterations =  1.0

     negative rho (up, down):  2.487E-05 0.000E+00
 
     Adding external electric field

     Computed dipole along edir(3) : 
        Dipole                2.1037 Ry au,          5.3472 Debye
        Dipole field          0.0069 Ry au
 
        Potential amp.       -0.6201 Ry
        Total length         44.6496 bohr
 

     total cpu time spent up to now is      498.3 secs

     total energy              =   -4883.77973066 Ry
     Harris-Foulkes estimate   =   -4883.78517476 Ry
     estimated scf accuracy    <       0.14645561 Ry

     iteration # 24     ecut=    36.75 Ry     beta=0.30
     Davidson diagonalization with overlap
     ethr =  3.72E-05,  avg # of iterations =  1.0

     negative rho (up, down):  1.020E-04 0.000E+00
 
     Adding external electric field

     Computed dipole along edir(3) : 
        Dipole                1.9307 Ry au,          4.9074 Debye
        Dipole field          0.0064 Ry au
 
        Potential amp.       -0.5691 Ry
        Total length         44.6496 bohr
 

     total cpu time spent up to now is      513.3 secs

     total energy              =   -4883.76651435 Ry
     Harris-Foulkes estimate   =   -4883.78225865 Ry
     estimated scf accuracy    <       0.14916564 Ry

     iteration # 25     ecut=    36.75 Ry     beta=0.30
     Davidson diagonalization with overlap
     ethr =  3.72E-05,  avg # of iterations =  1.0

     negative rho (up, down):  1.674E-03 0.000E+00
 
     Adding external electric field

     Computed dipole along edir(3) : 
        Dipole                1.6290 Ry au,          4.1406 Debye
        Dipole field          0.0054 Ry au
 
        Potential amp.       -0.4801 Ry
        Total length         44.6496 bohr
 

     total cpu time spent up to now is      528.4 secs

     total energy              =   -4883.75263559 Ry
     Harris-Foulkes estimate   =   -4883.77015213 Ry
     estimated scf accuracy    <       0.13136718 Ry

     iteration # 26     ecut=    36.75 Ry     beta=0.30
     Davidson diagonalization with overlap
     ethr =  3.72E-05,  avg # of iterations =  1.0

     negative rho (up, down):  1.234E-03 0.000E+00
 
     Adding external electric field

     Computed dipole along edir(3) : 
        Dipole                1.6125 Ry au,          4.0987 Debye
        Dipole field          0.0053 Ry au
 
        Potential amp.       -0.4753 Ry
        Total length         44.6496 bohr
 

     total cpu time spent up to now is      543.4 secs

     total energy              =   -4883.75420728 Ry
     Harris-Foulkes estimate   =   -4883.75306983 Ry
     estimated scf accuracy    <       0.09043368 Ry

     iteration # 27     ecut=    36.75 Ry     beta=0.30
     Davidson diagonalization with overlap
     ethr =  3.72E-05,  avg # of iterations =  1.0

     negative rho (up, down):  2.421E-02 0.000E+00
 
     Adding external electric field

     Computed dipole along edir(3) : 
        Dipole                0.1629 Ry au,          0.4140 Debye
        Dipole field          0.0005 Ry au
 
        Potential amp.       -0.0480 Ry
        Total length         44.6496 bohr
 

     total cpu time spent up to now is      558.5 secs

     total energy              =   -4883.70781954 Ry
     Harris-Foulkes estimate   =   -4883.76296501 Ry
     estimated scf accuracy    <       0.11152576 Ry

     iteration # 28     ecut=    36.75 Ry     beta=0.30
     Davidson diagonalization with overlap
     ethr =  3.72E-05,  avg # of iterations =  9.8

     negative rho (up, down):  2.094E-02 0.000E+00
 
     Adding external electric field

     Computed dipole along edir(3) : 
        Dipole                0.0156 Ry au,          0.0397 Debye
        Dipole field          0.0001 Ry au
 
        Potential amp.       -0.0046 Ry
        Total length         44.6496 bohr
 

     total cpu time spent up to now is      580.3 secs

     total energy              =   -4883.71316631 Ry
     Harris-Foulkes estimate   =   -4883.71591755 Ry
     estimated scf accuracy    <       0.00812292 Ry

     iteration # 29     ecut=    36.75 Ry     beta=0.30
     Davidson diagonalization with overlap
     ethr =  3.47E-06,  avg # of iterations =  8.4

     negative rho (up, down):  6.817E-03 0.000E+00
 
     Adding external electric field

     Computed dipole along edir(3) : 
        Dipole               -0.1049 Ry au,         -0.2667 Debye
        Dipole field         -0.0003 Ry au
 
        Potential amp.        0.0309 Ry
        Total length         44.6496 bohr
 

     total cpu time spent up to now is      603.1 secs

     total energy              =   -4883.71206054 Ry
     Harris-Foulkes estimate   =   -4883.71439156 Ry
     estimated scf accuracy    <       0.00306205 Ry

     iteration # 30     ecut=    36.75 Ry     beta=0.30
     Davidson diagonalization with overlap
     ethr =  1.31E-06,  avg # of iterations = 10.4

     negative rho (up, down):  5.246E-03 0.000E+00
 
     Adding external electric field

     Computed dipole along edir(3) : 
        Dipole               -0.1448 Ry au,         -0.3679 Debye
        Dipole field         -0.0005 Ry au
 
        Potential amp.        0.0427 Ry
        Total length         44.6496 bohr
 

     total cpu time spent up to now is      625.7 secs

     total energy              =   -4883.71205821 Ry
     Harris-Foulkes estimate   =   -4883.71251465 Ry
     estimated scf accuracy    <       0.00157973 Ry

     iteration # 31     ecut=    36.75 Ry     beta=0.30
     Davidson diagonalization with overlap
     ethr =  6.75E-07,  avg # of iterations =  5.1

     negative rho (up, down):  3.333E-03 0.000E+00
 
     Adding external electric field

     Computed dipole along edir(3) : 
        Dipole               -0.1463 Ry au,         -0.3718 Debye
        Dipole field         -0.0005 Ry au
 
        Potential amp.        0.0431 Ry
        Total length         44.6496 bohr
 

     total cpu time spent up to now is      645.2 secs

     total energy              =   -4883.71224035 Ry
     Harris-Foulkes estimate   =   -4883.71234225 Ry
     estimated scf accuracy    <       0.00038397 Ry

     iteration # 32     ecut=    36.75 Ry     beta=0.30
     Davidson diagonalization with overlap
     ethr =  1.64E-07,  avg # of iterations =  5.2

     negative rho (up, down):  2.317E-03 0.000E+00
 
     Adding external electric field

     Computed dipole along edir(3) : 
        Dipole               -0.1650 Ry au,         -0.4195 Debye
        Dipole field         -0.0005 Ry au
 
        Potential amp.        0.0486 Ry
        Total length         44.6496 bohr
 

     total cpu time spent up to now is      662.9 secs

     total energy              =   -4883.71227534 Ry
     Harris-Foulkes estimate   =   -4883.71225473 Ry
     estimated scf accuracy    <       0.00007016 Ry

     iteration # 33     ecut=    36.75 Ry     beta=0.30
     Davidson diagonalization with overlap
     ethr =  3.00E-08,  avg # of iterations =  5.7

     negative rho (up, down):  1.349E-03 0.000E+00
 
     Adding external electric field

     Computed dipole along edir(3) : 
        Dipole               -0.1624 Ry au,         -0.4128 Debye
        Dipole field         -0.0005 Ry au
 
        Potential amp.        0.0479 Ry
        Total length         44.6496 bohr
 

     total cpu time spent up to now is      684.3 secs

     total energy              =   -4883.71228705 Ry
     Harris-Foulkes estimate   =   -4883.71229697 Ry
     estimated scf accuracy    <       0.00004511 Ry

     iteration # 34     ecut=    36.75 Ry     beta=0.30
     Davidson diagonalization with overlap
     ethr =  1.93E-08,  avg # of iterations =  5.3

     negative rho (up, down):  1.238E-03 0.000E+00
 
     Adding external electric field

     Computed dipole along edir(3) : 
        Dipole               -0.1677 Ry au,         -0.4263 Debye
        Dipole field         -0.0006 Ry au
 
        Potential amp.        0.0494 Ry
        Total length         44.6496 bohr
 

     total cpu time spent up to now is      701.8 secs

     total energy              =   -4883.71229426 Ry
     Harris-Foulkes estimate   =   -4883.71228599 Ry
     estimated scf accuracy    <       0.00001667 Ry

     iteration # 35     ecut=    36.75 Ry     beta=0.30
     Davidson diagonalization with overlap
     ethr =  7.12E-09,  avg # of iterations =  2.5

     negative rho (up, down):  1.012E-03 0.000E+00

     negative rho (up, down):  1.012E-03 0.000E+00

     negative rho (up, down):  1.012E-03 0.000E+00

     negative rho (up, down):  1.012E-03 0.000E+00

     negative rho (up, down):  1.012E-03 0.000E+00

     negative rho (up, down):  1.012E-03 0.000E+00

     negative rho (up, down):  1.012E-03 0.000E+00

     negative rho (up, down):  1.012E-03 0.000E+00

     negative rho (up, down):  1.012E-03 0.000E+00

     negative rho (up, down):  1.012E-03 0.000E+00

     negative rho (up, down):  1.012E-03 0.000E+00

     negative rho (up, down):  1.012E-03 0.000E+00

     negative rho (up, down):  1.012E-03 0.000E+00

     negative rho (up, down):  1.012E-03 0.000E+00

     negative rho (up, down):  1.012E-03 0.000E+00

     negative rho (up, down):  1.012E-03 0.000E+00

     negative rho (up, down):  1.012E-03 0.000E+00

     negative rho (up, down):  1.012E-03 0.000E+00

     negative rho (up, down):  1.012E-03 0.000E+00

     negative rho (up, down):  1.012E-03 0.000E+00

     negative rho (up, down):  1.012E-03 0.000E+00

     negative rho (up, down):  1.012E-03 0.000E+00

     negative rho (up, down):  1.012E-03 0.000E+00

     negative rho (up, down):  1.012E-03 0.000E+00

     negative rho (up, down):  1.012E-03 0.000E+00

     negative rho (up, down):  1.012E-03 0.000E+00

     negative rho (up, down):  1.012E-03 0.000E+00

     negative rho (up, down):  1.012E-03 0.000E+00

     negative rho (up, down):  1.012E-03 0.000E+00

     negative rho (up, down):  1.012E-03 0.000E+00

     negative rho (up, down):  1.012E-03 0.000E+00

     negative rho (up, down):  1.012E-03 0.000E+00

     negative rho (up, down):  1.012E-03 0.000E+00

     negative rho (up, down):  1.012E-03 0.000E+00

     negative rho (up, down):  1.012E-03 0.000E+00
 
     Adding external electric field

     Computed dipole along edir(3) : 
        Dipole               -0.1732 Ry au,         -0.4403 Debye
        Dipole field         -0.0006 Ry au
 
        Potential amp.        0.0511 Ry
        Total length         44.6496 bohr
 

     total cpu time spent up to now is      751.4 secs

     End of self-consistent calculation

          k = 0.0000 0.0000 0.0000 ( 14321 PWs)   bands (ev):

  -112.3761-112.3705-112.3704-112.1981-112.1924-112.1924-112.1121-111.9243
  -111.9172-111.9140-111.9123-111.8205 -69.8719 -69.8376 -69.8375 -69.7581
   -69.7580 -69.7332 -69.7245 -69.6947 -69.6945 -69.6185 -69.6183 -69.6183
   -69.5920 -69.5854 -69.5854 -69.5835 -69.5585 -69.5584 -69.5115 -69.5023
   -69.5023 -69.3765 -69.3758 -69.3724 -69.3256 -69.3250 -69.3211 -69.3059
   -69.3057 -69.2743 -69.2682 -69.2671 -69.2656 -69.2513 -69.2513 -69.1842
   -12.8204  -7.8016  -5.9098  -4.7346  -4.5675  -4.5675  -4.3759  -4.1716
    -4.0717  -4.0717  -3.8139  -3.8138  -3.7780  -3.6147  -3.5901  -3.5899
    -3.3761  -3.3760  -3.2490  -2.9373  -2.9371  -2.7668  -2.6444  -2.6444
    -2.6301  -2.4869  -2.4868  -2.4765  -2.4765  -2.4638  -2.4249  -2.3267
    -2.3266  -2.2386  -2.2386  -2.1026  -2.0177  -2.0175  -2.0173  -1.8840
    -1.8312  -1.8311  -1.7031  -1.7028  -1.5723  -1.5723  -1.4959  -1.4953
    -1.3944  -1.3625  -1.3332  -1.3327  -1.2929  -1.2674  -1.2673  -1.2301
    -1.2301  -1.2121  -1.1656  -1.1598  -1.1598  -0.9851  -0.9843  -0.9823
    -0.5921  -0.5920  -0.5592   0.5536   0.5536   0.6396   1.0887   1.6432
     1.6432   1.8639   1.9858   1.9858   3.8965   4.4142   4.6812

          k = 0.0000 0.0371 0.0000 ( 14383 PWs)   bands (ev):

  -112.3758-112.3708-112.3704-112.1978-112.1927-112.1924-112.1121-111.9240
  -111.9172-111.9144-111.9123-111.8205 -69.8696 -69.8391 -69.8372 -69.7577
   -69.7566 -69.7346 -69.7230 -69.6968 -69.6949 -69.6170 -69.6158 -69.6144
   -69.5916 -69.5858 -69.5854 -69.5849 -69.5621 -69.5590 -69.5114 -69.5043
   -69.5029 -69.3741 -69.3720 -69.3691 -69.3282 -69.3255 -69.3219 -69.3104
   -69.3068 -69.2738 -69.2682 -69.2675 -69.2656 -69.2518 -69.2515 -69.1842
   -12.8038  -7.6015  -5.7550  -4.6831  -4.6026  -4.5174  -4.3017  -4.1984
    -4.0450  -4.0081  -3.8049  -3.7499  -3.7055  -3.5672  -3.5532  -3.5309
    -3.3538  -3.3317  -3.2022  -2.9356  -2.9325  -2.7803  -2.6683  -2.6575
    -2.6202  -2.5855  -2.5214  -2.4962  -2.4257  -2.4209  -2.3992  -2.3990
    -2.3105  -2.2947  -2.2375  -2.1896  -2.1228  -2.1131  -2.0427  -1.9408
    -1.9246  -1.8531  -1.7453  -1.7361  -1.6833  -1.6134  -1.6038  -1.5627
    -1.5047  -1.4723  -1.4521  -1.4076  -1.3986  -1.3611  -1.3260  -1.3244
    -1.2864  -1.2686  -1.2560  -1.2289  -1.1501  -1.1300  -1.0675  -1.0212
    -0.9493  -0.6074  -0.4996  -0.1009   0.4548   0.5702   0.9024   1.3928
     1.6934   2.3331   2.7637   2.8340   4.2349   4.6109   5.0118

          k = 0.0000 0.0742 0.0000 ( 14316 PWs)   bands (ev):

  -112.3749-112.3716-112.3704-112.1968-112.1936-112.1924-112.1121-111.9233
  -111.9169-111.9152-111.9124-111.8205 -69.8638 -69.8434 -69.8366 -69.7568
   -69.7527 -69.7382 -69.7190 -69.7023 -69.6954 -69.6142 -69.6095 -69.6036
   -69.5905 -69.5894 -69.5868 -69.5853 -69.5719 -69.5599 -69.5114 -69.5084
   -69.5040 -69.3687 -69.3643 -69.3581 -69.3349 -69.3301 -69.3227 -69.3199
   -69.3098 -69.2727 -69.2687 -69.2681 -69.2657 -69.2526 -69.2518 -69.1842
   -12.7705  -7.0196  -5.3651  -5.1423  -4.4805  -4.3928  -4.3050  -4.0274
    -3.8912  -3.8642  -3.7491  -3.6275  -3.5766  -3.4625  -3.4472  -3.3684
    -3.2740  -3.1694  -3.0860  -2.9495  -2.9288  -2.9172  -2.8299  -2.7758
    -2.6697  -2.6507  -2.6220  -2.5560  -2.5439  -2.4635  -2.4257  -2.3884
    -2.3313  -2.3101  -2.2698  -2.2693  -2.2281  -2.2206  -2.1015  -2.0856
    -2.0207  -1.9728  -1.9696  -1.9175  -1.9017  -1.8877  -1.8278  -1.7744
    -1.7457  -1.7073  -1.6132  -1.5871  -1.5600  -1.5250  -1.5164  -1.4977
    -1.4835  -1.3887  -1.3837  -1.3325  -1.2691  -1.2402  -1.2084  -1.1895
    -1.1419  -0.7051  -0.6332   0.0193   0.3882   0.4292   0.8916   1.6707
     1.8581   2.6581   3.1062   4.0415   4.6151   5.1858   5.4339

          k = 0.0000-0.1114 0.0000 ( 14294 PWs)   bands (ev):

  -112.3742-112.3723-112.3704-112.1961-112.1943-112.1924-112.1122-111.9229
  -111.9165-111.9160-111.9124-111.8205 -69.8596 -69.8469 -69.8362 -69.7563
   -69.7495 -69.7413 -69.7153 -69.7067 -69.6957 -69.6127 -69.6042 -69.5938
   -69.5933 -69.5897 -69.5876 -69.5853 -69.5817 -69.5603 -69.5113 -69.5106
   -69.5046 -69.3653 -69.3591 -69.3462 -69.3376 -69.3374 -69.3332 -69.3175
   -69.3122 -69.2717 -69.2696 -69.2681 -69.2657 -69.2531 -69.2519 -69.1842
   -12.7537  -6.1929  -6.0712  -4.8971  -4.7036  -4.3092  -4.1291  -3.9465
    -3.8135  -3.7160  -3.6462  -3.5744  -3.5258  -3.4055  -3.2910  -3.2819
    -3.1798  -3.1391  -3.0924  -3.0396  -2.9187  -2.9151  -2.8789  -2.8373
    -2.7987  -2.7832  -2.6639  -2.6077  -2.5781  -2.5261  -2.4752  -2.4436
    -2.4033  -2.3490  -2.2948  -2.2607  -2.2519  -2.2415  -2.2036  -2.1860
    -2.1767  -2.1693  -2.0373  -2.0339  -1.9432  -1.9141  -1.9090  -1.8753
    -1.8574  -1.7730  -1.7649  -1.7057  -1.6365  -1.6138  -1.6092  -1.5562
    -1.5466  -1.5131  -1.3945  -1.3696  -1.2770  -1.2760  -1.2564  -1.1833
    -1.1462  -0.6409  -0.6372  -0.0980   0.4281   0.4423   1.1490   1.6174
     1.9155   2.5875   3.5557   4.2805   4.5723   5.7394   5.9023

          k = 0.0321-0.0186 0.0000 ( 14383 PWs)   bands (ev):

  -112.3758-112.3708-112.3704-112.1978-112.1927-112.1924-112.1121-111.9240
  -111.9173-111.9140-111.9125-111.8205 -69.8696 -69.8392 -69.8371 -69.7576
   -69.7567 -69.7346 -69.7230 -69.6968 -69.6948 -69.6170 -69.6159 -69.6144
   -69.5916 -69.5858 -69.5854 -69.5849 -69.5621 -69.5590 -69.5114 -69.5043
   -69.5029 -69.3735 -69.3728 -69.3690 -69.3276 -69.3265 -69.3214 -69.3102
   -69.3071 -69.2738 -69.2685 -69.2672 -69.2657 -69.2518 -69.2515 -69.1842
   -12.8038  -7.6015  -5.7550  -4.6831  -4.6026  -4.5174  -4.3017  -4.1984
    -4.0451  -4.0080  -3.8050  -3.7498  -3.7055  -3.5672  -3.5530  -3.5311
    -3.3538  -3.3316  -3.2023  -2.9357  -2.9323  -2.7803  -2.6683  -2.6576
    -2.6201  -2.5854  -2.5213  -2.4963  -2.4258  -2.4210  -2.3992  -2.3989
    -2.3106  -2.2946  -2.2376  -2.1897  -2.1228  -2.1132  -2.0424  -1.9408
    -1.9247  -1.8532  -1.7451  -1.7363  -1.6832  -1.6135  -1.6039  -1.5627
    -1.5048  -1.4723  -1.4519  -1.4076  -1.3985  -1.3613  -1.3261  -1.3242
    -1.2865  -1.2687  -1.2558  -1.2289  -1.1507  -1.1295  -1.0675  -1.0211
    -0.9493  -0.6074  -0.4996  -0.1008   0.4546   0.5703   0.9025   1.3928
     1.6934   2.3331   2.7637   2.8339   4.2349   4.6109   5.0118

          k = 0.0321 0.0186 0.0000 ( 14383 PWs)   bands (ev):

  -112.3758-112.3707-112.3705-112.1978-112.1927-112.1924-112.1121-111.9240
  -111.9173-111.9142-111.9124-111.8205 -69.8696 -69.8391 -69.8372 -69.7577
   -69.7565 -69.7346 -69.7230 -69.6967 -69.6949 -69.6170 -69.6158 -69.6144
   -69.5916 -69.5857 -69.5854 -69.5849 -69.5620 -69.5591 -69.5114 -69.5043
   -69.5029 -69.3739 -69.3723 -69.3691 -69.3280 -69.3259 -69.3216 -69.3103
   -69.3069 -69.2738 -69.2684 -69.2672 -69.2657 -69.2518 -69.2515 -69.1842
   -12.8038  -7.6015  -5.7550  -4.6831  -4.6026  -4.5174  -4.3017  -4.1984
    -4.0451  -4.0080  -3.8049  -3.7498  -3.7055  -3.5672  -3.5532  -3.5310
    -3.3538  -3.3317  -3.2023  -2.9356  -2.9324  -2.7803  -2.6683  -2.6575
    -2.6201  -2.5854  -2.5213  -2.4963  -2.4257  -2.4210  -2.3992  -2.3990
    -2.3105  -2.2947  -2.2376  -2.1897  -2.1228  -2.1132  -2.0426  -1.9409
    -1.9246  -1.8532  -1.7453  -1.7362  -1.6833  -1.6135  -1.6038  -1.5627
    -1.5047  -1.4723  -1.4520  -1.4076  -1.3985  -1.3612  -1.3261  -1.3243
    -1.2865  -1.2686  -1.2559  -1.2289  -1.1504  -1.1298  -1.0675  -1.0211
    -0.9493  -0.6075  -0.4996  -0.1008   0.4547   0.5702   0.9024   1.3928
     1.6934   2.3331   2.7637   2.8339   4.2349   4.6109   5.0118

          k = 0.0321 0.0557 0.0000 ( 14335 PWs)   bands (ev):

  -112.3752-112.3713-112.3705-112.1971-112.1933-112.1924-112.1121-111.9235
  -111.9171-111.9149-111.9124-111.8205 -69.8654 -69.8421 -69.8367 -69.7570
   -69.7538 -69.7372 -69.7203 -69.7004 -69.6955 -69.6137 -69.6126 -69.6068
   -69.5908 -69.5881 -69.5864 -69.5854 -69.5681 -69.5603 -69.5114 -69.5070
   -69.5041 -69.3702 -69.3651 -69.3630 -69.3347 -69.3247 -69.3232 -69.3182
   -69.3092 -69.2730 -69.2685 -69.2679 -69.2657 -69.2523 -69.2518 -69.1842
   -12.7789  -7.2096  -5.4678  -4.7927  -4.6828  -4.3907  -4.2672  -4.1861
    -4.0241  -3.8308  -3.7788  -3.6262  -3.5967  -3.5167  -3.4527  -3.4218
    -3.3010  -3.2290  -3.1134  -2.9481  -2.9333  -2.8420  -2.7973  -2.7342
    -2.6318  -2.6186  -2.5994  -2.5716  -2.4817  -2.4371  -2.4034  -2.3752
    -2.3382  -2.3275  -2.3061  -2.2832  -2.2197  -2.1450  -2.0849  -2.0774
    -1.9876  -1.9280  -1.9017  -1.8429  -1.8276  -1.8097  -1.7875  -1.7246
    -1.6865  -1.6479  -1.6066  -1.5396  -1.5064  -1.4890  -1.4750  -1.4287
    -1.3950  -1.3275  -1.3164  -1.2820  -1.2680  -1.2217  -1.1993  -1.0470
    -0.9498  -0.8746  -0.6091  -0.5297   0.2965   0.5541   1.1408   1.7636
     2.1883   2.7119   2.8685   3.2129   4.5591   5.0052   5.1197

          k = 0.0321-0.1299 0.0000 ( 14299 PWs)   bands (ev):

  -112.3742-112.3723-112.3705-112.1961-112.1943-112.1924-112.1122-111.9229
  -111.9165-111.9160-111.9124-111.8205 -69.8594 -69.8472 -69.8361 -69.7563
   -69.7496 -69.7413 -69.7156 -69.7060 -69.6961 -69.6106 -69.6061 -69.5953
   -69.5943 -69.5897 -69.5875 -69.5853 -69.5782 -69.5616 -69.5114 -69.5095
   -69.5055 -69.3643 -69.3570 -69.3513 -69.3433 -69.3333 -69.3264 -69.3198
   -69.3131 -69.2718 -69.2691 -69.2686 -69.2657 -69.2529 -69.2521 -69.1842
   -12.7538  -6.4691  -5.5171  -4.9729  -4.7568  -4.5042  -4.1971  -4.0544
    -3.8170  -3.6840  -3.6207  -3.4980  -3.4559  -3.3815  -3.3333  -3.2893
    -3.1991  -3.1107  -3.0682  -3.0001  -2.9726  -2.9292  -2.8927  -2.8666
    -2.7824  -2.7443  -2.7038  -2.6572  -2.5919  -2.5487  -2.4986  -2.4478
    -2.4069  -2.3867  -2.3382  -2.3153  -2.2855  -2.2110  -2.1878  -2.1458
    -2.1342  -2.1072  -2.0903  -2.0411  -1.9621  -1.8999  -1.8804  -1.8323
    -1.7969  -1.7256  -1.7069  -1.6506  -1.6191  -1.5864  -1.5535  -1.5316
    -1.4568  -1.3962  -1.3747  -1.3279  -1.2923  -1.2859  -1.2475  -1.2149
    -1.1832  -0.9440  -0.6697  -0.4707   0.0237   0.6436   1.4522   1.9152
     2.3402   3.1572   3.3467   4.0226   4.6300   5.1851   5.7328

          k = 0.0321-0.0928 0.0000 ( 14299 PWs)   bands (ev):

  -112.3742-112.3723-112.3704-112.1961-112.1943-112.1924-112.1122-111.9229
  -111.9169-111.9156-111.9125-111.8205 -69.8593 -69.8473 -69.8361 -69.7563
   -69.7497 -69.7413 -69.7156 -69.7061 -69.6961 -69.6106 -69.6061 -69.5953
   -69.5943 -69.5897 -69.5875 -69.5853 -69.5782 -69.5616 -69.5114 -69.5095
   -69.5055 -69.3642 -69.3570 -69.3512 -69.3438 -69.3328 -69.3265 -69.3199
   -69.3131 -69.2718 -69.2692 -69.2684 -69.2657 -69.2529 -69.2521 -69.1842
   -12.7538  -6.4691  -5.5171  -4.9729  -4.7568  -4.5042  -4.1971  -4.0544
    -3.8171  -3.6841  -3.6207  -3.4979  -3.4559  -3.3815  -3.3333  -3.2893
    -3.1991  -3.1107  -3.0682  -3.0001  -2.9726  -2.9292  -2.8927  -2.8665
    -2.7824  -2.7444  -2.7037  -2.6573  -2.5919  -2.5488  -2.4986  -2.4477
    -2.4068  -2.3868  -2.3382  -2.3153  -2.2854  -2.2112  -2.1878  -2.1458
    -2.1341  -2.1072  -2.0903  -2.0410  -1.9623  -1.8999  -1.8804  -1.8323
    -1.7968  -1.7256  -1.7069  -1.6506  -1.6192  -1.5865  -1.5535  -1.5315
    -1.4568  -1.3961  -1.3747  -1.3280  -1.2923  -1.2859  -1.2475  -1.2148
    -1.1832  -0.9440  -0.6697  -0.4707   0.0237   0.6436   1.4522   1.9152
     2.3402   3.1572   3.3467   4.0226   4.6300   5.1851   5.7327

          k = 0.0321-0.0557 0.0000 ( 14335 PWs)   bands (ev):

  -112.3752-112.3714-112.3704-112.1971-112.1934-112.1924-112.1121-111.9235
  -111.9173-111.9146-111.9126-111.8205 -69.8654 -69.8422 -69.8366 -69.7569
   -69.7539 -69.7371 -69.7203 -69.7005 -69.6954 -69.6137 -69.6126 -69.6069
   -69.5908 -69.5881 -69.5865 -69.5853 -69.5682 -69.5603 -69.5114 -69.5070
   -69.5040 -69.3701 -69.3652 -69.3630 -69.3348 -69.3249 -69.3227 -69.3183
   -69.3093 -69.2730 -69.2687 -69.2677 -69.2657 -69.2523 -69.2518 -69.1842
   -12.7789  -7.2096  -5.4678  -4.7927  -4.6828  -4.3907  -4.2672  -4.1861
    -4.0241  -3.8308  -3.7788  -3.6262  -3.5967  -3.5166  -3.4527  -3.4218
    -3.3010  -3.2290  -3.1134  -2.9480  -2.9333  -2.8420  -2.7972  -2.7343
    -2.6318  -2.6186  -2.5994  -2.5716  -2.4818  -2.4371  -2.4034  -2.3752
    -2.3383  -2.3274  -2.3062  -2.2832  -2.2196  -2.1449  -2.0849  -2.0774
    -1.9876  -1.9279  -1.9019  -1.8428  -1.8276  -1.8098  -1.7875  -1.7247
    -1.6864  -1.6480  -1.6066  -1.5397  -1.5063  -1.4889  -1.4749  -1.4288
    -1.3951  -1.3274  -1.3165  -1.2821  -1.2681  -1.2217  -1.1992  -1.0470
    -0.9498  -0.8746  -0.6091  -0.5297   0.2965   0.5541   1.1408   1.7636
     2.1883   2.7119   2.8685   3.2129   4.5590   5.0053   5.1197

          k = 0.0643-0.0371 0.0000 ( 14316 PWs)   bands (ev):

  -112.3749-112.3717-112.3704-112.1968-112.1936-112.1924-112.1121-111.9232
  -111.9177-111.9140-111.9130-111.8205 -69.8638 -69.8435 -69.8365 -69.7567
   -69.7528 -69.7382 -69.7190 -69.7024 -69.6953 -69.6142 -69.6095 -69.6036
   -69.5905 -69.5894 -69.5868 -69.5853 -69.5719 -69.5599 -69.5114 -69.5084
   -69.5040 -69.3678 -69.3653 -69.3580 -69.3342 -69.3313 -69.3224 -69.3191
   -69.3102 -69.2726 -69.2694 -69.2672 -69.2660 -69.2526 -69.2518 -69.1842
   -12.7705  -7.0196  -5.3651  -5.1423  -4.4805  -4.3928  -4.3050  -4.0274
    -3.8912  -3.8642  -3.7492  -3.6275  -3.5766  -3.4625  -3.4472  -3.3686
    -3.2740  -3.1691  -3.0861  -2.9495  -2.9286  -2.9173  -2.8299  -2.7758
    -2.6698  -2.6507  -2.6219  -2.5559  -2.5438  -2.4637  -2.4258  -2.3884
    -2.3312  -2.3102  -2.2697  -2.2693  -2.2280  -2.2207  -2.1015  -2.0858
    -2.0207  -1.9725  -1.9695  -1.9176  -1.9020  -1.8876  -1.8279  -1.7743
    -1.7459  -1.7070  -1.6132  -1.5872  -1.5602  -1.5251  -1.5163  -1.4976
    -1.4835  -1.3888  -1.3832  -1.3326  -1.2693  -1.2401  -1.2082  -1.1900
    -1.1417  -0.7051  -0.6332   0.0193   0.3883   0.4290   0.8917   1.6708
     1.8580   2.6581   3.1062   4.0415   4.6151   5.1859   5.4339

          k = 0.0643-0.0000 0.0000 ( 14335 PWs)   bands (ev):

  -112.3752-112.3714-112.3704-112.1971-112.1933-112.1924-112.1121-111.9234
  -111.9175-111.9142-111.9128-111.8205 -69.8654 -69.8422 -69.8366 -69.7570
   -69.7539 -69.7371 -69.7203 -69.7005 -69.6954 -69.6137 -69.6126 -69.6068
   -69.5908 -69.5881 -69.5864 -69.5854 -69.5681 -69.5603 -69.5114 -69.5070
   -69.5041 -69.3699 -69.3654 -69.3630 -69.3350 -69.3249 -69.3224 -69.3183
   -69.3094 -69.2730 -69.2690 -69.2673 -69.2659 -69.2523 -69.2518 -69.1842
   -12.7789  -7.2096  -5.4678  -4.7927  -4.6828  -4.3907  -4.2672  -4.1861
    -4.0241  -3.8308  -3.7788  -3.6262  -3.5967  -3.5166  -3.4527  -3.4219
    -3.3010  -3.2289  -3.1134  -2.9480  -2.9333  -2.8420  -2.7972  -2.7343
    -2.6319  -2.6186  -2.5994  -2.5715  -2.4818  -2.4371  -2.4033  -2.3752
    -2.3383  -2.3274  -2.3062  -2.2832  -2.2196  -2.1448  -2.0849  -2.0774
    -1.9876  -1.9278  -1.9021  -1.8427  -1.8275  -1.8099  -1.7876  -1.7247
    -1.6864  -1.6482  -1.6066  -1.5398  -1.5063  -1.4889  -1.4749  -1.4289
    -1.3951  -1.3272  -1.3166  -1.2821  -1.2681  -1.2217  -1.1991  -1.0470
    -0.9498  -0.8746  -0.6092  -0.5297   0.2965   0.5541   1.1409   1.7636
     2.1883   2.7119   2.8685   3.2129   4.5591   5.0052   5.1197

          k = 0.0643 0.0371 0.0000 ( 14316 PWs)   bands (ev):

  -112.3749-112.3716-112.3705-112.1969-112.1935-112.1924-112.1121-111.9233
  -111.9174-111.9146-111.9126-111.8205 -69.8638 -69.8433 -69.8366 -69.7568
   -69.7527 -69.7383 -69.7190 -69.7022 -69.6954 -69.6142 -69.6094 -69.6036
   -69.5906 -69.5894 -69.5867 -69.5854 -69.5718 -69.5600 -69.5114 -69.5084
   -69.5040 -69.3683 -69.3647 -69.3581 -69.3346 -69.3306 -69.3225 -69.3195
   -69.3100 -69.2726 -69.2693 -69.2674 -69.2659 -69.2526 -69.2518 -69.1842
   -12.7705  -7.0196  -5.3651  -5.1423  -4.4805  -4.3928  -4.3050  -4.0274
    -3.8912  -3.8642  -3.7491  -3.6275  -3.5766  -3.4625  -3.4472  -3.3685
    -3.2740  -3.1692  -3.0860  -2.9495  -2.9287  -2.9172  -2.8299  -2.7758
    -2.6697  -2.6507  -2.6219  -2.5560  -2.5439  -2.4636  -2.4258  -2.3884
    -2.3313  -2.3101  -2.2698  -2.2693  -2.2280  -2.2206  -2.1016  -2.0857
    -2.0207  -1.9727  -1.9696  -1.9175  -1.9018  -1.8877  -1.8279  -1.7744
    -1.7458  -1.7072  -1.6132  -1.5871  -1.5601  -1.5250  -1.5164  -1.4977
    -1.4835  -1.3887  -1.3835  -1.3325  -1.2692  -1.2402  -1.2083  -1.1897
    -1.1418  -0.7051  -0.6332   0.0193   0.3883   0.4291   0.8916   1.6708
     1.8580   2.6581   3.1062   4.0415   4.6152   5.1858   5.4339

          k = 0.0643-0.1485 0.0000 ( 14299 PWs)   bands (ev):

  -112.3743-112.3722-112.3705-112.1962-112.1942-112.1924-112.1122-111.9229
  -111.9171-111.9153-111.9126-111.8205 -69.8594 -69.8472 -69.8361 -69.7563
   -69.7496 -69.7413 -69.7156 -69.7060 -69.6961 -69.6106 -69.6061 -69.5953
   -69.5943 -69.5897 -69.5875 -69.5854 -69.5782 -69.5616 -69.5114 -69.5095
   -69.5055 -69.3640 -69.3574 -69.3514 -69.3429 -69.3337 -69.3263 -69.3194
   -69.3134 -69.2717 -69.2697 -69.2680 -69.2657 -69.2529 -69.2521 -69.1842
   -12.7538  -6.4691  -5.5171  -4.9729  -4.7568  -4.5042  -4.1971  -4.0544
    -3.8170  -3.6840  -3.6207  -3.4980  -3.4559  -3.3815  -3.3333  -3.2893
    -3.1991  -3.1107  -3.0681  -3.0002  -2.9725  -2.9292  -2.8927  -2.8666
    -2.7824  -2.7443  -2.7038  -2.6573  -2.5919  -2.5487  -2.4986  -2.4479
    -2.4069  -2.3866  -2.3383  -2.3152  -2.2855  -2.2110  -2.1878  -2.1457
    -2.1342  -2.1073  -2.0902  -2.0411  -1.9621  -1.8998  -1.8805  -1.8323
    -1.7969  -1.7255  -1.7070  -1.6506  -1.6190  -1.5865  -1.5535  -1.5317
    -1.4567  -1.3962  -1.3746  -1.3279  -1.2924  -1.2859  -1.2476  -1.2147
    -1.1832  -0.9440  -0.6697  -0.4707   0.0237   0.6436   1.4522   1.9152
     2.3402   3.1571   3.3467   4.0226   4.6300   5.1851   5.7327

          k = 0.0643-0.1114 0.0000 ( 14310 PWs)   bands (ev):

  -112.3733-112.3732-112.3704-112.1952-112.1952-112.1924-112.1122-111.9227
  -111.9171-111.9156-111.9126-111.8205 -69.8540 -69.8524 -69.8357 -69.7560
   -69.7456 -69.7454 -69.7116 -69.7099 -69.6966 -69.6057 -69.6027 -69.6021
   -69.5890 -69.5886 -69.5857 -69.5854 -69.5853 -69.5632 -69.5113 -69.5081
   -69.5080 -69.3563 -69.3558 -69.3473 -69.3460 -69.3433 -69.3212 -69.3202
   -69.3184 -69.2709 -69.2700 -69.2686 -69.2656 -69.2526 -69.2526 -69.1842
   -12.7456  -5.7084  -5.6100  -5.5784  -4.5468  -4.5190  -4.4981  -3.8751
    -3.8554  -3.6025  -3.4130  -3.3698  -3.3222  -3.3091  -3.2710  -3.2126
    -3.1856  -3.1272  -3.1138  -3.0924  -3.0854  -2.9611  -2.9206  -2.8955
    -2.8539  -2.7871  -2.7243  -2.6681  -2.6649  -2.6282  -2.5728  -2.5700
    -2.5592  -2.5117  -2.3344  -2.3163  -2.2963  -2.2587  -2.2582  -2.2107
    -2.1754  -2.1097  -2.1033  -1.9842  -1.9657  -1.9634  -1.8063  -1.7845
    -1.7536  -1.7319  -1.6683  -1.6634  -1.5986  -1.5897  -1.5108  -1.4840
    -1.3735  -1.3616  -1.3576  -1.3347  -1.3105  -1.3056  -1.2937  -1.2929
    -1.2545  -1.1275  -1.1218  -0.3870  -0.1428   0.4227   1.8909   1.9831
     2.8642   3.9240   4.0043   4.2796   4.4713   4.8193   4.8772

          k = 0.0643-0.0742 0.0000 ( 14299 PWs)   bands (ev):

  -112.3742-112.3724-112.3704-112.1961-112.1943-112.1924-112.1122-111.9228
  -111.9176-111.9147-111.9128-111.8205 -69.8593 -69.8473 -69.8360 -69.7562
   -69.7497 -69.7413 -69.7155 -69.7061 -69.6960 -69.6106 -69.6061 -69.5953
   -69.5943 -69.5897 -69.5875 -69.5853 -69.5782 -69.5616 -69.5114 -69.5095
   -69.5055 -69.3637 -69.3578 -69.3514 -69.3430 -69.3335 -69.3263 -69.3191
   -69.3137 -69.2716 -69.2699 -69.2678 -69.2658 -69.2529 -69.2521 -69.1842
   -12.7538  -6.4691  -5.5171  -4.9729  -4.7568  -4.5042  -4.1971  -4.0544
    -3.8170  -3.6840  -3.6207  -3.4980  -3.4559  -3.3815  -3.3333  -3.2893
    -3.1991  -3.1106  -3.0681  -3.0002  -2.9726  -2.9291  -2.8927  -2.8666
    -2.7824  -2.7443  -2.7038  -2.6573  -2.5919  -2.5488  -2.4986  -2.4478
    -2.4067  -2.3867  -2.3382  -2.3152  -2.2855  -2.2113  -2.1878  -2.1457
    -2.1341  -2.1072  -2.0902  -2.0410  -1.9623  -1.8997  -1.8805  -1.8323
    -1.7969  -1.7255  -1.7070  -1.6506  -1.6190  -1.5867  -1.5536  -1.5316
    -1.4567  -1.3962  -1.3746  -1.3278  -1.2926  -1.2857  -1.2478  -1.2145
    -1.1832  -0.9440  -0.6697  -0.4707   0.0237   0.6436   1.4522   1.9152
     2.3401   3.1572   3.3467   4.0226   4.6300   5.1851   5.7327

          k =-0.0964 0.0557 0.0000 ( 14294 PWs)   bands (ev):

  -112.3741-112.3724-112.3704-112.1961-112.1943-112.1924-112.1122-111.9228
  -111.9179-111.9140-111.9132-111.8205 -69.8595 -69.8470 -69.8362 -69.7562
   -69.7497 -69.7413 -69.7152 -69.7069 -69.6956 -69.6127 -69.6042 -69.5938
   -69.5933 -69.5897 -69.5876 -69.5853 -69.5817 -69.5603 -69.5113 -69.5105
   -69.5046 -69.3641 -69.3605 -69.3460 -69.3389 -69.3348 -69.3347 -69.3158
   -69.3137 -69.2711 -69.2708 -69.2672 -69.2661 -69.2531 -69.2519 -69.1842
   -12.7537  -6.1929  -6.0713  -4.8970  -4.7037  -4.3092  -4.1292  -3.9464
    -3.8135  -3.7161  -3.6461  -3.5744  -3.5259  -3.4056  -3.2910  -3.2820
    -3.1800  -3.1390  -3.0923  -3.0396  -2.9186  -2.9152  -2.8788  -2.8376
    -2.7989  -2.7828  -2.6640  -2.6078  -2.5781  -2.5261  -2.4754  -2.4435
    -2.4032  -2.3486  -2.2951  -2.2605  -2.2520  -2.2415  -2.2036  -2.1859
    -2.1766  -2.1694  -2.0372  -2.0339  -1.9433  -1.9142  -1.9087  -1.8752
    -1.8574  -1.7732  -1.7648  -1.7059  -1.6365  -1.6138  -1.6092  -1.5564
    -1.5465  -1.5132  -1.3947  -1.3692  -1.2775  -1.2757  -1.2561  -1.1838
    -1.1459  -0.6409  -0.6372  -0.0980   0.4283   0.4421   1.1491   1.6174
     1.9154   2.5875   3.5557   4.2805   4.5723   5.7394   5.9023

          k =-0.0964 0.0928 0.0000 ( 14299 PWs)   bands (ev):

  -112.3742-112.3724-112.3704-112.1961-112.1943-112.1924-112.1122-111.9228
  -111.9177-111.9145-111.9129-111.8205 -69.8593 -69.8473 -69.8360 -69.7562
   -69.7497 -69.7413 -69.7155 -69.7061 -69.6960 -69.6106 -69.6061 -69.5953
   -69.5943 -69.5897 -69.5875 -69.5853 -69.5782 -69.5616 -69.5114 -69.5095
   -69.5055 -69.3637 -69.3578 -69.3513 -69.3435 -69.3330 -69.3264 -69.3191
   -69.3137 -69.2715 -69.2701 -69.2676 -69.2659 -69.2529 -69.2521 -69.1842
   -12.7538  -6.4691  -5.5171  -4.9729  -4.7568  -4.5042  -4.1971  -4.0544
    -3.8170  -3.6840  -3.6207  -3.4980  -3.4559  -3.3815  -3.3334  -3.2894
    -3.1991  -3.1106  -3.0681  -3.0002  -2.9726  -2.9291  -2.8927  -2.8666
    -2.7824  -2.7443  -2.7037  -2.6573  -2.5919  -2.5488  -2.4986  -2.4478
    -2.4067  -2.3868  -2.3382  -2.3152  -2.2854  -2.2114  -2.1878  -2.1458
    -2.1340  -2.1072  -2.0902  -2.0410  -1.9624  -1.8997  -1.8805  -1.8323
    -1.7968  -1.7255  -1.7070  -1.6506  -1.6191  -1.5867  -1.5536  -1.5315
    -1.4567  -1.3961  -1.3747  -1.3279  -1.2926  -1.2857  -1.2478  -1.2145
    -1.1832  -0.9440  -0.6697  -0.4707   0.0237   0.6436   1.4522   1.9152
     2.3401   3.1572   3.3467   4.0226   4.6300   5.1851   5.7328

          k =-0.0964 0.1299 0.0000 ( 14299 PWs)   bands (ev):

  -112.3742-112.3723-112.3705-112.1962-112.1942-112.1924-112.1122-111.9228
  -111.9174-111.9149-111.9127-111.8205 -69.8594 -69.8472 -69.8361 -69.7563
   -69.7496 -69.7413 -69.7156 -69.7060 -69.6961 -69.6106 -69.6061 -69.5953
   -69.5943 -69.5897 -69.5875 -69.5854 -69.5782 -69.5616 -69.5114 -69.5095
   -69.5055 -69.3640 -69.3573 -69.3512 -69.3439 -69.3326 -69.3265 -69.3195
   -69.3134 -69.2716 -69.2699 -69.2678 -69.2658 -69.2529 -69.2521 -69.1842
   -12.7538  -6.4691  -5.5171  -4.9729  -4.7568  -4.5042  -4.1971  -4.0544
    -3.8170  -3.6840  -3.6207  -3.4979  -3.4559  -3.3815  -3.3333  -3.2893
    -3.1991  -3.1106  -3.0682  -3.0001  -2.9726  -2.9291  -2.8927  -2.8666
    -2.7824  -2.7444  -2.7037  -2.6573  -2.5919  -2.5488  -2.4986  -2.4477
    -2.4067  -2.3868  -2.3382  -2.3153  -2.2853  -2.2113  -2.1878  -2.1459
    -2.1340  -2.1072  -2.0903  -2.0410  -1.9624  -1.8998  -1.8805  -1.8323
    -1.7967  -1.7256  -1.7069  -1.6506  -1.6191  -1.5866  -1.5536  -1.5314
    -1.4568  -1.3961  -1.3747  -1.3280  -1.2925  -1.2858  -1.2476  -1.2147
    -1.1832  -0.9440  -0.6697  -0.4707   0.0237   0.6436   1.4522   1.9152
     2.3402   3.1572   3.3467   4.0226   4.6300   5.1851   5.7328

          k =-0.0964-0.0557 0.0000 ( 14294 PWs)   bands (ev):

  -112.3743-112.3722-112.3705-112.1962-112.1942-112.1924-112.1122-111.9228
  -111.9174-111.9149-111.9127-111.8205 -69.8596 -69.8468 -69.8363 -69.7564
   -69.7495 -69.7414 -69.7154 -69.7067 -69.6957 -69.6127 -69.6041 -69.5938
   -69.5933 -69.5897 -69.5875 -69.5853 -69.5816 -69.5604 -69.5113 -69.5105
   -69.5046 -69.3648 -69.3597 -69.3461 -69.3384 -69.3363 -69.3335 -69.3168
   -69.3128 -69.2714 -69.2704 -69.2674 -69.2660 -69.2531 -69.2519 -69.1842
   -12.7537  -6.1929  -6.0712  -4.8971  -4.7037  -4.3092  -4.1291  -3.9464
    -3.8135  -3.7160  -3.6461  -3.5744  -3.5259  -3.4055  -3.2910  -3.2819
    -3.1799  -3.1391  -3.0924  -3.0396  -2.9187  -2.9151  -2.8789  -2.8374
    -2.7988  -2.7830  -2.6639  -2.6077  -2.5781  -2.5261  -2.4752  -2.4436
    -2.4033  -2.3489  -2.2949  -2.2606  -2.2519  -2.2415  -2.2036  -2.1860
    -2.1767  -2.1694  -2.0373  -2.0339  -1.9432  -1.9142  -1.9089  -1.8752
    -1.8574  -1.7731  -1.7649  -1.7058  -1.6365  -1.6138  -1.6092  -1.5563
    -1.5465  -1.5131  -1.3946  -1.3695  -1.2772  -1.2759  -1.2563  -1.1835
    -1.1460  -0.6409  -0.6372  -0.0980   0.4282   0.4422   1.1490   1.6174
     1.9155   2.5875   3.5558   4.2805   4.5722   5.7394   5.9023

     the Fermi energy is     0.4283 ev

!    total energy              =   -4883.71229782 Ry
     Harris-Foulkes estimate   =   -4883.71228966 Ry
     estimated scf accuracy    <       0.00000204 Ry

     The total energy is the sum of the following terms:

     one-electron contribution =  -37877.88311293 Ry
     hartree contribution      =   18954.64656817 Ry
     xc contribution           =    -488.95375108 Ry
     ewald contribution        =   14528.50586371 Ry
     electric field correction =       0.00009903 Ry
     smearing contrib. (-TS)   =      -0.02796471 Ry

     convergence has been achieved in  35 iterations
 
 BEEF-vdW xc energy contributions
           1 :   -433.105519987765     
           2 :    392.569128661933     
           3 :   -323.839926618507     
           4 :    245.749810284487     
           5 :   -175.518423808581     
           6 :    122.613201447028     
           7 :   -87.2112815906070     
           8 :    63.2672123201335     
           9 :   -43.7900402518709     
          10 :    25.0837382881552     
          11 :   -7.82504609422108     
          12 :   -4.95418514925410     
          13 :    11.0540219960476     
          14 :   -11.1444743177581     
          15 :    8.45752835516379     
          16 :   -6.67156144486910     
          17 :    7.65651333771586     
          18 :   -10.6365044353698     
          19 :    13.1905660567390     
          20 :   -13.2303779552254     
          21 :    10.5173489737577     
          22 :   -6.73053934232166     
          23 :    4.17212446142105     
          24 :   -4.12627505269023     
          25 :    6.03943202253828     
          26 :   -8.03481626723385     
          27 :    8.31455591578685     
          28 :   -6.41998272626722     
          29 :    3.48036894684333     
          30 :   -1.33369358015193     
          31 :   -34.7619558699487     
          32 :   -23.7691649973706     

     Forces acting on atoms (Ry/au):


     negative rho (up, down):  1.012E-03 0.000E+00
     atom    1 type  1   force =    -0.00010789   -0.00010787    0.00094367
     atom    2 type  1   force =     0.00008662   -0.00009277    0.00151178
     atom    3 type  1   force =    -0.00000473    0.00016024    0.00145380
     atom    4 type  1   force =     0.00001988    0.00002690   -0.00203694
     atom    5 type  1   force =    -0.00012930    0.00296308    0.00295824
     atom    6 type  1   force =     0.00013981   -0.00026278   -0.01208794
     atom    7 type  1   force =    -0.00278971   -0.00129070    0.00320960
     atom    8 type  1   force =     0.00277449   -0.00138812    0.00320474
     atom    9 type  1   force =    -0.00002556   -0.00001919   -0.00698225
     atom   10 type  1   force =     0.00001793   -0.03537204   -0.01954122
     atom   11 type  1   force =    -0.03062689    0.01769305   -0.01951674
     atom   12 type  1   force =     0.03065064    0.01769472   -0.01965047
     atom   13 type  2   force =    -0.00000531   -0.00000453    0.06653373

     Total force =     0.096846     Total SCF correction =     0.002015


     entering subroutine stress ...


     negative rho (up, down):  1.012E-03 0.000E+00
          total   stress  (Ry/bohr**3)                   (kbar)     P=  -12.10
  -0.00010294   0.00000001  -0.00000001        -15.14      0.00     -0.00
   0.00000001  -0.00010293  -0.00000000          0.00    -15.14     -0.00
  -0.00000001  -0.00000000  -0.00004080         -0.00     -0.00     -6.00


     BFGS Geometry Optimization

     number of scf cycles    =   1
     number of bfgs steps    =   0

     energy   new            =   -4883.7122978197 Ry

     new trust radius        =       0.0665337350 bohr
     new conv_thr            =       0.0000099958 Ry


ATOMIC_POSITIONS (crystal)
Cu1      0.166666667   0.166666667   0.412653782    0   0   0
Cu1      0.666666667   0.166666667   0.412653782    0   0   0
Cu1      0.166666667   0.666666667   0.412653782    0   0   0
Cu1      0.666666667   0.666666667   0.412653782    0   0   0
Cu1      0.833333333   0.333333333   0.500000000    0   0   0
Cu1      0.333333333   0.333333333   0.500000000    0   0   0
Cu1      0.833333333   0.833333333   0.500000000    0   0   0
Cu1      0.333333333   0.833333333   0.500000000    0   0   0
Cu1     -0.000001478  -0.000002262   0.587193749
Cu1      0.502086161  -0.004168662   0.586919502
Cu1     -0.004168444   0.502085160   0.586920037
Cu1      0.502085611   0.502085356   0.586917117
S1       0.333333059   0.333332800   0.652368410



     Writing output data file calc.save
     Check: negative starting charge=   -0.000109
     NEW-OLD atomic charge density approx. for the potential
     Check: negative starting charge=   -0.000107

     negative rho (up, down):  1.010E-03 0.000E+00
 
     Adding external electric field

     Computed dipole along edir(3) : 
        Dipole               -0.2389 Ry au,         -0.6072 Debye
        Dipole field         -0.0008 Ry au
 
        Potential amp.        0.0704 Ry
        Total length         44.6496 bohr
 

     total cpu time spent up to now is      806.1 secs

     per-process dynamical memory:    90.6 Mb

     Self-consistent Calculation

     iteration #  1     ecut=    36.75 Ry     beta=0.30
     Davidson diagonalization with overlap
     ethr =  1.00E-06,  avg # of iterations =  5.3

     negative rho (up, down):  1.004E-03 0.000E+00
 
     Adding external electric field

     Computed dipole along edir(3) : 
        Dipole                0.1944 Ry au,          0.4941 Debye
        Dipole field          0.0006 Ry au
 
        Potential amp.       -0.0573 Ry
        Total length         44.6496 bohr
 

     total cpu time spent up to now is      834.8 secs

     total energy              =   -4883.70512794 Ry
     Harris-Foulkes estimate   =   -4883.72236123 Ry
     estimated scf accuracy    <       0.03479396 Ry

     iteration #  2     ecut=    36.75 Ry     beta=0.30
     Davidson diagonalization with overlap
     ethr =  1.49E-05,  avg # of iterations =  6.4

     negative rho (up, down):  1.011E-03 0.000E+00
 
     Adding external electric field

     Computed dipole along edir(3) : 
        Dipole               -0.1888 Ry au,         -0.4799 Debye
        Dipole field         -0.0006 Ry au
 
        Potential amp.        0.0557 Ry
        Total length         44.6496 bohr
 

     total cpu time spent up to now is      857.4 secs

     total energy              =   -4883.66970526 Ry
     Harris-Foulkes estimate   =   -4883.76924509 Ry
     estimated scf accuracy    <       1.36646774 Ry

     iteration #  3     ecut=    36.75 Ry     beta=0.30
     Davidson diagonalization with overlap
     ethr =  1.49E-05,  avg # of iterations =  6.7

     negative rho (up, down):  1.012E-03 0.000E+00
 
     Adding external electric field

     Computed dipole along edir(3) : 
        Dipole               -0.1853 Ry au,         -0.4709 Debye
        Dipole field         -0.0006 Ry au
 
        Potential amp.        0.0546 Ry
        Total length         44.6496 bohr
 

     total cpu time spent up to now is      878.0 secs

     total energy              =   -4883.71775769 Ry
     Harris-Foulkes estimate   =   -4883.72003182 Ry
     estimated scf accuracy    <       0.01081413 Ry

     iteration #  4     ecut=    36.75 Ry     beta=0.30
     Davidson diagonalization with overlap
     ethr =  4.62E-06,  avg # of iterations =  4.0

     negative rho (up, down):  1.009E-03 0.000E+00
 
     Adding external electric field

     Computed dipole along edir(3) : 
        Dipole               -0.1935 Ry au,         -0.4918 Debye
        Dipole field         -0.0006 Ry au
 
        Potential amp.        0.0570 Ry
        Total length         44.6496 bohr
 

     total cpu time spent up to now is      895.6 secs

     total energy              =   -4883.71883948 Ry
     Harris-Foulkes estimate   =   -4883.71915312 Ry
     estimated scf accuracy    <       0.00124883 Ry

     iteration #  5     ecut=    36.75 Ry     beta=0.30
     Davidson diagonalization with overlap
     ethr =  5.34E-07,  avg # of iterations =  2.8

     negative rho (up, down):  1.008E-03 0.000E+00
 
     Adding external electric field

     Computed dipole along edir(3) : 
        Dipole               -0.1883 Ry au,         -0.4786 Debye
        Dipole field         -0.0006 Ry au
 
        Potential amp.        0.0555 Ry
        Total length         44.6496 bohr
 

     total cpu time spent up to now is      913.4 secs

     total energy              =   -4883.71898902 Ry
     Harris-Foulkes estimate   =   -4883.71906715 Ry
     estimated scf accuracy    <       0.00025676 Ry

     iteration #  6     ecut=    36.75 Ry     beta=0.30
     Davidson diagonalization with overlap
     ethr =  1.10E-07,  avg # of iterations =  2.0

     negative rho (up, down):  1.007E-03 0.000E+00
 
     Adding external electric field

     Computed dipole along edir(3) : 
        Dipole               -0.1865 Ry au,         -0.4742 Debye
        Dipole field         -0.0006 Ry au
 
        Potential amp.        0.0550 Ry
        Total length         44.6496 bohr
 

     total cpu time spent up to now is      930.2 secs

     total energy              =   -4883.71901258 Ry
     Harris-Foulkes estimate   =   -4883.71902544 Ry
     estimated scf accuracy    <       0.00004776 Ry

     iteration #  7     ecut=    36.75 Ry     beta=0.30
     Davidson diagonalization with overlap
     ethr =  2.04E-08,  avg # of iterations =  2.0

     negative rho (up, down):  1.007E-03 0.000E+00
 
     Adding external electric field

     Computed dipole along edir(3) : 
        Dipole               -0.1867 Ry au,         -0.4746 Debye
        Dipole field         -0.0006 Ry au
 
        Potential amp.        0.0550 Ry
        Total length         44.6496 bohr
 

     total cpu time spent up to now is      947.4 secs

     total energy              =   -4883.71901732 Ry
     Harris-Foulkes estimate   =   -4883.71901953 Ry
     estimated scf accuracy    <       0.00001327 Ry

     iteration #  8     ecut=    36.75 Ry     beta=0.30
     Davidson diagonalization with overlap
     ethr =  5.67E-09,  avg # of iterations =  2.1

     negative rho (up, down):  1.009E-03 0.000E+00

     negative rho (up, down):  1.009E-03 0.000E+00

     negative rho (up, down):  1.009E-03 0.000E+00

     negative rho (up, down):  1.009E-03 0.000E+00

     negative rho (up, down):  1.009E-03 0.000E+00

     negative rho (up, down):  1.009E-03 0.000E+00

     negative rho (up, down):  1.009E-03 0.000E+00

     negative rho (up, down):  1.009E-03 0.000E+00

     negative rho (up, down):  1.009E-03 0.000E+00

     negative rho (up, down):  1.009E-03 0.000E+00

     negative rho (up, down):  1.009E-03 0.000E+00

     negative rho (up, down):  1.009E-03 0.000E+00

     negative rho (up, down):  1.009E-03 0.000E+00

     negative rho (up, down):  1.009E-03 0.000E+00

     negative rho (up, down):  1.009E-03 0.000E+00

     negative rho (up, down):  1.009E-03 0.000E+00

     negative rho (up, down):  1.009E-03 0.000E+00

     negative rho (up, down):  1.009E-03 0.000E+00

     negative rho (up, down):  1.009E-03 0.000E+00

     negative rho (up, down):  1.009E-03 0.000E+00

     negative rho (up, down):  1.009E-03 0.000E+00

     negative rho (up, down):  1.009E-03 0.000E+00

     negative rho (up, down):  1.009E-03 0.000E+00

     negative rho (up, down):  1.009E-03 0.000E+00

     negative rho (up, down):  1.009E-03 0.000E+00

     negative rho (up, down):  1.009E-03 0.000E+00

     negative rho (up, down):  1.009E-03 0.000E+00

     negative rho (up, down):  1.009E-03 0.000E+00

     negative rho (up, down):  1.009E-03 0.000E+00

     negative rho (up, down):  1.009E-03 0.000E+00

     negative rho (up, down):  1.009E-03 0.000E+00

     negative rho (up, down):  1.009E-03 0.000E+00

     negative rho (up, down):  1.009E-03 0.000E+00

     negative rho (up, down):  1.009E-03 0.000E+00

     negative rho (up, down):  1.009E-03 0.000E+00
 
     Adding external electric field

     Computed dipole along edir(3) : 
        Dipole               -0.1906 Ry au,         -0.4845 Debye
        Dipole field         -0.0006 Ry au
 
        Potential amp.        0.0562 Ry
        Total length         44.6496 bohr
 

     total cpu time spent up to now is      997.1 secs

     End of self-consistent calculation

          k = 0.0000 0.0000 0.0000 ( 14321 PWs)   bands (ev):

  -112.3413-112.3356-112.3355-112.2324-112.2267-112.2266-112.1385-111.9571
  -111.9502-111.9472-111.9460-111.8437 -69.8233 -69.7887 -69.7886 -69.7302
   -69.7301 -69.7053 -69.6975 -69.6695 -69.6694 -69.6523 -69.6496 -69.6495
   -69.6256 -69.6195 -69.6194 -69.6174 -69.5925 -69.5924 -69.5364 -69.5298
   -69.5298 -69.4091 -69.4086 -69.4056 -69.3582 -69.3578 -69.3542 -69.3388
   -69.3387 -69.3077 -69.3014 -69.3008 -69.2996 -69.2739 -69.2739 -69.2072
   -12.6029  -7.8400  -5.9313  -4.7005  -4.4627  -4.4626  -4.3444  -4.1971
    -4.0903  -4.0903  -3.8215  -3.8215  -3.7997  -3.6331  -3.6176  -3.6174
    -3.3250  -3.3249  -3.2436  -2.9334  -2.9333  -2.7820  -2.6558  -2.6558
    -2.6375  -2.5104  -2.5103  -2.4944  -2.4812  -2.4811  -2.4403  -2.3420
    -2.3419  -2.2676  -2.2676  -2.1328  -2.0415  -2.0261  -2.0260  -1.8799
    -1.8311  -1.8311  -1.7320  -1.7317  -1.5954  -1.5954  -1.5066  -1.5063
    -1.3877  -1.3647  -1.3568  -1.3565  -1.3252  -1.2937  -1.2936  -1.2452
    -1.2451  -1.2434  -1.2016  -1.1717  -1.1717  -1.0175  -1.0170  -1.0154
    -0.5982  -0.5982  -0.5816   0.5290   0.5290   0.6037   1.0760   1.6134
     1.6135   1.8347   1.9592   1.9592   3.8311   4.4140   4.6582

          k = 0.0000 0.0371 0.0000 ( 14383 PWs)   bands (ev):

  -112.3410-112.3359-112.3355-112.2320-112.2271-112.2266-112.1385-111.9568
  -111.9502-111.9475-111.9461-111.8437 -69.8209 -69.7901 -69.7882 -69.7298
   -69.7289 -69.7067 -69.6961 -69.6711 -69.6694 -69.6498 -69.6476 -69.6472
   -69.6252 -69.6199 -69.6194 -69.6188 -69.5961 -69.5930 -69.5363 -69.5316
   -69.5303 -69.4066 -69.4050 -69.4022 -69.3608 -69.3586 -69.3548 -69.3434
   -69.3399 -69.3073 -69.3016 -69.3010 -69.2996 -69.2744 -69.2741 -69.2072
   -12.5860  -7.6390  -5.7711  -4.6073  -4.5478  -4.4084  -4.2883  -4.2058
    -4.0614  -4.0241  -3.8118  -3.7530  -3.7203  -3.5851  -3.5711  -3.5501
    -3.3178  -3.2987  -3.1982  -2.9370  -2.9318  -2.7874  -2.6839  -2.6613
    -2.6342  -2.6075  -2.5408  -2.5037  -2.4459  -2.4422  -2.4177  -2.4122
    -2.3274  -2.3198  -2.2649  -2.2148  -2.1351  -2.1297  -2.0639  -1.9332
    -1.9256  -1.8548  -1.7724  -1.7609  -1.7058  -1.6305  -1.6258  -1.5631
    -1.5149  -1.4936  -1.4766  -1.4222  -1.4182  -1.3830  -1.3448  -1.3385
    -1.3130  -1.2942  -1.2794  -1.2488  -1.1766  -1.1553  -1.1000  -1.0464
    -0.9665  -0.6138  -0.5246  -0.1243   0.4282   0.5369   0.8667   1.3715
     1.6614   2.3047   2.7382   2.8124   4.1822   4.6114   4.9881

          k = 0.0000 0.0742 0.0000 ( 14316 PWs)   bands (ev):

  -112.3401-112.3367-112.3355-112.2311-112.2280-112.2266-112.1386-111.9560
  -111.9502-111.9482-111.9462-111.8437 -69.8150 -69.7940 -69.7872 -69.7291
   -69.7253 -69.7103 -69.6922 -69.6760 -69.6693 -69.6472 -69.6420 -69.6373
   -69.6243 -69.6231 -69.6208 -69.6193 -69.6060 -69.5939 -69.5362 -69.5354
   -69.5314 -69.4011 -69.3975 -69.3909 -69.3674 -69.3635 -69.3557 -69.3525
   -69.3429 -69.3061 -69.3025 -69.3012 -69.2998 -69.2753 -69.2744 -69.2072
   -12.5519  -7.0537  -5.3573  -5.1396  -4.4017  -4.2670  -4.2558  -4.0482
    -3.8953  -3.8694  -3.7501  -3.6164  -3.5869  -3.4811  -3.4600  -3.3728
    -3.2672  -3.1760  -3.0855  -2.9668  -2.9400  -2.9296  -2.8464  -2.7782
    -2.6865  -2.6618  -2.6411  -2.5781  -2.5501  -2.4876  -2.4456  -2.3928
    -2.3500  -2.3187  -2.2916  -2.2818  -2.2572  -2.2347  -2.1073  -2.1004
    -2.0291  -1.9943  -1.9909  -1.9379  -1.9135  -1.9081  -1.8466  -1.7893
    -1.7592  -1.7297  -1.6277  -1.6074  -1.5755  -1.5431  -1.5420  -1.5223
    -1.4977  -1.4073  -1.4048  -1.3626  -1.2953  -1.2665  -1.2276  -1.2167
    -1.1664  -0.7345  -0.6358  -0.0093   0.3557   0.4008   0.8605   1.6418
     1.8220   2.6163   3.0806   4.0090   4.5844   5.1889   5.4140

          k = 0.0000-0.1114 0.0000 ( 14294 PWs)   bands (ev):

  -112.3395-112.3373-112.3355-112.2303-112.2287-112.2266-112.1386-111.9555
  -111.9502-111.9486-111.9462-111.8437 -69.8109 -69.7972 -69.7867 -69.7287
   -69.7225 -69.7132 -69.6886 -69.6802 -69.6693 -69.6459 -69.6371 -69.6274
   -69.6271 -69.6236 -69.6215 -69.6193 -69.6158 -69.5943 -69.5375 -69.5362
   -69.5319 -69.3976 -69.3926 -69.3784 -69.3710 -69.3698 -69.3667 -69.3498
   -69.3457 -69.3049 -69.3036 -69.3012 -69.2998 -69.2758 -69.2745 -69.2072
   -12.5348  -6.2172  -6.0949  -4.8537  -4.6576  -4.1612  -4.0812  -3.9158
    -3.8130  -3.7205  -3.6750  -3.5809  -3.5133  -3.4063  -3.3189  -3.2979
    -3.1821  -3.1623  -3.1030  -3.0590  -2.9386  -2.9329  -2.8918  -2.8541
    -2.8133  -2.8041  -2.6755  -2.6183  -2.5605  -2.5265  -2.4922  -2.4391
    -2.4245  -2.3690  -2.3170  -2.2876  -2.2811  -2.2661  -2.2260  -2.2158
    -2.1982  -2.1929  -2.0527  -2.0294  -1.9678  -1.9293  -1.9133  -1.8894
    -1.8636  -1.7891  -1.7865  -1.7190  -1.6578  -1.6394  -1.6345  -1.5844
    -1.5666  -1.5316  -1.4125  -1.3930  -1.3022  -1.2975  -1.2813  -1.2117
    -1.1715  -0.6674  -0.6416  -0.1239   0.3962   0.4134   1.1311   1.5716
     1.8779   2.5333   3.5470   4.2299   4.5247   5.6976   5.9267

          k = 0.0321-0.0186 0.0000 ( 14383 PWs)   bands (ev):

  -112.3410-112.3359-112.3355-112.2320-112.2269-112.2267-112.1385-111.9568
  -111.9503-111.9472-111.9462-111.8437 -69.8209 -69.7901 -69.7881 -69.7298
   -69.7289 -69.7067 -69.6961 -69.6712 -69.6693 -69.6499 -69.6475 -69.6473
   -69.6252 -69.6198 -69.6195 -69.6188 -69.5960 -69.5931 -69.5363 -69.5316
   -69.5303 -69.4062 -69.4055 -69.4021 -69.3605 -69.3592 -69.3545 -69.3433
   -69.3400 -69.3073 -69.3017 -69.3008 -69.2997 -69.2744 -69.2741 -69.2072
   -12.5860  -7.6390  -5.7711  -4.6073  -4.5478  -4.4084  -4.2883  -4.2058
    -4.0615  -4.0241  -3.8119  -3.7530  -3.7203  -3.5851  -3.5710  -3.5502
    -3.3178  -3.2986  -3.1983  -2.9371  -2.9316  -2.7874  -2.6839  -2.6613
    -2.6342  -2.6074  -2.5407  -2.5037  -2.4460  -2.4422  -2.4177  -2.4122
    -2.3274  -2.3198  -2.2649  -2.2148  -2.1351  -2.1298  -2.0637  -1.9332
    -1.9256  -1.8549  -1.7723  -1.7610  -1.7057  -1.6306  -1.6258  -1.5632
    -1.5150  -1.4935  -1.4765  -1.4222  -1.4181  -1.3831  -1.3447  -1.3386
    -1.3130  -1.2942  -1.2792  -1.2488  -1.1769  -1.1550  -1.1000  -1.0464
[...]

          k = 0.0643 0.0371 0.0000 ( 14316 PWs)   bands (ev):

  -112.3162-112.3122-112.3111-112.2758-112.2725-112.2714-112.1684-111.9975
  -111.9910-111.9883-111.9873-111.8818 -69.7819 -69.7585 -69.7520 -69.7120
   -69.7088 -69.6932 -69.6925 -69.6852 -69.6833 -69.6804 -69.6682 -69.6672
   -69.6647 -69.6603 -69.6527 -69.6499 -69.6464 -69.6386 -69.5666 -69.5635
   -69.5629 -69.4419 -69.4385 -69.4317 -69.4082 -69.4044 -69.3964 -69.3932
   -69.3838 -69.3475 -69.3437 -69.3417 -69.3409 -69.3117 -69.3106 -69.2473
   -12.3535  -7.0929  -5.3653  -5.1507  -4.3495  -4.2280  -4.1911  -4.0736
    -3.9055  -3.8758  -3.7572  -3.6025  -3.5950  -3.5033  -3.4822  -3.3835
    -3.2639  -3.1899  -3.0855  -2.9906  -2.9614  -2.9491  -2.8727  -2.7927
    -2.7165  -2.6801  -2.6706  -2.6071  -2.5648  -2.5253  -2.4736  -2.4077
    -2.3784  -2.3344  -2.3216  -2.3169  -2.2860  -2.2605  -2.1280  -2.1210
    -2.0450  -2.0284  -2.0207  -1.9619  -1.9425  -1.9225  -1.8819  -1.8243
    -1.7800  -1.7611  -1.6518  -1.6349  -1.6058  -1.5758  -1.5635  -1.5561
    -1.5171  -1.4336  -1.4326  -1.3992  -1.3288  -1.2994  -1.2527  -1.2510
    -1.1976  -0.7666  -0.6366  -0.0497   0.3192   0.3639   0.8187   1.6089
     1.7714   2.5591   3.0476   3.9741   4.5441   5.1690   5.3866

          k = 0.0643-0.1485 0.0000 ( 14299 PWs)   bands (ev):

  -112.3156-112.3127-112.3111-112.2751-112.2732-112.2714-112.1684-111.9971
  -111.9908-111.9891-111.9872-111.8818 -69.7779 -69.7615 -69.7510 -69.7117
   -69.7063 -69.6954 -69.6890 -69.6835 -69.6785 -69.6743 -69.6721 -69.6688
   -69.6657 -69.6601 -69.6557 -69.6542 -69.6471 -69.6403 -69.5675 -69.5642
   -69.5634 -69.4376 -69.4311 -69.4249 -69.4171 -69.4068 -69.4002 -69.3932
   -69.3872 -69.3467 -69.3439 -69.3424 -69.3406 -69.3120 -69.3110 -69.2473
   -12.3364  -6.5329  -5.5455  -4.9414  -4.7255  -4.3932  -4.0478  -3.9303
    -3.7784  -3.6824  -3.6446  -3.5253  -3.4689  -3.3910  -3.3715  -3.3160
    -3.2356  -3.1465  -3.1046  -3.0458  -3.0136  -2.9888  -2.9345  -2.8966
    -2.8156  -2.7844  -2.7417  -2.6643  -2.6026  -2.5704  -2.5312  -2.5003
    -2.4654  -2.4302  -2.3888  -2.3672  -2.3412  -2.2548  -2.2342  -2.2107
    -2.1803  -2.1645  -2.1299  -2.0697  -1.9771  -1.9530  -1.9079  -1.8811
    -1.8330  -1.7740  -1.7541  -1.7031  -1.6617  -1.6303  -1.6057  -1.5780
    -1.4936  -1.4525  -1.4217  -1.3838  -1.3549  -1.3415  -1.3090  -1.2706
    -1.2311  -0.9522  -0.7267  -0.5323  -0.0509   0.5587   1.3604   1.8533
     2.2524   3.0778   3.2725   3.9655   4.5452   5.1114   5.7451

          k = 0.0643-0.1114 0.0000 ( 14310 PWs)   bands (ev):

  -112.3153-112.3131-112.3111-112.2742-112.2741-112.2714-112.1684-111.9970
  -111.9901-111.9901-111.9871-111.8818 -69.7748 -69.7642 -69.7505 -69.7117
   -69.7045 -69.6969 -69.6844 -69.6809 -69.6801 -69.6765 -69.6689 -69.6679
   -69.6652 -69.6639 -69.6560 -69.6559 -69.6477 -69.6418 -69.5664 -69.5663
   -69.5633 -69.4299 -69.4295 -69.4203 -69.4202 -69.4170 -69.3945 -69.3945
   -69.3922 -69.3463 -69.3436 -69.3433 -69.3404 -69.3117 -69.3116 -69.2473
   -12.3279  -5.7525  -5.6666  -5.5974  -4.4770  -4.3824  -4.3647  -3.7750
    -3.7298  -3.5210  -3.4661  -3.4156  -3.3905  -3.3393  -3.3040  -3.2124
    -3.2088  -3.1789  -3.1710  -3.1572  -3.1524  -2.9894  -2.9860  -2.9598
    -2.8387  -2.7922  -2.7411  -2.7131  -2.7024  -2.6674  -2.6411  -2.6220
    -2.5702  -2.5674  -2.3664  -2.3532  -2.3383  -2.3290  -2.2996  -2.2645
    -2.2329  -2.1670  -2.1417  -2.0183  -2.0082  -1.9874  -1.8362  -1.8340
    -1.7937  -1.7671  -1.7340  -1.6990  -1.6324  -1.6210  -1.5527  -1.5409
    -1.4303  -1.4174  -1.4156  -1.3856  -1.3806  -1.3639  -1.3437  -1.3370
    -1.2851  -1.1773  -1.1634  -0.4561  -0.2103   0.3329   1.8078   1.8755
     2.7339   3.8830   3.9554   4.2608   4.4533   4.7004   4.8365

          k = 0.0643-0.0742 0.0000 ( 14299 PWs)   bands (ev):

  -112.3156-112.3127-112.3111-112.2751-112.2732-112.2714-112.1684-111.9971
  -111.9908-111.9891-111.9872-111.8818 -69.7779 -69.7615 -69.7510 -69.7117
   -69.7063 -69.6954 -69.6890 -69.6835 -69.6785 -69.6743 -69.6721 -69.6688
   -69.6657 -69.6601 -69.6557 -69.6542 -69.6471 -69.6403 -69.5675 -69.5642
   -69.5634 -69.4376 -69.4311 -69.4249 -69.4171 -69.4068 -69.4002 -69.3932
   -69.3872 -69.3467 -69.3439 -69.3424 -69.3406 -69.3120 -69.3110 -69.2473
   -12.3364  -6.5329  -5.5455  -4.9414  -4.7255  -4.3932  -4.0478  -3.9303
    -3.7784  -3.6824  -3.6446  -3.5253  -3.4689  -3.3910  -3.3715  -3.3160
    -3.2356  -3.1465  -3.1046  -3.0458  -3.0136  -2.9888  -2.9345  -2.8966
    -2.8156  -2.7844  -2.7417  -2.6643  -2.6026  -2.5704  -2.5313  -2.5003
    -2.4654  -2.4302  -2.3888  -2.3672  -2.3412  -2.2548  -2.2342  -2.2107
    -2.1802  -2.1645  -2.1299  -2.0697  -1.9771  -1.9530  -1.9079  -1.8811
    -1.8330  -1.7740  -1.7541  -1.7031  -1.6616  -1.6303  -1.6057  -1.5780
    -1.4936  -1.4525  -1.4217  -1.3838  -1.3549  -1.3415  -1.3090  -1.2706
    -1.2311  -0.9522  -0.7267  -0.5323  -0.0510   0.5587   1.3604   1.8533
     2.2524   3.0778   3.2725   3.9656   4.5452   5.1114   5.7451

          k =-0.0964 0.0557 0.0000 ( 14294 PWs)   bands (ev):

  -112.3156-112.3127-112.3111-112.2750-112.2732-112.2714-112.1684-111.9971
  -111.9910-111.9887-111.9873-111.8818 -69.7781 -69.7610 -69.7512 -69.7116
   -69.7064 -69.6955 -69.6914 -69.6801 -69.6787 -69.6736 -69.6718 -69.6687
   -69.6647 -69.6624 -69.6563 -69.6557 -69.6466 -69.6391 -69.5684 -69.5634
   -69.5634 -69.4384 -69.4334 -69.4197 -69.4118 -69.4098 -69.4078 -69.3904
   -69.3866 -69.3466 -69.3443 -69.3418 -69.3409 -69.3122 -69.3108 -69.2473
   -12.3362  -6.2501  -6.1220  -4.8323  -4.6364  -4.0714  -4.0544  -3.8915
    -3.7974  -3.7392  -3.7075  -3.5778  -3.4983  -3.3970  -3.3580  -3.3192
    -3.1965  -3.1939  -3.1197  -3.0832  -2.9694  -2.9527  -2.9156  -2.8833
    -2.8422  -2.8300  -2.6938  -2.6397  -2.5639  -2.5346  -2.5265  -2.4618
    -2.4345  -2.3993  -2.3388  -2.3259  -2.3200  -2.3116  -2.2718  -2.2540
    -2.2358  -2.2083  -2.0594  -2.0475  -2.0009  -1.9646  -1.9258  -1.9140
    -1.8782  -1.8227  -1.8075  -1.7442  -1.6893  -1.6662  -1.6645  -1.6216
    -1.5963  -1.5574  -1.4368  -1.4231  -1.3357  -1.3256  -1.3113  -1.2484
    -1.2029  -0.7004  -0.6402  -0.1609   0.3618   0.3759   1.1062   1.5121
     1.8246   2.4681   3.5278   4.1646   4.4718   5.6366   5.9713

          k =-0.0964 0.0928 0.0000 ( 14299 PWs)   bands (ev):

  -112.3156-112.3127-112.3111-112.2751-112.2732-112.2714-112.1684-111.9971
  -111.9908-111.9891-111.9872-111.8818 -69.7779 -69.7615 -69.7510 -69.7117
   -69.7063 -69.6954 -69.6890 -69.6835 -69.6785 -69.6743 -69.6721 -69.6688
   -69.6657 -69.6601 -69.6557 -69.6542 -69.6471 -69.6403 -69.5675 -69.5642
   -69.5634 -69.4376 -69.4311 -69.4249 -69.4171 -69.4068 -69.4002 -69.3932
   -69.3872 -69.3467 -69.3439 -69.3424 -69.3406 -69.3120 -69.3110 -69.2473
   -12.3364  -6.5329  -5.5455  -4.9414  -4.7255  -4.3932  -4.0478  -3.9303
    -3.7784  -3.6824  -3.6446  -3.5253  -3.4689  -3.3910  -3.3715  -3.3160
    -3.2356  -3.1465  -3.1046  -3.0458  -3.0136  -2.9888  -2.9345  -2.8966
    -2.8156  -2.7844  -2.7417  -2.6643  -2.6026  -2.5704  -2.5313  -2.5003
    -2.4654  -2.4302  -2.3888  -2.3672  -2.3412  -2.2548  -2.2342  -2.2107
    -2.1802  -2.1645  -2.1299  -2.0697  -1.9771  -1.9530  -1.9079  -1.8811
    -1.8330  -1.7740  -1.7541  -1.7031  -1.6616  -1.6303  -1.6057  -1.5780
    -1.4936  -1.4525  -1.4217  -1.3838  -1.3549  -1.3415  -1.3090  -1.2706
    -1.2311  -0.9522  -0.7267  -0.5323  -0.0510   0.5587   1.3604   1.8533
     2.2524   3.0778   3.2725   3.9656   4.5452   5.1114   5.7451

          k =-0.0964 0.1299 0.0000 ( 14299 PWs)   bands (ev):

  -112.3156-112.3127-112.3111-112.2751-112.2732-112.2714-112.1684-111.9971
  -111.9908-111.9891-111.9872-111.8818 -69.7779 -69.7615 -69.7510 -69.7117
   -69.7063 -69.6954 -69.6890 -69.6835 -69.6785 -69.6743 -69.6721 -69.6688
   -69.6657 -69.6601 -69.6557 -69.6542 -69.6471 -69.6403 -69.5675 -69.5642
   -69.5634 -69.4376 -69.4311 -69.4249 -69.4171 -69.4068 -69.4002 -69.3932
   -69.3872 -69.3467 -69.3439 -69.3424 -69.3406 -69.3120 -69.3110 -69.2473
   -12.3364  -6.5329  -5.5455  -4.9414  -4.7255  -4.3932  -4.0478  -3.9303
    -3.7784  -3.6824  -3.6446  -3.5253  -3.4689  -3.3910  -3.3715  -3.3160
    -3.2356  -3.1465  -3.1046  -3.0458  -3.0136  -2.9888  -2.9345  -2.8966
    -2.8156  -2.7844  -2.7417  -2.6643  -2.6026  -2.5704  -2.5312  -2.5003
    -2.4654  -2.4302  -2.3888  -2.3672  -2.3412  -2.2548  -2.2342  -2.2107
    -2.1803  -2.1645  -2.1299  -2.0697  -1.9771  -1.9530  -1.9079  -1.8811
    -1.8330  -1.7740  -1.7541  -1.7031  -1.6617  -1.6303  -1.6057  -1.5780
    -1.4936  -1.4525  -1.4217  -1.3838  -1.3549  -1.3415  -1.3090  -1.2706
    -1.2311  -0.9522  -0.7267  -0.5323  -0.0509   0.5587   1.3604   1.8533
     2.2524   3.0778   3.2725   3.9656   4.5452   5.1114   5.7451

          k =-0.0964-0.0557 0.0000 ( 14294 PWs)   bands (ev):

  -112.3156-112.3127-112.3111-112.2750-112.2732-112.2714-112.1684-111.9971
  -111.9910-111.9887-111.9873-111.8818 -69.7781 -69.7610 -69.7512 -69.7116
   -69.7064 -69.6955 -69.6914 -69.6801 -69.6787 -69.6736 -69.6718 -69.6687
   -69.6647 -69.6624 -69.6563 -69.6557 -69.6466 -69.6391 -69.5684 -69.5634
   -69.5634 -69.4384 -69.4334 -69.4197 -69.4118 -69.4098 -69.4078 -69.3904
   -69.3866 -69.3466 -69.3443 -69.3418 -69.3409 -69.3122 -69.3108 -69.2473
   -12.3362  -6.2501  -6.1220  -4.8324  -4.6364  -4.0714  -4.0544  -3.8915
    -3.7973  -3.7392  -3.7075  -3.5778  -3.4983  -3.3970  -3.3580  -3.3192
    -3.1965  -3.1939  -3.1197  -3.0833  -2.9694  -2.9527  -2.9157  -2.8833
    -2.8422  -2.8300  -2.6938  -2.6397  -2.5639  -2.5346  -2.5265  -2.4618
    -2.4345  -2.3993  -2.3388  -2.3259  -2.3200  -2.3116  -2.2718  -2.2541
    -2.2358  -2.2083  -2.0595  -2.0475  -2.0009  -1.9646  -1.9258  -1.9140
    -1.8782  -1.8227  -1.8074  -1.7442  -1.6893  -1.6662  -1.6645  -1.6216
    -1.5963  -1.5574  -1.4368  -1.4231  -1.3357  -1.3256  -1.3113  -1.2484
    -1.2029  -0.7004  -0.6402  -0.1609   0.3618   0.3759   1.1062   1.5121
     1.8246   2.4681   3.5278   4.1646   4.4718   5.6366   5.9713

     the Fermi energy is     0.3555 ev

!    total energy              =   -4883.72123392 Ry
     Harris-Foulkes estimate   =   -4883.72123335 Ry
     estimated scf accuracy    <       0.00000006 Ry

     The total energy is the sum of the following terms:

     one-electron contribution =  -37891.54231333 Ry
     hartree contribution      =   18961.20605361 Ry
     xc contribution           =    -488.89560588 Ry
     ewald contribution        =   14535.53880342 Ry
     electric field correction =       0.00014505 Ry
     smearing contrib. (-TS)   =      -0.02831680 Ry

     convergence has been achieved in   9 iterations
 
 BEEF-vdW xc energy contributions
           1 :   -433.043658935855     
           2 :    392.477030469148     
           3 :   -323.711354656714     
           4 :    245.606155144628     
           5 :   -175.392909914685     
           6 :    122.529306959750     
           7 :   -87.1690131777852     
           8 :    63.2455211550486     
           9 :   -43.7630619403962     
          10 :    25.0395721726314     
          11 :   -7.77441275812828     
          12 :   -4.98483190721731     
          13 :    11.0400628012028     
          14 :   -11.0796100099618     
          15 :    8.35837146397785     
          16 :   -6.56806008471563     
          17 :    7.57537440010731     
          18 :   -10.5880892866754     
          19 :    13.1667669859364     
          20 :   -13.2138743771019     
          21 :    10.4952470138201     
          22 :   -6.70317691528828     
          23 :    4.15175156488692     
          24 :   -4.12747444653274     
          25 :    6.06824395394233     
          26 :   -8.08389752907311     
          27 :    8.36688248374656     
          28 :   -6.45819892582756     
          29 :    3.49619203620955     
          30 :   -1.33191933557885     
          31 :   -34.7575908661292     
          32 :   -23.7577988226933     

     Forces acting on atoms (Ry/au):


     negative rho (up, down):  1.016E-03 0.000E+00
     atom    1 type  1   force =     0.00004100    0.00002362    0.00314085
     atom    2 type  1   force =    -0.00004105    0.00002360    0.00314125
     atom    3 type  1   force =    -0.00000001   -0.00004730    0.00314102
     atom    4 type  1   force =     0.00000001    0.00000003   -0.00057107
     atom    5 type  1   force =    -0.00000109    0.00336812   -0.00036336
     atom    6 type  1   force =     0.00000141   -0.00000013   -0.00863226
     atom    7 type  1   force =    -0.00291696   -0.00168346   -0.00036143
     atom    8 type  1   force =     0.00291680   -0.00168463   -0.00036220
     atom    9 type  1   force =    -0.00000380   -0.00000324   -0.00105644
     atom   10 type  1   force =     0.00000472    0.00090282    0.00047504
     atom   11 type  1   force =     0.00078615   -0.00044763    0.00048031
     atom   12 type  1   force =    -0.00078593   -0.00045319    0.00047508
     atom   13 type  2   force =    -0.00000125    0.00000138    0.00049321

     Total force =     0.002121     Total SCF correction =     0.000877
     SCF correction compared to forces is large: reduce conv_thr to get better values


     entering subroutine stress ...


     negative rho (up, down):  1.016E-03 0.000E+00
          total   stress  (Ry/bohr**3)                   (kbar)     P=  -17.76
  -0.00013327   0.00000000  -0.00000000        -19.60      0.00     -0.00
   0.00000000  -0.00013327   0.00000000          0.00    -19.60      0.00
  -0.00000000   0.00000000  -0.00009573         -0.00      0.00    -14.08


     bfgs converged in   8 scf cycles and   7 bfgs steps
     (criteria: energy <  1.0E+00, force <  1.9E-03)

     End of BFGS Geometry Optimization

     Final energy   =   -4883.7212339225 Ry
Begin final coordinates

ATOMIC_POSITIONS (crystal)
Cu1      0.166666667   0.166666667   0.412653782    0   0   0
Cu1      0.666666667   0.166666667   0.412653782    0   0   0
Cu1      0.166666667   0.666666667   0.412653782    0   0   0
Cu1      0.666666667   0.666666667   0.412653782    0   0   0
Cu1      0.833333333   0.333333333   0.500000000    0   0   0
Cu1      0.333333333   0.333333333   0.500000000    0   0   0
Cu1      0.833333333   0.833333333   0.500000000    0   0   0
Cu1      0.333333333   0.833333333   0.500000000    0   0   0
Cu1      0.000000361   0.000001165   0.585850539
Cu1      0.504257163  -0.008517894   0.587149475
Cu1     -0.008515387   0.504255152   0.587148776
Cu1      0.504260581   0.504259671   0.587149549
S1       0.333336782   0.333332330   0.654260226
End final coordinates



     Writing output data file calc.save
 
     init_run     :      8.88s CPU      9.09s WALL (       1 calls)
     electrons    :   2064.25s CPU   2155.04s WALL (       8 calls)
     update_pot   :     15.84s CPU     16.46s WALL (       7 calls)
     forces       :     89.50s CPU     93.40s WALL (       8 calls)
     stress       :    282.09s CPU    289.97s WALL (       8 calls)

     Called by init_run:
     wfcinit      :      3.80s CPU      3.86s WALL (       1 calls)
     potinit      :      1.31s CPU      1.40s WALL (       1 calls)

     Called by electrons:
     c_bands      :   1062.08s CPU   1096.14s WALL (      98 calls)
     sum_band     :    349.86s CPU    366.67s WALL (      98 calls)
     v_of_rho     :    106.25s CPU    113.50s WALL (     105 calls)
     newd         :    297.60s CPU    301.60s WALL (     105 calls)
     mix_rho      :      3.96s CPU      4.07s WALL (      98 calls)
     vdW_energy   :     64.54s CPU     71.00s WALL (     393 calls)
     vdW_ffts     :    131.63s CPU    137.65s WALL (     802 calls)
     vdW_v        :     56.57s CPU     58.42s WALL (     393 calls)

     Called by c_bands:
     init_us_2    :      4.27s CPU      4.31s WALL (    1065 calls)
     cegterg      :   1016.70s CPU   1041.26s WALL (     492 calls)

     Called by *egterg:
     h_psi        :    536.08s CPU    548.81s WALL (    2214 calls)
     s_psi        :     59.59s CPU     59.72s WALL (    2214 calls)
     g_psi        :      3.95s CPU      3.98s WALL (    1717 calls)
     cdiaghg      :    178.54s CPU    179.87s WALL (    2169 calls)

     Called by h_psi:
     add_vuspsi   :     61.23s CPU     61.32s WALL (    2214 calls)

     General routines
     calbec       :     93.47s CPU     94.74s WALL (    2784 calls)
     fft          :    202.20s CPU    216.81s WALL (   23765 calls)
     ffts         :      0.29s CPU      0.30s WALL (     203 calls)
     fftw         :    332.22s CPU    348.38s WALL (  379792 calls)
     interpolate  :      2.31s CPU      2.38s WALL (     203 calls)
     davcio       :      0.00s CPU      0.04s WALL (       5 calls)
 
     Parallel routines
     fft_scatter  :    281.14s CPU    308.85s WALL (  403760 calls)
 
     PWSCF        : 41m24.17s CPU    43m10.34s WALL

 
   This run was terminated on:  13:33: 6   2May2018            

=------------------------------------------------------------------------------=
   JOB DONE.
=------------------------------------------------------------------------------=
Job  /afs/slac/g/suncat/bin/suncat-tsmpirun -x LD_LIBRARY_PATH -wdir /scratch/qe633032_0hgTd pw.x -npool 4 -in pw.inp

TID   HOST_NAME   COMMAND_LINE            STATUS            TERMINATION_TIME
===== ========== ================  =======================  ===================
00000 suncat0055 pw.x -npool 4 -i  Done                     05/02/2018 13:33:06
00001 suncat0055 pw.x -npool 4 -i  Done                     05/02/2018 13:33:06
00002 suncat0055 pw.x -npool 4 -i  Done                     05/02/2018 13:33:06
00003 suncat0055 pw.x -npool 4 -i  Done                     05/02/2018 13:33:06
00004 suncat0055 pw.x -npool 4 -i  Done                     05/02/2018 13:33:06
00005 suncat0055 pw.x -npool 4 -i  Done                     05/02/2018 13:33:06
00006 suncat0055 pw.x -npool 4 -i  Done                     05/02/2018 13:33:06
00007 suncat0055 pw.x -npool 4 -i  Done                     05/02/2018 13:33:06
00008 suncat0049 pw.x -npool 4 -i  Done                     05/02/2018 13:33:06
00009 suncat0049 pw.x -npool 4 -i  Done                     05/02/2018 13:33:06
00010 suncat0049 pw.x -npool 4 -i  Done                     05/02/2018 13:33:06
00011 suncat0049 pw.x -npool 4 -i  Done                     05/02/2018 13:33:06
00012 suncat0049 pw.x -npool 4 -i  Done                     05/02/2018 13:33:06
00013 suncat0049 pw.x -npool 4 -i  Done                     05/02/2018 13:33:06
00014 suncat0049 pw.x -npool 4 -i  Done                     05/02/2018 13:33:06
00015 suncat0049 pw.x -npool 4 -i  Done                     05/02/2018 13:33:06
00016 suncat0194 pw.x -npool 4 -i  Done                     05/02/2018 13:33:06
00017 suncat0194 pw.x -npool 4 -i  Done                     05/02/2018 13:33:06
00018 suncat0194 pw.x -npool 4 -i  Done                     05/02/2018 13:33:06
00019 suncat0194 pw.x -npool 4 -i  Done                     05/02/2018 13:33:06
00020 suncat0194 pw.x -npool 4 -i  Done                     05/02/2018 13:33:06
00021 suncat0194 pw.x -npool 4 -i  Done                     05/02/2018 13:33:06
00022 suncat0194 pw.x -npool 4 -i  Done                     05/02/2018 13:33:06
00023 suncat0194 pw.x -npool 4 -i  Done                     05/02/2018 13:33:06
00024 suncat0188 pw.x -npool 4 -i  Done                     05/02/2018 13:33:06
00025 suncat0188 pw.x -npool 4 -i  Done                     05/02/2018 13:33:06
00026 suncat0188 pw.x -npool 4 -i  Done                     05/02/2018 13:33:06
00027 suncat0188 pw.x -npool 4 -i  Done                     05/02/2018 13:33:06
00028 suncat0188 pw.x -npool 4 -i  Done                     05/02/2018 13:33:06
00029 suncat0188 pw.x -npool 4 -i  Done                     05/02/2018 13:33:06
00030 suncat0188 pw.x -npool 4 -i  Done                     05/02/2018 13:33:06
00031 suncat0188 pw.x -npool 4 -i  Done                     05/02/2018 13:33:06
