  python dir          : /nfs/slac/g/suncatfs/sw/espv20/lib/python2.7/site-packages/espresso
  espresso dir        : /nfs/slac/g/suncatfs/sw/espv18/espresso-dynpy-beef/bin
  pseudo dir          : /afs/slac.stanford.edu/u/if/mamunm/psp/gbrv1.5pbe
  ase-espresso py git : ffa2778-git



     Program PWSCF v.5.1rc2 (svn rev. 11289) starts on 20Jan2018 at 15:27:38 

     This program is part of the open-source Quantum ESPRESSO suite
     for quantum simulation of materials; please cite
         "P. Giannozzi et al., J. Phys.:Condens. Matter 21 395502 (2009);
          URL http://www.quantum-espresso.org", 
     in publications or presentations arising from this work. More details at
     http://www.quantum-espresso.org/quote

     Parallel version (MPI), running on    32 processors
     R & G space division:  proc/nbgrp/npool/nimage =      32
     Reading input from pw.inp
     Message from routine read_cards :
     DEPRECATED: no units specified in CELL_PARAMETERS card

     Current dimensions of program PWSCF are:
     Max number of different atomic species (ntypx) = 10
     Max number of k-points (npk) =  40000
     Max angular momentum in pseudopotentials (lmaxx) =  3
     Presently stress not available with electric field


     **************************************************************************
     Initializing libbeef V0.1.1 with the BEEF-vdW functional.
     Citation: Wellendorff et al., PRB 85, 235149 (2012).
     **************************************************************************


     IMPORTANT: XC functional enforced from input :
     Exchange-correlation      = BEEF-VDW ( 1  4 27 13 2)
     Any further DFT definition will be discarded
     Please, verify this is what you really want


     Subspace diagonalization in iterative solution of the eigenvalue problem:
     a serial algorithm will be used

 
     Parallelization info
     --------------------
     sticks:   dense  smooth     PW     G-vecs:    dense   smooth      PW
     Min         134      54     15                26644     6724    1019
     Max         135      55     16                26659     6775    1034
     Sum        4315    1735    499               852865   215821   32865
 


     bravais-lattice index     =            0
     lattice parameter (alat)  =       1.8897  a.u.
     unit-cell volume          =    7171.5276 (a.u.)^3
     number of atoms/cell      =           13
     number of atomic types    =            2
     number of electrons       =       173.00
     number of Kohn-Sham states=           96
     kinetic-energy cutoff     =      36.7493  Ry
     charge density cutoff     =     367.4932  Ry
     convergence threshold     =      1.0E-05
     mixing beta               =       0.3000
     number of iterations used =           10  plain     mixing
     Exchange-correlation      = BEEF-VDW ( 1  4 27 13 2)
     nstep                     =           50


     celldm(1)=   1.889726  celldm(2)=   0.000000  celldm(3)=   0.000000
     celldm(4)=   0.000000  celldm(5)=   0.000000  celldm(6)=   0.000000

     crystal axes: (cart. coord. in units of alat)
               a(1) = (   6.917003   0.000000   0.000000 )  
               a(2) = (   3.458501   5.990300   0.000000 )  
               a(3) = (   0.000000   0.000000  25.647709 )  

     reciprocal axes: (cart. coord. in units 2 pi/alat)
               b(1) = (  0.144571 -0.083468  0.000000 )  
               b(2) = (  0.000000  0.166937  0.000000 )  
               b(3) = (  0.000000  0.000000  0.038990 )  


     PseudoPot. # 1 for Pb read from file:
     /afs/slac.stanford.edu/u/if/mamunm/psp/gbrv1.5pbe/Pb.UPF
     MD5 check sum: 3d1c1779aa92214d1e8f3a7db79003e2
     Pseudo is Ultrasoft + core correction, Zval = 14.0
     Generated by new atomic code, or converted to UPF format
     Using radial grid of  899 points,  6 beta functions with: 
                l(1) =   0
                l(2) =   0
                l(3) =   1
                l(4) =   1
                l(5) =   2
                l(6) =   2
     Q(r) pseudized with  6 coefficients,  rinner =    1.000   1.000   1.000
                                                       1.000   1.000

     PseudoPot. # 2 for N  read from file:
     /afs/slac.stanford.edu/u/if/mamunm/psp/gbrv1.5pbe/N.UPF
     MD5 check sum: 95339753478d7afb44899504a8723017
     Pseudo is Ultrasoft + core correction, Zval =  5.0
     Generated by new atomic code, or converted to UPF format
     Using radial grid of  729 points,  4 beta functions with: 
                l(1) =   0
                l(2) =   0
                l(3) =   1
                l(4) =   1
     Q(r) pseudized with  8 coefficients,  rinner =    0.900   0.900   0.900


     vdW kernel table read from file vdW_kernel_table
     MD5 check sum: 095c7af220d748ca6e76c0b4c6cfb241

     atomic species   valence    mass     pseudopotential
        Pb1           14.00   207.20000     Pb( 1.00)
        N1             5.00    14.00700     N ( 1.00)

     No symmetry found



   Cartesian axes

     site n.     atom                  positions (alat units)
         1           Pb1 tau(   1) = (   1.7292506   0.9983833  10.0000000  )
         2           Pb1 tau(   2) = (   5.1877519   0.9983833  10.0000000  )
         3           Pb1 tau(   3) = (   3.4585013   3.9935333  10.0000000  )
         4           Pb1 tau(   4) = (   6.9170025   3.9935333  10.0000000  )
         5           Pb1 tau(   5) = (   6.9170025   1.9967666  12.8238544  )
         6           Pb1 tau(   6) = (   3.4585013   1.9967666  12.8238544  )
         7           Pb1 tau(   7) = (   8.6462531   4.9919166  12.8238544  )
         8           Pb1 tau(   8) = (   5.1877519   4.9919166  12.8238544  )
         9           Pb1 tau(   9) = (   0.0000000   0.0000000  15.6477089  )
        10           Pb1 tau(  10) = (   3.4585013   0.0000000  15.6477089  )
        11           Pb1 tau(  11) = (   1.7292506   2.9951499  15.6477089  )
        12           Pb1 tau(  12) = (   5.1877519   2.9951499  15.6477089  )
        13           N1  tau(  13) = (   1.7292506   0.9983833  17.8177089  )

     number of k points=    20  Fermi-Dirac smearing, width (Ry)=  0.0110
                       cart. coord. in units 2pi/alat
        k(    1) = (   0.0000000   0.0000000   0.0000000), wk =   0.0555556
        k(    2) = (   0.0000000   0.0278228   0.0000000), wk =   0.1111111
        k(    3) = (   0.0000000   0.0556455   0.0000000), wk =   0.1111111
        k(    4) = (   0.0000000  -0.0834683   0.0000000), wk =   0.0555556
        k(    5) = (   0.0240952  -0.0139114   0.0000000), wk =   0.1111111
        k(    6) = (   0.0240952   0.0139114   0.0000000), wk =   0.1111111
        k(    7) = (   0.0240952   0.0417341   0.0000000), wk =   0.1111111
        k(    8) = (   0.0240952  -0.0973797   0.0000000), wk =   0.1111111
        k(    9) = (   0.0240952  -0.0695569   0.0000000), wk =   0.1111111
        k(   10) = (   0.0240952  -0.0417341   0.0000000), wk =   0.1111111
        k(   11) = (   0.0481904  -0.0278228   0.0000000), wk =   0.1111111
        k(   12) = (   0.0481904   0.0000000   0.0000000), wk =   0.1111111
        k(   13) = (   0.0481904   0.0278228   0.0000000), wk =   0.1111111
        k(   14) = (   0.0481904  -0.1112910   0.0000000), wk =   0.1111111
        k(   15) = (   0.0481904  -0.0834683   0.0000000), wk =   0.1111111
        k(   16) = (   0.0481904  -0.0556455   0.0000000), wk =   0.1111111
        k(   17) = (  -0.0722856   0.0417341   0.0000000), wk =   0.0555556
        k(   18) = (  -0.0722856   0.0695569   0.0000000), wk =   0.1111111
        k(   19) = (  -0.0722856   0.0973797   0.0000000), wk =   0.1111111
        k(   20) = (  -0.0722856  -0.0417341   0.0000000), wk =   0.0555556

     Dense  grid:   852865 G-vectors     FFT dimensions: (  80,  80, 300)

     Smooth grid:   215821 G-vectors     FFT dimensions: (  54,  54, 192)

     Largest allocated arrays     est. size (Mb)     dimensions
        Kohn-Sham Wavefunctions         1.26 Mb     (     858,   96)
        NL pseudopotentials             2.93 Mb     (     858,  224)
        Each V/rho on FFT grid          0.98 Mb     (   64000)
        Each G-vector array             0.20 Mb     (   26644)
        G-vector shells                 0.09 Mb     (   12051)
     Largest temporary arrays     est. size (Mb)     dimensions
        Auxiliary wavefunctions         5.03 Mb     (     858,  384)
        Each subspace H/S matrix        2.25 Mb     (     384,  384)
        Each <psi_i|beta_j> matrix      0.33 Mb     (     224,   96)
        Arrays for rho mixing           9.77 Mb     (   64000,   10)

     Check: negative/imaginary core charge=   -0.000001    0.000000

     Initial potential from superposition of free atoms
     Check: negative starting charge=   -0.198137

     starting charge  172.97177, renormalised to  173.00000

     negative rho (up, down):  1.982E-01 0.000E+00


     ************************************************************************
     *
     * You are using vdW-DF for exchange-correlation in this calculation.
     * Please cite the following three references that made this development
     * possible:
     *
     *   M. Dion, H. Rydberg, E. Schroder, D. C. Langreth, and
     *   B. I. Lundqvist, Phys. Rev. Lett. 92, 246401 (2004).
     *
     *   T. Thonhauser, V. R. Cooper, S. Li, A. Puzder, P. Hyldgaard, and
     *   D. C. Langreth, Phys. Rev. B 76, 125112 (2007).
     *
     *   G. Roman-Perez and J. M. Soler, Phys. Rev. Lett. 103, 096102 (2009).
     *
     *
     * If you are using vdW-DF2, please also cite:
     *
     *   K. Lee, E. D. Murray, L. Kong, B. I. Lundqvist, and
     *   D. C. Langreth, Phys. Rev. B 82, 081101(R) (2010).
     *
     *
     * If you are calculating the stress with vdW-DF, please also cite:
     *
     *   R. Sabatini, E. Kucukbenli, B. Kolb, T. Thonhauser, and
     *   S. de Gironcoli, J. Phys.: Condens. Matter 24, 424209 (2012).
     *
     ************************************************************************

     Carrying out vdW-DF run using the following parameters:

     Nqs =      20    Nr_points =    1024   r_max =   100.000
     q_mesh =
               0.00001000     0.04494208     0.09755937     0.15916263
               0.23128650     0.31572767     0.41458969     0.53033537
               0.66584808     0.82450364     1.01025438     1.22772762
               1.48234092     1.78043706     2.12944203     2.53805004
               3.01644009     3.57652955     4.23227104     5.00000000

     Gradients computed in reciprocal space

     ************************************************************************


 
     Adding external electric field

     Computed dipole along edir(3) : 
        Dipole               -0.0076 Ry au,         -0.0193 Debye
        Dipole field         -0.0000 Ry au
 
        Potential amp.        0.0013 Ry
        Total length         47.2555 bohr
 
     Starting wfc are  112 randomized atomic wfcs

     total cpu time spent up to now is       24.9 secs

     per-process dynamical memory:    61.2 Mb

     Self-consistent Calculation

     iteration #  1     ecut=    36.75 Ry     beta=0.30
     Davidson diagonalization with overlap
     ethr =  1.00E-02,  avg # of iterations =  2.0

     negative rho (up, down):  1.982E-01 0.000E+00
 
     Adding external electric field

     Computed dipole along edir(3) : 
        Dipole               -7.0372 Ry au,        -17.8869 Debye
        Dipole field         -0.0123 Ry au
 
        Potential amp.        1.1654 Ry
        Total length         47.2555 bohr
 

     total cpu time spent up to now is       77.2 secs

     total energy              =   -2009.98301192 Ry
     Harris-Foulkes estimate   =   -2012.50419226 Ry
     estimated scf accuracy    <       5.37273243 Ry

     iteration #  2     ecut=    36.75 Ry     beta=0.30
     Davidson diagonalization with overlap
     ethr =  3.11E-03,  avg # of iterations =  7.6

     negative rho (up, down):  1.963E-01 0.000E+00
 
     Adding external electric field

     Computed dipole along edir(3) : 
        Dipole                0.2368 Ry au,          0.6018 Debye
        Dipole field          0.0004 Ry au
 
        Potential amp.       -0.0392 Ry
        Total length         47.2555 bohr
 

     total cpu time spent up to now is      158.8 secs

     total energy              =   -2005.89570170 Ry
     Harris-Foulkes estimate   =   -2020.37510725 Ry
     estimated scf accuracy    <     208.65919147 Ry

     iteration #  3     ecut=    36.75 Ry     beta=0.30
     Davidson diagonalization with overlap
     ethr =  3.11E-03,  avg # of iterations =  5.0

     negative rho (up, down):  1.974E-01 0.000E+00
 
     Adding external electric field

     Computed dipole along edir(3) : 
        Dipole               -0.2209 Ry au,         -0.5616 Debye
        Dipole field         -0.0004 Ry au
 
        Potential amp.        0.0366 Ry
        Total length         47.2555 bohr
 

     total cpu time spent up to now is      227.6 secs

     total energy              =   -2011.58946343 Ry
     Harris-Foulkes estimate   =   -2013.31854671 Ry
     estimated scf accuracy    <      12.16713126 Ry

     iteration #  4     ecut=    36.75 Ry     beta=0.30
     Davidson diagonalization with overlap
     ethr =  3.11E-03,  avg # of iterations =  4.0

     negative rho (up, down):  1.986E-01 0.000E+00
 
     Adding external electric field

     Computed dipole along edir(3) : 
        Dipole               -0.4022 Ry au,         -1.0222 Debye
        Dipole field         -0.0007 Ry au
 
        Potential amp.        0.0666 Ry
        Total length         47.2555 bohr
 

     total cpu time spent up to now is      289.0 secs

     total energy              =   -2012.20970841 Ry
     Harris-Foulkes estimate   =   -2012.23318143 Ry
     estimated scf accuracy    <       0.13085333 Ry

     iteration #  5     ecut=    36.75 Ry     beta=0.30
     Davidson diagonalization with overlap
     ethr =  7.56E-05,  avg # of iterations =  3.4

     negative rho (up, down):  1.988E-01 0.000E+00
 
     Adding external electric field

     Computed dipole along edir(3) : 
        Dipole               -0.4345 Ry au,         -1.1043 Debye
        Dipole field         -0.0008 Ry au
 
        Potential amp.        0.0719 Ry
        Total length         47.2555 bohr
 

     total cpu time spent up to now is      344.9 secs

     total energy              =   -2012.22001653 Ry
     Harris-Foulkes estimate   =   -2012.22086816 Ry
     estimated scf accuracy    <       0.03516654 Ry

     iteration #  6     ecut=    36.75 Ry     beta=0.30
     Davidson diagonalization with overlap
     ethr =  2.03E-05,  avg # of iterations =  4.0

     negative rho (up, down):  2.048E-01 0.000E+00
 
     Adding external electric field

     Computed dipole along edir(3) : 
        Dipole               -0.7856 Ry au,         -1.9967 Debye
        Dipole field         -0.0014 Ry au
 
        Potential amp.        0.1301 Ry
        Total length         47.2555 bohr
 

     total cpu time spent up to now is      396.9 secs

     total energy              =   -2012.21427161 Ry
     Harris-Foulkes estimate   =   -2012.22001223 Ry
     estimated scf accuracy    <       0.02879675 Ry

     iteration #  7     ecut=    36.75 Ry     beta=0.30
     Davidson diagonalization with overlap
     ethr =  1.66E-05,  avg # of iterations =  5.2

     negative rho (up, down):  2.078E-01 0.000E+00
 
     Adding external electric field

     Computed dipole along edir(3) : 
        Dipole               -0.8069 Ry au,         -2.0509 Debye
        Dipole field         -0.0014 Ry au
 
        Potential amp.        0.1336 Ry
        Total length         47.2555 bohr
 

     total cpu time spent up to now is      462.8 secs

     total energy              =   -2012.19957295 Ry
     Harris-Foulkes estimate   =   -2012.22119945 Ry
     estimated scf accuracy    <       0.24607331 Ry

     iteration #  8     ecut=    36.75 Ry     beta=0.30
     Davidson diagonalization with overlap
     ethr =  1.66E-05,  avg # of iterations =  3.8

     negative rho (up, down):  2.096E-01 0.000E+00
 
     Adding external electric field

     Computed dipole along edir(3) : 
        Dipole               -0.8632 Ry au,         -2.1942 Debye
        Dipole field         -0.0015 Ry au
 
        Potential amp.        0.1430 Ry
        Total length         47.2555 bohr
 

     total cpu time spent up to now is      522.7 secs

     total energy              =   -2012.21073517 Ry
     Harris-Foulkes estimate   =   -2012.22452205 Ry
     estimated scf accuracy    <       0.33357653 Ry

     iteration #  9     ecut=    36.75 Ry     beta=0.30
     Davidson diagonalization with overlap
     ethr =  1.66E-05,  avg # of iterations =  3.0

     negative rho (up, down):  2.098E-01 0.000E+00
 
     Adding external electric field

     Computed dipole along edir(3) : 
        Dipole               -0.8201 Ry au,         -2.0846 Debye
        Dipole field         -0.0014 Ry au
 
        Potential amp.        0.1358 Ry
        Total length         47.2555 bohr
 

     total cpu time spent up to now is      576.3 secs

     total energy              =   -2012.21696117 Ry
     Harris-Foulkes estimate   =   -2012.21714551 Ry
     estimated scf accuracy    <       0.00229743 Ry

     iteration # 10     ecut=    36.75 Ry     beta=0.30
     Davidson diagonalization with overlap
     ethr =  1.33E-06,  avg # of iterations =  5.2

     negative rho (up, down):  2.114E-01 0.000E+00
 
     Adding external electric field

     Computed dipole along edir(3) : 
        Dipole               -0.8374 Ry au,         -2.1286 Debye
        Dipole field         -0.0015 Ry au
 
        Potential amp.        0.1387 Ry
        Total length         47.2555 bohr
 

     total cpu time spent up to now is      649.9 secs

     total energy              =   -2012.21698977 Ry
     Harris-Foulkes estimate   =   -2012.21757723 Ry
     estimated scf accuracy    <       0.01474041 Ry

     iteration # 11     ecut=    36.75 Ry     beta=0.30
     Davidson diagonalization with overlap
     ethr =  1.33E-06,  avg # of iterations =  2.4

     negative rho (up, down):  2.138E-01 0.000E+00
 
     Adding external electric field

     Computed dipole along edir(3) : 
        Dipole               -0.8468 Ry au,         -2.1522 Debye
        Dipole field         -0.0015 Ry au
 
        Potential amp.        0.1402 Ry
        Total length         47.2555 bohr
 

     total cpu time spent up to now is      699.1 secs

     total energy              =   -2012.21733233 Ry
     Harris-Foulkes estimate   =   -2012.21731249 Ry
     estimated scf accuracy    <       0.00008475 Ry

     iteration # 12     ecut=    36.75 Ry     beta=0.30
     Davidson diagonalization with overlap
     ethr =  4.90E-08,  avg # of iterations =  5.0

     negative rho (up, down):  2.140E-01 0.000E+00
 
     Adding external electric field

     Computed dipole along edir(3) : 
        Dipole               -0.8426 Ry au,         -2.1417 Debye
        Dipole field         -0.0015 Ry au
 
        Potential amp.        0.1395 Ry
        Total length         47.2555 bohr
 

     total cpu time spent up to now is      777.0 secs

     total energy              =   -2012.21735228 Ry
     Harris-Foulkes estimate   =   -2012.21737764 Ry
     estimated scf accuracy    <       0.00018698 Ry

     iteration # 13     ecut=    36.75 Ry     beta=0.30
     Davidson diagonalization with overlap
     ethr =  4.90E-08,  avg # of iterations =  1.8

     negative rho (up, down):  2.142E-01 0.000E+00
 
     Adding external electric field

     Computed dipole along edir(3) : 
        Dipole               -0.8423 Ry au,         -2.1408 Debye
        Dipole field         -0.0015 Ry au
 
        Potential amp.        0.1395 Ry
        Total length         47.2555 bohr
 

     total cpu time spent up to now is      825.1 secs

     total energy              =   -2012.21735740 Ry
     Harris-Foulkes estimate   =   -2012.21736043 Ry
     estimated scf accuracy    <       0.00001603 Ry

     iteration # 14     ecut=    36.75 Ry     beta=0.30
     Davidson diagonalization with overlap
     ethr =  9.27E-09,  avg # of iterations =  2.7

     negative rho (up, down):  2.142E-01 0.000E+00

     negative rho (up, down):  2.142E-01 0.000E+00

     negative rho (up, down):  2.142E-01 0.000E+00

     negative rho (up, down):  2.142E-01 0.000E+00

     negative rho (up, down):  2.142E-01 0.000E+00

     negative rho (up, down):  2.142E-01 0.000E+00

     negative rho (up, down):  2.142E-01 0.000E+00

     negative rho (up, down):  2.142E-01 0.000E+00

     negative rho (up, down):  2.142E-01 0.000E+00

     negative rho (up, down):  2.142E-01 0.000E+00

     negative rho (up, down):  2.142E-01 0.000E+00

     negative rho (up, down):  2.142E-01 0.000E+00

     negative rho (up, down):  2.142E-01 0.000E+00

     negative rho (up, down):  2.142E-01 0.000E+00

     negative rho (up, down):  2.142E-01 0.000E+00

     negative rho (up, down):  2.142E-01 0.000E+00

     negative rho (up, down):  2.142E-01 0.000E+00

     negative rho (up, down):  2.142E-01 0.000E+00

     negative rho (up, down):  2.142E-01 0.000E+00

     negative rho (up, down):  2.142E-01 0.000E+00

     negative rho (up, down):  2.142E-01 0.000E+00

     negative rho (up, down):  2.142E-01 0.000E+00

     negative rho (up, down):  2.142E-01 0.000E+00

     negative rho (up, down):  2.142E-01 0.000E+00

     negative rho (up, down):  2.142E-01 0.000E+00

     negative rho (up, down):  2.142E-01 0.000E+00

     negative rho (up, down):  2.142E-01 0.000E+00

     negative rho (up, down):  2.142E-01 0.000E+00

     negative rho (up, down):  2.142E-01 0.000E+00

     negative rho (up, down):  2.142E-01 0.000E+00

     negative rho (up, down):  2.142E-01 0.000E+00

     negative rho (up, down):  2.142E-01 0.000E+00

     negative rho (up, down):  2.142E-01 0.000E+00

     negative rho (up, down):  2.142E-01 0.000E+00

     negative rho (up, down):  2.142E-01 0.000E+00
 
     Adding external electric field

     Computed dipole along edir(3) : 
        Dipole               -0.8512 Ry au,         -2.1637 Debye
        Dipole field         -0.0015 Ry au
 
        Potential amp.        0.1410 Ry
        Total length         47.2555 bohr
 

     total cpu time spent up to now is      975.7 secs

     End of self-consistent calculation

          k = 0.0000 0.0000 0.0000 ( 27033 PWs)   bands (ev):

   -17.0451 -17.0440 -17.0440 -16.9878 -16.9878 -16.9871 -16.9612 -16.9612
   -16.9587 -16.9380 -16.9380 -16.9370 -16.9227 -16.9053 -16.9053 -16.8981
   -16.8981 -16.8929 -16.8907 -16.8907 -16.8806 -16.8670 -16.8670 -16.8521
   -16.8486 -16.8486 -16.8360 -16.8360 -16.8356 -16.8044 -16.7675 -16.7675
   -16.7442 -16.7442 -16.7277 -16.7264 -16.7032 -16.7032 -16.6996 -16.6996
   -16.6588 -16.6510 -16.6510 -16.6404 -16.6404 -16.6343 -16.6184 -16.6184
   -16.6156 -16.6156 -16.6125 -16.6097 -16.5914 -16.5914 -16.5832 -16.5832
   -16.5715 -16.5590 -16.5590 -16.5486 -11.1989 -10.8503  -9.7502  -8.2784
    -7.4774  -7.4390  -7.4390  -7.0090  -6.9703  -6.9703  -6.3711  -6.3446
    -6.3446  -3.1649  -3.1649  -3.1475  -2.5524  -2.1067  -2.1067  -2.1015
    -1.9751  -1.9736  -1.9736   0.0501   0.1881   0.1881   0.8553   1.7546
     1.7546   1.7951   2.0810   2.3924   2.3924   3.0257   3.1602   3.1773

          k = 0.0000 0.0278 0.0000 ( 27010 PWs)   bands (ev):

   -17.0368 -17.0255 -17.0250 -16.9838 -16.9711 -16.9706 -16.9516 -16.9514
   -16.9499 -16.9340 -16.9268 -16.9226 -16.9142 -16.9070 -16.8994 -16.8990
   -16.8909 -16.8875 -16.8851 -16.8828 -16.8738 -16.8650 -16.8543 -16.8513
   -16.8433 -16.8418 -16.8358 -16.8329 -16.8227 -16.7987 -16.7742 -16.7684
   -16.7478 -16.7418 -16.7348 -16.7288 -16.7129 -16.7126 -16.7045 -16.7005
   -16.6673 -16.6637 -16.6621 -16.6513 -16.6497 -16.6463 -16.6305 -16.6286
   -16.6252 -16.6248 -16.6168 -16.6150 -16.6073 -16.5984 -16.5903 -16.5885
   -16.5844 -16.5759 -16.5690 -16.5567 -11.1517 -10.7673  -9.6444  -8.1882
    -8.1069  -7.6139  -7.5927  -7.2593  -6.9743  -6.9517  -6.4029  -6.3238
    -6.3114  -2.9255  -2.9157  -2.6564  -2.4232  -2.0547  -2.0501  -1.8947
    -1.5594  -1.5363  -1.0500   0.0836   0.1183   0.1653   0.8705   1.0388
     1.4957   1.6817   2.1744   2.3608   2.5272   2.6912   2.8048   3.1150

          k = 0.0000 0.0556 0.0000 ( 26980 PWs)   bands (ev):

   -17.0163 -16.9799 -16.9795 -16.9733 -16.9541 -16.9377 -16.9349 -16.9283
   -16.9190 -16.9187 -16.9109 -16.9055 -16.9034 -16.8974 -16.8960 -16.8895
   -16.8794 -16.8712 -16.8658 -16.8632 -16.8514 -16.8482 -16.8436 -16.8396
   -16.8323 -16.8316 -16.8224 -16.8093 -16.7934 -16.7827 -16.7814 -16.7634
   -16.7586 -16.7501 -16.7498 -16.7363 -16.7359 -16.7331 -16.7202 -16.7077
   -16.6975 -16.6964 -16.6886 -16.6803 -16.6735 -16.6655 -16.6639 -16.6625
   -16.6471 -16.6466 -16.6409 -16.6384 -16.6272 -16.6231 -16.6160 -16.6107
   -16.5946 -16.5920 -16.5916 -16.5571 -11.0832 -10.4569  -9.3247  -9.0599
    -8.0466  -7.8843  -7.8047  -7.8044  -7.0241  -7.0035  -6.8187  -6.2694
    -6.2523  -2.2785  -2.2705  -2.0505  -1.5542  -1.5314  -1.3398  -1.0335
    -0.9256  -0.9001  -0.2699   0.0588   0.2181   0.3281   0.7294   0.8220
     0.8832   1.2818   1.6313   1.7612   2.0551   2.0895   2.3568   2.8484

          k = 0.0000-0.0835 0.0000 ( 26962 PWs)   bands (ev):

   -16.9941 -16.9825 -16.9578 -16.9488 -16.9385 -16.9316 -16.9308 -16.9291
   -16.9050 -16.9022 -16.8997 -16.8913 -16.8911 -16.8873 -16.8824 -16.8761
   -16.8704 -16.8610 -16.8574 -16.8503 -16.8454 -16.8387 -16.8330 -16.8313
   -16.8233 -16.8201 -16.8077 -16.7900 -16.7882 -16.7844 -16.7800 -16.7712
   -16.7667 -16.7505 -16.7464 -16.7445 -16.7411 -16.7293 -16.7287 -16.7227
   -16.7154 -16.7072 -16.7064 -16.7012 -16.6895 -16.6870 -16.6861 -16.6824
   -16.6748 -16.6666 -16.6647 -16.6548 -16.6449 -16.6424 -16.6270 -16.6168
   -16.5964 -16.5923 -16.5919 -16.5567 -11.0594  -9.9050  -9.8511  -8.8211
    -8.7171  -7.9032  -7.8883  -7.4517  -7.3706  -7.0427  -7.0420  -6.2491
    -6.2320  -1.5448  -1.4667  -1.4563  -1.4361  -1.4251  -1.4199  -0.7236
    -0.6005  -0.2544  -0.1337   0.1244   0.2539   0.2887   0.7051   0.7176
     1.3072   1.3577   1.5823   1.6359   1.7559   1.8216   1.8373   2.1551

          k = 0.0241-0.0139 0.0000 ( 27010 PWs)   bands (ev):

   -17.0368 -17.0255 -17.0250 -16.9838 -16.9711 -16.9706 -16.9516 -16.9514
   -16.9499 -16.9340 -16.9268 -16.9226 -16.9142 -16.9070 -16.8994 -16.8990
   -16.8909 -16.8875 -16.8851 -16.8828 -16.8738 -16.8650 -16.8543 -16.8513
   -16.8433 -16.8418 -16.8358 -16.8329 -16.8227 -16.7987 -16.7742 -16.7684
   -16.7478 -16.7418 -16.7348 -16.7288 -16.7129 -16.7126 -16.7045 -16.7005
   -16.6673 -16.6637 -16.6621 -16.6513 -16.6497 -16.6463 -16.6305 -16.6286
   -16.6252 -16.6248 -16.6168 -16.6150 -16.6073 -16.5984 -16.5902 -16.5885
   -16.5844 -16.5759 -16.5690 -16.5567 -11.1517 -10.7673  -9.6444  -8.1882
    -8.1069  -7.6139  -7.5927  -7.2593  -6.9743  -6.9517  -6.4029  -6.3238
    -6.3114  -2.9255  -2.9157  -2.6564  -2.4232  -2.0547  -2.0501  -1.8947
    -1.5594  -1.5363  -1.0500   0.0836   0.1183   0.1653   0.8705   1.0388
     1.4957   1.6817   2.1744   2.3608   2.5272   2.6912   2.8048   3.1150

          k = 0.0241 0.0139 0.0000 ( 27010 PWs)   bands (ev):

   -17.0368 -17.0255 -17.0250 -16.9838 -16.9711 -16.9706 -16.9516 -16.9514
   -16.9499 -16.9340 -16.9268 -16.9226 -16.9142 -16.9070 -16.8994 -16.8990
   -16.8909 -16.8875 -16.8851 -16.8828 -16.8738 -16.8650 -16.8543 -16.8513
   -16.8433 -16.8418 -16.8358 -16.8329 -16.8227 -16.7987 -16.7742 -16.7684
   -16.7478 -16.7418 -16.7348 -16.7288 -16.7129 -16.7126 -16.7045 -16.7005
   -16.6673 -16.6637 -16.6621 -16.6513 -16.6497 -16.6463 -16.6305 -16.6286
   -16.6252 -16.6248 -16.6168 -16.6150 -16.6073 -16.5984 -16.5903 -16.5885
   -16.5844 -16.5759 -16.5690 -16.5567 -11.1517 -10.7673  -9.6444  -8.1882
    -8.1069  -7.6139  -7.5927  -7.2593  -6.9743  -6.9517  -6.4029  -6.3238
    -6.3115  -2.9255  -2.9157  -2.6564  -2.4232  -2.0547  -2.0501  -1.8947
    -1.5594  -1.5363  -1.0500   0.0836   0.1183   0.1653   0.8705   1.0388
     1.4957   1.6817   2.1744   2.3608   2.5272   2.6912   2.8048   3.1150

          k = 0.0241 0.0417 0.0000 ( 26981 PWs)   bands (ev):

   -17.0128 -17.0100 -16.9856 -16.9666 -16.9617 -16.9424 -16.9391 -16.9316
   -16.9251 -16.9238 -16.9166 -16.9143 -16.9108 -16.9026 -16.8962 -16.8911
   -16.8834 -16.8762 -16.8704 -16.8662 -16.8580 -16.8561 -16.8517 -16.8393
   -16.8348 -16.8323 -16.8265 -16.8227 -16.7951 -16.7926 -16.7784 -16.7696
   -16.7568 -16.7465 -16.7411 -16.7338 -16.7310 -16.7295 -16.7087 -16.7053
   -16.6939 -16.6869 -16.6793 -16.6736 -16.6670 -16.6607 -16.6550 -16.6472
   -16.6433 -16.6371 -16.6362 -16.6267 -16.6205 -16.6155 -16.6071 -16.5995
   -16.5981 -16.5931 -16.5781 -16.5691 -11.0977 -10.5667  -9.4298  -8.5283
    -8.5009  -7.9887  -7.5806  -7.5244  -7.1835  -6.7639  -6.5378  -6.4945
    -6.2558  -2.7342  -2.1747  -1.9954  -1.9944  -1.7267  -1.6097  -1.3182
    -1.2890  -0.5384  -0.4255   0.0218   0.1425   0.2685   0.5811   0.7634
     0.8922   1.2512   1.7388   2.1633   2.3736   2.6443   2.7335   2.7777

          k = 0.0241-0.0974 0.0000 ( 26956 PWs)   bands (ev):

   -16.9884 -16.9655 -16.9589 -16.9504 -16.9436 -16.9307 -16.9209 -16.9191
   -16.9146 -16.9082 -16.9069 -16.9015 -16.8945 -16.8928 -16.8849 -16.8779
   -16.8680 -16.8653 -16.8599 -16.8530 -16.8434 -16.8375 -16.8333 -16.8277
   -16.8238 -16.8200 -16.8058 -16.7986 -16.7869 -16.7831 -16.7808 -16.7742
   -16.7622 -16.7564 -16.7521 -16.7415 -16.7379 -16.7337 -16.7303 -16.7234
   -16.7139 -16.7102 -16.7047 -16.6985 -16.6952 -16.6878 -16.6799 -16.6744
   -16.6671 -16.6633 -16.6535 -16.6473 -16.6417 -16.6323 -16.6212 -16.6128
   -16.6047 -16.6010 -16.5972 -16.5712 -11.0606 -10.1128  -9.4121  -8.9922
    -8.7271  -8.3361  -7.7415  -7.5824  -7.0805  -7.0501  -6.6046  -6.5673
    -6.2090  -2.1232  -1.7021  -1.4331  -1.1985  -1.1093  -1.0936  -0.8090
    -0.4973  -0.3731  -0.1894   0.0374   0.2368   0.3734   0.5131   0.6959
     0.8112   1.1940   1.4179   1.6352   2.0750   2.1589   2.2679   2.5107

          k = 0.0241-0.0696 0.0000 ( 26956 PWs)   bands (ev):

   -16.9884 -16.9655 -16.9589 -16.9504 -16.9436 -16.9307 -16.9209 -16.9191
   -16.9146 -16.9082 -16.9069 -16.9015 -16.8945 -16.8928 -16.8849 -16.8779
   -16.8680 -16.8653 -16.8599 -16.8530 -16.8434 -16.8375 -16.8333 -16.8277
   -16.8238 -16.8200 -16.8058 -16.7986 -16.7869 -16.7831 -16.7808 -16.7742
   -16.7622 -16.7564 -16.7521 -16.7415 -16.7379 -16.7337 -16.7303 -16.7234
   -16.7139 -16.7102 -16.7047 -16.6985 -16.6952 -16.6878 -16.6799 -16.6744
   -16.6672 -16.6633 -16.6535 -16.6473 -16.6417 -16.6323 -16.6212 -16.6128
   -16.6047 -16.6010 -16.5972 -16.5712 -11.0606 -10.1128  -9.4121  -8.9922
    -8.7271  -8.3361  -7.7415  -7.5824  -7.0805  -7.0501  -6.6046  -6.5673
    -6.2090  -2.1232  -1.7021  -1.4331  -1.1985  -1.1093  -1.0936  -0.8090
    -0.4973  -0.3731  -0.1894   0.0374   0.2368   0.3734   0.5131   0.6959
     0.8112   1.1940   1.4179   1.6352   2.0750   2.1589   2.2679   2.5107

          k = 0.0241-0.0417 0.0000 ( 26981 PWs)   bands (ev):

   -17.0128 -17.0100 -16.9856 -16.9666 -16.9617 -16.9424 -16.9391 -16.9316
   -16.9251 -16.9238 -16.9166 -16.9143 -16.9108 -16.9026 -16.8962 -16.8911
   -16.8834 -16.8762 -16.8704 -16.8662 -16.8580 -16.8561 -16.8517 -16.8393
   -16.8348 -16.8323 -16.8265 -16.8227 -16.7951 -16.7926 -16.7784 -16.7696
   -16.7568 -16.7465 -16.7411 -16.7338 -16.7310 -16.7295 -16.7087 -16.7053
   -16.6939 -16.6869 -16.6793 -16.6736 -16.6670 -16.6607 -16.6550 -16.6472
   -16.6433 -16.6371 -16.6362 -16.6267 -16.6205 -16.6155 -16.6071 -16.5995
   -16.5981 -16.5931 -16.5781 -16.5691 -11.0977 -10.5667  -9.4298  -8.5283
    -8.5009  -7.9887  -7.5806  -7.5244  -7.1835  -6.7639  -6.5378  -6.4945
    -6.2558  -2.7342  -2.1747  -1.9954  -1.9944  -1.7267  -1.6097  -1.3182
    -1.2890  -0.5384  -0.4255   0.0218   0.1425   0.2685   0.5811   0.7634
     0.8922   1.2512   1.7388   2.1633   2.3736   2.6443   2.7335   2.7777

          k = 0.0482-0.0278 0.0000 ( 26980 PWs)   bands (ev):

   -17.0163 -16.9799 -16.9795 -16.9733 -16.9541 -16.9377 -16.9349 -16.9283
   -16.9190 -16.9187 -16.9109 -16.9055 -16.9034 -16.8974 -16.8960 -16.8895
   -16.8794 -16.8712 -16.8658 -16.8632 -16.8514 -16.8482 -16.8436 -16.8396
   -16.8323 -16.8316 -16.8224 -16.8093 -16.7934 -16.7827 -16.7814 -16.7634
   -16.7586 -16.7501 -16.7498 -16.7363 -16.7359 -16.7331 -16.7201 -16.7077
   -16.6975 -16.6964 -16.6886 -16.6803 -16.6735 -16.6655 -16.6639 -16.6625
   -16.6471 -16.6466 -16.6409 -16.6384 -16.6272 -16.6231 -16.6160 -16.6107
   -16.5946 -16.5920 -16.5916 -16.5571 -11.0832 -10.4569  -9.3247  -9.0599
    -8.0466  -7.8843  -7.8047  -7.8044  -7.0241  -7.0035  -6.8187  -6.2694
    -6.2523  -2.2785  -2.2705  -2.0505  -1.5542  -1.5314  -1.3398  -1.0335
    -0.9256  -0.9001  -0.2699   0.0588   0.2181   0.3281   0.7294   0.8220
     0.8832   1.2818   1.6313   1.7612   2.0551   2.0895   2.3568   2.8484

          k = 0.0482 0.0000 0.0000 ( 26981 PWs)   bands (ev):

   -17.0128 -17.0100 -16.9856 -16.9666 -16.9617 -16.9424 -16.9391 -16.9316
   -16.9251 -16.9238 -16.9166 -16.9143 -16.9108 -16.9026 -16.8962 -16.8911
   -16.8834 -16.8762 -16.8704 -16.8662 -16.8580 -16.8561 -16.8517 -16.8393
   -16.8348 -16.8323 -16.8265 -16.8227 -16.7951 -16.7926 -16.7784 -16.7696
   -16.7568 -16.7465 -16.7411 -16.7338 -16.7310 -16.7295 -16.7087 -16.7053
   -16.6939 -16.6869 -16.6793 -16.6736 -16.6670 -16.6607 -16.6550 -16.6472
   -16.6433 -16.6371 -16.6362 -16.6267 -16.6205 -16.6155 -16.6071 -16.5995
   -16.5981 -16.5931 -16.5781 -16.5691 -11.0977 -10.5667  -9.4298  -8.5283
    -8.5009  -7.9887  -7.5806  -7.5244  -7.1835  -6.7639  -6.5378  -6.4945
    -6.2558  -2.7342  -2.1747  -1.9954  -1.9944  -1.7267  -1.6097  -1.3182
    -1.2890  -0.5384  -0.4255   0.0218   0.1425   0.2685   0.5811   0.7634
     0.8922   1.2512   1.7388   2.1633   2.3736   2.6443   2.7335   2.7777

          k = 0.0482 0.0278 0.0000 ( 26980 PWs)   bands (ev):

   -17.0163 -16.9799 -16.9795 -16.9733 -16.9541 -16.9377 -16.9349 -16.9283
   -16.9190 -16.9187 -16.9109 -16.9055 -16.9034 -16.8974 -16.8960 -16.8895
   -16.8794 -16.8712 -16.8658 -16.8632 -16.8514 -16.8482 -16.8436 -16.8396
   -16.8323 -16.8316 -16.8224 -16.8093 -16.7934 -16.7827 -16.7814 -16.7634
   -16.7586 -16.7501 -16.7498 -16.7363 -16.7359 -16.7331 -16.7202 -16.7077
   -16.6975 -16.6964 -16.6886 -16.6803 -16.6735 -16.6655 -16.6639 -16.6625
   -16.6471 -16.6466 -16.6409 -16.6384 -16.6272 -16.6231 -16.6159 -16.6107
   -16.5946 -16.5920 -16.5916 -16.5571 -11.0832 -10.4569  -9.3247  -9.0599
    -8.0466  -7.8843  -7.8047  -7.8044  -7.0241  -7.0035  -6.8187  -6.2694
    -6.2523  -2.2785  -2.2705  -2.0505  -1.5542  -1.5314  -1.3398  -1.0335
    -0.9256  -0.9001  -0.2699   0.0588   0.2181   0.3281   0.7294   0.8220
     0.8832   1.2818   1.6313   1.7612   2.0551   2.0895   2.3568   2.8484

          k = 0.0482-0.1113 0.0000 ( 26956 PWs)   bands (ev):

   -16.9884 -16.9655 -16.9589 -16.9504 -16.9436 -16.9307 -16.9209 -16.9191
   -16.9146 -16.9082 -16.9069 -16.9015 -16.8945 -16.8928 -16.8849 -16.8779
   -16.8680 -16.8653 -16.8599 -16.8530 -16.8434 -16.8375 -16.8333 -16.8277
   -16.8238 -16.8200 -16.8058 -16.7986 -16.7869 -16.7831 -16.7808 -16.7742
   -16.7622 -16.7563 -16.7521 -16.7415 -16.7379 -16.7337 -16.7303 -16.7234
   -16.7139 -16.7102 -16.7047 -16.6985 -16.6952 -16.6878 -16.6799 -16.6744
   -16.6672 -16.6633 -16.6535 -16.6473 -16.6417 -16.6323 -16.6212 -16.6128
   -16.6047 -16.6010 -16.5972 -16.5712 -11.0606 -10.1128  -9.4121  -8.9922
    -8.7271  -8.3361  -7.7415  -7.5824  -7.0805  -7.0501  -6.6046  -6.5673
    -6.2090  -2.1232  -1.7021  -1.4331  -1.1985  -1.1093  -1.0936  -0.8090
    -0.4973  -0.3731  -0.1894   0.0374   0.2368   0.3734   0.5131   0.6959
     0.8112   1.1940   1.4179   1.6352   2.0750   2.1589   2.2679   2.5107

          k = 0.0482-0.0835 0.0000 ( 26934 PWs)   bands (ev):

   -16.9550 -16.9496 -16.9460 -16.9365 -16.9321 -16.9278 -16.9240 -16.9174
   -16.9155 -16.9114 -16.9079 -16.9046 -16.8940 -16.8830 -16.8801 -16.8795
   -16.8787 -16.8617 -16.8464 -16.8455 -16.8384 -16.8321 -16.8301 -16.8284
   -16.8083 -16.8022 -16.7950 -16.7924 -16.7866 -16.7818 -16.7766 -16.7756
   -16.7727 -16.7697 -16.7539 -16.7497 -16.7428 -16.7363 -16.7347 -16.7330
   -16.7208 -16.7196 -16.7172 -16.7094 -16.7042 -16.6951 -16.6882 -16.6853
   -16.6677 -16.6630 -16.6543 -16.6419 -16.6402 -16.6270 -16.6258 -16.6217
   -16.6164 -16.6085 -16.6035 -16.5922 -11.0518  -9.5478  -9.5477  -9.4862
    -8.5025  -8.4689  -8.3574  -7.1818  -7.1697  -7.0559  -6.5790  -6.4395
    -6.3507  -1.5935  -1.5913  -1.4286  -1.2124  -1.1748  -1.1101  -0.3042
    -0.2744  -0.1964   0.1022   0.1372   0.1599   0.5952   0.6056   0.6589
     0.9746   1.0603   1.3319   1.6699   1.6833   1.8458   2.0320   2.1945

          k = 0.0482-0.0556 0.0000 ( 26956 PWs)   bands (ev):

   -16.9884 -16.9655 -16.9589 -16.9504 -16.9436 -16.9307 -16.9209 -16.9191
   -16.9146 -16.9082 -16.9069 -16.9015 -16.8945 -16.8928 -16.8849 -16.8779
   -16.8680 -16.8653 -16.8599 -16.8530 -16.8434 -16.8375 -16.8333 -16.8277
   -16.8238 -16.8200 -16.8058 -16.7986 -16.7869 -16.7831 -16.7808 -16.7742
   -16.7622 -16.7563 -16.7521 -16.7415 -16.7379 -16.7337 -16.7303 -16.7234
   -16.7139 -16.7102 -16.7047 -16.6985 -16.6952 -16.6878 -16.6799 -16.6744
   -16.6672 -16.6633 -16.6535 -16.6473 -16.6417 -16.6323 -16.6212 -16.6128
   -16.6047 -16.6010 -16.5972 -16.5712 -11.0606 -10.1128  -9.4121  -8.9922
    -8.7271  -8.3361  -7.7415  -7.5824  -7.0805  -7.0501  -6.6046  -6.5673
    -6.2090  -2.1232  -1.7021  -1.4331  -1.1985  -1.1093  -1.0936  -0.8090
    -0.4973  -0.3731  -0.1894   0.0374   0.2368   0.3734   0.5131   0.6959
     0.8112   1.1940   1.4179   1.6352   2.0750   2.1589   2.2679   2.5107

          k =-0.0723 0.0417 0.0000 ( 26962 PWs)   bands (ev):

   -16.9941 -16.9825 -16.9578 -16.9488 -16.9385 -16.9316 -16.9308 -16.9291
   -16.9050 -16.9022 -16.8997 -16.8913 -16.8911 -16.8873 -16.8824 -16.8761
   -16.8704 -16.8610 -16.8574 -16.8503 -16.8454 -16.8387 -16.8330 -16.8313
   -16.8233 -16.8201 -16.8077 -16.7900 -16.7882 -16.7844 -16.7800 -16.7712
   -16.7667 -16.7505 -16.7464 -16.7445 -16.7411 -16.7293 -16.7287 -16.7227
   -16.7154 -16.7072 -16.7064 -16.7012 -16.6895 -16.6870 -16.6861 -16.6824
   -16.6748 -16.6666 -16.6647 -16.6548 -16.6449 -16.6424 -16.6270 -16.6168
   -16.5964 -16.5923 -16.5919 -16.5567 -11.0594  -9.9050  -9.8511  -8.8211
    -8.7171  -7.9032  -7.8883  -7.4517  -7.3706  -7.0427  -7.0420  -6.2491
    -6.2320  -1.5448  -1.4667  -1.4563  -1.4361  -1.4251  -1.4199  -0.7236
    -0.6005  -0.2544  -0.1337   0.1244   0.2539   0.2887   0.7051   0.7176
     1.3072   1.3577   1.5823   1.6359   1.7559   1.8216   1.8373   2.1551

          k =-0.0723 0.0696 0.0000 ( 26956 PWs)   bands (ev):

   -16.9884 -16.9655 -16.9589 -16.9504 -16.9436 -16.9307 -16.9209 -16.9191
   -16.9146 -16.9082 -16.9069 -16.9015 -16.8945 -16.8928 -16.8849 -16.8779
   -16.8680 -16.8653 -16.8599 -16.8530 -16.8434 -16.8375 -16.8333 -16.8277
   -16.8238 -16.8200 -16.8058 -16.7986 -16.7869 -16.7831 -16.7808 -16.7742
   -16.7622 -16.7564 -16.7521 -16.7415 -16.7379 -16.7337 -16.7303 -16.7234
   -16.7139 -16.7102 -16.7047 -16.6985 -16.6952 -16.6878 -16.6799 -16.6744
   -16.6671 -16.6633 -16.6535 -16.6473 -16.6417 -16.6323 -16.6212 -16.6128
   -16.6047 -16.6010 -16.5972 -16.5712 -11.0606 -10.1128  -9.4121  -8.9922
    -8.7271  -8.3361  -7.7415  -7.5824  -7.0805  -7.0501  -6.6046  -6.5673
    -6.2090  -2.1232  -1.7021  -1.4331  -1.1985  -1.1093  -1.0936  -0.8090
    -0.4973  -0.3731  -0.1894   0.0374   0.2368   0.3734   0.5131   0.6959
     0.8112   1.1940   1.4179   1.6352   2.0750   2.1589   2.2679   2.5107

          k =-0.0723 0.0974 0.0000 ( 26956 PWs)   bands (ev):

   -16.9884 -16.9655 -16.9589 -16.9504 -16.9436 -16.9307 -16.9209 -16.9191
   -16.9146 -16.9082 -16.9069 -16.9015 -16.8945 -16.8928 -16.8849 -16.8779
   -16.8680 -16.8653 -16.8599 -16.8530 -16.8434 -16.8375 -16.8333 -16.8277
   -16.8238 -16.8200 -16.8058 -16.7986 -16.7869 -16.7831 -16.7808 -16.7742
   -16.7622 -16.7564 -16.7521 -16.7415 -16.7379 -16.7337 -16.7303 -16.7234
   -16.7139 -16.7102 -16.7047 -16.6985 -16.6952 -16.6878 -16.6799 -16.6744
   -16.6672 -16.6633 -16.6535 -16.6473 -16.6417 -16.6323 -16.6212 -16.6128
   -16.6047 -16.6010 -16.5972 -16.5712 -11.0606 -10.1128  -9.4121  -8.9922
    -8.7271  -8.3361  -7.7415  -7.5824  -7.0805  -7.0501  -6.6046  -6.5673
    -6.2090  -2.1232  -1.7021  -1.4331  -1.1985  -1.1093  -1.0936  -0.8090
    -0.4973  -0.3731  -0.1894   0.0374   0.2368   0.3734   0.5131   0.6959
     0.8112   1.1940   1.4179   1.6352   2.0750   2.1589   2.2679   2.5107

          k =-0.0723-0.0417 0.0000 ( 26962 PWs)   bands (ev):

   -16.9941 -16.9825 -16.9578 -16.9488 -16.9385 -16.9316 -16.9308 -16.9291
   -16.9050 -16.9022 -16.8997 -16.8913 -16.8911 -16.8873 -16.8824 -16.8761
   -16.8704 -16.8610 -16.8574 -16.8503 -16.8454 -16.8387 -16.8330 -16.8313
   -16.8233 -16.8201 -16.8077 -16.7900 -16.7882 -16.7844 -16.7800 -16.7712
   -16.7667 -16.7505 -16.7464 -16.7445 -16.7411 -16.7293 -16.7287 -16.7227
   -16.7154 -16.7072 -16.7064 -16.7012 -16.6895 -16.6870 -16.6861 -16.6824
   -16.6748 -16.6666 -16.6647 -16.6548 -16.6449 -16.6424 -16.6270 -16.6168
   -16.5964 -16.5923 -16.5919 -16.5567 -11.0594  -9.9050  -9.8511  -8.8211
    -8.7171  -7.9032  -7.8883  -7.4517  -7.3706  -7.0427  -7.0420  -6.2491
    -6.2320  -1.5448  -1.4667  -1.4563  -1.4361  -1.4251  -1.4199  -0.7236
    -0.6005  -0.2544  -0.1337   0.1244   0.2539   0.2887   0.7051   0.7176
     1.3072   1.3577   1.5823   1.6359   1.7559   1.8216   1.8373   2.1551

     the Fermi energy is     0.5865 ev

!    total energy              =   -2012.21735686 Ry
     Harris-Foulkes estimate   =   -2012.21733150 Ry
     estimated scf accuracy    <       0.00000067 Ry

     The total energy is the sum of the following terms:

     one-electron contribution =   -9538.05529021 Ry
     hartree contribution      =    4837.86584603 Ry
     xc contribution           =    -789.00235389 Ry
     ewald contribution        =    3477.02419788 Ry
     electric field correction =       0.00126972 Ry
     smearing contrib. (-TS)   =      -0.05102640 Ry

     convergence has been achieved in  14 iterations
 
 BEEF-vdW xc energy contributions
           1 :   -703.149949693987     
           2 :    652.918467936201     
           3 :   -564.582883976152     
           4 :    457.591254057479     
           5 :   -351.884552009097     
           6 :    261.964561564495     
           7 :   -193.812407855895     
           8 :    145.346571815353     
           9 :   -109.724063726421     
          10 :    79.6989731868987     
          11 :   -51.0245046816773     
          12 :    23.5768831980311     
          13 :  -0.138195601429743     
          14 :   -16.0988222467524     
          15 :    23.7879991935970     
          16 :   -24.3196303402729     
          17 :    21.0908069445702     
          18 :   -17.7694223257176     
          19 :    16.5963897396464     
          20 :   -17.6280997270874     
          21 :    19.2175422767193     
          22 :   -19.3356682974966     
          23 :    16.9179673694259     
          24 :   -12.4939147507923     
          25 :    7.82302630809215     
          26 :   -4.83910771121384     
          27 :    4.55496079610270     
          28 :   -6.54524906262009     
          29 :    9.25806645046839     
          30 :   -10.9310050485809     
          31 :   -56.3760238495039     
          32 :   -41.2968332683151     

     Forces acting on atoms (Ry/au):


     negative rho (up, down):  2.142E-01 0.000E+00
     atom    1 type  1   force =    -0.00000240    0.00000210   -0.00751733
     atom    2 type  1   force =    -0.00000005   -0.00381781   -0.00725214
     atom    3 type  1   force =    -0.00330701    0.00190501   -0.00725432
     atom    4 type  1   force =     0.00330806    0.00190811   -0.00724946
     atom    5 type  1   force =    -0.00030877    0.00017976   -0.00234161
     atom    6 type  1   force =     0.00031436    0.00017872   -0.00232222
     atom    7 type  1   force =     0.00000571   -0.00000298   -0.01698941
     atom    8 type  1   force =    -0.00000202   -0.00035720   -0.00233584
     atom    9 type  1   force =     0.02552818    0.01473531    0.04687297
     atom   10 type  1   force =    -0.02554327    0.01474591    0.04690324
     atom   11 type  1   force =     0.00000602   -0.02947872    0.04688128
     atom   12 type  1   force =     0.00000003    0.00000270    0.01118561
     atom   13 type  2   force =     0.00000116   -0.00000092   -0.09858077

     Total force =     0.140033     Total SCF correction =     0.005407


     entering subroutine stress ...


     negative rho (up, down):  2.142E-01 0.000E+00
          total   stress  (Ry/bohr**3)                   (kbar)     P=    6.55
   0.00006464   0.00000000   0.00000000          9.51      0.00      0.00
   0.00000000   0.00006464  -0.00000000          0.00      9.51     -0.00
   0.00000000  -0.00000000   0.00000436          0.00     -0.00      0.64

 !ASE

     Writing output data file calc.save
 
     init_run     :     14.34s CPU     24.54s WALL (       1 calls)
     electrons    :    555.50s CPU    951.00s WALL (       1 calls)
     forces       :      7.53s CPU      9.38s WALL (       1 calls)
     stress       :     21.37s CPU     24.56s WALL (       1 calls)

     Called by init_run:
     wfcinit      :     10.51s CPU     18.91s WALL (       1 calls)
     potinit      :      1.85s CPU      3.40s WALL (       1 calls)

     Called by electrons:
     c_bands      :    402.86s CPU    676.87s WALL (      14 calls)
     sum_band     :     67.69s CPU    117.02s WALL (      14 calls)
     v_of_rho     :     23.56s CPU     46.42s WALL (      15 calls)
     newd         :     11.29s CPU     11.75s WALL (      15 calls)
     mix_rho      :      0.84s CPU      1.59s WALL (      14 calls)
     vdW_energy   :      4.44s CPU      4.96s WALL (      51 calls)
     vdW_ffts     :     46.46s CPU     98.76s WALL (     104 calls)
     vdW_v        :      9.24s CPU     17.06s WALL (      51 calls)

     Called by c_bands:
     init_us_2    :      1.49s CPU      1.53s WALL (     620 calls)
     cegterg      :    394.07s CPU    667.06s WALL (     280 calls)

     Called by *egterg:
     h_psi        :    285.97s CPU    553.05s WALL (    1402 calls)
     s_psi        :     12.79s CPU     12.84s WALL (    1402 calls)
     g_psi        :      0.73s CPU      0.72s WALL (    1102 calls)
     cdiaghg      :     55.48s CPU     57.62s WALL (    1382 calls)

     Called by h_psi:
     add_vuspsi   :     13.11s CPU     13.21s WALL (    1402 calls)

     General routines
     calbec       :     22.26s CPU     26.74s WALL (    1722 calls)
     fft          :     70.11s CPU    148.37s WALL (    3093 calls)
     ffts         :      0.16s CPU      0.36s WALL (      29 calls)
     fftw         :    278.05s CPU    585.52s WALL (  158798 calls)
     interpolate  :      0.83s CPU      1.72s WALL (      29 calls)
     davcio       :      0.01s CPU      0.13s WALL (      20 calls)
 
     Parallel routines
     fft_scatter  :    301.62s CPU    684.05s WALL (  161920 calls)
 
     PWSCF        :  9m59.51s CPU    16m50.90s WALL

 
   This run was terminated on:  15:44:29  20Jan2018            

=------------------------------------------------------------------------------=
   JOB DONE.
=------------------------------------------------------------------------------=
Job  /afs/slac/g/suncat/bin/suncat-tsmpirun -x LD_LIBRARY_PATH -wdir /scratch/qe864359_1wtMb pw.x -in pw.inp

TID   HOST_NAME   COMMAND_LINE            STATUS            TERMINATION_TIME
===== ========== ================  =======================  ===================
00000 suncat1043 pw.x -in pw.inp   Done                     01/20/2018 15:44:29
00001 suncat1043 pw.x -in pw.inp   Done                     01/20/2018 15:44:29
00002 suncat1043 pw.x -in pw.inp   Done                     01/20/2018 15:44:29
00003 suncat1043 pw.x -in pw.inp   Done                     01/20/2018 15:44:29
00004 suncat1043 pw.x -in pw.inp   Done                     01/20/2018 15:44:29
00005 suncat1043 pw.x -in pw.inp   Done                     01/20/2018 15:44:29
00006 suncat1043 pw.x -in pw.inp   Done                     01/20/2018 15:44:29
00007 suncat1043 pw.x -in pw.inp   Done                     01/20/2018 15:44:29
00008 suncat1041 pw.x -in pw.inp   Done                     01/20/2018 15:44:29
00009 suncat1041 pw.x -in pw.inp   Done                     01/20/2018 15:44:29
00010 suncat1041 pw.x -in pw.inp   Done                     01/20/2018 15:44:29
00011 suncat1041 pw.x -in pw.inp   Done                     01/20/2018 15:44:29
00012 suncat1041 pw.x -in pw.inp   Done                     01/20/2018 15:44:29
00013 suncat1041 pw.x -in pw.inp   Done                     01/20/2018 15:44:29
00014 suncat1041 pw.x -in pw.inp   Done                     01/20/2018 15:44:29
00015 suncat1041 pw.x -in pw.inp   Done                     01/20/2018 15:44:29
00016 suncat1041 pw.x -in pw.inp   Done                     01/20/2018 15:44:29
00017 suncat1041 pw.x -in pw.inp   Done                     01/20/2018 15:44:29
00018 suncat1041 pw.x -in pw.inp   Done                     01/20/2018 15:44:29
00019 suncat1041 pw.x -in pw.inp   Done                     01/20/2018 15:44:29
00020 suncat1040 pw.x -in pw.inp   Done                     01/20/2018 15:44:29
00021 suncat1040 pw.x -in pw.inp   Done                     01/20/2018 15:44:29
00022 suncat1040 pw.x -in pw.inp   Done                     01/20/2018 15:44:29
00023 suncat1040 pw.x -in pw.inp   Done                     01/20/2018 15:44:29
00024 suncat1040 pw.x -in pw.inp   Done                     01/20/2018 15:44:29
00025 suncat1040 pw.x -in pw.inp   Done                     01/20/2018 15:44:29
00026 suncat1040 pw.x -in pw.inp   Done                     01/20/2018 15:44:29
00027 suncat1040 pw.x -in pw.inp   Done                     01/20/2018 15:44:29
00028 suncat1040 pw.x -in pw.inp   Done                     01/20/2018 15:44:29
00029 suncat1040 pw.x -in pw.inp   Done                     01/20/2018 15:44:29
00030 suncat1040 pw.x -in pw.inp   Done                     01/20/2018 15:44:29
00031 suncat1040 pw.x -in pw.inp   Done                     01/20/2018 15:44:29

     Program PWSCF v.5.1rc2 (svn rev. 11289) starts on 20Jan2018 at 15:44:35 

     This program is part of the open-source Quantum ESPRESSO suite
     for quantum simulation of materials; please cite
         "P. Giannozzi et al., J. Phys.:Condens. Matter 21 395502 (2009);
          URL http://www.quantum-espresso.org", 
     in publications or presentations arising from this work. More details at
     http://www.quantum-espresso.org/quote

     Parallel version (MPI), running on    32 processors
     R & G space division:  proc/nbgrp/npool/nimage =      32
     Reading input from pw.inp
     Message from routine read_cards :
     DEPRECATED: no units specified in CELL_PARAMETERS card

     Current dimensions of program PWSCF are:
     Max number of different atomic species (ntypx) = 10
     Max number of k-points (npk) =  40000
     Max angular momentum in pseudopotentials (lmaxx) =  3
     Presently stress not available with electric field


     **************************************************************************
     Initializing libbeef V0.1.1 with the BEEF-vdW functional.
     Citation: Wellendorff et al., PRB 85, 235149 (2012).
     **************************************************************************


     IMPORTANT: XC functional enforced from input :
     Exchange-correlation      = BEEF-VDW ( 1  4 27 13 2)
     Any further DFT definition will be discarded
     Please, verify this is what you really want


     Subspace diagonalization in iterative solution of the eigenvalue problem:
     a serial algorithm will be used

 
     Parallelization info
     --------------------
     sticks:   dense  smooth     PW     G-vecs:    dense   smooth      PW
     Min         134      54     15                26644     6724    1019
     Max         135      55     16                26659     6775    1034
     Sum        4315    1735    499               852865   215821   32865
 


     bravais-lattice index     =            0
     lattice parameter (alat)  =       1.8897  a.u.
     unit-cell volume          =    7171.5276 (a.u.)^3
     number of atoms/cell      =           13
     number of atomic types    =            2
     number of electrons       =       173.00
     number of Kohn-Sham states=           96
     kinetic-energy cutoff     =      36.7493  Ry
     charge density cutoff     =     367.4932  Ry
     convergence threshold     =      1.0E-05
     mixing beta               =       0.3000
     number of iterations used =           10  plain     mixing
     Exchange-correlation      = BEEF-VDW ( 1  4 27 13 2)
     nstep                     =           50


     celldm(1)=   1.889726  celldm(2)=   0.000000  celldm(3)=   0.000000
     celldm(4)=   0.000000  celldm(5)=   0.000000  celldm(6)=   0.000000

     crystal axes: (cart. coord. in units of alat)
               a(1) = (   6.917003   0.000000   0.000000 )  
               a(2) = (   3.458501   5.990300   0.000000 )  
               a(3) = (   0.000000   0.000000  25.647709 )  

     reciprocal axes: (cart. coord. in units 2 pi/alat)
               b(1) = (  0.144571 -0.083468  0.000000 )  
               b(2) = (  0.000000  0.166937  0.000000 )  
               b(3) = (  0.000000  0.000000  0.038990 )  


     PseudoPot. # 1 for Pb read from file:
     /afs/slac.stanford.edu/u/if/mamunm/psp/gbrv1.5pbe/Pb.UPF
     MD5 check sum: 3d1c1779aa92214d1e8f3a7db79003e2
     Pseudo is Ultrasoft + core correction, Zval = 14.0
     Generated by new atomic code, or converted to UPF format
     Using radial grid of  899 points,  6 beta functions with: 
                l(1) =   0
                l(2) =   0
                l(3) =   1
                l(4) =   1
                l(5) =   2
                l(6) =   2
     Q(r) pseudized with  6 coefficients,  rinner =    1.000   1.000   1.000
                                                       1.000   1.000

     PseudoPot. # 2 for N  read from file:
     /afs/slac.stanford.edu/u/if/mamunm/psp/gbrv1.5pbe/N.UPF
     MD5 check sum: 95339753478d7afb44899504a8723017
     Pseudo is Ultrasoft + core correction, Zval =  5.0
     Generated by new atomic code, or converted to UPF format
     Using radial grid of  729 points,  4 beta functions with: 
                l(1) =   0
                l(2) =   0
                l(3) =   1
                l(4) =   1
     Q(r) pseudized with  8 coefficients,  rinner =    0.900   0.900   0.900


     vdW kernel table read from file vdW_kernel_table
     MD5 check sum: 095c7af220d748ca6e76c0b4c6cfb241

     atomic species   valence    mass     pseudopotential
        Pb1           14.00   207.20000     Pb( 1.00)
        N1             5.00    14.00700     N ( 1.00)

     No symmetry found



   Cartesian axes

     site n.     atom                  positions (alat units)
         1           Pb1 tau(   1) = (   1.7292506   0.9983833  10.0000000  )
         2           Pb1 tau(   2) = (   5.1877519   0.9983833  10.0000000  )
         3           Pb1 tau(   3) = (   3.4585013   3.9935333  10.0000000  )
         4           Pb1 tau(   4) = (   6.9170025   3.9935333  10.0000000  )
         5           Pb1 tau(   5) = (   6.9170025   1.9967666  12.8238544  )
         6           Pb1 tau(   6) = (   3.4585013   1.9967666  12.8238544  )
         7           Pb1 tau(   7) = (   8.6462531   4.9919166  12.8238544  )
         8           Pb1 tau(   8) = (   5.1877519   4.9919166  12.8238544  )
         9           Pb1 tau(   9) = (   0.0656356   0.0378860  15.7682241  )
        10           Pb1 tau(  10) = (   3.3928269   0.0379133  15.7683020  )
        11           Pb1 tau(  11) = (   1.7292661   2.9193571  15.7682455  )
        12           Pb1 tau(  12) = (   5.1877520   2.9951569  15.6764683  )
        13           N1  tau(  13) = (   1.7292536   0.9983809  17.5642476  )

     number of k points=    20  Fermi-Dirac smearing, width (Ry)=  0.0110
                       cart. coord. in units 2pi/alat
        k(    1) = (   0.0000000   0.0000000   0.0000000), wk =   0.0555556
        k(    2) = (   0.0000000   0.0278228   0.0000000), wk =   0.1111111
        k(    3) = (   0.0000000   0.0556455   0.0000000), wk =   0.1111111
        k(    4) = (   0.0000000  -0.0834683   0.0000000), wk =   0.0555556
        k(    5) = (   0.0240952  -0.0139114   0.0000000), wk =   0.1111111
        k(    6) = (   0.0240952   0.0139114   0.0000000), wk =   0.1111111
        k(    7) = (   0.0240952   0.0417341   0.0000000), wk =   0.1111111
        k(    8) = (   0.0240952  -0.0973797   0.0000000), wk =   0.1111111
        k(    9) = (   0.0240952  -0.0695569   0.0000000), wk =   0.1111111
        k(   10) = (   0.0240952  -0.0417341   0.0000000), wk =   0.1111111
        k(   11) = (   0.0481904  -0.0278228   0.0000000), wk =   0.1111111
        k(   12) = (   0.0481904   0.0000000   0.0000000), wk =   0.1111111
        k(   13) = (   0.0481904   0.0278228   0.0000000), wk =   0.1111111
        k(   14) = (   0.0481904  -0.1112910   0.0000000), wk =   0.1111111
        k(   15) = (   0.0481904  -0.0834683   0.0000000), wk =   0.1111111
        k(   16) = (   0.0481904  -0.0556455   0.0000000), wk =   0.1111111
        k(   17) = (  -0.0722856   0.0417341   0.0000000), wk =   0.0555556
        k(   18) = (  -0.0722856   0.0695569   0.0000000), wk =   0.1111111
        k(   19) = (  -0.0722856   0.0973797   0.0000000), wk =   0.1111111
        k(   20) = (  -0.0722856  -0.0417341   0.0000000), wk =   0.0555556

     Dense  grid:   852865 G-vectors     FFT dimensions: (  80,  80, 300)

     Smooth grid:   215821 G-vectors     FFT dimensions: (  54,  54, 192)

     Largest allocated arrays     est. size (Mb)     dimensions
        Kohn-Sham Wavefunctions         1.26 Mb     (     858,   96)
        NL pseudopotentials             2.93 Mb     (     858,  224)
        Each V/rho on FFT grid          0.98 Mb     (   64000)
        Each G-vector array             0.20 Mb     (   26644)
        G-vector shells                 0.09 Mb     (   12051)
     Largest temporary arrays     est. size (Mb)     dimensions
        Auxiliary wavefunctions         5.03 Mb     (     858,  384)
        Each subspace H/S matrix        2.25 Mb     (     384,  384)
        Each <psi_i|beta_j> matrix      0.33 Mb     (     224,   96)
        Arrays for rho mixing           9.77 Mb     (   64000,   10)

     Check: negative/imaginary core charge=   -0.000001    0.000000

     Initial potential from superposition of free atoms
     Check: negative starting charge=   -0.196677

     starting charge  172.97177, renormalised to  173.00000

     negative rho (up, down):  1.967E-01 0.000E+00


     ************************************************************************
     *
     * You are using vdW-DF for exchange-correlation in this calculation.
     * Please cite the following three references that made this development
     * possible:
     *
     *   M. Dion, H. Rydberg, E. Schroder, D. C. Langreth, and
     *   B. I. Lundqvist, Phys. Rev. Lett. 92, 246401 (2004).
     *
     *   T. Thonhauser, V. R. Cooper, S. Li, A. Puzder, P. Hyldgaard, and
     *   D. C. Langreth, Phys. Rev. B 76, 125112 (2007).
     *
     *   G. Roman-Perez and J. M. Soler, Phys. Rev. Lett. 103, 096102 (2009).
     *
     *
     * If you are using vdW-DF2, please also cite:
     *
     *   K. Lee, E. D. Murray, L. Kong, B. I. Lundqvist, and
     *   D. C. Langreth, Phys. Rev. B 82, 081101(R) (2010).
     *
     *
     * If you are calculating the stress with vdW-DF, please also cite:
     *
     *   R. Sabatini, E. Kucukbenli, B. Kolb, T. Thonhauser, and
     *   S. de Gironcoli, J. Phys.: Condens. Matter 24, 424209 (2012).
     *
     ************************************************************************

     Carrying out vdW-DF run using the following parameters:

     Nqs =      20    Nr_points =    1024   r_max =   100.000
     q_mesh =
               0.00001000     0.04494208     0.09755937     0.15916263
               0.23128650     0.31572767     0.41458969     0.53033537
               0.66584808     0.82450364     1.01025438     1.22772762
               1.48234092     1.78043706     2.12944203     2.53805004
               3.01644009     3.57652955     4.23227104     5.00000000

     Gradients computed in reciprocal space

     ************************************************************************


 
     Adding external electric field

     Computed dipole along edir(3) : 
        Dipole               -0.0072 Ry au,         -0.0182 Debye
        Dipole field         -0.0000 Ry au
 
        Potential amp.        0.0012 Ry
        Total length         47.2555 bohr
 
     Starting wfc are  112 randomized atomic wfcs

     total cpu time spent up to now is       25.0 secs

     per-process dynamical memory:    60.9 Mb

     Self-consistent Calculation

     iteration #  1     ecut=    36.75 Ry     beta=0.30
     Davidson diagonalization with overlap
     ethr =  1.00E-02,  avg # of iterations =  2.0

     negative rho (up, down):  1.969E-01 0.000E+00
 
     Adding external electric field

     Computed dipole along edir(3) : 
        Dipole               -5.4810 Ry au,        -13.9312 Debye
        Dipole field         -0.0096 Ry au
 
        Potential amp.        0.9077 Ry
        Total length         47.2555 bohr
 

     total cpu time spent up to now is       77.3 secs

     total energy              =   -2010.75872148 Ry
     Harris-Foulkes estimate   =   -2012.60202041 Ry
     estimated scf accuracy    <       3.94540999 Ry

     iteration #  2     ecut=    36.75 Ry     beta=0.30
     Davidson diagonalization with overlap
     ethr =  2.28E-03,  avg # of iterations =  7.0

     negative rho (up, down):  1.952E-01 0.000E+00
 
     Adding external electric field

     Computed dipole along edir(3) : 
        Dipole                0.3375 Ry au,          0.8578 Debye
        Dipole field          0.0006 Ry au
 
        Potential amp.       -0.0559 Ry
        Total length         47.2555 bohr
 

     total cpu time spent up to now is      148.7 secs

     total energy              =   -2008.28553293 Ry
     Harris-Foulkes estimate   =   -2017.76337801 Ry
     estimated scf accuracy    <     132.34113199 Ry

     iteration #  3     ecut=    36.75 Ry     beta=0.30
     Davidson diagonalization with overlap
     ethr =  2.28E-03,  avg # of iterations =  5.8

     negative rho (up, down):  1.961E-01 0.000E+00
 
     Adding external electric field

     Computed dipole along edir(3) : 
        Dipole               -0.2138 Ry au,         -0.5435 Debye
        Dipole field         -0.0004 Ry au
 
        Potential amp.        0.0354 Ry
        Total length         47.2555 bohr
 

     total cpu time spent up to now is      221.9 secs

     total energy              =   -2011.71250541 Ry
     Harris-Foulkes estimate   =   -2012.95959230 Ry
     estimated scf accuracy    <       8.61581456 Ry

     iteration #  4     ecut=    36.75 Ry     beta=0.30
     Davidson diagonalization with overlap
     ethr =  2.28E-03,  avg # of iterations =  3.0

     negative rho (up, down):  1.970E-01 0.000E+00
 
     Adding external electric field

     Computed dipole along edir(3) : 
        Dipole               -0.3717 Ry au,         -0.9449 Debye
        Dipole field         -0.0007 Ry au
 
        Potential amp.        0.0616 Ry
        Total length         47.2555 bohr
 

     total cpu time spent up to now is      277.7 secs

     total energy              =   -2012.29662647 Ry
     Harris-Foulkes estimate   =   -2012.32813554 Ry
     estimated scf accuracy    <       0.33296766 Ry

     iteration #  5     ecut=    36.75 Ry     beta=0.30
     Davidson diagonalization with overlap
     ethr =  1.92E-04,  avg # of iterations =  2.9

     negative rho (up, down):  1.975E-01 0.000E+00
 
     Adding external electric field

     Computed dipole along edir(3) : 
        Dipole               -0.4216 Ry au,         -1.0716 Debye
        Dipole field         -0.0007 Ry au
 
        Potential amp.        0.0698 Ry
        Total length         47.2555 bohr
 

     total cpu time spent up to now is      332.5 secs

     total energy              =   -2012.31131684 Ry
     Harris-Foulkes estimate   =   -2012.31292270 Ry
     estimated scf accuracy    <       0.03175690 Ry

     iteration #  6     ecut=    36.75 Ry     beta=0.30
     Davidson diagonalization with overlap
     ethr =  1.84E-05,  avg # of iterations =  6.8

     negative rho (up, down):  2.070E-01 0.000E+00
 
     Adding external electric field

     Computed dipole along edir(3) : 
        Dipole               -0.6456 Ry au,         -1.6410 Debye
        Dipole field         -0.0011 Ry au
 
        Potential amp.        0.1069 Ry
        Total length         47.2555 bohr
 

     total cpu time spent up to now is      399.0 secs

     total energy              =   -2012.30865042 Ry
     Harris-Foulkes estimate   =   -2012.31376211 Ry
     estimated scf accuracy    <       0.02425426 Ry

     iteration #  7     ecut=    36.75 Ry     beta=0.30
     Davidson diagonalization with overlap
     ethr =  1.40E-05,  avg # of iterations =  4.5

     negative rho (up, down):  2.115E-01 0.000E+00
 
     Adding external electric field

     Computed dipole along edir(3) : 
        Dipole               -0.7141 Ry au,         -1.8152 Debye
        Dipole field         -0.0013 Ry au
 
        Potential amp.        0.1183 Ry
        Total length         47.2555 bohr
 

     total cpu time spent up to now is      465.8 secs

     total energy              =   -2012.31087288 Ry
     Harris-Foulkes estimate   =   -2012.31094060 Ry
     estimated scf accuracy    <       0.00219122 Ry

     iteration #  8     ecut=    36.75 Ry     beta=0.30
     Davidson diagonalization with overlap
     ethr =  1.27E-06,  avg # of iterations =  6.0

     negative rho (up, down):  2.112E-01 0.000E+00
 
     Adding external electric field

     Computed dipole along edir(3) : 
        Dipole               -0.6858 Ry au,         -1.7430 Debye
        Dipole field         -0.0012 Ry au
 
        Potential amp.        0.1136 Ry
        Total length         47.2555 bohr
 

     total cpu time spent up to now is      556.1 secs

     total energy              =   -2012.31152494 Ry
     Harris-Foulkes estimate   =   -2012.31194979 Ry
     estimated scf accuracy    <       0.00157493 Ry

     iteration #  9     ecut=    36.75 Ry     beta=0.30
     Davidson diagonalization with overlap
     ethr =  9.10E-07,  avg # of iterations =  3.0

     negative rho (up, down):  2.119E-01 0.000E+00
 
     Adding external electric field

     Computed dipole along edir(3) : 
        Dipole               -0.6811 Ry au,         -1.7312 Debye
        Dipole field         -0.0012 Ry au
 
        Potential amp.        0.1128 Ry
        Total length         47.2555 bohr
 

     total cpu time spent up to now is      609.9 secs

     total energy              =   -2012.31164907 Ry
     Harris-Foulkes estimate   =   -2012.31174516 Ry
     estimated scf accuracy    <       0.00052201 Ry

     iteration # 10     ecut=    36.75 Ry     beta=0.30
     Davidson diagonalization with overlap
     ethr =  3.02E-07,  avg # of iterations =  3.2

     negative rho (up, down):  2.126E-01 0.000E+00
 
     Adding external electric field

     Computed dipole along edir(3) : 
        Dipole               -0.6863 Ry au,         -1.7444 Debye
        Dipole field         -0.0012 Ry au
 
        Potential amp.        0.1137 Ry
        Total length         47.2555 bohr
 

     total cpu time spent up to now is      667.7 secs

     total energy              =   -2012.31162168 Ry
     Harris-Foulkes estimate   =   -2012.31175334 Ry
     estimated scf accuracy    <       0.00101168 Ry

     iteration # 11     ecut=    36.75 Ry     beta=0.30
     Davidson diagonalization with overlap
     ethr =  3.02E-07,  avg # of iterations =  3.1

     negative rho (up, down):  2.126E-01 0.000E+00
 
     Adding external electric field

     Computed dipole along edir(3) : 
        Dipole               -0.6834 Ry au,         -1.7370 Debye
        Dipole field         -0.0012 Ry au
 
        Potential amp.        0.1132 Ry
        Total length         47.2555 bohr
 

     total cpu time spent up to now is      723.1 secs

     total energy              =   -2012.31169903 Ry
     Harris-Foulkes estimate   =   -2012.31177899 Ry
     estimated scf accuracy    <       0.00094569 Ry

     iteration # 12     ecut=    36.75 Ry     beta=0.30
     Davidson diagonalization with overlap
     ethr =  3.02E-07,  avg # of iterations =  2.1

     negative rho (up, down):  2.127E-01 0.000E+00

     negative rho (up, down):  2.127E-01 0.000E+00

     negative rho (up, down):  2.127E-01 0.000E+00

     negative rho (up, down):  2.127E-01 0.000E+00

     negative rho (up, down):  2.127E-01 0.000E+00

     negative rho (up, down):  2.127E-01 0.000E+00

     negative rho (up, down):  2.127E-01 0.000E+00

     negative rho (up, down):  2.127E-01 0.000E+00

     negative rho (up, down):  2.127E-01 0.000E+00

     negative rho (up, down):  2.127E-01 0.000E+00

     negative rho (up, down):  2.127E-01 0.000E+00

     negative rho (up, down):  2.127E-01 0.000E+00

     negative rho (up, down):  2.127E-01 0.000E+00

     negative rho (up, down):  2.127E-01 0.000E+00

     negative rho (up, down):  2.127E-01 0.000E+00

     negative rho (up, down):  2.127E-01 0.000E+00

     negative rho (up, down):  2.127E-01 0.000E+00

     negative rho (up, down):  2.127E-01 0.000E+00

     negative rho (up, down):  2.127E-01 0.000E+00

     negative rho (up, down):  2.127E-01 0.000E+00

     negative rho (up, down):  2.127E-01 0.000E+00

     negative rho (up, down):  2.127E-01 0.000E+00

     negative rho (up, down):  2.127E-01 0.000E+00

     negative rho (up, down):  2.127E-01 0.000E+00

     negative rho (up, down):  2.127E-01 0.000E+00

     negative rho (up, down):  2.127E-01 0.000E+00

     negative rho (up, down):  2.127E-01 0.000E+00

     negative rho (up, down):  2.127E-01 0.000E+00

     negative rho (up, down):  2.127E-01 0.000E+00

     negative rho (up, down):  2.127E-01 0.000E+00

     negative rho (up, down):  2.127E-01 0.000E+00

     negative rho (up, down):  2.127E-01 0.000E+00

     negative rho (up, down):  2.127E-01 0.000E+00

     negative rho (up, down):  2.127E-01 0.000E+00

     negative rho (up, down):  2.127E-01 0.000E+00
 
     Adding external electric field

     Computed dipole along edir(3) : 
        Dipole               -0.6675 Ry au,         -1.6967 Debye
        Dipole field         -0.0012 Ry au
 
        Potential amp.        0.1105 Ry
        Total length         47.2555 bohr
 

     total cpu time spent up to now is      872.0 secs

     End of self-consistent calculation

          k = 0.0000 0.0000 0.0000 ( 27033 PWs)   bands (ev):

   -16.9086 -16.9071 -16.9071 -16.8415 -16.8410 -16.8410 -16.8241 -16.8223
   -16.8223 -16.8025 -16.8025 -16.7953 -16.7864 -16.7711 -16.7711 -16.7577
   -16.7577 -16.7556 -16.7531 -16.7531 -16.7367 -16.7279 -16.7279 -16.7038
   -16.7038 -16.6900 -16.6848 -16.6729 -16.6729 -16.6411 -16.6314 -16.6314
   -16.5814 -16.5814 -16.5764 -16.5609 -16.5565 -16.5565 -16.5451 -16.5450
   -16.5219 -16.5139 -16.5139 -16.5058 -16.5058 -16.4958 -16.4821 -16.4756
   -16.4756 -16.4650 -16.4646 -16.4646 -16.4520 -16.4519 -16.4345 -16.3993
   -16.3993 -16.3693 -16.3693 -16.3494 -11.5551 -10.6838  -9.4325  -8.1216
    -7.2745  -7.2711  -7.2711  -6.8075  -6.7945  -6.7945  -6.2457  -6.2207
    -6.2207  -3.0134  -3.0134  -2.9266  -2.3786  -2.0167  -1.9851  -1.9851
    -1.8878  -1.8878  -1.8853   0.0002   0.0002   0.1940   1.0431   1.8692
     1.8692   1.9372   2.3416   2.6852   2.6852   3.0943   3.4075   3.4075

          k = 0.0000 0.0278 0.0000 ( 27010 PWs)   bands (ev):

   -16.9005 -16.8887 -16.8879 -16.8383 -16.8281 -16.8257 -16.8167 -16.8113
   -16.8104 -16.7971 -16.7876 -16.7863 -16.7798 -16.7709 -16.7597 -16.7564
   -16.7553 -16.7502 -16.7473 -16.7457 -16.7313 -16.7234 -16.7148 -16.7059
   -16.7010 -16.6906 -16.6793 -16.6703 -16.6603 -16.6389 -16.6367 -16.6313
   -16.5903 -16.5823 -16.5766 -16.5664 -16.5639 -16.5630 -16.5512 -16.5446
   -16.5332 -16.5265 -16.5234 -16.5141 -16.5120 -16.5086 -16.4919 -16.4893
   -16.4795 -16.4768 -16.4732 -16.4690 -16.4660 -16.4564 -16.4464 -16.4070
   -16.4039 -16.3858 -16.3762 -16.3608 -11.5332 -10.5732  -9.3365  -8.0453
    -7.9001  -7.4161  -7.4124  -7.0704  -6.7901  -6.7821  -6.2935  -6.2028
    -6.1946  -2.7746  -2.7374  -2.4838  -2.2523  -1.9416  -1.9103  -1.7473
    -1.5143  -1.4702  -1.0046  -0.0540  -0.0159   0.2622   1.0243   1.2189
     1.6667   1.9438   2.3502   2.5608   2.6702   2.9110   3.0353   3.2144

          k = 0.0000 0.0556 0.0000 ( 26980 PWs)   bands (ev):

   -16.8812 -16.8416 -16.8414 -16.8314 -16.8150 -16.8048 -16.7973 -16.7911
   -16.7795 -16.7737 -16.7722 -16.7689 -16.7674 -16.7536 -16.7514 -16.7486
   -16.7428 -16.7330 -16.7318 -16.7211 -16.7125 -16.7065 -16.6971 -16.6970
   -16.6895 -16.6827 -16.6825 -16.6544 -16.6452 -16.6337 -16.6330 -16.6218
   -16.6095 -16.6035 -16.5908 -16.5855 -16.5838 -16.5769 -16.5707 -16.5576
   -16.5556 -16.5454 -16.5424 -16.5357 -16.5290 -16.5287 -16.5194 -16.5165
   -16.5048 -16.5007 -16.4924 -16.4888 -16.4803 -16.4720 -16.4502 -16.4296
   -16.4176 -16.4158 -16.4055 -16.3683 -11.4908 -10.2332  -9.0563  -8.8328
    -7.8747  -7.6961  -7.6139  -7.6062  -6.8504  -6.8231  -6.7203  -6.1528
    -6.1519  -2.1237  -2.1117  -1.8986  -1.4862  -1.3726  -1.1830  -1.0069
    -0.8470  -0.7804  -0.3692  -0.0852   0.3493   0.4626   0.8127   1.0110
     1.0505   1.5000   1.7673   2.0012   2.2846   2.3272   2.5025   3.0207

          k = 0.0000-0.0835 0.0000 ( 26962 PWs)   bands (ev):

   -16.8627 -16.8429 -16.8134 -16.8117 -16.7989 -16.7939 -16.7927 -16.7886
   -16.7680 -16.7679 -16.7639 -16.7541 -16.7500 -16.7466 -16.7420 -16.7361
   -16.7252 -16.7229 -16.7195 -16.7192 -16.6990 -16.6927 -16.6910 -16.6904
   -16.6833 -16.6760 -16.6552 -16.6465 -16.6408 -16.6369 -16.6337 -16.6298
   -16.6259 -16.6037 -16.5998 -16.5946 -16.5936 -16.5896 -16.5828 -16.5743
   -16.5711 -16.5690 -16.5661 -16.5536 -16.5390 -16.5348 -16.5265 -16.5224
   -16.5158 -16.5134 -16.5022 -16.4966 -16.4884 -16.4835 -16.4532 -16.4497
   -16.4346 -16.4258 -16.4129 -16.3693 -11.4702  -9.6869  -9.6217  -8.6219
    -8.4158  -7.6997  -7.6947  -7.3525  -7.2279  -6.8902  -6.8471  -6.1408
    -6.1336  -1.5591  -1.3522  -1.3155  -1.2670  -1.2455  -1.2264  -0.7330
    -0.4580  -0.3632  -0.2343   0.2600   0.3726   0.4452   0.8363   0.9034
     1.4349   1.5121   1.7899   1.8057   1.9436   1.9657   2.0027   2.2145

          k = 0.0241-0.0139 0.0000 ( 27010 PWs)   bands (ev):

   -16.9005 -16.8887 -16.8879 -16.8383 -16.8281 -16.8257 -16.8167 -16.8113
   -16.8104 -16.7971 -16.7876 -16.7863 -16.7798 -16.7709 -16.7597 -16.7564
   -16.7553 -16.7502 -16.7473 -16.7457 -16.7313 -16.7234 -16.7148 -16.7059
   -16.7010 -16.6906 -16.6793 -16.6703 -16.6603 -16.6389 -16.6367 -16.6313
   -16.5903 -16.5823 -16.5766 -16.5664 -16.5639 -16.5630 -16.5512 -16.5446
   -16.5332 -16.5265 -16.5234 -16.5141 -16.5120 -16.5086 -16.4919 -16.4894
   -16.4795 -16.4768 -16.4732 -16.4690 -16.4660 -16.4564 -16.4464 -16.4070
   -16.4039 -16.3858 -16.3762 -16.3608 -11.5332 -10.5732  -9.3365  -8.0452
    -7.9001  -7.4161  -7.4124  -7.0704  -6.7901  -6.7820  -6.2935  -6.2028
    -6.1946  -2.7746  -2.7374  -2.4838  -2.2523  -1.9416  -1.9103  -1.7473
    -1.5143  -1.4702  -1.0046  -0.0540  -0.0159   0.2622   1.0243   1.2189
     1.6667   1.9438   2.3502   2.5608   2.6702   2.9110   3.0353   3.2144

          k = 0.0241 0.0139 0.0000 ( 27010 PWs)   bands (ev):

   -16.9005 -16.8887 -16.8879 -16.8383 -16.8281 -16.8257 -16.8167 -16.8113
   -16.8104 -16.7971 -16.7876 -16.7863 -16.7798 -16.7709 -16.7597 -16.7564
   -16.7553 -16.7502 -16.7473 -16.7457 -16.7313 -16.7234 -16.7148 -16.7059
   -16.7010 -16.6906 -16.6793 -16.6703 -16.6603 -16.6389 -16.6367 -16.6313
   -16.5903 -16.5823 -16.5766 -16.5664 -16.5639 -16.5630 -16.5512 -16.5446
   -16.5332 -16.5264 -16.5234 -16.5141 -16.5120 -16.5086 -16.4919 -16.4894
   -16.4795 -16.4768 -16.4732 -16.4690 -16.4660 -16.4564 -16.4464 -16.4071
   -16.4039 -16.3858 -16.3762 -16.3608 -11.5332 -10.5732  -9.3365  -8.0453
    -7.9001  -7.4161  -7.4124  -7.0704  -6.7901  -6.7821  -6.2935  -6.2028
    -6.1946  -2.7746  -2.7374  -2.4838  -2.2523  -1.9416  -1.9103  -1.7473
    -1.5143  -1.4702  -1.0046  -0.0540  -0.0159   0.2622   1.0243   1.2189
     1.6667   1.9438   2.3502   2.5608   2.6702   2.9110   3.0353   3.2144

          k = 0.0241 0.0417 0.0000 ( 26981 PWs)   bands (ev):

   -16.8769 -16.8736 -16.8470 -16.8242 -16.8174 -16.8075 -16.8031 -16.7947
   -16.7882 -16.7829 -16.7785 -16.7753 -16.7715 -16.7609 -16.7572 -16.7489
   -16.7448 -16.7405 -16.7293 -16.7276 -16.7204 -16.7153 -16.7088 -16.6971
   -16.6903 -16.6859 -16.6746 -16.6636 -16.6488 -16.6382 -16.6323 -16.6273
   -16.6073 -16.5940 -16.5829 -16.5810 -16.5751 -16.5705 -16.5627 -16.5567
   -16.5474 -16.5414 -16.5375 -16.5307 -16.5295 -16.5174 -16.5123 -16.5048
   -16.5000 -16.4951 -16.4902 -16.4800 -16.4750 -16.4646 -16.4578 -16.4252
   -16.4137 -16.4091 -16.3831 -16.3789 -11.5014 -10.3475  -9.1431  -8.3218
    -8.2910  -7.8538  -7.3702  -7.3286  -7.0072  -6.5908  -6.4310  -6.4021
    -6.1312  -2.5668  -2.0364  -1.8589  -1.7916  -1.6146  -1.5605  -1.1972
    -1.1038  -0.6703  -0.4409   0.0079   0.1325   0.3933   0.7066   0.9038
     1.0861   1.4971   2.0298   2.3158   2.5147   2.8421   2.8806   3.0105

          k = 0.0241-0.0974 0.0000 ( 26956 PWs)   bands (ev):

   -16.8546 -16.8286 -16.8215 -16.8120 -16.8014 -16.7923 -16.7838 -16.7820
   -16.7770 -16.7726 -16.7673 -16.7611 -16.7533 -16.7512 -16.7413 -16.7389
   -16.7318 -16.7259 -16.7216 -16.7153 -16.7005 -16.6962 -16.6901 -16.6869
   -16.6818 -16.6746 -16.6620 -16.6551 -16.6410 -16.6354 -16.6321 -16.6278
   -16.6164 -16.6097 -16.6005 -16.5971 -16.5928 -16.5873 -16.5854 -16.5748
   -16.5657 -16.5592 -16.5535 -16.5477 -16.5423 -16.5364 -16.5288 -16.5251
   -16.5148 -16.5113 -16.5083 -16.4966 -16.4887 -16.4776 -16.4580 -16.4473
   -16.4320 -16.4191 -16.4117 -16.3827 -11.4708  -9.8872  -9.1964  -8.7435
    -8.5078  -8.1012  -7.5530  -7.4384  -6.9486  -6.8950  -6.5126  -6.4057
    -6.0811  -1.9665  -1.6036  -1.3189  -1.1617  -1.0105  -0.9492  -0.6934
    -0.4506  -0.2973  -0.1960   0.0358   0.2691   0.4925   0.6866   0.8657
     0.9750   1.3469   1.6533   1.9046   2.2359   2.3420   2.4561   2.6303

          k = 0.0241-0.0696 0.0000 ( 26956 PWs)   bands (ev):

   -16.8546 -16.8286 -16.8214 -16.8120 -16.8014 -16.7923 -16.7838 -16.7820
   -16.7770 -16.7726 -16.7673 -16.7611 -16.7533 -16.7512 -16.7413 -16.7389
   -16.7318 -16.7259 -16.7216 -16.7153 -16.7005 -16.6962 -16.6901 -16.6869
   -16.6818 -16.6746 -16.6620 -16.6551 -16.6410 -16.6354 -16.6321 -16.6278
   -16.6164 -16.6097 -16.6005 -16.5971 -16.5928 -16.5873 -16.5854 -16.5748
   -16.5657 -16.5592 -16.5535 -16.5477 -16.5423 -16.5364 -16.5288 -16.5251
   -16.5148 -16.5113 -16.5083 -16.4966 -16.4887 -16.4776 -16.4580 -16.4473
   -16.4320 -16.4192 -16.4117 -16.3827 -11.4708  -9.8872  -9.1964  -8.7434
    -8.5079  -8.1012  -7.5530  -7.4384  -6.9486  -6.8950  -6.5126  -6.4057
    -6.0811  -1.9665  -1.6036  -1.3189  -1.1618  -1.0105  -0.9492  -0.6934
    -0.4507  -0.2973  -0.1960   0.0359   0.2691   0.4924   0.6866   0.8657
     0.9750   1.3469   1.6532   1.9046   2.2359   2.3420   2.4561   2.6303

          k = 0.0241-0.0417 0.0000 ( 26981 PWs)   bands (ev):

[...]
   -16.1697 -16.1632 -16.1569 -16.1535 -16.1430 -16.1406 -16.1375 -16.1306
   -16.1221 -16.1175 -16.1124 -16.1095 -16.0858 -16.0796 -16.0765 -16.0640
   -16.0519 -16.0440 -16.0272 -16.0150 -12.4267  -9.3846  -8.7047  -8.2649
    -8.0224  -7.6276  -7.2963  -6.8913  -6.5056  -6.3992  -6.2710  -5.7952
    -5.5771  -2.1198  -1.4984  -1.2288  -0.9360  -0.7333  -0.6028  -0.4337
    -0.2493  -0.1450   0.1599   0.3573   0.5727   0.7921   1.0846   1.3281
     1.4323   1.7347   2.2523   2.4545   2.5614   2.6875   2.9372   2.9698

          k = 0.0241-0.0417 0.0000 ( 26981 PWs)   bands (ev):

   -16.6766 -16.4666 -16.4643 -16.4324 -16.4018 -16.3994 -16.3895 -16.3866
   -16.3837 -16.3657 -16.3584 -16.3398 -16.3385 -16.3348 -16.3282 -16.3254
   -16.3226 -16.3170 -16.3125 -16.3100 -16.3061 -16.3018 -16.2950 -16.2916
   -16.2788 -16.2711 -16.2541 -16.2459 -16.2338 -16.2267 -16.2236 -16.2092
   -16.2064 -16.1956 -16.1898 -16.1854 -16.1783 -16.1668 -16.1637 -16.1597
   -16.1569 -16.1453 -16.1444 -16.1388 -16.1313 -16.1261 -16.1202 -16.1132
   -16.1084 -16.1016 -16.0910 -16.0792 -16.0745 -16.0659 -16.0609 -16.0526
   -16.0461 -16.0151 -16.0040 -15.9985 -12.4470  -9.8480  -8.5088  -7.8462
    -7.7880  -7.5706  -7.1052  -6.6436  -6.5169  -6.3745  -6.1909  -5.9183
    -5.5703  -2.1826  -1.9501  -1.7462  -1.4229  -1.2222  -1.1878  -1.0064
    -0.8156  -0.5305  -0.3112   0.1562   0.5048   0.9391   1.0024   1.2424
     1.5231   2.0500   2.5377   2.8387   2.9271   3.0568   3.3583   3.4162

          k = 0.0482-0.0278 0.0000 ( 26980 PWs)   bands (ev):

   -16.6660 -16.4721 -16.4284 -16.4261 -16.4172 -16.3973 -16.3877 -16.3787
   -16.3648 -16.3574 -16.3461 -16.3449 -16.3368 -16.3319 -16.3264 -16.3243
   -16.3130 -16.3126 -16.3057 -16.3003 -16.2969 -16.2951 -16.2947 -16.2870
   -16.2777 -16.2733 -16.2485 -16.2457 -16.2336 -16.2238 -16.2191 -16.2150
   -16.2064 -16.2059 -16.1917 -16.1884 -16.1832 -16.1751 -16.1695 -16.1673
   -16.1553 -16.1543 -16.1471 -16.1410 -16.1366 -16.1314 -16.1255 -16.1237
   -16.1144 -16.1019 -16.1000 -16.0969 -16.0817 -16.0695 -16.0649 -16.0557
   -16.0411 -16.0258 -16.0198 -15.9937 -12.4403  -9.7314  -8.5157  -8.2626
    -7.6356  -7.2230  -7.1557  -6.9618  -6.7535  -6.4923  -6.0377  -5.9185
    -5.5117  -2.1090  -1.7456  -1.5865  -1.4608  -1.0392  -0.8133  -0.7126
    -0.6730  -0.4859  -0.2578   0.0586   0.6760   1.0592   1.1409   1.3729
     1.3966   1.9746   2.1078   2.3690   2.8169   2.8669   3.2493   3.2984

          k = 0.0482 0.0000 0.0000 ( 26981 PWs)   bands (ev):

   -16.6766 -16.4666 -16.4643 -16.4324 -16.4018 -16.3994 -16.3895 -16.3866
   -16.3837 -16.3657 -16.3584 -16.3398 -16.3385 -16.3348 -16.3282 -16.3254
   -16.3226 -16.3170 -16.3125 -16.3101 -16.3061 -16.3018 -16.2950 -16.2916
   -16.2788 -16.2711 -16.2541 -16.2459 -16.2338 -16.2267 -16.2236 -16.2092
   -16.2064 -16.1956 -16.1898 -16.1854 -16.1783 -16.1668 -16.1637 -16.1597
   -16.1569 -16.1453 -16.1444 -16.1388 -16.1313 -16.1261 -16.1202 -16.1132
   -16.1084 -16.1016 -16.0910 -16.0792 -16.0745 -16.0659 -16.0609 -16.0526
   -16.0461 -16.0151 -16.0040 -15.9985 -12.4470  -9.8480  -8.5089  -7.8462
    -7.7881  -7.5707  -7.1051  -6.6436  -6.5169  -6.3745  -6.1909  -5.9183
    -5.5703  -2.1826  -1.9501  -1.7461  -1.4230  -1.2222  -1.1878  -1.0065
    -0.8155  -0.5305  -0.3112   0.1562   0.5048   0.9391   1.0024   1.2424
     1.5231   2.0501   2.5377   2.8387   2.9272   3.0567   3.3583   3.4162

          k = 0.0482 0.0278 0.0000 ( 26980 PWs)   bands (ev):

   -16.6659 -16.4721 -16.4284 -16.4261 -16.4172 -16.3973 -16.3877 -16.3787
   -16.3648 -16.3574 -16.3461 -16.3449 -16.3368 -16.3319 -16.3264 -16.3243
   -16.3130 -16.3126 -16.3057 -16.3003 -16.2969 -16.2951 -16.2947 -16.2870
   -16.2777 -16.2733 -16.2485 -16.2457 -16.2336 -16.2238 -16.2191 -16.2150
   -16.2064 -16.2059 -16.1917 -16.1884 -16.1832 -16.1751 -16.1695 -16.1673
   -16.1553 -16.1543 -16.1471 -16.1410 -16.1366 -16.1314 -16.1255 -16.1237
   -16.1144 -16.1019 -16.1000 -16.0968 -16.0817 -16.0695 -16.0649 -16.0557
   -16.0411 -16.0258 -16.0199 -15.9937 -12.4403  -9.7314  -8.5157  -8.2627
    -7.6357  -7.2230  -7.1557  -6.9618  -6.7534  -6.4923  -6.0377  -5.9184
    -5.5118  -2.1091  -1.7456  -1.5864  -1.4608  -1.0393  -0.8132  -0.7125
    -0.6730  -0.4859  -0.2579   0.0586   0.6760   1.0590   1.1409   1.3728
     1.3966   1.9746   2.1077   2.3691   2.8169   2.8670   3.2492   3.2984

          k = 0.0482-0.1113 0.0000 ( 26956 PWs)   bands (ev):

   -16.6424 -16.4439 -16.4151 -16.4128 -16.3912 -16.3790 -16.3740 -16.3669
   -16.3658 -16.3514 -16.3480 -16.3378 -16.3310 -16.3240 -16.3154 -16.3131
   -16.3087 -16.3002 -16.2962 -16.2930 -16.2873 -16.2842 -16.2776 -16.2709
   -16.2664 -16.2605 -16.2491 -16.2451 -16.2402 -16.2361 -16.2294 -16.2229
   -16.2148 -16.2078 -16.2055 -16.1940 -16.1898 -16.1837 -16.1775 -16.1717
   -16.1697 -16.1632 -16.1569 -16.1535 -16.1430 -16.1406 -16.1375 -16.1306
   -16.1221 -16.1175 -16.1124 -16.1095 -16.0858 -16.0796 -16.0765 -16.0640
   -16.0519 -16.0440 -16.0272 -16.0150 -12.4267  -9.3846  -8.7047  -8.2649
    -8.0224  -7.6275  -7.2964  -6.8912  -6.5056  -6.3992  -6.2710  -5.7952
    -5.5770  -2.1199  -1.4984  -1.2287  -0.9360  -0.7333  -0.6028  -0.4337
    -0.2493  -0.1450   0.1600   0.3573   0.5728   0.7921   1.0847   1.3280
     1.4322   1.7348   2.2524   2.4545   2.5614   2.6874   2.9372   2.9697

          k = 0.0482-0.0835 0.0000 ( 26934 PWs)   bands (ev):

   -16.6292 -16.4050 -16.4033 -16.3971 -16.3878 -16.3806 -16.3754 -16.3727
   -16.3644 -16.3480 -16.3457 -16.3435 -16.3323 -16.3117 -16.3096 -16.3031
   -16.2958 -16.2946 -16.2918 -16.2854 -16.2831 -16.2794 -16.2713 -16.2666
   -16.2633 -16.2569 -16.2547 -16.2465 -16.2452 -16.2377 -16.2311 -16.2252
   -16.2225 -16.2206 -16.2104 -16.2083 -16.1933 -16.1894 -16.1834 -16.1771
   -16.1740 -16.1669 -16.1613 -16.1561 -16.1514 -16.1346 -16.1291 -16.1271
   -16.1240 -16.1180 -16.1154 -16.1110 -16.1033 -16.0939 -16.0702 -16.0620
   -16.0580 -16.0568 -16.0423 -16.0313 -12.4199  -8.9009  -8.8004  -8.7188
    -8.0179  -7.9232  -7.1536  -6.9469  -6.8293  -6.0602  -5.9457  -5.9032
    -5.7599  -2.1433  -1.1403  -1.0958  -0.7755  -0.7415  -0.5315  -0.3089
    -0.2874  -0.2669   0.5846   0.6686   0.9908   1.0355   1.1483   1.1747
     1.5714   1.6380   1.9674   2.2588   2.3208   2.3728   2.4759   3.4225

          k = 0.0482-0.0556 0.0000 ( 26956 PWs)   bands (ev):

   -16.6424 -16.4440 -16.4151 -16.4128 -16.3912 -16.3790 -16.3740 -16.3669
   -16.3658 -16.3514 -16.3480 -16.3378 -16.3310 -16.3240 -16.3154 -16.3131
   -16.3087 -16.3002 -16.2962 -16.2930 -16.2873 -16.2842 -16.2776 -16.2709
   -16.2664 -16.2605 -16.2491 -16.2451 -16.2402 -16.2361 -16.2294 -16.2229
   -16.2148 -16.2078 -16.2055 -16.1940 -16.1898 -16.1837 -16.1775 -16.1717
   -16.1697 -16.1632 -16.1569 -16.1535 -16.1430 -16.1406 -16.1375 -16.1306
   -16.1221 -16.1175 -16.1124 -16.1095 -16.0857 -16.0796 -16.0765 -16.0640
   -16.0519 -16.0440 -16.0272 -16.0149 -12.4267  -9.3846  -8.7047  -8.2648
    -8.0224  -7.6275  -7.2964  -6.8912  -6.5056  -6.3992  -6.2710  -5.7952
    -5.5771  -2.1198  -1.4984  -1.2288  -0.9361  -0.7334  -0.6028  -0.4336
    -0.2493  -0.1450   0.1600   0.3573   0.5728   0.7921   1.0845   1.3281
     1.4323   1.7348   2.2523   2.4546   2.5615   2.6875   2.9373   2.9698

          k =-0.0723 0.0417 0.0000 ( 26962 PWs)   bands (ev):

   -16.6430 -16.4519 -16.4366 -16.3915 -16.3831 -16.3816 -16.3723 -16.3717
   -16.3658 -16.3510 -16.3494 -16.3364 -16.3267 -16.3191 -16.3157 -16.3121
   -16.3086 -16.2999 -16.2952 -16.2914 -16.2895 -16.2834 -16.2755 -16.2635
   -16.2597 -16.2522 -16.2497 -16.2492 -16.2386 -16.2344 -16.2300 -16.2296
   -16.2218 -16.2171 -16.1934 -16.1930 -16.1856 -16.1739 -16.1732 -16.1715
   -16.1708 -16.1682 -16.1602 -16.1578 -16.1516 -16.1490 -16.1361 -16.1351
   -16.1317 -16.1216 -16.1209 -16.1039 -16.0901 -16.0793 -16.0705 -16.0627
   -16.0610 -16.0387 -16.0271 -16.0011 -12.4267  -9.2095  -9.0922  -8.2835
    -7.6775  -7.2495  -7.2313  -7.1593  -6.7951  -6.7056  -6.0102  -5.9137
    -5.4555  -2.1312  -1.1754  -1.1158  -0.8540  -0.7456  -0.6915  -0.5346
    -0.4387  -0.4274   0.0057   0.6477   0.7649   0.9282   1.1620   1.3834
     1.7364   2.0037   2.0718   2.1511   2.3329   2.4940   2.5349   2.6419

          k =-0.0723 0.0696 0.0000 ( 26956 PWs)   bands (ev):

   -16.6424 -16.4440 -16.4151 -16.4128 -16.3912 -16.3790 -16.3740 -16.3669
   -16.3658 -16.3514 -16.3480 -16.3378 -16.3310 -16.3240 -16.3154 -16.3131
   -16.3087 -16.3002 -16.2962 -16.2930 -16.2873 -16.2842 -16.2776 -16.2709
   -16.2664 -16.2605 -16.2491 -16.2451 -16.2402 -16.2361 -16.2294 -16.2229
   -16.2148 -16.2078 -16.2055 -16.1940 -16.1898 -16.1837 -16.1775 -16.1717
   -16.1697 -16.1632 -16.1569 -16.1535 -16.1430 -16.1406 -16.1375 -16.1306
   -16.1221 -16.1175 -16.1124 -16.1095 -16.0857 -16.0796 -16.0765 -16.0640
   -16.0519 -16.0440 -16.0272 -16.0149 -12.4267  -9.3846  -8.7047  -8.2649
    -8.0224  -7.6275  -7.2964  -6.8912  -6.5057  -6.3992  -6.2710  -5.7952
    -5.5770  -2.1198  -1.4984  -1.2288  -0.9361  -0.7333  -0.6028  -0.4336
    -0.2493  -0.1451   0.1600   0.3573   0.5728   0.7921   1.0846   1.3281
     1.4324   1.7348   2.2524   2.4546   2.5615   2.6875   2.9373   2.9698

          k =-0.0723 0.0974 0.0000 ( 26956 PWs)   bands (ev):

   -16.6424 -16.4439 -16.4151 -16.4128 -16.3912 -16.3790 -16.3740 -16.3669
   -16.3658 -16.3514 -16.3480 -16.3378 -16.3310 -16.3239 -16.3154 -16.3131
   -16.3087 -16.3002 -16.2962 -16.2930 -16.2873 -16.2842 -16.2776 -16.2709
   -16.2664 -16.2605 -16.2491 -16.2451 -16.2402 -16.2361 -16.2295 -16.2229
   -16.2148 -16.2078 -16.2055 -16.1940 -16.1898 -16.1837 -16.1775 -16.1717
   -16.1697 -16.1632 -16.1569 -16.1535 -16.1430 -16.1407 -16.1375 -16.1306
   -16.1221 -16.1175 -16.1124 -16.1095 -16.0858 -16.0796 -16.0765 -16.0640
   -16.0519 -16.0440 -16.0272 -16.0150 -12.4267  -9.3846  -8.7047  -8.2649
    -8.0224  -7.6276  -7.2963  -6.8912  -6.5056  -6.3992  -6.2710  -5.7951
    -5.5771  -2.1199  -1.4984  -1.2287  -0.9360  -0.7333  -0.6028  -0.4337
    -0.2492  -0.1450   0.1599   0.3573   0.5728   0.7921   1.0846   1.3280
     1.4322   1.7348   2.2524   2.4545   2.5615   2.6874   2.9372   2.9697

          k =-0.0723-0.0417 0.0000 ( 26962 PWs)   bands (ev):

   -16.6429 -16.4519 -16.4366 -16.3915 -16.3831 -16.3816 -16.3723 -16.3717
   -16.3657 -16.3510 -16.3494 -16.3364 -16.3267 -16.3191 -16.3157 -16.3121
   -16.3086 -16.2999 -16.2951 -16.2914 -16.2895 -16.2834 -16.2755 -16.2635
   -16.2596 -16.2522 -16.2497 -16.2492 -16.2387 -16.2344 -16.2300 -16.2296
   -16.2219 -16.2171 -16.1934 -16.1930 -16.1856 -16.1739 -16.1732 -16.1715
   -16.1708 -16.1682 -16.1602 -16.1578 -16.1516 -16.1490 -16.1361 -16.1351
   -16.1316 -16.1216 -16.1209 -16.1039 -16.0901 -16.0793 -16.0705 -16.0627
   -16.0610 -16.0387 -16.0271 -16.0011 -12.4267  -9.2095  -9.0922  -8.2835
    -7.6776  -7.2495  -7.2313  -7.1593  -6.7949  -6.7055  -6.0102  -5.9137
    -5.4555  -2.1314  -1.1754  -1.1155  -0.8540  -0.7456  -0.6915  -0.5346
    -0.4388  -0.4273   0.0057   0.6477   0.7648   0.9282   1.1620   1.3831
     1.7365   2.0036   2.0717   2.1511   2.3328   2.4939   2.5348   2.6419

     the Fermi energy is     1.1296 ev

!    total energy              =   -2012.40489123 Ry
     Harris-Foulkes estimate   =   -2012.40490091 Ry
     estimated scf accuracy    <       0.00000121 Ry

     The total energy is the sum of the following terms:

     one-electron contribution =   -9225.94332364 Ry
     hartree contribution      =    4684.72679026 Ry
     xc contribution           =    -789.29895804 Ry
     ewald contribution        =    3318.15559726 Ry
     electric field correction =       0.00007331 Ry
     smearing contrib. (-TS)   =      -0.04507037 Ry

     convergence has been achieved in  12 iterations
 
 BEEF-vdW xc energy contributions
           1 :   -703.445095811666     
           2 :    653.225863270629     
           3 :   -564.858527641874     
           4 :    457.783435682020     
           5 :   -351.988713198467     
           6 :    262.002128354770     
           7 :   -193.780743800340     
           8 :    145.206461697624     
           9 :   -109.440298118501     
          10 :    79.2987668504419     
          11 :   -50.6194301815312     
          12 :    23.3212218166871     
          13 :  -0.145872493437992     
          14 :   -15.8273968288543     
          15 :    23.3840301096611     
          16 :   -23.9904332833833     
          17 :    21.0104050319947     
          18 :   -17.9767903887691     
          19 :    16.9690869595429     
          20 :   -17.9523077182062     
          21 :    19.3127226129798     
          22 :   -19.1594525928192     
          23 :    16.5894265508057     
          24 :   -12.2211930991591     
          25 :    7.77753017301143     
          26 :   -5.05018910034414     
          27 :    4.88902365042873     
          28 :   -6.78528747406415     
          29 :    9.23697542670266     
          30 :   -10.6358399319111     
          31 :   -56.3918463544488     
          32 :   -41.3060525727786     

     Forces acting on atoms (Ry/au):


     negative rho (up, down):  2.124E-01 0.000E+00
     atom    1 type  1   force =    -0.00000324    0.00000587   -0.00833985
     atom    2 type  1   force =    -0.00000984   -0.00049374   -0.00598693
     atom    3 type  1   force =    -0.00041715    0.00025522   -0.00596436
     atom    4 type  1   force =     0.00040930    0.00024447   -0.00597737
     atom    5 type  1   force =     0.00099507   -0.00056898    0.00735822
     atom    6 type  1   force =    -0.00099431   -0.00057788    0.00735299
     atom    7 type  1   force =    -0.00000062   -0.00000812    0.00100930
     atom    8 type  1   force =     0.00001085    0.00113341    0.00735716
     atom    9 type  1   force =     0.00001374    0.00000888    0.00022683
     atom   10 type  1   force =    -0.00006368    0.00002478    0.00021159
     atom   11 type  1   force =     0.00000621   -0.00000829    0.00020708
     atom   12 type  1   force =     0.00000326    0.00001141    0.00113663
     atom   13 type  2   force =     0.00005039   -0.00002702    0.00140871

     Total force =     0.018658     Total SCF correction =     0.004877
     SCF correction compared to forces is large: reduce conv_thr to get better values


     entering subroutine stress ...


     negative rho (up, down):  2.124E-01 0.000E+00
          total   stress  (Ry/bohr**3)                   (kbar)     P=    9.76
   0.00008637   0.00000002   0.00000001         12.71      0.00      0.00
   0.00000002   0.00008638  -0.00000000          0.00     12.71     -0.00
   0.00000001  -0.00000000   0.00002619          0.00     -0.00      3.85

 !ASE

     Writing output data file calc.save
 
     init_run     :     14.07s CPU     24.13s WALL (       1 calls)
     electrons    :    470.03s CPU    820.07s WALL (       1 calls)
     forces       :      7.36s CPU      9.12s WALL (       1 calls)
     stress       :     21.21s CPU     24.33s WALL (       1 calls)

     Called by init_run:
     wfcinit      :     10.27s CPU     18.51s WALL (       1 calls)
     potinit      :      1.84s CPU      3.49s WALL (       1 calls)

     Called by electrons:
     c_bands      :    333.77s CPU    571.51s WALL (      12 calls)
     sum_band     :     56.20s CPU     99.32s WALL (      12 calls)
     v_of_rho     :     20.39s CPU     40.33s WALL (      13 calls)
     newd         :      9.83s CPU     10.53s WALL (      13 calls)
     mix_rho      :      0.72s CPU      1.33s WALL (      12 calls)
     vdW_energy   :      4.20s CPU      4.68s WALL (      49 calls)
     vdW_ffts     :     44.91s CPU     95.13s WALL (     100 calls)
     vdW_v        :      8.90s CPU     16.24s WALL (      49 calls)

     Called by c_bands:
     init_us_2    :      1.33s CPU      1.37s WALL (     540 calls)
     cegterg      :    326.16s CPU    563.06s WALL (     240 calls)

     Called by *egterg:
     h_psi        :    236.51s CPU    468.84s WALL (    1191 calls)
     s_psi        :     11.00s CPU     11.01s WALL (    1191 calls)
     g_psi        :      0.62s CPU      0.61s WALL (     931 calls)
     cdiaghg      :     46.46s CPU     48.04s WALL (    1171 calls)

     Called by h_psi:
     add_vuspsi   :     11.26s CPU     11.27s WALL (    1191 calls)

     General routines
     calbec       :     19.23s CPU     23.22s WALL (    1471 calls)
     fft          :     67.09s CPU    142.10s WALL (    2961 calls)
     ffts         :      0.14s CPU      0.30s WALL (      25 calls)
     fftw         :    229.42s CPU    496.10s WALL (  136308 calls)
     interpolate  :      0.73s CPU      1.49s WALL (      25 calls)
     davcio       :      0.00s CPU      0.06s WALL (      20 calls)
 
     Parallel routines
     fft_scatter  :    256.28s CPU    593.44s WALL (  139294 calls)
 
     PWSCF        :  8m33.50s CPU    14m39.32s WALL

 
   This run was terminated on:  18:58:49  20Jan2018            

=------------------------------------------------------------------------------=
   JOB DONE.
=------------------------------------------------------------------------------=
Job  /afs/slac/g/suncat/bin/suncat-tsmpirun -x LD_LIBRARY_PATH -wdir /scratch/qe864359_1wtMb pw.x -in pw.inp

TID   HOST_NAME   COMMAND_LINE            STATUS            TERMINATION_TIME
===== ========== ================  =======================  ===================
00000 suncat1043 pw.x -in pw.inp   Done                     01/20/2018 18:58:49
00001 suncat1043 pw.x -in pw.inp   Done                     01/20/2018 18:58:49
00002 suncat1043 pw.x -in pw.inp   Done                     01/20/2018 18:58:49
00003 suncat1043 pw.x -in pw.inp   Done                     01/20/2018 18:58:49
00004 suncat1043 pw.x -in pw.inp   Done                     01/20/2018 18:58:49
00005 suncat1043 pw.x -in pw.inp   Done                     01/20/2018 18:58:49
00006 suncat1043 pw.x -in pw.inp   Done                     01/20/2018 18:58:49
00007 suncat1043 pw.x -in pw.inp   Done                     01/20/2018 18:58:49
00008 suncat1041 pw.x -in pw.inp   Done                     01/20/2018 18:58:49
00009 suncat1041 pw.x -in pw.inp   Done                     01/20/2018 18:58:49
00010 suncat1041 pw.x -in pw.inp   Done                     01/20/2018 18:58:49
00011 suncat1041 pw.x -in pw.inp   Done                     01/20/2018 18:58:49
00012 suncat1041 pw.x -in pw.inp   Done                     01/20/2018 18:58:49
00013 suncat1041 pw.x -in pw.inp   Done                     01/20/2018 18:58:49
00014 suncat1041 pw.x -in pw.inp   Done                     01/20/2018 18:58:49
00015 suncat1041 pw.x -in pw.inp   Done                     01/20/2018 18:58:49
00016 suncat1041 pw.x -in pw.inp   Done                     01/20/2018 18:58:49
00017 suncat1041 pw.x -in pw.inp   Done                     01/20/2018 18:58:49
00018 suncat1041 pw.x -in pw.inp   Done                     01/20/2018 18:58:49
00019 suncat1041 pw.x -in pw.inp   Done                     01/20/2018 18:58:49
00020 suncat1040 pw.x -in pw.inp   Done                     01/20/2018 18:58:49
00021 suncat1040 pw.x -in pw.inp   Done                     01/20/2018 18:58:49
00022 suncat1040 pw.x -in pw.inp   Done                     01/20/2018 18:58:49
00023 suncat1040 pw.x -in pw.inp   Done                     01/20/2018 18:58:49
00024 suncat1040 pw.x -in pw.inp   Done                     01/20/2018 18:58:49
00025 suncat1040 pw.x -in pw.inp   Done                     01/20/2018 18:58:49
00026 suncat1040 pw.x -in pw.inp   Done                     01/20/2018 18:58:49
00027 suncat1040 pw.x -in pw.inp   Done                     01/20/2018 18:58:49
00028 suncat1040 pw.x -in pw.inp   Done                     01/20/2018 18:58:49
00029 suncat1040 pw.x -in pw.inp   Done                     01/20/2018 18:58:49
00030 suncat1040 pw.x -in pw.inp   Done                     01/20/2018 18:58:49
00031 suncat1040 pw.x -in pw.inp   Done                     01/20/2018 18:58:49
