  python dir          : /nfs/slac/g/suncatfs/sw/espv20/lib/python2.7/site-packages/espresso
  espresso dir        : /nfs/slac/g/suncatfs/sw/espv18/espresso-dynpy-beef/bin
  pseudo dir          : /afs/slac.stanford.edu/u/if/mamunm/psp/gbrv1.5pbe
  ase-espresso py git : ffa2778-git



     Program PWSCF v.5.1rc2 (svn rev. 11289) starts on 17Jan2018 at 21:45: 1 

     This program is part of the open-source Quantum ESPRESSO suite
     for quantum simulation of materials; please cite
         "P. Giannozzi et al., J. Phys.:Condens. Matter 21 395502 (2009);
          URL http://www.quantum-espresso.org", 
     in publications or presentations arising from this work. More details at
     http://www.quantum-espresso.org/quote

     Parallel version (MPI), running on    32 processors
     R & G space division:  proc/nbgrp/npool/nimage =      32
     Reading input from pw.inp
     Message from routine read_cards :
     DEPRECATED: no units specified in CELL_PARAMETERS card

     Current dimensions of program PWSCF are:
     Max number of different atomic species (ntypx) = 10
     Max number of k-points (npk) =  40000
     Max angular momentum in pseudopotentials (lmaxx) =  3
     Presently stress not available with electric field


     **************************************************************************
     Initializing libbeef V0.1.1 with the BEEF-vdW functional.
     Citation: Wellendorff et al., PRB 85, 235149 (2012).
     **************************************************************************


     IMPORTANT: XC functional enforced from input :
     Exchange-correlation      = BEEF-VDW ( 1  4 27 13 2)
     Any further DFT definition will be discarded
     Please, verify this is what you really want


     Subspace diagonalization in iterative solution of the eigenvalue problem:
     a serial algorithm will be used

 
     Parallelization info
     --------------------
     sticks:   dense  smooth     PW     G-vecs:    dense   smooth      PW
     Min          83      33      9                15627     3935     617
     Max          84      34     10                15638     3974     644
     Sum        2677    1069    313               500285   126611   20281
 


     bravais-lattice index     =            0
     lattice parameter (alat)  =       1.8897  a.u.
     unit-cell volume          =    4204.8134 (a.u.)^3
     number of atoms/cell      =           13
     number of atomic types    =            2
     number of electrons       =       185.00
     number of Kohn-Sham states=          102
     kinetic-energy cutoff     =      36.7493  Ry
     charge density cutoff     =     367.4932  Ry
     convergence threshold     =      1.0E-05
     mixing beta               =       0.3000
     number of iterations used =           10  plain     mixing
     Exchange-correlation      = BEEF-VDW ( 1  4 27 13 2)
     nstep                     =           50


     celldm(1)=   1.889726  celldm(2)=   0.000000  celldm(3)=   0.000000
     celldm(4)=   0.000000  celldm(5)=   0.000000  celldm(6)=   0.000000

     crystal axes: (cart. coord. in units of alat)
               a(1) = (   5.426750   0.000000   0.000000 )  
               a(2) = (   2.713375   4.699703   0.000000 )  
               a(3) = (   0.000000   0.000000  24.430923 )  

     reciprocal axes: (cart. coord. in units 2 pi/alat)
               b(1) = (  0.184272 -0.106390  0.000000 )  
               b(2) = (  0.000000  0.212779  0.000000 )  
               b(3) = (  0.000000  0.000000  0.040932 )  


     PseudoPot. # 1 for Rh read from file:
     /afs/slac.stanford.edu/u/if/mamunm/psp/gbrv1.5pbe/Rh.UPF
     MD5 check sum: 761627e959a2e3a1f56b0b5fe687810e
     Pseudo is Ultrasoft + core correction, Zval = 15.0
     Generated by new atomic code, or converted to UPF format
     Using radial grid of  969 points,  7 beta functions with: 
                l(1) =   0
                l(2) =   0
                l(3) =   1
                l(4) =   1
                l(5) =   2
                l(6) =   2
                l(7) =   2
     Q(r) pseudized with  8 coefficients,  rinner =    1.200   1.200   1.200
                                                       1.200   1.200

     PseudoPot. # 2 for N  read from file:
     /afs/slac.stanford.edu/u/if/mamunm/psp/gbrv1.5pbe/N.UPF
     MD5 check sum: 95339753478d7afb44899504a8723017
     Pseudo is Ultrasoft + core correction, Zval =  5.0
     Generated by new atomic code, or converted to UPF format
     Using radial grid of  729 points,  4 beta functions with: 
                l(1) =   0
                l(2) =   0
                l(3) =   1
                l(4) =   1
     Q(r) pseudized with  8 coefficients,  rinner =    0.900   0.900   0.900


     vdW kernel table read from file vdW_kernel_table
     MD5 check sum: 095c7af220d748ca6e76c0b4c6cfb241

     atomic species   valence    mass     pseudopotential
        Rh1           15.00   102.90550     Rh( 1.00)
        N1             5.00    14.00700     N ( 1.00)

     No symmetry found



   Cartesian axes

     site n.     atom                  positions (alat units)
         1           Rh1 tau(   1) = (   1.3566875   0.7832839  10.0000000  )
         2           Rh1 tau(   2) = (   4.0700625   0.7832839  10.0000000  )
         3           Rh1 tau(   3) = (   2.7133750   3.1331356  10.0000000  )
         4           Rh1 tau(   4) = (   5.4267500   3.1331356  10.0000000  )
         5           Rh1 tau(   5) = (   5.4267500   1.5665678  12.2154614  )
         6           Rh1 tau(   6) = (   2.7133750   1.5665678  12.2154614  )
         7           Rh1 tau(   7) = (   6.7834375   3.9164194  12.2154614  )
         8           Rh1 tau(   8) = (   4.0700625   3.9164194  12.2154614  )
         9           Rh1 tau(   9) = (   0.0000000   0.0000000  14.4309228  )
        10           Rh1 tau(  10) = (   2.7133750   0.0000000  14.4309228  )
        11           Rh1 tau(  11) = (   1.3566875   2.3498517  14.4309228  )
        12           Rh1 tau(  12) = (   4.0700625   2.3498517  14.4309228  )
        13           N1  tau(  13) = (   1.3566875   0.7832839  16.5609228  )

     number of k points=    20  Fermi-Dirac smearing, width (Ry)=  0.0110
                       cart. coord. in units 2pi/alat
        k(    1) = (   0.0000000   0.0000000   0.0000000), wk =   0.0555556
        k(    2) = (   0.0000000   0.0354632   0.0000000), wk =   0.1111111
        k(    3) = (   0.0000000   0.0709265   0.0000000), wk =   0.1111111
        k(    4) = (   0.0000000  -0.1063897   0.0000000), wk =   0.0555556
        k(    5) = (   0.0307121  -0.0177316   0.0000000), wk =   0.1111111
        k(    6) = (   0.0307121   0.0177316   0.0000000), wk =   0.1111111
        k(    7) = (   0.0307121   0.0531948   0.0000000), wk =   0.1111111
        k(    8) = (   0.0307121  -0.1241213   0.0000000), wk =   0.1111111
        k(    9) = (   0.0307121  -0.0886581   0.0000000), wk =   0.1111111
        k(   10) = (   0.0307121  -0.0531948   0.0000000), wk =   0.1111111
        k(   11) = (   0.0614241  -0.0354632   0.0000000), wk =   0.1111111
        k(   12) = (   0.0614241   0.0000000   0.0000000), wk =   0.1111111
        k(   13) = (   0.0614241   0.0354632   0.0000000), wk =   0.1111111
        k(   14) = (   0.0614241  -0.1418529   0.0000000), wk =   0.1111111
        k(   15) = (   0.0614241  -0.1063897   0.0000000), wk =   0.1111111
        k(   16) = (   0.0614241  -0.0709265   0.0000000), wk =   0.1111111
        k(   17) = (  -0.0921362   0.0531948   0.0000000), wk =   0.0555556
        k(   18) = (  -0.0921362   0.0886581   0.0000000), wk =   0.1111111
        k(   19) = (  -0.0921362   0.1241213   0.0000000), wk =   0.1111111
        k(   20) = (  -0.0921362  -0.0531948   0.0000000), wk =   0.0555556

     Dense  grid:   500285 G-vectors     FFT dimensions: (  64,  64, 288)

     Smooth grid:   126611 G-vectors     FFT dimensions: (  40,  40, 180)

     Largest allocated arrays     est. size (Mb)     dimensions
        Kohn-Sham Wavefunctions         0.83 Mb     (     535,  102)
        NL pseudopotentials             2.32 Mb     (     535,  284)
        Each V/rho on FFT grid          0.56 Mb     (   36864)
        Each G-vector array             0.12 Mb     (   15636)
        G-vector shells                 0.05 Mb     (    7022)
     Largest temporary arrays     est. size (Mb)     dimensions
        Auxiliary wavefunctions         3.33 Mb     (     535,  408)
        Each subspace H/S matrix        2.54 Mb     (     408,  408)
        Each <psi_i|beta_j> matrix      0.44 Mb     (     284,  102)
        Arrays for rho mixing           5.62 Mb     (   36864,   10)

     Initial potential from superposition of free atoms
     Check: negative starting charge=   -0.652805

     starting charge  178.99881, renormalised to  185.00000

     negative rho (up, down):  6.747E-01 0.000E+00


     ************************************************************************
     *
     * You are using vdW-DF for exchange-correlation in this calculation.
     * Please cite the following three references that made this development
     * possible:
     *
     *   M. Dion, H. Rydberg, E. Schroder, D. C. Langreth, and
     *   B. I. Lundqvist, Phys. Rev. Lett. 92, 246401 (2004).
     *
     *   T. Thonhauser, V. R. Cooper, S. Li, A. Puzder, P. Hyldgaard, and
     *   D. C. Langreth, Phys. Rev. B 76, 125112 (2007).
     *
     *   G. Roman-Perez and J. M. Soler, Phys. Rev. Lett. 103, 096102 (2009).
     *
     *
     * If you are using vdW-DF2, please also cite:
     *
     *   K. Lee, E. D. Murray, L. Kong, B. I. Lundqvist, and
     *   D. C. Langreth, Phys. Rev. B 82, 081101(R) (2010).
     *
     *
     * If you are calculating the stress with vdW-DF, please also cite:
     *
     *   R. Sabatini, E. Kucukbenli, B. Kolb, T. Thonhauser, and
     *   S. de Gironcoli, J. Phys.: Condens. Matter 24, 424209 (2012).
     *
     ************************************************************************

     Carrying out vdW-DF run using the following parameters:

     Nqs =      20    Nr_points =    1024   r_max =   100.000
     q_mesh =
               0.00001000     0.04494208     0.09755937     0.15916263
               0.23128650     0.31572767     0.41458969     0.53033537
               0.66584808     0.82450364     1.01025438     1.22772762
               1.48234092     1.78043706     2.12944203     2.53805004
               3.01644009     3.57652955     4.23227104     5.00000000

     Gradients computed in reciprocal space

     ************************************************************************


 
     Adding external electric field

     Computed dipole along edir(3) : 
        Dipole               -1.3765 Ry au,         -3.4987 Debye
        Dipole field         -0.0041 Ry au
 
        Potential amp.        0.3703 Ry
        Total length         45.0136 bohr
 
     Starting wfc are  148 randomized atomic wfcs

     total cpu time spent up to now is       18.1 secs

     per-process dynamical memory:    47.3 Mb

     Self-consistent Calculation

     iteration #  1     ecut=    36.75 Ry     beta=0.30
     Davidson diagonalization with overlap
     ethr =  1.00E-02,  avg # of iterations =  2.0

     negative rho (up, down):  6.864E-01 0.000E+00
 
     Adding external electric field

     Computed dipole along edir(3) : 
        Dipole               19.7101 Ry au,         50.0981 Debye
        Dipole field          0.0589 Ry au
 
        Potential amp.       -5.3030 Ry
        Total length         45.0136 bohr
 

     total cpu time spent up to now is       52.7 secs

     total energy              =   -2050.45741858 Ry
     Harris-Foulkes estimate   =   -2087.67490671 Ry
     estimated scf accuracy    <      76.73891937 Ry

     iteration #  2     ecut=    36.75 Ry     beta=0.30
     Davidson diagonalization with overlap
     ethr =  1.00E-02,  avg # of iterations = 14.3

     negative rho (up, down):  6.837E-01 0.000E+00
 
     Adding external electric field

     Computed dipole along edir(3) : 
        Dipole               -3.6472 Ry au,         -9.2702 Debye
        Dipole field         -0.0109 Ry au
 
        Potential amp.        0.9813 Ry
        Total length         45.0136 bohr
 

     total cpu time spent up to now is      151.0 secs

     total energy              =   -1906.15834799 Ry
     Harris-Foulkes estimate   =   -2309.13658388 Ry
     estimated scf accuracy    <   11897.08521786 Ry

     iteration #  3     ecut=    36.75 Ry     beta=0.30
     Davidson diagonalization with overlap
     ethr =  1.00E-02,  avg # of iterations =  7.9

     negative rho (up, down):  6.896E-01 0.000E+00
 
     Adding external electric field

     Computed dipole along edir(3) : 
        Dipole               -1.8779 Ry au,         -4.7731 Debye
        Dipole field         -0.0056 Ry au
 
        Potential amp.        0.5053 Ry
        Total length         45.0136 bohr
 

     total cpu time spent up to now is      231.8 secs

     total energy              =   -2069.92560323 Ry
     Harris-Foulkes estimate   =   -2126.23942663 Ry
     estimated scf accuracy    <     997.20879158 Ry

     iteration #  4     ecut=    36.75 Ry     beta=0.30
     Davidson diagonalization with overlap
     ethr =  1.00E-02,  avg # of iterations =  6.0

     negative rho (up, down):  6.890E-01 0.000E+00
 
     Adding external electric field

     Computed dipole along edir(3) : 
        Dipole               -0.7080 Ry au,         -1.7995 Debye
        Dipole field         -0.0021 Ry au
 
        Potential amp.        0.1905 Ry
        Total length         45.0136 bohr
 

     total cpu time spent up to now is      286.9 secs

     total energy              =   -2084.74193239 Ry
     Harris-Foulkes estimate   =   -2090.29939677 Ry
     estimated scf accuracy    <      48.01249990 Ry

     iteration #  5     ecut=    36.75 Ry     beta=0.30
     Davidson diagonalization with overlap
     ethr =  1.00E-02,  avg # of iterations =  2.5

     negative rho (up, down):  6.844E-01 0.000E+00
 
     Adding external electric field

     Computed dipole along edir(3) : 
        Dipole               -0.8641 Ry au,         -2.1964 Debye
        Dipole field         -0.0026 Ry au
 
        Potential amp.        0.2325 Ry
        Total length         45.0136 bohr
 

     total cpu time spent up to now is      317.9 secs

     total energy              =   -2085.07819891 Ry
     Harris-Foulkes estimate   =   -2087.13925448 Ry
     estimated scf accuracy    <      39.00167474 Ry

     iteration #  6     ecut=    36.75 Ry     beta=0.30
     Davidson diagonalization with overlap
     ethr =  1.00E-02,  avg # of iterations =  1.4

     negative rho (up, down):  6.856E-01 0.000E+00
 
     Adding external electric field

     Computed dipole along edir(3) : 
        Dipole               -0.7894 Ry au,         -2.0065 Debye
        Dipole field         -0.0024 Ry au
 
        Potential amp.        0.2124 Ry
        Total length         45.0136 bohr
 

     total cpu time spent up to now is      347.2 secs

     total energy              =   -2086.26805463 Ry
     Harris-Foulkes estimate   =   -2086.60044611 Ry
     estimated scf accuracy    <       5.68209044 Ry

     iteration #  7     ecut=    36.75 Ry     beta=0.30
     Davidson diagonalization with overlap
     ethr =  3.07E-03,  avg # of iterations =  3.7

     negative rho (up, down):  6.870E-01 0.000E+00
 
     Adding external electric field

     Computed dipole along edir(3) : 
        Dipole               -1.0210 Ry au,         -2.5952 Debye
        Dipole field         -0.0031 Ry au
 
        Potential amp.        0.2747 Ry
        Total length         45.0136 bohr
 

     total cpu time spent up to now is      379.6 secs

     total energy              =   -2086.01352380 Ry
     Harris-Foulkes estimate   =   -2086.58839934 Ry
     estimated scf accuracy    <      19.84055982 Ry

     iteration #  8     ecut=    36.75 Ry     beta=0.30
     Davidson diagonalization with overlap
     ethr =  3.07E-03,  avg # of iterations =  1.2

     negative rho (up, down):  6.871E-01 0.000E+00
 
     Adding external electric field

     Computed dipole along edir(3) : 
        Dipole               -0.9972 Ry au,         -2.5346 Debye
        Dipole field         -0.0030 Ry au
 
        Potential amp.        0.2683 Ry
        Total length         45.0136 bohr
 

     total cpu time spent up to now is      408.8 secs

     total energy              =   -2086.34512238 Ry
     Harris-Foulkes estimate   =   -2086.39803548 Ry
     estimated scf accuracy    <       0.73741706 Ry

     iteration #  9     ecut=    36.75 Ry     beta=0.30
     Davidson diagonalization with overlap
     ethr =  3.99E-04,  avg # of iterations =  5.0

     negative rho (up, down):  6.867E-01 0.000E+00
 
     Adding external electric field

     Computed dipole along edir(3) : 
        Dipole               -0.9304 Ry au,         -2.3649 Debye
        Dipole field         -0.0028 Ry au
 
        Potential amp.        0.2503 Ry
        Total length         45.0136 bohr
 

     total cpu time spent up to now is      447.6 secs

     total energy              =   -2086.40195196 Ry
     Harris-Foulkes estimate   =   -2086.47307724 Ry
     estimated scf accuracy    <       3.96134874 Ry

     iteration # 10     ecut=    36.75 Ry     beta=0.30
     Davidson diagonalization with overlap
     ethr =  3.99E-04,  avg # of iterations =  1.0

     negative rho (up, down):  6.865E-01 0.000E+00
 
     Adding external electric field

     Computed dipole along edir(3) : 
        Dipole               -0.9457 Ry au,         -2.4038 Debye
        Dipole field         -0.0028 Ry au
 
        Potential amp.        0.2544 Ry
        Total length         45.0136 bohr
 

     total cpu time spent up to now is      476.2 secs

     total energy              =   -2086.42083964 Ry
     Harris-Foulkes estimate   =   -2086.42768671 Ry
     estimated scf accuracy    <       0.26216076 Ry

     iteration # 11     ecut=    36.75 Ry     beta=0.30
     Davidson diagonalization with overlap
     ethr =  1.42E-04,  avg # of iterations =  1.6

     negative rho (up, down):  6.861E-01 0.000E+00
 
     Adding external electric field

     Computed dipole along edir(3) : 
        Dipole               -0.9398 Ry au,         -2.3888 Debye
        Dipole field         -0.0028 Ry au
 
        Potential amp.        0.2529 Ry
        Total length         45.0136 bohr
 

     total cpu time spent up to now is      506.0 secs

     total energy              =   -2086.41710124 Ry
     Harris-Foulkes estimate   =   -2086.42319138 Ry
     estimated scf accuracy    <       0.18730314 Ry

     iteration # 12     ecut=    36.75 Ry     beta=0.30
     Davidson diagonalization with overlap
     ethr =  1.01E-04,  avg # of iterations =  1.4

     negative rho (up, down):  6.854E-01 0.000E+00
 
     Adding external electric field

     Computed dipole along edir(3) : 
        Dipole               -0.8622 Ry au,         -2.1915 Debye
        Dipole field         -0.0026 Ry au
 
        Potential amp.        0.2320 Ry
        Total length         45.0136 bohr
 

     total cpu time spent up to now is      535.0 secs

     total energy              =   -2086.41165947 Ry
     Harris-Foulkes estimate   =   -2086.42040416 Ry
     estimated scf accuracy    <       0.11992315 Ry

     iteration # 13     ecut=    36.75 Ry     beta=0.30
     Davidson diagonalization with overlap
     ethr =  6.48E-05,  avg # of iterations =  5.8

     negative rho (up, down):  6.856E-01 0.000E+00
 
     Adding external electric field

     Computed dipole along edir(3) : 
        Dipole               -0.7314 Ry au,         -1.8589 Debye
        Dipole field         -0.0022 Ry au
 
        Potential amp.        0.1968 Ry
        Total length         45.0136 bohr
 

     total cpu time spent up to now is      570.9 secs

     total energy              =   -2086.41392158 Ry
     Harris-Foulkes estimate   =   -2086.41842625 Ry
     estimated scf accuracy    <       0.11723039 Ry

     iteration # 14     ecut=    36.75 Ry     beta=0.30
     Davidson diagonalization with overlap
     ethr =  6.34E-05,  avg # of iterations =  1.0

     negative rho (up, down):  6.857E-01 0.000E+00
 
     Adding external electric field

     Computed dipole along edir(3) : 
        Dipole               -0.5923 Ry au,         -1.5054 Debye
        Dipole field         -0.0018 Ry au
 
        Potential amp.        0.1594 Ry
        Total length         45.0136 bohr
 

     total cpu time spent up to now is      599.4 secs

     total energy              =   -2086.41546895 Ry
     Harris-Foulkes estimate   =   -2086.41647294 Ry
     estimated scf accuracy    <       0.00238150 Ry

     iteration # 15     ecut=    36.75 Ry     beta=0.30
     Davidson diagonalization with overlap
     ethr =  1.29E-06,  avg # of iterations =  6.0

     negative rho (up, down):  6.858E-01 0.000E+00
 
     Adding external electric field

     Computed dipole along edir(3) : 
        Dipole               -0.5572 Ry au,         -1.4163 Debye
        Dipole field         -0.0017 Ry au
 
        Potential amp.        0.1499 Ry
        Total length         45.0136 bohr
 

     total cpu time spent up to now is      639.6 secs

     total energy              =   -2086.41562947 Ry
     Harris-Foulkes estimate   =   -2086.41618086 Ry
     estimated scf accuracy    <       0.00728470 Ry

     iteration # 16     ecut=    36.75 Ry     beta=0.30
     Davidson diagonalization with overlap
     ethr =  1.29E-06,  avg # of iterations =  3.4

     negative rho (up, down):  6.860E-01 0.000E+00
 
     Adding external electric field

     Computed dipole along edir(3) : 
        Dipole               -0.5106 Ry au,         -1.2979 Debye
        Dipole field         -0.0015 Ry au
 
        Potential amp.        0.1374 Ry
        Total length         45.0136 bohr
 

     total cpu time spent up to now is      670.7 secs

     total energy              =   -2086.41577774 Ry
     Harris-Foulkes estimate   =   -2086.41600985 Ry
     estimated scf accuracy    <       0.00184252 Ry

     iteration # 17     ecut=    36.75 Ry     beta=0.30
     Davidson diagonalization with overlap
     ethr =  9.96E-07,  avg # of iterations =  3.5

     negative rho (up, down):  6.860E-01 0.000E+00
 
     Adding external electric field

     Computed dipole along edir(3) : 
        Dipole               -0.4950 Ry au,         -1.2582 Debye
        Dipole field         -0.0015 Ry au
 
        Potential amp.        0.1332 Ry
        Total length         45.0136 bohr
 

     total cpu time spent up to now is      702.9 secs

     total energy              =   -2086.41583594 Ry
     Harris-Foulkes estimate   =   -2086.41597897 Ry
     estimated scf accuracy    <       0.00163732 Ry

     iteration # 18     ecut=    36.75 Ry     beta=0.30
     Davidson diagonalization with overlap
     ethr =  8.85E-07,  avg # of iterations =  1.0

     negative rho (up, down):  6.861E-01 0.000E+00
 
     Adding external electric field

     Computed dipole along edir(3) : 
        Dipole               -0.4779 Ry au,         -1.2148 Debye
        Dipole field         -0.0014 Ry au
 
        Potential amp.        0.1286 Ry
        Total length         45.0136 bohr
 

     total cpu time spent up to now is      731.5 secs

     total energy              =   -2086.41589573 Ry
     Harris-Foulkes estimate   =   -2086.41596258 Ry
     estimated scf accuracy    <       0.00037515 Ry

     iteration # 19     ecut=    36.75 Ry     beta=0.30
     Davidson diagonalization with overlap
     ethr =  2.03E-07,  avg # of iterations =  4.8

     negative rho (up, down):  6.862E-01 0.000E+00
 
     Adding external electric field

     Computed dipole along edir(3) : 
        Dipole               -0.4701 Ry au,         -1.1948 Debye
        Dipole field         -0.0014 Ry au
 
        Potential amp.        0.1265 Ry
        Total length         45.0136 bohr
 

     total cpu time spent up to now is      765.5 secs

     total energy              =   -2086.41592582 Ry
     Harris-Foulkes estimate   =   -2086.41594774 Ry
     estimated scf accuracy    <       0.00007403 Ry

     iteration # 20     ecut=    36.75 Ry     beta=0.30
     Davidson diagonalization with overlap
     ethr =  4.00E-08,  avg # of iterations =  2.5

     negative rho (up, down):  6.865E-01 0.000E+00

     negative rho (up, down):  6.865E-01 0.000E+00

     negative rho (up, down):  6.865E-01 0.000E+00

     negative rho (up, down):  6.865E-01 0.000E+00

     negative rho (up, down):  6.865E-01 0.000E+00

     negative rho (up, down):  6.865E-01 0.000E+00

     negative rho (up, down):  6.865E-01 0.000E+00

     negative rho (up, down):  6.865E-01 0.000E+00

     negative rho (up, down):  6.865E-01 0.000E+00

     negative rho (up, down):  6.865E-01 0.000E+00

     negative rho (up, down):  6.865E-01 0.000E+00

     negative rho (up, down):  6.865E-01 0.000E+00

     negative rho (up, down):  6.865E-01 0.000E+00

     negative rho (up, down):  6.865E-01 0.000E+00

     negative rho (up, down):  6.865E-01 0.000E+00

     negative rho (up, down):  6.865E-01 0.000E+00

     negative rho (up, down):  6.865E-01 0.000E+00

     negative rho (up, down):  6.865E-01 0.000E+00

     negative rho (up, down):  6.865E-01 0.000E+00

     negative rho (up, down):  6.865E-01 0.000E+00

     negative rho (up, down):  6.865E-01 0.000E+00

     negative rho (up, down):  6.865E-01 0.000E+00

     negative rho (up, down):  6.865E-01 0.000E+00

     negative rho (up, down):  6.865E-01 0.000E+00

     negative rho (up, down):  6.865E-01 0.000E+00

     negative rho (up, down):  6.865E-01 0.000E+00

     negative rho (up, down):  6.865E-01 0.000E+00

     negative rho (up, down):  6.865E-01 0.000E+00

     negative rho (up, down):  6.865E-01 0.000E+00

     negative rho (up, down):  6.865E-01 0.000E+00

     negative rho (up, down):  6.865E-01 0.000E+00

     negative rho (up, down):  6.865E-01 0.000E+00

     negative rho (up, down):  6.865E-01 0.000E+00

     negative rho (up, down):  6.865E-01 0.000E+00

     negative rho (up, down):  6.865E-01 0.000E+00
 
     Adding external electric field

     Computed dipole along edir(3) : 
        Dipole               -0.4667 Ry au,         -1.1864 Debye
        Dipole field         -0.0014 Ry au
 
        Potential amp.        0.1256 Ry
        Total length         45.0136 bohr
 

     total cpu time spent up to now is      844.6 secs

     End of self-consistent calculation

          k = 0.0000 0.0000 0.0000 ( 15785 PWs)   bands (ev):

   -45.9269 -45.9086 -45.9083 -45.7971 -45.7415 -45.7409 -45.7199 -45.5603
   -45.5533 -45.5441 -45.5434 -45.5074 -45.5070 -45.4408 -45.4405 -45.4112
   -45.3875 -45.3874 -45.2613 -45.2599 -45.2377 -45.2282 -45.1752 -45.1737
   -45.1078 -45.1060 -45.1057 -45.0605 -45.0548 -45.0543 -45.0217 -45.0109
   -45.0057 -45.0051 -44.9871 -44.9870 -10.6903  -5.5509  -4.3234  -4.3082
    -4.3082  -4.2608  -4.1272  -4.0240  -4.0213  -4.0211  -3.8166  -3.7901
    -3.7898  -3.4981  -3.4827  -3.4825  -2.4021  -2.3631  -2.3628  -1.9109
    -1.9109  -1.9050  -1.7111  -1.6161  -1.6161  -1.3165  -1.3165  -1.2288
    -1.2131  -1.2131  -1.1890  -1.0808  -1.0807  -0.5533  -0.5527  -0.4576
     0.0641   0.1116   0.1119   0.2270   0.2776   0.2777   0.3397   0.3397
     0.8003   0.8006   0.8054   0.9225   0.9226   1.3505   1.3576   1.3762
     1.3764   1.4973   1.4974   1.7284   1.7386   1.7387   1.7854   1.7856
     1.7981   2.0250   2.0696   2.0702   2.1462   2.1502

          k = 0.0000 0.0355 0.0000 ( 15795 PWs)   bands (ev):

   -45.9060 -45.8890 -45.8799 -45.7899 -45.7373 -45.7351 -45.7039 -45.5693
   -45.5526 -45.5295 -45.5261 -45.5149 -45.5053 -45.4293 -45.4287 -45.4170
   -45.4000 -45.3953 -45.2717 -45.2660 -45.2356 -45.2315 -45.1819 -45.1736
   -45.1251 -45.1246 -45.0988 -45.0840 -45.0611 -45.0561 -45.0266 -45.0162
   -45.0130 -45.0058 -45.0040 -44.9939 -10.6871  -5.3195  -4.2143  -4.1346
    -4.1238  -4.0666  -3.9247  -3.9006  -3.8817  -3.8805  -3.7211  -3.6806
    -3.6659  -3.3805  -3.2845  -3.2736  -2.3790  -2.3428  -2.2929  -1.8358
    -1.8257  -1.8159  -1.8000  -1.7178  -1.6093  -1.4508  -1.3756  -1.3513
    -1.1902  -1.1648  -1.1593  -1.0787  -0.9118  -0.6840  -0.6258  -0.5956
    -0.2578  -0.0152   0.0439   0.0735   0.1300   0.2038   0.2086   0.2627
     0.3694   0.6740   0.7647   0.7775   0.8797   1.0601   1.1320   1.1637
     1.2134   1.2990   1.3096   1.4547   1.4969   1.5015   1.5298   1.5629
     1.7013   1.7906   1.8367   1.8843   1.8902   1.9308

          k = 0.0000 0.0709 0.0000 ( 15819 PWs)   bands (ev):

   -45.8627 -45.8398 -45.7944 -45.7718 -45.7349 -45.7231 -45.6716 -45.6171
   -45.5859 -45.5314 -45.5032 -45.4953 -45.4763 -45.4557 -45.4167 -45.3947
   -45.3824 -45.3445 -45.3075 -45.3037 -45.2371 -45.2217 -45.1943 -45.1744
   -45.1686 -45.1618 -45.1513 -45.1112 -45.0784 -45.0753 -45.0480 -45.0214
   -45.0192 -45.0155 -45.0064 -45.0017 -10.6809  -4.7108  -3.9956  -3.7095
    -3.7067  -3.6940  -3.6263  -3.4832  -3.4761  -3.4622  -3.3624  -3.3404
    -3.3403  -3.0839  -2.7484  -2.7397  -2.3814  -2.3374  -2.2586  -2.0980
    -2.0560  -1.7284  -1.7127  -1.6845  -1.6720  -1.5409  -1.5329  -1.2715
    -1.1291  -1.0838  -1.0438  -1.0295  -1.0279  -1.0117  -0.8906  -0.6718
    -0.4553  -0.4045  -0.3995  -0.3381  -0.1957  -0.1564  -0.0899  -0.0456
    -0.0149   0.1248   0.1751   0.2120   0.4803   0.5069   0.6262   0.6871
     0.7172   0.8354   0.8616   0.8706   1.0627   1.1003   1.1602   1.2200
     1.4198   1.5214   1.5893   1.6618   1.7481   1.9116

          k = 0.0000-0.1064 0.0000 ( 15852 PWs)   bands (ev):

   -45.8362 -45.8035 -45.7566 -45.7414 -45.7175 -45.6904 -45.6635 -45.6545
   -45.6544 -45.5764 -45.5021 -45.4800 -45.4413 -45.4311 -45.3924 -45.3705
   -45.3619 -45.3533 -45.3412 -45.2408 -45.2371 -45.2366 -45.2112 -45.2041
   -45.1978 -45.1911 -45.1876 -45.1616 -45.0850 -45.0522 -45.0441 -45.0419
   -45.0272 -45.0141 -45.0076 -45.0024 -10.6779  -4.0865  -4.0832  -3.5082
    -3.4948  -3.4588  -3.4380  -3.2188  -3.2020  -3.0966  -3.0590  -2.9811
    -2.9685  -2.7184  -2.6849  -2.5921  -2.5899  -2.2051  -2.1871  -2.1009
    -2.0855  -2.0580  -2.0100  -1.6730  -1.6561  -1.3739  -1.3355  -1.2947
    -1.2523  -1.1040  -1.0954  -1.0010  -0.9259  -0.9103  -0.8880  -0.8823
    -0.8193  -0.7927  -0.7886  -0.7557  -0.7276  -0.3134  -0.2832  -0.2186
    -0.1773  -0.0583  -0.0529   0.0043   0.2164   0.2618   0.3086   0.3890
     0.4275   0.5615   0.5680   0.6249   0.8032   0.8383   0.9850   1.0329
     1.4037   1.5281   1.5526   1.6877   1.7615   1.9192

          k = 0.0307-0.0177 0.0000 ( 15795 PWs)   bands (ev):

   -45.9060 -45.8889 -45.8800 -45.7899 -45.7371 -45.7352 -45.7039 -45.5693
   -45.5525 -45.5295 -45.5263 -45.5147 -45.5054 -45.4295 -45.4285 -45.4171
   -45.3999 -45.3952 -45.2721 -45.2658 -45.2354 -45.2315 -45.1824 -45.1732
   -45.1254 -45.1243 -45.0988 -45.0838 -45.0613 -45.0561 -45.0265 -45.0162
   -45.0130 -45.0063 -45.0034 -44.9941 -10.6871  -5.3195  -4.2143  -4.1346
    -4.1238  -4.0666  -3.9246  -3.9006  -3.8817  -3.8804  -3.7211  -3.6805
    -3.6660  -3.3805  -3.2845  -3.2736  -2.3790  -2.3429  -2.2929  -1.8359
    -1.8257  -1.8159  -1.8000  -1.7178  -1.6093  -1.4508  -1.3757  -1.3513
    -1.1901  -1.1648  -1.1593  -1.0787  -0.9118  -0.6840  -0.6258  -0.5956
    -0.2579  -0.0152   0.0440   0.0734   0.1300   0.2038   0.2086   0.2627
     0.3694   0.6740   0.7646   0.7776   0.8797   1.0601   1.1320   1.1637
     1.2134   1.2990   1.3096   1.4548   1.4969   1.5014   1.5298   1.5629
     1.7012   1.7905   1.8366   1.8844   1.8902   1.9308

          k = 0.0307 0.0177 0.0000 ( 15795 PWs)   bands (ev):

   -45.9059 -45.8892 -45.8798 -45.7898 -45.7376 -45.7348 -45.7040 -45.5692
   -45.5527 -45.5297 -45.5257 -45.5152 -45.5051 -45.4294 -45.4284 -45.4171
   -45.3999 -45.3953 -45.2709 -45.2666 -45.2358 -45.2316 -45.1810 -45.1745
   -45.1252 -45.1244 -45.0988 -45.0842 -45.0608 -45.0561 -45.0266 -45.0162
   -45.0130 -45.0061 -45.0036 -44.9940 -10.6871  -5.3195  -4.2144  -4.1346
    -4.1238  -4.0666  -3.9247  -3.9006  -3.8815  -3.8806  -3.7210  -3.6809
    -3.6657  -3.3804  -3.2846  -3.2735  -2.3792  -2.3426  -2.2930  -1.8358
    -1.8257  -1.8159  -1.8000  -1.7178  -1.6093  -1.4508  -1.3757  -1.3513
    -1.1902  -1.1647  -1.1593  -1.0787  -0.9118  -0.6838  -0.6262  -0.5954
    -0.2577  -0.0154   0.0438   0.0735   0.1300   0.2038   0.2088   0.2627
     0.3693   0.6741   0.7647   0.7775   0.8797   1.0600   1.1320   1.1636
     1.2134   1.2990   1.3097   1.4550   1.4969   1.5013   1.5299   1.5630
     1.7014   1.7905   1.8365   1.8843   1.8903   1.9306

          k = 0.0307 0.0532 0.0000 ( 15818 PWs)   bands (ev):

   -45.8762 -45.8370 -45.8367 -45.7772 -45.7341 -45.7261 -45.6793 -45.6161
   -45.5449 -45.5287 -45.5160 -45.4891 -45.4827 -45.4728 -45.4156 -45.4053
   -45.3843 -45.3716 -45.3094 -45.2684 -45.2470 -45.2240 -45.1873 -45.1848
   -45.1723 -45.1267 -45.1092 -45.1065 -45.0823 -45.0751 -45.0500 -45.0193
   -45.0166 -45.0136 -45.0065 -45.0009 -10.6825  -4.8919  -3.9427  -3.9329
    -3.7986  -3.7225  -3.7011  -3.6989  -3.5572  -3.5457  -3.5330  -3.5012
    -3.3817  -3.0790  -3.0649  -2.8380  -2.4070  -2.2516  -2.2299  -2.1259
    -1.9118  -1.7773  -1.7124  -1.6938  -1.6682  -1.6330  -1.3331  -1.3023
    -1.2689  -1.1818  -1.1187  -0.9816  -0.9279  -0.8916  -0.8657  -0.5942
    -0.5420  -0.3268  -0.2481  -0.1874  -0.0671  -0.0361   0.0277   0.1373
     0.2047   0.2791   0.3064   0.3599   0.3799   0.5792   0.6737   0.8357
     0.8639   0.9445   0.9916   1.0763   1.2002   1.2535   1.3204   1.4083
     1.5567   1.5861   1.6315   1.7421   1.7812   1.9136

          k = 0.0307-0.1241 0.0000 ( 15838 PWs)   bands (ev):

   -45.8304 -45.7876 -45.7587 -45.7413 -45.7355 -45.7183 -45.6862 -45.6530
   -45.6118 -45.5456 -45.5040 -45.4904 -45.4434 -45.4352 -45.4169 -45.3775
   -45.3581 -45.3375 -45.3082 -45.2925 -45.2617 -45.2444 -45.2182 -45.1980
   -45.1804 -45.1738 -45.1583 -45.1326 -45.0958 -45.0784 -45.0433 -45.0418
   -45.0264 -45.0140 -45.0089 -45.0012 -10.6779  -4.2125  -3.7887  -3.4615
    -3.4596  -3.4425  -3.3657  -3.3226  -3.2182  -3.1831  -3.0996  -3.0076
    -2.9505  -2.7384  -2.7132  -2.5579  -2.5317  -2.2746  -2.2417  -2.1993
    -2.0529  -1.9574  -1.9198  -1.7837  -1.7299  -1.5051  -1.4343  -1.3801
    -1.3316  -1.2521  -1.2223  -1.2093  -1.1572  -1.0028  -0.8998  -0.8512
    -0.7986  -0.6832  -0.6294  -0.5863  -0.5502  -0.4991  -0.2058  -0.1659
    -0.1450  -0.0396   0.0652   0.1286   0.1606   0.3372   0.3577   0.5077
     0.6198   0.6496   0.7358   0.8514   1.0339   1.0810   1.1636   1.3069
     1.3269   1.4152   1.4700   1.5990   1.6244   1.7736

          k = 0.0307-0.0887 0.0000 ( 15838 PWs)   bands (ev):

   -45.8304 -45.7877 -45.7588 -45.7413 -45.7354 -45.7185 -45.6859 -45.6529
   -45.6121 -45.5455 -45.5040 -45.4902 -45.4434 -45.4350 -45.4169 -45.3786
   -45.3590 -45.3375 -45.3067 -45.2924 -45.2615 -45.2444 -45.2179 -45.1988
   -45.1798 -45.1739 -45.1585 -45.1326 -45.0959 -45.0784 -45.0433 -45.0418
   -45.0264 -45.0141 -45.0088 -45.0012 -10.6779  -4.2125  -3.7887  -3.4616
    -3.4596  -3.4425  -3.3657  -3.3225  -3.2182  -3.1831  -3.0996  -3.0076
    -2.9505  -2.7383  -2.7132  -2.5579  -2.5317  -2.2746  -2.2416  -2.1993
    -2.0529  -1.9574  -1.9198  -1.7838  -1.7300  -1.5051  -1.4344  -1.3801
    -1.3316  -1.2522  -1.2224  -1.2091  -1.1572  -1.0028  -0.8999  -0.8510
    -0.7988  -0.6830  -0.6294  -0.5863  -0.5502  -0.4991  -0.2059  -0.1658
    -0.1449  -0.0397   0.0652   0.1286   0.1608   0.3371   0.3577   0.5076
     0.6197   0.6497   0.7359   0.8514   1.0338   1.0810   1.1637   1.3070
     1.3268   1.4153   1.4700   1.5991   1.6243   1.7735

          k = 0.0307-0.0532 0.0000 ( 15818 PWs)   bands (ev):

   -45.8763 -45.8372 -45.8364 -45.7772 -45.7336 -45.7265 -45.6791 -45.6160
   -45.5449 -45.5285 -45.5162 -45.4893 -45.4833 -45.4726 -45.4155 -45.4053
   -45.3844 -45.3716 -45.3106 -45.2674 -45.2462 -45.2238 -45.1886 -45.1845
   -45.1714 -45.1268 -45.1091 -45.1066 -45.0823 -45.0754 -45.0500 -45.0193
   -45.0167 -45.0136 -45.0063 -45.0010 -10.6825  -4.8919  -3.9426  -3.9329
    -3.7987  -3.7225  -3.7010  -3.6990  -3.5572  -3.5457  -3.5329  -3.5012
    -3.3817  -3.0791  -3.0647  -2.8380  -2.4070  -2.2518  -2.2298  -2.1259
    -1.9118  -1.7774  -1.7124  -1.6938  -1.6682  -1.6330  -1.3332  -1.3022
    -1.2689  -1.1818  -1.1187  -0.9815  -0.9280  -0.8917  -0.8656  -0.5943
    -0.5421  -0.3267  -0.2482  -0.1872  -0.0668  -0.0361   0.0276   0.1372
     0.2046   0.2793   0.3064   0.3598   0.3798   0.5791   0.6738   0.8358
     0.8637   0.9445   0.9917   1.0764   1.2002   1.2535   1.3202   1.4082
     1.5567   1.5861   1.6315   1.7422   1.7814   1.9135

          k = 0.0614-0.0355 0.0000 ( 15819 PWs)   bands (ev):

   -45.8628 -45.8397 -45.7944 -45.7718 -45.7347 -45.7232 -45.6715 -45.6171
   -45.5858 -45.5314 -45.5032 -45.4954 -45.4766 -45.4558 -45.4166 -45.3943
   -45.3828 -45.3444 -45.3077 -45.3036 -45.2366 -45.2216 -45.1949 -45.1744
   -45.1683 -45.1618 -45.1512 -45.1111 -45.0784 -45.0756 -45.0480 -45.0214
   -45.0193 -45.0157 -45.0055 -45.0022 -10.6809  -4.7108  -3.9956  -3.7095
    -3.7067  -3.6940  -3.6263  -3.4833  -3.4761  -3.4622  -3.3624  -3.3404
    -3.3403  -3.0839  -2.7484  -2.7397  -2.3814  -2.3374  -2.2586  -2.0980
    -2.0560  -1.7285  -1.7127  -1.6845  -1.6720  -1.5409  -1.5329  -1.2715
    -1.1291  -1.0838  -1.0438  -1.0295  -1.0279  -1.0117  -0.8906  -0.6719
    -0.4552  -0.4045  -0.3995  -0.3381  -0.1958  -0.1563  -0.0900  -0.0456
    -0.0148   0.1249   0.1751   0.2120   0.4803   0.5069   0.6262   0.6872
     0.7171   0.8355   0.8617   0.8706   1.0626   1.1002   1.1603   1.2200
     1.4198   1.5214   1.5893   1.6619   1.7480   1.9116

          k = 0.0614 0.0000 0.0000 ( 15818 PWs)   bands (ev):

   -45.8762 -45.8370 -45.8366 -45.7772 -45.7340 -45.7262 -45.6792 -45.6161
   -45.5449 -45.5286 -45.5161 -45.4892 -45.4829 -45.4728 -45.4156 -45.4052
   -45.3845 -45.3715 -45.3099 -45.2680 -45.2467 -45.2239 -45.1879 -45.1847
   -45.1719 -45.1267 -45.1090 -45.1066 -45.0823 -45.0752 -45.0500 -45.0193
   -45.0170 -45.0135 -45.0060 -45.0013 -10.6825  -4.8919  -3.9427  -3.9329
    -3.7987  -3.7225  -3.7011  -3.6989  -3.5572  -3.5457  -3.5330  -3.5012
    -3.3816  -3.0790  -3.0648  -2.8380  -2.4070  -2.2517  -2.2299  -2.1259
    -1.9118  -1.7773  -1.7124  -1.6938  -1.6682  -1.6330  -1.3331  -1.3023
    -1.2689  -1.1818  -1.1187  -0.9816  -0.9279  -0.8917  -0.8657  -0.5942
    -0.5420  -0.3267  -0.2482  -0.1875  -0.0669  -0.0361   0.0276   0.1373
     0.2047   0.2791   0.3065   0.3598   0.3799   0.5791   0.6738   0.8357
     0.8639   0.9445   0.9917   1.0763   1.2002   1.2534   1.3204   1.4083
     1.5568   1.5860   1.6315   1.7421   1.7812   1.9135

          k = 0.0614 0.0355 0.0000 ( 15819 PWs)   bands (ev):

   -45.8624 -45.8402 -45.7944 -45.7717 -45.7352 -45.7227 -45.6718 -45.6169
   -45.5862 -45.5315 -45.5034 -45.4950 -45.4756 -45.4557 -45.4169 -45.3944
   -45.3827 -45.3444 -45.3068 -45.3042 -45.2378 -45.2219 -45.1933 -45.1750
   -45.1684 -45.1624 -45.1515 -45.1112 -45.0783 -45.0750 -45.0480 -45.0214
   -45.0192 -45.0156 -45.0059 -45.0020 -10.6809  -4.7108  -3.9956  -3.7095
    -3.7067  -3.6940  -3.6263  -3.4830  -3.4764  -3.4622  -3.3626  -3.3404
    -3.3401  -3.0839  -2.7486  -2.7395  -2.3816  -2.3371  -2.2586  -2.0980
    -2.0560  -1.7285  -1.7126  -1.6845  -1.6721  -1.5409  -1.5329  -1.2715
    -1.1290  -1.0839  -1.0438  -1.0295  -1.0279  -1.0117  -0.8906  -0.6716
    -0.4553  -0.4046  -0.3995  -0.3383  -0.1960  -0.1564  -0.0898  -0.0457
    -0.0146   0.1246   0.1752   0.2120   0.4803   0.5068   0.6263   0.6873
     0.7171   0.8354   0.8615   0.8707   1.0627   1.1003   1.1602   1.2200
     1.4202   1.5213   1.5894   1.6619   1.7480   1.9117

          k = 0.0614-0.1419 0.0000 ( 15838 PWs)   bands (ev):

   -45.8302 -45.7879 -45.7586 -45.7415 -45.7357 -45.7181 -45.6861 -45.6531
   -45.6120 -45.5455 -45.5040 -45.4904 -45.4436 -45.4346 -45.4162 -45.3780
   -45.3583 -45.3376 -45.3078 -45.2926 -45.2623 -45.2444 -45.2183 -45.1974
   -45.1805 -45.1740 -45.1587 -45.1326 -45.0954 -45.0784 -45.0433 -45.0418
   -45.0264 -45.0142 -45.0086 -45.0013 -10.6779  -4.2125  -3.7887  -3.4616
    -3.4595  -3.4425  -3.3657  -3.3225  -3.2182  -3.1831  -3.0996  -3.0076
    -2.9505  -2.7383  -2.7132  -2.5579  -2.5317  -2.2746  -2.2417  -2.1993
    -2.0528  -1.9575  -1.9196  -1.7837  -1.7299  -1.5050  -1.4343  -1.3801
    -1.3316  -1.2522  -1.2223  -1.2091  -1.1572  -1.0027  -0.8999  -0.8512
    -0.7987  -0.6832  -0.6294  -0.5863  -0.5503  -0.4990  -0.2057  -0.1659
    -0.1451  -0.0395   0.0651   0.1287   0.1606   0.3372   0.3577   0.5077
     0.6197   0.6497   0.7358   0.8516   1.0337   1.0810   1.1636   1.3070
     1.3269   1.4152   1.4702   1.5991   1.6243   1.7733

          k = 0.0614-0.1064 0.0000 ( 15840 PWs)   bands (ev):

   -45.7706 -45.7697 -45.7456 -45.7439 -45.7327 -45.7170 -45.6874 -45.6868
   -45.6415 -45.5201 -45.5073 -45.4848 -45.4585 -45.4416 -45.3848 -45.3543
   -45.3487 -45.3331 -45.3038 -45.2861 -45.2705 -45.2648 -45.2630 -45.2058
   -45.2009 -45.1750 -45.1326 -45.1316 -45.0901 -45.0891 -45.0804 -45.0340
   -45.0335 -45.0129 -45.0108 -45.0005 -10.6764  -3.6182  -3.6118  -3.6076
    -3.1304  -3.1212  -3.1130  -3.1036  -3.0946  -2.9678  -2.8764  -2.8758
    -2.8681  -2.8399  -2.8282  -2.8244  -2.3986  -2.3778  -2.0310  -2.0305
    -2.0025  -1.9734  -1.9109  -1.9049  -1.7801  -1.6921  -1.6785  -1.6115
    -1.5889  -1.5764  -1.4981  -1.2520  -1.2295  -1.1049  -1.0979  -0.9791
    -0.8780  -0.8744  -0.8602  -0.8582  -0.8575  -0.3748  -0.2830  -0.2481
     0.0366   0.0842   0.1245   0.1440   0.2231   0.3987   0.4062   0.4729
     0.7208   0.7539   1.0442   1.0618   1.1245   1.1839   1.2141   1.2773
     1.3285   1.3748   1.4091   1.4253   1.4528   1.4669

          k = 0.0614-0.0709 0.0000 ( 15838 PWs)   bands (ev):

   -45.8304 -45.7876 -45.7588 -45.7412 -45.7353 -45.7185 -45.6859 -45.6528
   -45.6121 -45.5455 -45.5039 -45.4902 -45.4434 -45.4354 -45.4174 -45.3782
   -45.3587 -45.3377 -45.3070 -45.2925 -45.2611 -45.2443 -45.2178 -45.1991
   -45.1799 -45.1738 -45.1583 -45.1326 -45.0961 -45.0784 -45.0434 -45.0418
   -45.0265 -45.0143 -45.0083 -45.0014 -10.6779  -4.2125  -3.7887  -3.4616
    -3.4596  -3.4425  -3.3657  -3.3225  -3.2182  -3.1831  -3.0996  -3.0076
    -2.9505  -2.7383  -2.7132  -2.5579  -2.5317  -2.2746  -2.2417  -2.1993
    -2.0529  -1.9574  -1.9198  -1.7838  -1.7300  -1.5052  -1.4344  -1.3801
    -1.3315  -1.2522  -1.2223  -1.2093  -1.1572  -1.0028  -0.8999  -0.8510
    -0.7987  -0.6830  -0.6293  -0.5862  -0.5502  -0.4992  -0.2059  -0.1658
    -0.1450  -0.0397   0.0653   0.1286   0.1608   0.3371   0.3577   0.5076
     0.6197   0.6497   0.7359   0.8515   1.0338   1.0808   1.1637   1.3069
     1.3268   1.4153   1.4700   1.5990   1.6244   1.7736

          k =-0.0921 0.0532 0.0000 ( 15852 PWs)   bands (ev):

   -45.8363 -45.8033 -45.7567 -45.7412 -45.7176 -45.6905 -45.6634 -45.6546
   -45.6542 -45.5764 -45.5018 -45.4801 -45.4419 -45.4311 -45.3933 -45.3701
   -45.3613 -45.3538 -45.3408 -45.2411 -45.2368 -45.2361 -45.2113 -45.2041
   -45.1983 -45.1911 -45.1875 -45.1611 -45.0853 -45.0516 -45.0447 -45.0418
   -45.0273 -45.0145 -45.0065 -45.0029 -10.6779  -4.0866  -4.0832  -3.5081
    -3.4949  -3.4589  -3.4379  -3.2187  -3.2020  -3.0967  -3.0590  -2.9811
    -2.9684  -2.7184  -2.6850  -2.5922  -2.5899  -2.2051  -2.1872  -2.1009
    -2.0854  -2.0580  -2.0100  -1.6730  -1.6561  -1.3741  -1.3355  -1.2947
    -1.2522  -1.1038  -1.0955  -1.0009  -0.9259  -0.9104  -0.8880  -0.8823
    -0.8194  -0.7927  -0.7883  -0.7558  -0.7276  -0.3134  -0.2832  -0.2188
    -0.1772  -0.0583  -0.0528   0.0043   0.2164   0.2621   0.3082   0.3891
     0.4275   0.5615   0.5680   0.6249   0.8033   0.8382   0.9851   1.0327
     1.4037   1.5282   1.5525   1.6878   1.7613   1.9193

          k =-0.0921 0.0887 0.0000 ( 15838 PWs)   bands (ev):

   -45.8304 -45.7876 -45.7587 -45.7413 -45.7354 -45.7184 -45.6862 -45.6529
   -45.6118 -45.5456 -45.5040 -45.4903 -45.4434 -45.4355 -45.4174 -45.3775
   -45.3581 -45.3377 -45.3079 -45.2925 -45.2613 -45.2444 -45.2180 -45.1986
   -45.1801 -45.1736 -45.1581 -45.1326 -45.0960 -45.0783 -45.0434 -45.0418
   -45.0265 -45.0144 -45.0082 -45.0015 -10.6779  -4.2125  -3.7887  -3.4615
    -3.4596  -3.4425  -3.3657  -3.3226  -3.2182  -3.1831  -3.0996  -3.0076
    -2.9505  -2.7384  -2.7132  -2.5579  -2.5317  -2.2746  -2.2417  -2.1993
    -2.0529  -1.9574  -1.9198  -1.7837  -1.7300  -1.5051  -1.4343  -1.3801
    -1.3316  -1.2521  -1.2223  -1.2093  -1.1572  -1.0027  -0.8999  -0.8512
    -0.7986  -0.6831  -0.6294  -0.5863  -0.5502  -0.4992  -0.2058  -0.1659
    -0.1450  -0.0396   0.0652   0.1286   0.1607   0.3372   0.3577   0.5077
     0.6198   0.6496   0.7358   0.8515   1.0339   1.0808   1.1637   1.3069
     1.3269   1.4152   1.4700   1.5990   1.6245   1.7737

          k =-0.0921 0.1241 0.0000 ( 15838 PWs)   bands (ev):

   -45.8302 -45.7879 -45.7586 -45.7414 -45.7357 -45.7181 -45.6860 -45.6531
   -45.6121 -45.5455 -45.5040 -45.4904 -45.4436 -45.4345 -45.4163 -45.3784
   -45.3586 -45.3376 -45.3072 -45.2925 -45.2622 -45.2445 -45.2182 -45.1978
   -45.1801 -45.1740 -45.1588 -45.1326 -45.0954 -45.0784 -45.0434 -45.0418
   -45.0264 -45.0143 -45.0083 -45.0014 -10.6779  -4.2125  -3.7887  -3.4616
    -3.4596  -3.4425  -3.3657  -3.3225  -3.2182  -3.1831  -3.0996  -3.0076
    -2.9505  -2.7383  -2.7132  -2.5579  -2.5317  -2.2746  -2.2417  -2.1993
    -2.0529  -1.9575  -1.9196  -1.7837  -1.7299  -1.5051  -1.4344  -1.3801
    -1.3316  -1.2523  -1.2224  -1.2090  -1.1572  -1.0027  -0.8999  -0.8511
    -0.7988  -0.6831  -0.6294  -0.5863  -0.5503  -0.4990  -0.2057  -0.1659
    -0.1451  -0.0396   0.0651   0.1286   0.1606   0.3371   0.3577   0.5077
     0.6197   0.6497   0.7358   0.8516   1.0337   1.0809   1.1636   1.3070
     1.3269   1.4152   1.4702   1.5990   1.6243   1.7732

          k =-0.0921-0.0532 0.0000 ( 15852 PWs)   bands (ev):

   -45.8358 -45.8039 -45.7562 -45.7421 -45.7172 -45.6901 -45.6641 -45.6547
   -45.6542 -45.5763 -45.5027 -45.4797 -45.4404 -45.4313 -45.3911 -45.3701
   -45.3626 -45.3535 -45.3420 -45.2413 -45.2375 -45.2367 -45.2110 -45.2040
   -45.1982 -45.1911 -45.1867 -45.1625 -45.0844 -45.0517 -45.0445 -45.0419
   -45.0273 -45.0143 -45.0069 -45.0027 -10.6779  -4.0864  -4.0834  -3.5084
    -3.4946  -3.4587  -3.4381  -3.2191  -3.2016  -3.0966  -3.0591  -2.9809
    -2.9686  -2.7187  -2.6846  -2.5919  -2.5902  -2.2051  -2.1871  -2.1009
    -2.0857  -2.0582  -2.0096  -1.6731  -1.6559  -1.3738  -1.3353  -1.2949
    -1.2522  -1.1041  -1.0953  -1.0012  -0.9261  -0.9103  -0.8877  -0.8826
    -0.8192  -0.7930  -0.7884  -0.7558  -0.7274  -0.3133  -0.2833  -0.2184
    -0.1772  -0.0587  -0.0528   0.0041   0.2165   0.2614   0.3089   0.3891
     0.4275   0.5615   0.5680   0.6250   0.8030   0.8385   0.9848   1.0328
     1.4041   1.5278   1.5529   1.6878   1.7614   1.9192

     the Fermi energy is     1.1394 ev

!    total energy              =   -2086.41592409 Ry
     Harris-Foulkes estimate   =   -2086.41593932 Ry
     estimated scf accuracy    <       0.00000631 Ry

     The total energy is the sum of the following terms:

     one-electron contribution =  -19377.43731445 Ry
     hartree contribution      =    9728.83893909 Ry
     xc contribution           =    -377.12435941 Ry
     ewald contribution        =    7939.43159187 Ry
     electric field correction =       0.00065107 Ry
     smearing contrib. (-TS)   =      -0.12543225 Ry

     convergence has been achieved in  20 iterations
 
 BEEF-vdW xc energy contributions
           1 :   -328.310872936524     
           2 :    301.275351113344     
           3 :   -254.629324300510     
           4 :    200.065074953540     
           5 :   -149.250573020057     
           6 :    110.251341513672     
           7 :   -85.7403687962175     
           8 :    73.3612852411149     
           9 :   -67.8003477119601     
          10 :    63.5122884056126     
          11 :   -56.9277831780097     
          12 :    47.3413663895276     
          13 :   -36.3750618347742     
          14 :    26.5565485832248     
          15 :   -19.8257935341396     
          16 :    16.6399373907361     
          17 :   -15.9641964839363     
          18 :    15.9918640366677     
          19 :   -15.1263086788124     
          20 :    12.7062119875208     
          21 :   -9.15713818574085     
          22 :    5.57979769043652     
          23 :   -3.06518254161250     
          24 :    2.11551114179497     
          25 :   -2.44370566807606     
          26 :    3.20604824821703     
          27 :   -3.50002346936645     
          28 :    2.83804202584190     
          29 :   -1.35442414872557     
          30 :  -0.335460019761570     
          31 :   -32.5653111596415     
          32 :   -24.3803983863858     

     Forces acting on atoms (Ry/au):


     negative rho (up, down):  6.865E-01 0.000E+00
     atom    1 type  1   force =     0.00000095    0.00000741    0.00843161
     atom    2 type  1   force =    -0.00001464    0.00298705    0.00437421
     atom    3 type  1   force =     0.00258796   -0.00149660    0.00453001
     atom    4 type  1   force =    -0.00258600   -0.00147803    0.00448846
     atom    5 type  1   force =    -0.00134339    0.00077971    0.00213964
     atom    6 type  1   force =     0.00134171    0.00076257    0.00213197
     atom    7 type  1   force =     0.00000372   -0.00000167    0.01015046
     atom    8 type  1   force =     0.00002261   -0.00154211    0.00213148
     atom    9 type  1   force =     0.02364869    0.01366343    0.04518448
     atom   10 type  1   force =    -0.02363629    0.01366109    0.04521175
     atom   11 type  1   force =     0.00000300   -0.02734669    0.04514972
     atom   12 type  1   force =     0.00000097   -0.00000037   -0.00740911
     atom   13 type  2   force =    -0.00002929    0.00000421   -0.16651466

     Total force =     0.190858     Total SCF correction =     0.004288


     entering subroutine stress ...


     negative rho (up, down):  6.865E-01 0.000E+00
          total   stress  (Ry/bohr**3)                   (kbar)     P=  -43.89
  -0.00025690  -0.00000002   0.00000000        -37.79     -0.00      0.00
  -0.00000002  -0.00025690   0.00000001         -0.00    -37.79      0.00
   0.00000000   0.00000001  -0.00038128          0.00      0.00    -56.09

 !ASE

     Writing output data file calc.save
 
     init_run     :     12.31s CPU     17.71s WALL (       1 calls)
     electrons    :    583.84s CPU    826.66s WALL (       1 calls)
     forces       :      4.05s CPU      4.75s WALL (       1 calls)
     stress       :     11.69s CPU     13.17s WALL (       1 calls)

     Called by init_run:
     wfcinit      :      9.66s CPU     14.17s WALL (       1 calls)
     potinit      :      1.09s CPU      1.64s WALL (       1 calls)

     Called by electrons:
     c_bands      :    450.17s CPU    632.17s WALL (      20 calls)
     sum_band     :     69.84s CPU    102.64s WALL (      20 calls)
     v_of_rho     :     20.52s CPU     30.96s WALL (      21 calls)
     newd         :     12.39s CPU     13.00s WALL (      21 calls)
     mix_rho      :      0.78s CPU      1.19s WALL (      20 calls)
     vdW_energy   :      2.22s CPU      2.24s WALL (      57 calls)
     vdW_ffts     :     32.87s CPU     52.81s WALL (     116 calls)
     vdW_v        :      6.27s CPU      9.23s WALL (      57 calls)

     Called by c_bands:
     init_us_2    :      0.94s CPU      1.00s WALL (     860 calls)
     cegterg      :    439.49s CPU    620.40s WALL (     400 calls)

     Called by *egterg:
     h_psi        :    287.60s CPU    452.53s WALL (    1936 calls)
     s_psi        :     13.49s CPU     13.87s WALL (    1936 calls)
     g_psi        :      0.67s CPU      0.68s WALL (    1516 calls)
     cdiaghg      :     83.76s CPU     87.11s WALL (    1916 calls)

     Called by h_psi:
     add_vuspsi   :     13.93s CPU     14.03s WALL (    1936 calls)

     General routines
     calbec       :     30.31s CPU     37.57s WALL (    2376 calls)
     fft          :     50.05s CPU     80.39s WALL (    3489 calls)
     ffts         :      0.16s CPU      0.28s WALL (      41 calls)
     fftw         :    288.53s CPU    476.96s WALL (  258804 calls)
     interpolate  :      0.75s CPU      1.17s WALL (      41 calls)
     davcio       :      0.00s CPU      0.03s WALL (      20 calls)
 
     Parallel routines
     fft_scatter  :    306.76s CPU    523.61s WALL (  262334 calls)
 
     PWSCF        : 10m12.62s CPU    14m23.54s WALL

 
   This run was terminated on:  21:59:25  17Jan2018            

=------------------------------------------------------------------------------=
   JOB DONE.
=------------------------------------------------------------------------------=
Job  /afs/slac/g/suncat/bin/suncat-tsmpirun -x LD_LIBRARY_PATH -wdir /scratch/qe842475_CbXrO pw.x -in pw.inp

TID   HOST_NAME   COMMAND_LINE            STATUS            TERMINATION_TIME
===== ========== ================  =======================  ===================
00000 suncat0273 pw.x -in pw.inp   Done                     01/17/2018 21:59:25
00001 suncat0273 pw.x -in pw.inp   Done                     01/17/2018 21:59:25
00002 suncat0273 pw.x -in pw.inp   Done                     01/17/2018 21:59:25
00003 suncat0273 pw.x -in pw.inp   Done                     01/17/2018 21:59:25
00004 suncat0273 pw.x -in pw.inp   Done                     01/17/2018 21:59:25
00005 suncat0273 pw.x -in pw.inp   Done                     01/17/2018 21:59:25
00006 suncat0273 pw.x -in pw.inp   Done                     01/17/2018 21:59:25
00007 suncat0273 pw.x -in pw.inp   Done                     01/17/2018 21:59:25
00008 suncat0268 pw.x -in pw.inp   Done                     01/17/2018 21:59:25
00009 suncat0268 pw.x -in pw.inp   Done                     01/17/2018 21:59:25
00010 suncat0268 pw.x -in pw.inp   Done                     01/17/2018 21:59:25
00011 suncat0268 pw.x -in pw.inp   Done                     01/17/2018 21:59:25
00012 suncat0268 pw.x -in pw.inp   Done                     01/17/2018 21:59:25
00013 suncat0268 pw.x -in pw.inp   Done                     01/17/2018 21:59:25
00014 suncat0268 pw.x -in pw.inp   Done                     01/17/2018 21:59:25
00015 suncat0268 pw.x -in pw.inp   Done                     01/17/2018 21:59:25
00016 suncat0266 pw.x -in pw.inp   Done                     01/17/2018 21:59:25
00017 suncat0266 pw.x -in pw.inp   Done                     01/17/2018 21:59:25
00018 suncat0266 pw.x -in pw.inp   Done                     01/17/2018 21:59:25
00019 suncat0266 pw.x -in pw.inp   Done                     01/17/2018 21:59:25
00020 suncat0266 pw.x -in pw.inp   Done                     01/17/2018 21:59:25
00021 suncat0266 pw.x -in pw.inp   Done                     01/17/2018 21:59:25
00022 suncat0266 pw.x -in pw.inp   Done                     01/17/2018 21:59:25
00023 suncat0266 pw.x -in pw.inp   Done                     01/17/2018 21:59:25
00024 suncat0233 pw.x -in pw.inp   Done                     01/17/2018 21:59:25
00025 suncat0233 pw.x -in pw.inp   Done                     01/17/2018 21:59:25
00026 suncat0233 pw.x -in pw.inp   Done                     01/17/2018 21:59:25
00027 suncat0233 pw.x -in pw.inp   Done                     01/17/2018 21:59:25
00028 suncat0233 pw.x -in pw.inp   Done                     01/17/2018 21:59:25
00029 suncat0233 pw.x -in pw.inp   Done                     01/17/2018 21:59:25
00030 suncat0233 pw.x -in pw.inp   Done                     01/17/2018 21:59:25
00031 suncat0233 pw.x -in pw.inp   Done                     01/17/2018 21:59:25

     Program PWSCF v.5.1rc2 (svn rev. 11289) starts on 17Jan2018 at 21:59:30 

     This program is part of the open-source Quantum ESPRESSO suite
     for quantum simulation of materials; please cite
         "P. Giannozzi et al., J. Phys.:Condens. Matter 21 395502 (2009);
          URL http://www.quantum-espresso.org", 
     in publications or presentations arising from this work. More details at
     http://www.quantum-espresso.org/quote

     Parallel version (MPI), running on    32 processors
     R & G space division:  proc/nbgrp/npool/nimage =      32
     Reading input from pw.inp
     Message from routine read_cards :
     DEPRECATED: no units specified in CELL_PARAMETERS card

     Current dimensions of program PWSCF are:
     Max number of different atomic species (ntypx) = 10
     Max number of k-points (npk) =  40000
     Max angular momentum in pseudopotentials (lmaxx) =  3
     Presently stress not available with electric field


     **************************************************************************
     Initializing libbeef V0.1.1 with the BEEF-vdW functional.
     Citation: Wellendorff et al., PRB 85, 235149 (2012).
     **************************************************************************


     IMPORTANT: XC functional enforced from input :
     Exchange-correlation      = BEEF-VDW ( 1  4 27 13 2)
     Any further DFT definition will be discarded
     Please, verify this is what you really want


     Subspace diagonalization in iterative solution of the eigenvalue problem:
     a serial algorithm will be used

 
     Parallelization info
     --------------------
     sticks:   dense  smooth     PW     G-vecs:    dense   smooth      PW
     Min          83      33      9                15627     3935     617
     Max          84      34     10                15638     3974     644
     Sum        2677    1069    313               500285   126611   20281
 


     bravais-lattice index     =            0
     lattice parameter (alat)  =       1.8897  a.u.
     unit-cell volume          =    4204.8134 (a.u.)^3
     number of atoms/cell      =           13
     number of atomic types    =            2
     number of electrons       =       185.00
     number of Kohn-Sham states=          102
     kinetic-energy cutoff     =      36.7493  Ry
     charge density cutoff     =     367.4932  Ry
     convergence threshold     =      1.0E-05
     mixing beta               =       0.3000
     number of iterations used =           10  plain     mixing
     Exchange-correlation      = BEEF-VDW ( 1  4 27 13 2)
     nstep                     =           50


     celldm(1)=   1.889726  celldm(2)=   0.000000  celldm(3)=   0.000000
     celldm(4)=   0.000000  celldm(5)=   0.000000  celldm(6)=   0.000000

     crystal axes: (cart. coord. in units of alat)
               a(1) = (   5.426750   0.000000   0.000000 )  
               a(2) = (   2.713375   4.699703   0.000000 )  
               a(3) = (   0.000000   0.000000  24.430923 )  

     reciprocal axes: (cart. coord. in units 2 pi/alat)
               b(1) = (  0.184272 -0.106390  0.000000 )  
               b(2) = (  0.000000  0.212779  0.000000 )  
               b(3) = (  0.000000  0.000000  0.040932 )  


     PseudoPot. # 1 for Rh read from file:
     /afs/slac.stanford.edu/u/if/mamunm/psp/gbrv1.5pbe/Rh.UPF
     MD5 check sum: 761627e959a2e3a1f56b0b5fe687810e
     Pseudo is Ultrasoft + core correction, Zval = 15.0
     Generated by new atomic code, or converted to UPF format
     Using radial grid of  969 points,  7 beta functions with: 
                l(1) =   0
                l(2) =   0
                l(3) =   1
                l(4) =   1
                l(5) =   2
                l(6) =   2
                l(7) =   2
     Q(r) pseudized with  8 coefficients,  rinner =    1.200   1.200   1.200
                                                       1.200   1.200

     PseudoPot. # 2 for N  read from file:
     /afs/slac.stanford.edu/u/if/mamunm/psp/gbrv1.5pbe/N.UPF
     MD5 check sum: 95339753478d7afb44899504a8723017
     Pseudo is Ultrasoft + core correction, Zval =  5.0
     Generated by new atomic code, or converted to UPF format
     Using radial grid of  729 points,  4 beta functions with: 
                l(1) =   0
                l(2) =   0
                l(3) =   1
                l(4) =   1
     Q(r) pseudized with  8 coefficients,  rinner =    0.900   0.900   0.900


     vdW kernel table read from file vdW_kernel_table
     MD5 check sum: 095c7af220d748ca6e76c0b4c6cfb241

     atomic species   valence    mass     pseudopotential
        Rh1           15.00   102.90550     Rh( 1.00)
        N1             5.00    14.00700     N ( 1.00)

     No symmetry found



   Cartesian axes

     site n.     atom                  positions (alat units)
         1           Rh1 tau(   1) = (   1.3566875   0.7832839  10.0000000  )
         2           Rh1 tau(   2) = (   4.0700625   0.7832839  10.0000000  )
         3           Rh1 tau(   3) = (   2.7133750   3.1331356  10.0000000  )
         4           Rh1 tau(   4) = (   5.4267500   3.1331356  10.0000000  )
         5           Rh1 tau(   5) = (   5.4267500   1.5665678  12.2154614  )
         6           Rh1 tau(   6) = (   2.7133750   1.5665678  12.2154614  )
         7           Rh1 tau(   7) = (   6.7834375   3.9164194  12.2154614  )
         8           Rh1 tau(   8) = (   4.0700625   3.9164194  12.2154614  )
         9           Rh1 tau(   9) = (   0.0608032   0.0351301  14.5470968  )
        10           Rh1 tau(  10) = (   2.6526036   0.0351241  14.5471669  )
        11           Rh1 tau(  11) = (   1.3566952   2.2795405  14.5470074  )
        12           Rh1 tau(  12) = (   4.0700650   2.3498507  14.4118732  )
        13           N1  tau(  13) = (   1.3566122   0.7832947  16.1327964  )

     number of k points=    20  Fermi-Dirac smearing, width (Ry)=  0.0110
                       cart. coord. in units 2pi/alat
        k(    1) = (   0.0000000   0.0000000   0.0000000), wk =   0.0555556
        k(    2) = (   0.0000000   0.0354632   0.0000000), wk =   0.1111111
        k(    3) = (   0.0000000   0.0709265   0.0000000), wk =   0.1111111
        k(    4) = (   0.0000000  -0.1063897   0.0000000), wk =   0.0555556
        k(    5) = (   0.0307121  -0.0177316   0.0000000), wk =   0.1111111
        k(    6) = (   0.0307121   0.0177316   0.0000000), wk =   0.1111111
        k(    7) = (   0.0307121   0.0531948   0.0000000), wk =   0.1111111
        k(    8) = (   0.0307121  -0.1241213   0.0000000), wk =   0.1111111
        k(    9) = (   0.0307121  -0.0886581   0.0000000), wk =   0.1111111
        k(   10) = (   0.0307121  -0.0531948   0.0000000), wk =   0.1111111
        k(   11) = (   0.0614241  -0.0354632   0.0000000), wk =   0.1111111
        k(   12) = (   0.0614241   0.0000000   0.0000000), wk =   0.1111111
        k(   13) = (   0.0614241   0.0354632   0.0000000), wk =   0.1111111
        k(   14) = (   0.0614241  -0.1418529   0.0000000), wk =   0.1111111
        k(   15) = (   0.0614241  -0.1063897   0.0000000), wk =   0.1111111
        k(   16) = (   0.0614241  -0.0709265   0.0000000), wk =   0.1111111
        k(   17) = (  -0.0921362   0.0531948   0.0000000), wk =   0.0555556
        k(   18) = (  -0.0921362   0.0886581   0.0000000), wk =   0.1111111
        k(   19) = (  -0.0921362   0.1241213   0.0000000), wk =   0.1111111
        k(   20) = (  -0.0921362  -0.0531948   0.0000000), wk =   0.0555556

     Dense  grid:   500285 G-vectors     FFT dimensions: (  64,  64, 288)

     Smooth grid:   126611 G-vectors     FFT dimensions: (  40,  40, 180)

     Largest allocated arrays     est. size (Mb)     dimensions
        Kohn-Sham Wavefunctions         0.83 Mb     (     535,  102)
        NL pseudopotentials             2.32 Mb     (     535,  284)
        Each V/rho on FFT grid          0.56 Mb     (   36864)
        Each G-vector array             0.12 Mb     (   15636)
        G-vector shells                 0.05 Mb     (    7022)
     Largest temporary arrays     est. size (Mb)     dimensions
        Auxiliary wavefunctions         3.33 Mb     (     535,  408)
        Each subspace H/S matrix        2.54 Mb     (     408,  408)
        Each <psi_i|beta_j> matrix      0.44 Mb     (     284,  102)
        Arrays for rho mixing           5.62 Mb     (   36864,   10)

     Initial potential from superposition of free atoms
     Check: negative starting charge=   -0.659813

     starting charge  178.99881, renormalised to  185.00000

     negative rho (up, down):  6.819E-01 0.000E+00


     ************************************************************************
     *
     * You are using vdW-DF for exchange-correlation in this calculation.
     * Please cite the following three references that made this development
     * possible:
     *
     *   M. Dion, H. Rydberg, E. Schroder, D. C. Langreth, and
     *   B. I. Lundqvist, Phys. Rev. Lett. 92, 246401 (2004).
     *
     *   T. Thonhauser, V. R. Cooper, S. Li, A. Puzder, P. Hyldgaard, and
     *   D. C. Langreth, Phys. Rev. B 76, 125112 (2007).
     *
     *   G. Roman-Perez and J. M. Soler, Phys. Rev. Lett. 103, 096102 (2009).
     *
     *
     * If you are using vdW-DF2, please also cite:
     *
     *   K. Lee, E. D. Murray, L. Kong, B. I. Lundqvist, and
     *   D. C. Langreth, Phys. Rev. B 82, 081101(R) (2010).
     *
     *
     * If you are calculating the stress with vdW-DF, please also cite:
     *
     *   R. Sabatini, E. Kucukbenli, B. Kolb, T. Thonhauser, and
     *   S. de Gironcoli, J. Phys.: Condens. Matter 24, 424209 (2012).
     *
     ************************************************************************

     Carrying out vdW-DF run using the following parameters:

     Nqs =      20    Nr_points =    1024   r_max =   100.000
     q_mesh =
               0.00001000     0.04494208     0.09755937     0.15916263
               0.23128650     0.31572767     0.41458969     0.53033537
               0.66584808     0.82450364     1.01025438     1.22772762
               1.48234092     1.78043706     2.12944203     2.53805004
               3.01644009     3.57652955     4.23227104     5.00000000

     Gradients computed in reciprocal space

     ************************************************************************


 
     Adding external electric field

     Computed dipole along edir(3) : 
        Dipole               -1.2322 Ry au,         -3.1319 Debye
        Dipole field         -0.0037 Ry au
 
        Potential amp.        0.3315 Ry
        Total length         45.0136 bohr
 
     Starting wfc are  148 randomized atomic wfcs

     total cpu time spent up to now is       18.2 secs

     per-process dynamical memory:    47.0 Mb

     Self-consistent Calculation

     iteration #  1     ecut=    36.75 Ry     beta=0.30
     Davidson diagonalization with overlap
     ethr =  1.00E-02,  avg # of iterations =  2.0

     negative rho (up, down):  6.938E-01 0.000E+00
 
     Adding external electric field

     Computed dipole along edir(3) : 
        Dipole               21.3558 Ry au,         54.2811 Debye
        Dipole field          0.0638 Ry au
 
        Potential amp.       -5.7458 Ry
        Total length         45.0136 bohr
 

     total cpu time spent up to now is       52.8 secs

     total energy              =   -2047.20919003 Ry
     Harris-Foulkes estimate   =   -2087.75412595 Ry
     estimated scf accuracy    <      83.71400596 Ry

     iteration #  2     ecut=    36.75 Ry     beta=0.30
     Davidson diagonalization with overlap
     ethr =  1.00E-02,  avg # of iterations = 13.6

     negative rho (up, down):  6.910E-01 0.000E+00
 
     Adding external electric field

     Computed dipole along edir(3) : 
        Dipole               -3.3518 Ry au,         -8.5193 Debye
        Dipole field         -0.0100 Ry au
 
        Potential amp.        0.9018 Ry
        Total length         45.0136 bohr
 

     total cpu time spent up to now is      150.4 secs

     total energy              =   -1907.08019416 Ry
     Harris-Foulkes estimate   =   -2343.88652839 Ry
     estimated scf accuracy    <   12711.12191791 Ry

     iteration #  3     ecut=    36.75 Ry     beta=0.30
     Davidson diagonalization with overlap
     ethr =  1.00E-02,  avg # of iterations =  8.2

     negative rho (up, down):  6.972E-01 0.000E+00
 
     Adding external electric field

     Computed dipole along edir(3) : 
        Dipole               -1.5714 Ry au,         -3.9942 Debye
        Dipole field         -0.0047 Ry au
 
        Potential amp.        0.4228 Ry
        Total length         45.0136 bohr
 

     total cpu time spent up to now is      231.5 secs

     total energy              =   -2071.09216595 Ry
     Harris-Foulkes estimate   =   -2130.15556204 Ry
     estimated scf accuracy    <    1109.92621986 Ry

     iteration #  4     ecut=    36.75 Ry     beta=0.30
     Davidson diagonalization with overlap
     ethr =  1.00E-02,  avg # of iterations =  6.0

     negative rho (up, down):  6.969E-01 0.000E+00
 
     Adding external electric field

     Computed dipole along edir(3) : 
        Dipole               -0.3437 Ry au,         -0.8737 Debye
        Dipole field         -0.0010 Ry au
 
        Potential amp.        0.0925 Ry
        Total length         45.0136 bohr
 

     total cpu time spent up to now is      287.4 secs

     total energy              =   -2084.65801703 Ry
     Harris-Foulkes estimate   =   -2090.64417278 Ry
     estimated scf accuracy    <      55.02505928 Ry

     iteration #  5     ecut=    36.75 Ry     beta=0.30
     Davidson diagonalization with overlap
     ethr =  1.00E-02,  avg # of iterations =  2.5

     negative rho (up, down):  6.939E-01 0.000E+00
 
     Adding external electric field

     Computed dipole along edir(3) : 
        Dipole               -0.7060 Ry au,         -1.7945 Debye
        Dipole field         -0.0021 Ry au
 
        Potential amp.        0.1900 Ry
        Total length         45.0136 bohr
 

     total cpu time spent up to now is      318.4 secs

     total energy              =   -2085.91530339 Ry
     Harris-Foulkes estimate   =   -2087.52044587 Ry
     estimated scf accuracy    <      35.39983904 Ry

     iteration #  6     ecut=    36.75 Ry     beta=0.30
     Davidson diagonalization with overlap
     ethr =  1.00E-02,  avg # of iterations =  1.1

     negative rho (up, down):  6.932E-01 0.000E+00
 
     Adding external electric field

     Computed dipole along edir(3) : 
        Dipole               -0.6743 Ry au,         -1.7139 Debye
        Dipole field         -0.0020 Ry au
 
        Potential amp.        0.1814 Ry
        Total length         45.0136 bohr
 

     total cpu time spent up to now is      346.9 secs

     total energy              =   -2086.12852667 Ry
     Harris-Foulkes estimate   =   -2086.66585076 Ry
     estimated scf accuracy    <       7.50224297 Ry

     iteration #  7     ecut=    36.75 Ry     beta=0.30
     Davidson diagonalization with overlap
     ethr =  4.06E-03,  avg # of iterations =  3.5

     negative rho (up, down):  6.942E-01 0.000E+00
 
     Adding external electric field

     Computed dipole along edir(3) : 
        Dipole               -0.8211 Ry au,         -2.0871 Debye
        Dipole field         -0.0025 Ry au
 
        Potential amp.        0.2209 Ry
        Total length         45.0136 bohr
 

     total cpu time spent up to now is      378.9 secs

     total energy              =   -2086.31064007 Ry
     Harris-Foulkes estimate   =   -2086.82071280 Ry
     estimated scf accuracy    <      20.58485175 Ry

     iteration #  8     ecut=    36.75 Ry     beta=0.30
     Davidson diagonalization with overlap
     ethr =  4.06E-03,  avg # of iterations =  1.1

     negative rho (up, down):  6.951E-01 0.000E+00
 
     Adding external electric field

     Computed dipole along edir(3) : 
        Dipole               -0.8808 Ry au,         -2.2387 Debye
        Dipole field         -0.0026 Ry au
 
        Potential amp.        0.2370 Ry
        Total length         45.0136 bohr
 

     total cpu time spent up to now is      408.2 secs

     total energy              =   -2086.38826218 Ry
     Harris-Foulkes estimate   =   -2086.62396062 Ry
     estimated scf accuracy    <       4.49698295 Ry

     iteration #  9     ecut=    36.75 Ry     beta=0.30
     Davidson diagonalization with overlap
     ethr =  2.43E-03,  avg # of iterations =  2.4

     negative rho (up, down):  6.947E-01 0.000E+00
 
     Adding external electric field

     Computed dipole along edir(3) : 
        Dipole               -0.7832 Ry au,         -1.9906 Debye
        Dipole field         -0.0023 Ry au
 
        Potential amp.        0.2107 Ry
        Total length         45.0136 bohr
 

     total cpu time spent up to now is      438.2 secs

     total energy              =   -2086.54041501 Ry
     Harris-Foulkes estimate   =   -2086.63529372 Ry
     estimated scf accuracy    <       5.36005130 Ry

     iteration # 10     ecut=    36.75 Ry     beta=0.30
     Davidson diagonalization with overlap
     ethr =  2.43E-03,  avg # of iterations =  1.0

     negative rho (up, down):  6.944E-01 0.000E+00
 
     Adding external electric field

     Computed dipole along edir(3) : 
        Dipole               -0.7506 Ry au,         -1.9077 Debye
        Dipole field         -0.0022 Ry au
 
        Potential amp.        0.2019 Ry
        Total length         45.0136 bohr
 

     total cpu time spent up to now is      466.7 secs

     total energy              =   -2086.56484380 Ry
     Harris-Foulkes estimate   =   -2086.57958696 Ry
     estimated scf accuracy    <       0.61812552 Ry

     iteration # 11     ecut=    36.75 Ry     beta=0.30
     Davidson diagonalization with overlap
     ethr =  3.34E-04,  avg # of iterations =  4.3

     negative rho (up, down):  6.942E-01 0.000E+00
 
     Adding external electric field

     Computed dipole along edir(3) : 
        Dipole               -0.7721 Ry au,         -1.9624 Debye
        Dipole field         -0.0023 Ry au
 
        Potential amp.        0.2077 Ry
        Total length         45.0136 bohr
 

     total cpu time spent up to now is      501.5 secs

     total energy              =   -2086.59421985 Ry
     Harris-Foulkes estimate   =   -2086.60247640 Ry
     estimated scf accuracy    <       0.18146155 Ry

     iteration # 12     ecut=    36.75 Ry     beta=0.30
     Davidson diagonalization with overlap
     ethr =  9.81E-05,  avg # of iterations =  1.9

     negative rho (up, down):  6.938E-01 0.000E+00
 
     Adding external electric field

     Computed dipole along edir(3) : 
        Dipole               -0.7761 Ry au,         -1.9726 Debye
        Dipole field         -0.0023 Ry au
 
        Potential amp.        0.2088 Ry
        Total length         45.0136 bohr
 

     total cpu time spent up to now is      532.0 secs

     total energy              =   -2086.59767646 Ry
     Harris-Foulkes estimate   =   -2086.60536270 Ry
     estimated scf accuracy    <       0.16413467 Ry

     iteration # 13     ecut=    36.75 Ry     beta=0.30
     Davidson diagonalization with overlap
     ethr =  8.87E-05,  avg # of iterations =  1.0

     negative rho (up, down):  6.932E-01 0.000E+00
 
     Adding external electric field

     Computed dipole along edir(3) : 
        Dipole               -0.6031 Ry au,         -1.5328 Debye
        Dipole field         -0.0018 Ry au
 
        Potential amp.        0.1623 Ry
        Total length         45.0136 bohr
 

     total cpu time spent up to now is      560.9 secs

     total energy              =   -2086.59174471 Ry
     Harris-Foulkes estimate   =   -2086.60236474 Ry
     estimated scf accuracy    <       0.07205449 Ry

     iteration # 14     ecut=    36.75 Ry     beta=0.30
     Davidson diagonalization with overlap
     ethr =  3.89E-05,  avg # of iterations =  4.8

     negative rho (up, down):  6.933E-01 0.000E+00
 
     Adding external electric field

     Computed dipole along edir(3) : 
        Dipole               -0.5293 Ry au,         -1.3454 Debye
        Dipole field         -0.0016 Ry au
 
        Potential amp.        0.1424 Ry
        Total length         45.0136 bohr
 

     total cpu time spent up to now is      596.1 secs

     total energy              =   -2086.59398285 Ry
     Harris-Foulkes estimate   =   -2086.60901005 Ry
     estimated scf accuracy    <       0.85093161 Ry

     iteration # 15     ecut=    36.75 Ry     beta=0.30
     Davidson diagonalization with overlap
     ethr =  3.89E-05,  avg # of iterations =  1.2

     negative rho (up, down):  6.936E-01 0.000E+00
 
     Adding external electric field

     Computed dipole along edir(3) : 
        Dipole               -0.4772 Ry au,         -1.2129 Debye
        Dipole field         -0.0014 Ry au
 
        Potential amp.        0.1284 Ry
        Total length         45.0136 bohr
 

     total cpu time spent up to now is      625.4 secs

     total energy              =   -2086.59600947 Ry
     Harris-Foulkes estimate   =   -2086.59941938 Ry
     estimated scf accuracy    <       0.09214804 Ry

     iteration # 16     ecut=    36.75 Ry     beta=0.30
     Davidson diagonalization with overlap
     ethr =  3.89E-05,  avg # of iterations =  2.1

     negative rho (up, down):  6.936E-01 0.000E+00
 
     Adding external electric field

     Computed dipole along edir(3) : 
        Dipole               -0.4546 Ry au,         -1.1555 Debye
        Dipole field         -0.0014 Ry au
 
        Potential amp.        0.1223 Ry
        Total length         45.0136 bohr
 

     total cpu time spent up to now is      655.3 secs

     total energy              =   -2086.59782678 Ry
     Harris-Foulkes estimate   =   -2086.59827750 Ry
     estimated scf accuracy    <       0.00939309 Ry

     iteration # 17     ecut=    36.75 Ry     beta=0.30
     Davidson diagonalization with overlap
     ethr =  5.08E-06,  avg # of iterations =  5.2

     negative rho (up, down):  6.936E-01 0.000E+00
 
     Adding external electric field

     Computed dipole along edir(3) : 
        Dipole               -0.4138 Ry au,         -1.0517 Debye
        Dipole field         -0.0012 Ry au
 
        Potential amp.        0.1113 Ry
        Total length         45.0136 bohr
 

     total cpu time spent up to now is      690.2 secs

     total energy              =   -2086.59799381 Ry
     Harris-Foulkes estimate   =   -2086.59863047 Ry
     estimated scf accuracy    <       0.00570084 Ry

     iteration # 18     ecut=    36.75 Ry     beta=0.30
     Davidson diagonalization with overlap
     ethr =  3.08E-06,  avg # of iterations =  1.0

     negative rho (up, down):  6.937E-01 0.000E+00
 
     Adding external electric field

     Computed dipole along edir(3) : 
        Dipole               -0.3744 Ry au,         -0.9516 Debye
        Dipole field         -0.0011 Ry au
 
        Potential amp.        0.1007 Ry
        Total length         45.0136 bohr
 

     total cpu time spent up to now is      718.7 secs

     total energy              =   -2086.59815329 Ry
     Harris-Foulkes estimate   =   -2086.59830252 Ry
     estimated scf accuracy    <       0.00145821 Ry

     iteration # 19     ecut=    36.75 Ry     beta=0.30
     Davidson diagonalization with overlap
     ethr =  7.88E-07,  avg # of iterations =  3.9

     negative rho (up, down):  6.938E-01 0.000E+00
 
     Adding external electric field

     Computed dipole along edir(3) : 
        Dipole               -0.3529 Ry au,         -0.8971 Debye
        Dipole field         -0.0011 Ry au
 
        Potential amp.        0.0950 Ry
        Total length         45.0136 bohr
 

     total cpu time spent up to now is      750.7 secs

     total energy              =   -2086.59820717 Ry
     Harris-Foulkes estimate   =   -2086.59831339 Ry
     estimated scf accuracy    <       0.00090692 Ry

     iteration # 20     ecut=    36.75 Ry     beta=0.30
     Davidson diagonalization with overlap
     ethr =  4.90E-07,  avg # of iterations =  1.6

     negative rho (up, down):  6.939E-01 0.000E+00
 
     Adding external electric field

     Computed dipole along edir(3) : 
        Dipole               -0.3433 Ry au,         -0.8725 Debye
        Dipole field         -0.0010 Ry au
[...]

   -45.5931 -45.3595 -45.3418 -45.3112 -45.2475 -45.2369 -45.1933 -45.1675
   -45.1621 -45.0561 -45.0399 -45.0239 -45.0012 -44.9791 -44.9681 -44.9155
   -44.9030 -44.8886 -44.8817 -44.8556 -44.8295 -44.8169 -44.7950 -44.7860
   -44.6982 -44.6290 -44.6205 -44.6013 -44.6004 -44.5710 -44.5663 -44.5440
   -44.5419 -44.5376 -44.5282 -44.5204 -13.3392  -4.4716  -4.1386  -3.9627
    -3.7689  -3.3649  -3.2972  -3.1782  -3.1221  -3.0694  -3.0435  -2.9812
    -2.9745  -2.9002  -2.8620  -2.7034  -2.4688  -2.2849  -1.8752  -1.7865
    -1.7011  -1.5382  -1.4767  -1.3385  -1.2437  -1.1712  -1.0736  -0.9500
    -0.8055  -0.7666  -0.7432  -0.6362  -0.5664  -0.4808  -0.3923  -0.3209
    -0.1833  -0.0636   0.0343   0.2046   0.2978   0.3424   0.4082   0.5144
     0.5413   0.6706   0.7208   0.8118   1.0290   1.0674   1.1985   1.2577
     1.3214   1.3702   1.5073   1.5985   1.7310   1.7726   1.8129   1.8560
     2.0174   2.0463   2.0991   2.4398   2.6442   2.8812

          k = 0.0614-0.0355 0.0000 ( 15819 PWs)   bands (ev):

   -45.5766 -45.3667 -45.3272 -45.3072 -45.2283 -45.2214 -45.1865 -45.1655
   -45.1611 -45.0539 -45.0464 -45.0241 -45.0210 -44.9916 -44.9449 -44.9185
   -44.9111 -44.8853 -44.8731 -44.8572 -44.8266 -44.8182 -44.7974 -44.7835
   -44.6902 -44.6802 -44.6295 -44.6169 -44.5946 -44.5676 -44.5667 -44.5441
   -44.5440 -44.5366 -44.5315 -44.5221 -13.3293  -4.4286  -4.0379  -3.8370
    -3.6792  -3.4004  -3.1325  -3.0489  -3.0432  -2.9796  -2.9359  -2.8718
    -2.8557  -2.7748  -2.7724  -2.6649  -2.2845  -2.1735  -1.8645  -1.8613
    -1.7392  -1.6063  -1.5233  -1.3299  -1.2345  -1.1128  -1.1040  -0.9851
    -0.9073  -0.8104  -0.7356  -0.5881  -0.5635  -0.4742  -0.3920  -0.3917
    -0.2798  -0.0117   0.0134   0.0737   0.1848   0.2091   0.2835   0.2882
     0.4554   0.5147   0.5885   0.6372   0.9891   0.9971   1.0179   1.1613
     1.2739   1.2866   1.3198   1.5146   1.5379   1.6370   1.6935   1.7084
     1.8818   1.8937   2.0390   2.2300   2.3104   2.7662

          k = 0.0614 0.0000 0.0000 ( 15818 PWs)   bands (ev):

   -45.5930 -45.3599 -45.3416 -45.3112 -45.2473 -45.2371 -45.1933 -45.1679
   -45.1618 -45.0563 -45.0398 -45.0242 -45.0012 -44.9789 -44.9677 -44.9154
   -44.9029 -44.8884 -44.8818 -44.8556 -44.8295 -44.8170 -44.7956 -44.7854
   -44.6982 -44.6290 -44.6205 -44.6013 -44.6004 -44.5710 -44.5664 -44.5440
   -44.5420 -44.5377 -44.5282 -44.5204 -13.3392  -4.4715  -4.1386  -3.9627
    -3.7690  -3.3649  -3.2971  -3.1782  -3.1220  -3.0695  -3.0436  -2.9812
    -2.9745  -2.9002  -2.8619  -2.7034  -2.4688  -2.2850  -1.8751  -1.7866
    -1.7011  -1.5382  -1.4767  -1.3387  -1.2437  -1.1713  -1.0736  -0.9499
    -0.8056  -0.7668  -0.7433  -0.6360  -0.5663  -0.4808  -0.3926  -0.3209
    -0.1834  -0.0636   0.0343   0.2043   0.2980   0.3426   0.4081   0.5145
     0.5412   0.6707   0.7208   0.8118   1.0289   1.0675   1.1985   1.2576
     1.3216   1.3704   1.5074   1.5983   1.7309   1.7726   1.8130   1.8560
     2.0175   2.0463   2.0991   2.4399   2.6440   2.8814

          k = 0.0614 0.0355 0.0000 ( 15819 PWs)   bands (ev):

   -45.5768 -45.3659 -45.3269 -45.3077 -45.2288 -45.2214 -45.1864 -45.1660
   -45.1607 -45.0536 -45.0469 -45.0245 -45.0206 -44.9916 -44.9443 -44.9185
   -44.9110 -44.8851 -44.8733 -44.8573 -44.8265 -44.8185 -44.7971 -44.7838
   -44.6903 -44.6801 -44.6295 -44.6169 -44.5946 -44.5676 -44.5666 -44.5443
   -44.5439 -44.5364 -44.5316 -44.5221 -13.3293  -4.4285  -4.0380  -3.8369
    -3.6794  -3.4004  -3.1324  -3.0491  -3.0432  -2.9794  -2.9359  -2.8718
    -2.8558  -2.7748  -2.7723  -2.6647  -2.2845  -2.1738  -1.8644  -1.8612
    -1.7392  -1.6064  -1.5233  -1.3300  -1.2345  -1.1127  -1.1041  -0.9850
    -0.9073  -0.8103  -0.7355  -0.5882  -0.5635  -0.4740  -0.3918  -0.3916
    -0.2800  -0.0120   0.0133   0.0738   0.1847   0.2094   0.2835   0.2881
     0.4553   0.5147   0.5885   0.6373   0.9892   0.9971   1.0179   1.1614
     1.2739   1.2864   1.3199   1.5146   1.5380   1.6369   1.6934   1.7087
     1.8815   1.8939   2.0393   2.2302   2.3104   2.7663

          k = 0.0614-0.1419 0.0000 ( 15838 PWs)   bands (ev):

   -45.5314 -45.4014 -45.2938 -45.2793 -45.1990 -45.1825 -45.1706 -45.1575
   -45.1521 -45.1144 -45.0553 -45.0236 -45.0114 -44.9759 -44.9717 -44.9306
   -44.9130 -44.8711 -44.8499 -44.8446 -44.8330 -44.8155 -44.7897 -44.7852
   -44.7571 -44.6963 -44.6507 -44.6269 -44.5956 -44.5817 -44.5628 -44.5617
   -44.5445 -44.5401 -44.5337 -44.5245 -13.3094  -4.3552  -3.7275  -3.6050
    -3.4368  -3.1834  -2.9110  -2.8574  -2.8271  -2.7340  -2.7064  -2.6063
    -2.5819  -2.5112  -2.3698  -2.3659  -2.1834  -2.0739  -1.9782  -1.8709
    -1.7450  -1.6743  -1.5931  -1.4957  -1.3939  -1.3376  -1.2179  -1.1078
    -1.0368  -0.8807  -0.8568  -0.7728  -0.7096  -0.6342  -0.6004  -0.5230
    -0.3620  -0.3172  -0.1917  -0.1434  -0.0581   0.0215   0.1025   0.1746
     0.3527   0.4301   0.4978   0.5669   0.6715   0.7620   0.7991   0.9014
     1.0555   1.1875   1.2707   1.3738   1.4822   1.5674   1.6577   1.7718
     1.8288   1.8871   1.9644   2.0469   2.2679   2.7309

          k = 0.0614-0.1064 0.0000 ( 15840 PWs)   bands (ev):

   -45.4776 -45.4536 -45.2724 -45.2311 -45.2278 -45.1598 -45.1576 -45.1485
   -45.1448 -45.1082 -45.1044 -45.0275 -44.9931 -44.9908 -44.9630 -44.9483
   -44.8859 -44.8834 -44.8491 -44.8375 -44.8199 -44.8104 -44.7927 -44.7805
   -44.7683 -44.7604 -44.6108 -44.6085 -44.6083 -44.6069 -44.5971 -44.5598
   -44.5448 -44.5418 -44.5322 -44.5258 -13.2994  -4.3086  -3.6927  -3.3387
    -3.0863  -3.0387  -2.8249  -2.5882  -2.5731  -2.5580  -2.5410  -2.4795
    -2.4055  -2.3823  -2.2835  -2.2625  -2.2367  -2.1439  -2.1058  -1.8431
    -1.8102  -1.5492  -1.5401  -1.5230  -1.4969  -1.4030  -1.3452  -1.1831
    -1.1673  -1.1334  -1.0823  -1.0796  -1.0742  -0.9799  -0.6222  -0.6201
    -0.4632  -0.4239  -0.3964  -0.3853  -0.2228  -0.1920   0.1354   0.3060
     0.4253   0.5024   0.5768   0.5806   0.7842   0.8306   0.8984   1.0307
     1.1269   1.2518   1.2736   1.4676   1.5459   1.6194   1.6494   1.7575
     1.7616   1.8498   1.8620   1.8845   2.0987   2.2487

          k = 0.0614-0.0709 0.0000 ( 15838 PWs)   bands (ev):

   -45.5309 -45.4022 -45.2941 -45.2792 -45.1987 -45.1821 -45.1706 -45.1572
   -45.1524 -45.1140 -45.0556 -45.0236 -45.0115 -44.9758 -44.9721 -44.9305
   -44.9130 -44.8713 -44.8498 -44.8444 -44.8328 -44.8158 -44.7897 -44.7851
   -44.7570 -44.6963 -44.6507 -44.6269 -44.5956 -44.5817 -44.5628 -44.5617
   -44.5445 -44.5399 -44.5339 -44.5245 -13.3094  -4.3553  -3.7277  -3.6049
    -3.4365  -3.1834  -2.9110  -2.8574  -2.8273  -2.7341  -2.7064  -2.6063
    -2.5819  -2.5111  -2.3698  -2.3659  -2.1834  -2.0739  -1.9781  -1.8709
    -1.7449  -1.6744  -1.5931  -1.4957  -1.3939  -1.3375  -1.2181  -1.1079
    -1.0368  -0.8806  -0.8568  -0.7728  -0.7096  -0.6341  -0.6005  -0.5229
    -0.3618  -0.3172  -0.1918  -0.1432  -0.0581   0.0216   0.1024   0.1745
     0.3526   0.4301   0.4978   0.5669   0.6714   0.7618   0.7992   0.9013
     1.0555   1.1876   1.2706   1.3737   1.4820   1.5675   1.6579   1.7718
     1.8287   1.8869   1.9643   2.0468   2.2679   2.7309

          k =-0.0921 0.0532 0.0000 ( 15852 PWs)   bands (ev):

   -45.5338 -45.3953 -45.2981 -45.2886 -45.1932 -45.1759 -45.1715 -45.1579
   -45.1254 -45.1169 -45.0824 -45.0279 -45.0183 -44.9815 -44.9584 -44.9331
   -44.9172 -44.8743 -44.8556 -44.8341 -44.8272 -44.8166 -44.7837 -44.7462
   -44.7393 -44.7186 -44.7075 -44.6405 -44.5726 -44.5669 -44.5642 -44.5629
   -44.5459 -44.5382 -44.5339 -44.5255 -13.3094  -4.3942  -3.6465  -3.5908
    -3.4391  -3.3490  -2.9940  -2.8822  -2.8591  -2.7631  -2.6594  -2.6180
    -2.5126  -2.3859  -2.3604  -2.3387  -2.2376  -2.0980  -1.9358  -1.8643
    -1.6912  -1.5909  -1.5348  -1.5329  -1.4976  -1.3592  -1.1710  -1.0963
    -0.8891  -0.8672  -0.6461  -0.6316  -0.6076  -0.5139  -0.5031  -0.3892
    -0.3352  -0.3318  -0.2938  -0.2763  -0.1918   0.0020   0.2075   0.2383
     0.2408   0.3119   0.3940   0.5266   0.5289   0.7149   0.7249   0.7885
     0.8676   1.0945   1.1088   1.1637   1.2100   1.3416   1.6290   1.8278
     1.8567   1.9356   2.0209   2.0289   2.2444   2.7564

          k =-0.0921 0.0887 0.0000 ( 15838 PWs)   bands (ev):

   -45.5308 -45.4025 -45.2940 -45.2791 -45.1985 -45.1821 -45.1709 -45.1573
   -45.1522 -45.1147 -45.0553 -45.0233 -45.0117 -44.9759 -44.9720 -44.9303
   -44.9130 -44.8713 -44.8499 -44.8443 -44.8328 -44.8159 -44.7899 -44.7848
   -44.7570 -44.6963 -44.6507 -44.6269 -44.5956 -44.5818 -44.5628 -44.5617
   -44.5445 -44.5399 -44.5339 -44.5245 -13.3094  -4.3553  -3.7276  -3.6050
    -3.4365  -3.1834  -2.9111  -2.8574  -2.8272  -2.7341  -2.7065  -2.6063
    -2.5819  -2.5112  -2.3698  -2.3660  -2.1833  -2.0739  -1.9781  -1.8709
    -1.7449  -1.6744  -1.5930  -1.4958  -1.3940  -1.3376  -1.2180  -1.1078
    -1.0369  -0.8806  -0.8568  -0.7727  -0.7097  -0.6341  -0.6004  -0.5230
    -0.3618  -0.3172  -0.1917  -0.1432  -0.0581   0.0214   0.1025   0.1745
     0.3528   0.4299   0.4978   0.5671   0.6715   0.7619   0.7990   0.9016
     1.0555   1.1875   1.2707   1.3736   1.4820   1.5675   1.6578   1.7717
     1.8288   1.8869   1.9644   2.0467   2.2679   2.7309

          k =-0.0921 0.1241 0.0000 ( 15838 PWs)   bands (ev):

   -45.5311 -45.4019 -45.2938 -45.2791 -45.1990 -45.1825 -45.1705 -45.1575
   -45.1522 -45.1142 -45.0555 -45.0233 -45.0118 -44.9759 -44.9717 -44.9303
   -44.9129 -44.8711 -44.8500 -44.8445 -44.8330 -44.8156 -44.7900 -44.7849
   -44.7569 -44.6963 -44.6507 -44.6270 -44.5956 -44.5817 -44.5628 -44.5617
   -44.5445 -44.5400 -44.5338 -44.5245 -13.3094  -4.3552  -3.7276  -3.6049
    -3.4367  -3.1834  -2.9110  -2.8574  -2.8271  -2.7341  -2.7063  -2.6064
    -2.5820  -2.5112  -2.3697  -2.3659  -2.1834  -2.0738  -1.9782  -1.8710
    -1.7449  -1.6744  -1.5931  -1.4958  -1.3940  -1.3375  -1.2179  -1.1078
    -1.0368  -0.8806  -0.8569  -0.7728  -0.7097  -0.6342  -0.6005  -0.5229
    -0.3618  -0.3172  -0.1917  -0.1431  -0.0580   0.0214   0.1025   0.1745
     0.3527   0.4300   0.4978   0.5671   0.6715   0.7619   0.7991   0.9016
     1.0556   1.1874   1.2708   1.3736   1.4821   1.5674   1.6577   1.7718
     1.8288   1.8871   1.9644   2.0469   2.2679   2.7309

          k =-0.0921-0.0532 0.0000 ( 15852 PWs)   bands (ev):

   -45.5344 -45.3942 -45.2974 -45.2892 -45.1940 -45.1759 -45.1720 -45.1574
   -45.1265 -45.1164 -45.0819 -45.0274 -45.0186 -44.9815 -44.9585 -44.9326
   -44.9174 -44.8740 -44.8559 -44.8343 -44.8276 -44.8161 -44.7840 -44.7463
   -44.7392 -44.7188 -44.7072 -44.6406 -44.5725 -44.5667 -44.5644 -44.5629
   -44.5459 -44.5384 -44.5338 -44.5255 -13.3094  -4.3941  -3.6464  -3.5908
    -3.4392  -3.3493  -2.9937  -2.8824  -2.8590  -2.7630  -2.6592  -2.6180
    -2.5128  -2.3857  -2.3603  -2.3390  -2.2374  -2.0981  -1.9357  -1.8643
    -1.6915  -1.5908  -1.5347  -1.5331  -1.4975  -1.3593  -1.1707  -1.0963
    -0.8893  -0.8672  -0.6461  -0.6317  -0.6077  -0.5140  -0.5032  -0.3891
    -0.3353  -0.3315  -0.2938  -0.2764  -0.1918   0.0017   0.2077   0.2379
     0.2411   0.3120   0.3937   0.5268   0.5288   0.7150   0.7248   0.7884
     0.8677   1.0947   1.1090   1.1638   1.2098   1.3416   1.6287   1.8280
     1.8563   1.9359   2.0213   2.0288   2.2446   2.7563

     the Fermi energy is     1.6278 ev

!    total energy              =   -2086.68731705 Ry
     Harris-Foulkes estimate   =   -2086.68731630 Ry
     estimated scf accuracy    <       0.00000601 Ry

     The total energy is the sum of the following terms:

     one-electron contribution =  -19533.29934859 Ry
     hartree contribution      =    9809.12715132 Ry
     xc contribution           =    -377.64075816 Ry
     ewald contribution        =    8015.24962399 Ry
     electric field correction =       0.00007545 Ry
     smearing contrib. (-TS)   =      -0.12406107 Ry

     convergence has been achieved in  20 iterations
 
 BEEF-vdW xc energy contributions
           1 :   -328.850819657916     
           2 :    302.008969571003     
           3 :   -255.570473935445     
           4 :    201.043903141200     
           5 :   -150.031415211495     
           6 :    110.654758754626     
           7 :   -85.7161318986474     
           8 :    72.9962802272739     
           9 :   -67.2700409202464     
          10 :    63.0032598506015     
          11 :   -56.5670173180058     
          12 :    47.1661192057178     
          13 :   -36.3527406156401     
          14 :    26.6277054794961     
          15 :   -19.9380489991245     
          16 :    16.7639429665314     
          17 :   -16.0924767236417     
          18 :    16.1250364822170     
          19 :   -15.2614952190125     
          20 :    12.8381828498109     
          21 :   -9.28548286510085     
          22 :    5.70924136697607     
          23 :   -3.19691781858342     
          24 :    2.23928990245020     
          25 :   -2.54066573740249     
          26 :    3.26012825380622     
          27 :   -3.50985402342258     
          28 :    2.82379503036918     
          29 :   -1.35398163003083     
          30 :  -0.282489442055180     
          31 :   -32.6004108140571     
          32 :   -24.4568517301031     

     Forces acting on atoms (Ry/au):


     negative rho (up, down):  6.944E-01 0.000E+00
     atom    1 type  1   force =    -0.00010824    0.00002328    0.00838379
     atom    2 type  1   force =     0.00007403    0.00215769    0.00822021
     atom    3 type  1   force =     0.00187249   -0.00103817    0.00819420
     atom    4 type  1   force =    -0.00184643   -0.00115958    0.00835965
     atom    5 type  1   force =    -0.00067218    0.00034291   -0.00984877
     atom    6 type  1   force =     0.00068823    0.00040680   -0.00985381
     atom    7 type  1   force =     0.00007858    0.00002201   -0.00250792
     atom    8 type  1   force =    -0.00004599   -0.00077087   -0.00983062
     atom    9 type  1   force =     0.00029011    0.00024379   -0.00022942
     atom   10 type  1   force =    -0.00022164    0.00009881   -0.00037312
     atom   11 type  1   force =    -0.00009615   -0.00034914   -0.00037449
     atom   12 type  1   force =     0.00006064   -0.00004637   -0.00034468
     atom   13 type  2   force =    -0.00007345    0.00006885    0.00020498

     Total force =     0.024261     Total SCF correction =     0.011139
     SCF correction compared to forces is large: reduce conv_thr to get better values


     entering subroutine stress ...


     negative rho (up, down):  6.944E-01 0.000E+00
          total   stress  (Ry/bohr**3)                   (kbar)     P=  -28.26
  -0.00019070  -0.00000005  -0.00000005        -28.05     -0.01     -0.01
  -0.00000005  -0.00019054  -0.00000004         -0.01    -28.03     -0.01
  -0.00000005  -0.00000004  -0.00019500         -0.01     -0.01    -28.68

 !ASE

     Writing output data file calc.save
 
     init_run     :     12.75s CPU     18.28s WALL (       1 calls)
     electrons    :    590.85s CPU    830.72s WALL (       1 calls)
     forces       :      3.98s CPU      4.70s WALL (       1 calls)
     stress       :     11.74s CPU     13.15s WALL (       1 calls)

     Called by init_run:
     wfcinit      :      9.73s CPU     14.27s WALL (       1 calls)
     potinit      :      1.17s CPU      1.67s WALL (       1 calls)

     Called by electrons:
     c_bands      :    457.93s CPU    637.94s WALL (      20 calls)
     sum_band     :     69.89s CPU    102.28s WALL (      20 calls)
     v_of_rho     :     20.25s CPU     30.09s WALL (      21 calls)
     newd         :     12.41s CPU     13.01s WALL (      21 calls)
     mix_rho      :      0.79s CPU      1.20s WALL (      20 calls)
     vdW_energy   :      2.25s CPU      2.26s WALL (      57 calls)
     vdW_ffts     :     32.08s CPU     51.82s WALL (     116 calls)
     vdW_v        :      6.30s CPU      9.12s WALL (      57 calls)

     Called by c_bands:
     init_us_2    :      0.96s CPU      1.04s WALL (     860 calls)
     cegterg      :    446.99s CPU    625.88s WALL (     400 calls)

     Called by *egterg:
     h_psi        :    295.04s CPU    459.23s WALL (    1892 calls)
     s_psi        :     14.08s CPU     14.25s WALL (    1892 calls)
     g_psi        :      0.67s CPU      0.69s WALL (    1472 calls)
     cdiaghg      :     83.72s CPU     86.65s WALL (    1872 calls)

     Called by h_psi:
     add_vuspsi   :     14.25s CPU     14.34s WALL (    1892 calls)

     General routines
     calbec       :     30.00s CPU     36.86s WALL (    2332 calls)
     fft          :     49.46s CPU     79.00s WALL (    3489 calls)
     ffts         :      0.16s CPU      0.26s WALL (      41 calls)
     fftw         :    295.96s CPU    483.94s WALL (  261224 calls)
     interpolate  :      0.72s CPU      1.12s WALL (      41 calls)
     davcio       :      0.00s CPU      0.02s WALL (      20 calls)
 
     Parallel routines
     fft_scatter  :    313.32s CPU    528.78s WALL (  264754 calls)
 
     PWSCF        : 10m20.15s CPU    14m28.16s WALL

 
   This run was terminated on:   0:49: 5  18Jan2018            

=------------------------------------------------------------------------------=
   JOB DONE.
=------------------------------------------------------------------------------=
Job  /afs/slac/g/suncat/bin/suncat-tsmpirun -x LD_LIBRARY_PATH -wdir /scratch/qe842475_CbXrO pw.x -in pw.inp

TID   HOST_NAME   COMMAND_LINE            STATUS            TERMINATION_TIME
===== ========== ================  =======================  ===================
00000 suncat0273 pw.x -in pw.inp   Done                     01/18/2018 00:49:05
00001 suncat0273 pw.x -in pw.inp   Done                     01/18/2018 00:49:05
00002 suncat0273 pw.x -in pw.inp   Done                     01/18/2018 00:49:05
00003 suncat0273 pw.x -in pw.inp   Done                     01/18/2018 00:49:05
00004 suncat0273 pw.x -in pw.inp   Done                     01/18/2018 00:49:05
00005 suncat0273 pw.x -in pw.inp   Done                     01/18/2018 00:49:05
00006 suncat0273 pw.x -in pw.inp   Done                     01/18/2018 00:49:05
00007 suncat0273 pw.x -in pw.inp   Done                     01/18/2018 00:49:05
00008 suncat0268 pw.x -in pw.inp   Done                     01/18/2018 00:49:05
00009 suncat0268 pw.x -in pw.inp   Done                     01/18/2018 00:49:05
00010 suncat0268 pw.x -in pw.inp   Done                     01/18/2018 00:49:05
00011 suncat0268 pw.x -in pw.inp   Done                     01/18/2018 00:49:05
00012 suncat0268 pw.x -in pw.inp   Done                     01/18/2018 00:49:05
00013 suncat0268 pw.x -in pw.inp   Done                     01/18/2018 00:49:05
00014 suncat0268 pw.x -in pw.inp   Done                     01/18/2018 00:49:05
00015 suncat0268 pw.x -in pw.inp   Done                     01/18/2018 00:49:05
00016 suncat0266 pw.x -in pw.inp   Done                     01/18/2018 00:49:05
00017 suncat0266 pw.x -in pw.inp   Done                     01/18/2018 00:49:05
00018 suncat0266 pw.x -in pw.inp   Done                     01/18/2018 00:49:05
00019 suncat0266 pw.x -in pw.inp   Done                     01/18/2018 00:49:05
00020 suncat0266 pw.x -in pw.inp   Done                     01/18/2018 00:49:05
00021 suncat0266 pw.x -in pw.inp   Done                     01/18/2018 00:49:05
00022 suncat0266 pw.x -in pw.inp   Done                     01/18/2018 00:49:05
00023 suncat0266 pw.x -in pw.inp   Done                     01/18/2018 00:49:05
00024 suncat0233 pw.x -in pw.inp   Done                     01/18/2018 00:49:05
00025 suncat0233 pw.x -in pw.inp   Done                     01/18/2018 00:49:05
00026 suncat0233 pw.x -in pw.inp   Done                     01/18/2018 00:49:05
00027 suncat0233 pw.x -in pw.inp   Done                     01/18/2018 00:49:05
00028 suncat0233 pw.x -in pw.inp   Done                     01/18/2018 00:49:05
00029 suncat0233 pw.x -in pw.inp   Done                     01/18/2018 00:49:05
00030 suncat0233 pw.x -in pw.inp   Done                     01/18/2018 00:49:05
00031 suncat0233 pw.x -in pw.inp   Done                     01/18/2018 00:49:05
