  python dir          : /home/users/mamunm/src/espresso
  espresso dir        : /home/users/vossj/suncat/s2/qe5/bin
  pseudo dir          : /home/users/mamunm/src/pseudo/gbrv1.5pbe
  ase-espresso py git : GITVERSION



     Program PWSCF v.5.1rc2 starts on 27Apr2018 at 11:24:11 

     This program is part of the open-source Quantum ESPRESSO suite
     for quantum simulation of materials; please cite
         "P. Giannozzi et al., J. Phys.:Condens. Matter 21 395502 (2009);
          URL http://www.quantum-espresso.org", 
     in publications or presentations arising from this work. More details at
     http://www.quantum-espresso.org/quote

     Parallel version (MPI), running on    16 processors
     R & G space division:  proc/nbgrp/npool/nimage =      16
     Reading input from pw.inp
     Message from routine read_cards :
     DEPRECATED: no units specified in CELL_PARAMETERS card

     Current dimensions of program PWSCF are:
     Max number of different atomic species (ntypx) = 10
     Max number of k-points (npk) =  40000
     Max angular momentum in pseudopotentials (lmaxx) =  3
     Presently stress not available with electric field


     **************************************************************************
     Initializing libbeef V0.1.2 with the BEEF-vdW functional.
     Citation: Wellendorff et al., PRB 85, 235149 (2012).
     **************************************************************************


     IMPORTANT: XC functional enforced from input :
     Exchange-correlation      = BEEF-VDW ( 1  4 27 13 2)
     Any further DFT definition will be discarded
     Please, verify this is what you really want


     Subspace diagonalization in iterative solution of the eigenvalue problem:
     scalapack distributed-memory algorithm (size of sub-group:  2*  2 procs)

 
     Parallelization info
     --------------------
     sticks:   dense  smooth     PW     G-vecs:    dense   smooth      PW
     Min         232      93     27                45190    11433    1759
     Max         233      94     28                45199    11472    1773
     Sum        3721    1495    433               723123   183131   28227
 


     bravais-lattice index     =            0
     lattice parameter (alat)  =       1.8897  a.u.
     unit-cell volume          =    6082.7792 (a.u.)^3
     number of atoms/cell      =           15
     number of atomic types    =            3
     number of electrons       =       150.00
     number of Kohn-Sham states=           85
     kinetic-energy cutoff     =      36.7493  Ry
     charge density cutoff     =     367.4932  Ry
     convergence threshold     =      1.0E-05
     mixing beta               =       0.3000
     number of iterations used =           10  plain     mixing
     Exchange-correlation      = BEEF-VDW ( 1  4 27 13 2)
     nstep                     =           50


     celldm(1)=   1.889726  celldm(2)=   0.000000  celldm(3)=   0.000000
     celldm(4)=   0.000000  celldm(5)=   0.000000  celldm(6)=   0.000000

     crystal axes: (cart. coord. in units of alat)
               a(1) = (   6.421223   0.000000   0.000000 )  
               a(2) = (   3.210611   5.560942   0.000000 )  
               a(3) = (   0.000000   0.000000  25.242906 )  

     reciprocal axes: (cart. coord. in units 2 pi/alat)
               b(1) = (  0.155734 -0.089913  0.000000 )  
               b(2) = (  0.000000  0.179826  0.000000 )  
               b(3) = (  0.000000  0.000000  0.039615 )  


     PseudoPot. # 1 for Zr read from file:
     /home/users/mamunm/src/pseudo/gbrv1.5pbe/Zr.UPF
     MD5 check sum: 5db81b1e868ab7776c4564c113de050b
     Pseudo is Ultrasoft + core correction, Zval = 12.0
     Generated by new atomic code, or converted to UPF format
     Using radial grid of  887 points,  6 beta functions with: 
                l(1) =   0
                l(2) =   0
                l(3) =   1
                l(4) =   1
                l(5) =   2
                l(6) =   2
     Q(r) pseudized with  6 coefficients,  rinner =    1.200   1.200   1.200
                                                       1.200   1.200

     PseudoPot. # 2 for C  read from file:
     /home/users/mamunm/src/pseudo/gbrv1.5pbe/C.UPF
     MD5 check sum: d1aef80898a10debaa0f26306b886e00
     Pseudo is Ultrasoft + core correction, Zval =  4.0
     Generated by new atomic code, or converted to UPF format
     Using radial grid of  721 points,  4 beta functions with: 
                l(1) =   0
                l(2) =   0
                l(3) =   1
                l(4) =   1
     Q(r) pseudized with  8 coefficients,  rinner =    1.100   1.100   1.100


     PseudoPot. # 3 for H  read from file:
     /home/users/mamunm/src/pseudo/gbrv1.5pbe/H.UPF
     MD5 check sum: 761ae9a214b05c3daf00ab9f6b793d6f
     Pseudo is Ultrasoft, Zval =  1.0
     Generated by new atomic code, or converted to UPF format
     Using radial grid of  615 points,  2 beta functions with: 
                l(1) =   0
                l(2) =   0
     Q(r) pseudized with  8 coefficients,  rinner =    0.700

     vdW kernel table read from file vdW_kernel_table
     MD5 check sum: 095c7af220d748ca6e76c0b4c6cfb241

     atomic species   valence    mass     pseudopotential
        Zr1           12.00    91.22400     Zr( 1.00)
        C1             4.00    12.01100     C ( 1.00)
        H1             1.00     1.00800     H ( 1.00)

     No symmetry found



   Cartesian axes

     site n.     atom                  positions (alat units)
         1           Zr1 tau(   1) = (   1.6053057   0.9268237  10.0000000  )
         2           Zr1 tau(   2) = (   4.8159170   0.9268237  10.0000000  )
         3           Zr1 tau(   3) = (   3.2106113   3.7072946  10.0000000  )
         4           Zr1 tau(   4) = (   6.4212227   3.7072946  10.0000000  )
         5           Zr1 tau(   5) = (   6.4212227   1.8536473  12.6214532  )
         6           Zr1 tau(   6) = (   3.2106113   1.8536473  12.6214532  )
         7           Zr1 tau(   7) = (   8.0265283   4.6341183  12.6214532  )
         8           Zr1 tau(   8) = (   4.8159170   4.6341183  12.6214532  )
         9           Zr1 tau(   9) = (   0.0000000   0.0000000  15.2429064  )
        10           Zr1 tau(  10) = (   3.2106113   0.0000000  15.2429064  )
        11           Zr1 tau(  11) = (   1.6053057   2.7804710  15.2429064  )
        12           Zr1 tau(  12) = (   4.8159170   2.7804710  15.2429064  )
        13           C1  tau(  13) = (   1.6053057   0.9268237  16.8744064  )
        14           H1  tau(  14) = (   2.2353057   1.5568237  17.5044064  )
        15           H1  tau(  15) = (   0.9753057   0.2968237  17.5044064  )

     number of k points=    20  Fermi-Dirac smearing, width (Ry)=  0.0110
                       cart. coord. in units 2pi/alat
        k(    1) = (   0.0000000   0.0000000   0.0000000), wk =   0.0555556
        k(    2) = (   0.0000000   0.0299709   0.0000000), wk =   0.1111111
        k(    3) = (   0.0000000   0.0599419   0.0000000), wk =   0.1111111
        k(    4) = (   0.0000000  -0.0899128   0.0000000), wk =   0.0555556
        k(    5) = (   0.0259556  -0.0149855   0.0000000), wk =   0.1111111
        k(    6) = (   0.0259556   0.0149855   0.0000000), wk =   0.1111111
        k(    7) = (   0.0259556   0.0449564   0.0000000), wk =   0.1111111
        k(    8) = (   0.0259556  -0.1048983   0.0000000), wk =   0.1111111
        k(    9) = (   0.0259556  -0.0749274   0.0000000), wk =   0.1111111
        k(   10) = (   0.0259556  -0.0449564   0.0000000), wk =   0.1111111
        k(   11) = (   0.0519112  -0.0299709   0.0000000), wk =   0.1111111
        k(   12) = (   0.0519112   0.0000000   0.0000000), wk =   0.1111111
        k(   13) = (   0.0519112   0.0299709   0.0000000), wk =   0.1111111
        k(   14) = (   0.0519112  -0.1198838   0.0000000), wk =   0.1111111
        k(   15) = (   0.0519112  -0.0899128   0.0000000), wk =   0.1111111
        k(   16) = (   0.0519112  -0.0599419   0.0000000), wk =   0.1111111
        k(   17) = (  -0.0778668   0.0449564   0.0000000), wk =   0.0555556
        k(   18) = (  -0.0778668   0.0749274   0.0000000), wk =   0.1111111
        k(   19) = (  -0.0778668   0.1048983   0.0000000), wk =   0.1111111
        k(   20) = (  -0.0778668  -0.0449564   0.0000000), wk =   0.0555556

     Dense  grid:   723123 G-vectors     FFT dimensions: (  75,  75, 300)

     Smooth grid:   183131 G-vectors     FFT dimensions: (  48,  48, 192)

     Largest allocated arrays     est. size (Mb)     dimensions
        Kohn-Sham Wavefunctions         1.90 Mb     (    1464,   85)
        NL pseudopotentials             5.09 Mb     (    1464,  228)
        Each V/rho on FFT grid          1.63 Mb     (  106875)
        Each G-vector array             0.34 Mb     (   45199)
        G-vector shells                 0.14 Mb     (   17726)
     Largest temporary arrays     est. size (Mb)     dimensions
        Auxiliary wavefunctions         7.60 Mb     (    1464,  340)
        Each subspace H/S matrix        0.44 Mb     (     170,  170)
        Each <psi_i|beta_j> matrix      0.30 Mb     (     228,   85)
        Arrays for rho mixing          16.31 Mb     (  106875,   10)

     Initial potential from superposition of free atoms
     Check: negative starting charge=   -0.729022

     starting charge  149.97415, renormalised to  150.00000

     negative rho (up, down):  7.291E-01 0.000E+00


     ************************************************************************
     *
     * You are using vdW-DF for exchange-correlation in this calculation.
     * Please cite the following three references that made this development
     * possible:
     *
     *   M. Dion, H. Rydberg, E. Schroder, D. C. Langreth, and
     *   B. I. Lundqvist, Phys. Rev. Lett. 92, 246401 (2004).
     *
     *   T. Thonhauser, V. R. Cooper, S. Li, A. Puzder, P. Hyldgaard, and
     *   D. C. Langreth, Phys. Rev. B 76, 125112 (2007).
     *
     *   G. Roman-Perez and J. M. Soler, Phys. Rev. Lett. 103, 096102 (2009).
     *
     *
     * If you are using vdW-DF2, please also cite:
     *
     *   K. Lee, E. D. Murray, L. Kong, B. I. Lundqvist, and
     *   D. C. Langreth, Phys. Rev. B 82, 081101(R) (2010).
     *
     *
     * If you are calculating the stress with vdW-DF, please also cite:
     *
     *   R. Sabatini, E. Kucukbenli, B. Kolb, T. Thonhauser, and
     *   S. de Gironcoli, J. Phys.: Condens. Matter 24, 424209 (2012).
     *
     ************************************************************************

     Carrying out vdW-DF run using the following parameters:

     Nqs =      20    Nr_points =    1024   r_max =   100.000
     q_mesh =
               0.00001000     0.04494208     0.09755937     0.15916263
               0.23128650     0.31572767     0.41458969     0.53033537
               0.66584808     0.82450364     1.01025438     1.22772762
               1.48234092     1.78043706     2.12944203     2.53805004
               3.01644009     3.57652955     4.23227104     5.00000000

     Gradients computed in reciprocal space

     ************************************************************************


 
     Adding external electric field

     Computed dipole along edir(3) : 
        Dipole               -0.0082 Ry au,         -0.0209 Debye
        Dipole field         -0.0000 Ry au
 
        Potential amp.        0.0016 Ry
        Total length         46.5096 bohr
 
     Starting wfc are  162 randomized atomic wfcs

     total cpu time spent up to now is        7.7 secs

     per-process dynamical memory:    44.9 Mb

     Self-consistent Calculation

     iteration #  1     ecut=    36.75 Ry     beta=0.30
     Davidson diagonalization with overlap
     ethr =  1.00E-02,  avg # of iterations =  2.0

     negative rho (up, down):  7.334E-01 0.000E+00
 
     Adding external electric field

     Computed dipole along edir(3) : 
        Dipole               -3.8081 Ry au,         -9.6792 Debye
        Dipole field         -0.0079 Ry au
 
        Potential amp.        0.7318 Ry
        Total length         46.5096 bohr
 

     total cpu time spent up to now is       17.2 secs

     total energy              =   -1207.96413276 Ry
     Harris-Foulkes estimate   =   -1211.65817356 Ry
     estimated scf accuracy    <       7.89039953 Ry

     iteration #  2     ecut=    36.75 Ry     beta=0.30
     Davidson diagonalization with overlap
     ethr =  5.26E-03,  avg # of iterations =  9.9

     negative rho (up, down):  7.333E-01 0.000E+00
 
     Adding external electric field

     Computed dipole along edir(3) : 
        Dipole                2.8245 Ry au,          7.1791 Debye
        Dipole field          0.0058 Ry au
 
        Potential amp.       -0.5428 Ry
        Total length         46.5096 bohr
 

     total cpu time spent up to now is       40.7 secs

     total energy              =   -1197.04071821 Ry
     Harris-Foulkes estimate   =   -1223.84486515 Ry
     estimated scf accuracy    <     638.72873856 Ry

     iteration #  3     ecut=    36.75 Ry     beta=0.30
     Davidson diagonalization with overlap
     ethr =  5.26E-03,  avg # of iterations =  9.4

     negative rho (up, down):  7.324E-01 0.000E+00
 
     Adding external electric field

     Computed dipole along edir(3) : 
        Dipole                0.5789 Ry au,          1.4715 Debye
        Dipole field          0.0012 Ry au
 
        Potential amp.       -0.1113 Ry
        Total length         46.5096 bohr
 

     total cpu time spent up to now is       64.0 secs

     total energy              =   -1204.68960212 Ry
     Harris-Foulkes estimate   =   -1217.37694742 Ry
     estimated scf accuracy    <     377.44658872 Ry

     iteration #  4     ecut=    36.75 Ry     beta=0.30
     Davidson diagonalization with overlap
     ethr =  5.26E-03,  avg # of iterations =  4.8

     negative rho (up, down):  7.351E-01 0.000E+00
 
     Adding external electric field

     Computed dipole along edir(3) : 
        Dipole                0.5600 Ry au,          1.4233 Debye
        Dipole field          0.0012 Ry au
 
        Potential amp.       -0.1076 Ry
        Total length         46.5096 bohr
 

     total cpu time spent up to now is       77.8 secs

     total energy              =   -1210.89325499 Ry
     Harris-Foulkes estimate   =   -1211.01795982 Ry
     estimated scf accuracy    <       0.65305188 Ry

     iteration #  5     ecut=    36.75 Ry     beta=0.30
     Davidson diagonalization with overlap
     ethr =  4.35E-04,  avg # of iterations =  7.0

     negative rho (up, down):  7.380E-01 0.000E+00
 
     Adding external electric field

     Computed dipole along edir(3) : 
        Dipole                0.3312 Ry au,          0.8420 Debye
        Dipole field          0.0007 Ry au
 
        Potential amp.       -0.0637 Ry
        Total length         46.5096 bohr
 

     total cpu time spent up to now is       91.8 secs

     total energy              =   -1210.91212369 Ry
     Harris-Foulkes estimate   =   -1210.96783471 Ry
     estimated scf accuracy    <       0.45451985 Ry

     iteration #  6     ecut=    36.75 Ry     beta=0.30
     Davidson diagonalization with overlap
     ethr =  3.03E-04,  avg # of iterations =  3.1

     negative rho (up, down):  7.407E-01 0.000E+00
 
     Adding external electric field

     Computed dipole along edir(3) : 
        Dipole                0.3224 Ry au,          0.8194 Debye
        Dipole field          0.0007 Ry au
 
        Potential amp.       -0.0619 Ry
        Total length         46.5096 bohr
 

     total cpu time spent up to now is      101.8 secs

     total energy              =   -1210.91481207 Ry
     Harris-Foulkes estimate   =   -1210.94062822 Ry
     estimated scf accuracy    <       0.23546439 Ry

     iteration #  7     ecut=    36.75 Ry     beta=0.30
     Davidson diagonalization with overlap
     ethr =  1.57E-04,  avg # of iterations =  2.5

     negative rho (up, down):  7.443E-01 0.000E+00
 
     Adding external electric field

     Computed dipole along edir(3) : 
        Dipole                0.2935 Ry au,          0.7461 Debye
        Dipole field          0.0006 Ry au
 
        Potential amp.       -0.0564 Ry
        Total length         46.5096 bohr
 

     total cpu time spent up to now is      111.2 secs

     total energy              =   -1210.91664867 Ry
     Harris-Foulkes estimate   =   -1210.92445434 Ry
     estimated scf accuracy    <       0.05575228 Ry

     iteration #  8     ecut=    36.75 Ry     beta=0.30
     Davidson diagonalization with overlap
     ethr =  3.72E-05,  avg # of iterations =  6.0

     negative rho (up, down):  7.466E-01 0.000E+00
 
     Adding external electric field

     Computed dipole along edir(3) : 
        Dipole                0.1969 Ry au,          0.5004 Debye
        Dipole field          0.0004 Ry au
 
        Potential amp.       -0.0378 Ry
        Total length         46.5096 bohr
 

     total cpu time spent up to now is      124.7 secs

     total energy              =   -1210.91934419 Ry
     Harris-Foulkes estimate   =   -1210.92452660 Ry
     estimated scf accuracy    <       0.04350170 Ry

     iteration #  9     ecut=    36.75 Ry     beta=0.30
     Davidson diagonalization with overlap
     ethr =  2.90E-05,  avg # of iterations =  2.4

     negative rho (up, down):  7.476E-01 0.000E+00
 
     Adding external electric field

     Computed dipole along edir(3) : 
        Dipole                0.1417 Ry au,          0.3603 Debye
        Dipole field          0.0003 Ry au
 
        Potential amp.       -0.0272 Ry
        Total length         46.5096 bohr
 

     total cpu time spent up to now is      134.1 secs

     total energy              =   -1210.91952263 Ry
     Harris-Foulkes estimate   =   -1210.92124121 Ry
     estimated scf accuracy    <       0.00776267 Ry

     iteration # 10     ecut=    36.75 Ry     beta=0.30
     Davidson diagonalization with overlap
     ethr =  5.18E-06,  avg # of iterations =  5.8

     negative rho (up, down):  7.482E-01 0.000E+00
 
     Adding external electric field

     Computed dipole along edir(3) : 
        Dipole                0.1308 Ry au,          0.3324 Debye
        Dipole field          0.0003 Ry au
 
        Potential amp.       -0.0251 Ry
        Total length         46.5096 bohr
 

     total cpu time spent up to now is      148.2 secs

     total energy              =   -1210.92069115 Ry
     Harris-Foulkes estimate   =   -1210.92117195 Ry
     estimated scf accuracy    <       0.00639106 Ry

     iteration # 11     ecut=    36.75 Ry     beta=0.30
     Davidson diagonalization with overlap
     ethr =  4.26E-06,  avg # of iterations =  1.4

     negative rho (up, down):  7.491E-01 0.000E+00
 
     Adding external electric field

     Computed dipole along edir(3) : 
        Dipole                0.1075 Ry au,          0.2733 Debye
        Dipole field          0.0002 Ry au
 
        Potential amp.       -0.0207 Ry
        Total length         46.5096 bohr
 

     total cpu time spent up to now is      157.1 secs

     total energy              =   -1210.92085213 Ry
     Harris-Foulkes estimate   =   -1210.92093602 Ry
     estimated scf accuracy    <       0.00156530 Ry

     iteration # 12     ecut=    36.75 Ry     beta=0.30
     Davidson diagonalization with overlap
     c_bands:  1 eigenvalues not converged
     ethr =  1.04E-06,  avg # of iterations =  5.7

     negative rho (up, down):  7.494E-01 0.000E+00
 
     Adding external electric field

     Computed dipole along edir(3) : 
        Dipole                0.0988 Ry au,          0.2511 Debye
        Dipole field          0.0002 Ry au
 
        Potential amp.       -0.0190 Ry
        Total length         46.5096 bohr
 

     total cpu time spent up to now is      170.5 secs

     total energy              =   -1210.92106193 Ry
     Harris-Foulkes estimate   =   -1210.92115182 Ry
     estimated scf accuracy    <       0.00095641 Ry

     iteration # 13     ecut=    36.75 Ry     beta=0.30
     Davidson diagonalization with overlap
     ethr =  6.38E-07,  avg # of iterations =  2.5

     negative rho (up, down):  7.497E-01 0.000E+00
 
     Adding external electric field

     Computed dipole along edir(3) : 
        Dipole                0.0836 Ry au,          0.2126 Debye
        Dipole field          0.0002 Ry au
 
        Potential amp.       -0.0161 Ry
        Total length         46.5096 bohr
 

     total cpu time spent up to now is      180.3 secs

     total energy              =   -1210.92112308 Ry
     Harris-Foulkes estimate   =   -1210.92111549 Ry
     estimated scf accuracy    <       0.00026937 Ry

     iteration # 14     ecut=    36.75 Ry     beta=0.30
     Davidson diagonalization with overlap
     ethr =  1.80E-07,  avg # of iterations =  4.5

     negative rho (up, down):  7.497E-01 0.000E+00
 
     Adding external electric field

     Computed dipole along edir(3) : 
        Dipole                0.0819 Ry au,          0.2081 Debye
        Dipole field          0.0002 Ry au
 
        Potential amp.       -0.0157 Ry
        Total length         46.5096 bohr
 

     total cpu time spent up to now is      193.0 secs

     total energy              =   -1210.92116322 Ry
     Harris-Foulkes estimate   =   -1210.92117025 Ry
     estimated scf accuracy    <       0.00010053 Ry

     iteration # 15     ecut=    36.75 Ry     beta=0.30
     Davidson diagonalization with overlap
     ethr =  6.70E-08,  avg # of iterations =  3.0

     negative rho (up, down):  7.498E-01 0.000E+00
 
     Adding external electric field

     Computed dipole along edir(3) : 
        Dipole                0.0793 Ry au,          0.2015 Debye
        Dipole field          0.0002 Ry au
 
        Potential amp.       -0.0152 Ry
        Total length         46.5096 bohr
 

     total cpu time spent up to now is      203.2 secs

     total energy              =   -1210.92117122 Ry
     Harris-Foulkes estimate   =   -1210.92117077 Ry
     estimated scf accuracy    <       0.00003604 Ry

     iteration # 16     ecut=    36.75 Ry     beta=0.30
     Davidson diagonalization with overlap
     ethr =  2.40E-08,  avg # of iterations =  3.9

     negative rho (up, down):  7.498E-01 0.000E+00
 
     Adding external electric field

     Computed dipole along edir(3) : 
        Dipole                0.0792 Ry au,          0.2013 Debye
        Dipole field          0.0002 Ry au
 
        Potential amp.       -0.0152 Ry
        Total length         46.5096 bohr
 

     total cpu time spent up to now is      214.2 secs

     total energy              =   -1210.92117409 Ry
     Harris-Foulkes estimate   =   -1210.92117406 Ry
     estimated scf accuracy    <       0.00001373 Ry

     iteration # 17     ecut=    36.75 Ry     beta=0.30
     Davidson diagonalization with overlap
     ethr =  9.15E-09,  avg # of iterations =  3.8

     negative rho (up, down):  7.498E-01 0.000E+00
 
     Adding external electric field

     Computed dipole along edir(3) : 
        Dipole                0.0782 Ry au,          0.1989 Debye
        Dipole field          0.0002 Ry au
 
        Potential amp.       -0.0150 Ry
        Total length         46.5096 bohr
 

     total cpu time spent up to now is      224.4 secs

     total energy              =   -1210.92117482 Ry
     Harris-Foulkes estimate   =   -1210.92117539 Ry
     estimated scf accuracy    <       0.00002654 Ry

     iteration # 18     ecut=    36.75 Ry     beta=0.30
     Davidson diagonalization with overlap
     ethr =  9.15E-09,  avg # of iterations =  2.4

     negative rho (up, down):  7.498E-01 0.000E+00

     negative rho (up, down):  7.498E-01 0.000E+00

     negative rho (up, down):  7.498E-01 0.000E+00

     negative rho (up, down):  7.498E-01 0.000E+00

     negative rho (up, down):  7.498E-01 0.000E+00

     negative rho (up, down):  7.498E-01 0.000E+00

     negative rho (up, down):  7.498E-01 0.000E+00

     negative rho (up, down):  7.498E-01 0.000E+00

     negative rho (up, down):  7.498E-01 0.000E+00

     negative rho (up, down):  7.498E-01 0.000E+00

     negative rho (up, down):  7.498E-01 0.000E+00

     negative rho (up, down):  7.498E-01 0.000E+00

     negative rho (up, down):  7.498E-01 0.000E+00

     negative rho (up, down):  7.498E-01 0.000E+00

     negative rho (up, down):  7.498E-01 0.000E+00

     negative rho (up, down):  7.498E-01 0.000E+00

     negative rho (up, down):  7.498E-01 0.000E+00

     negative rho (up, down):  7.498E-01 0.000E+00

     negative rho (up, down):  7.498E-01 0.000E+00

     negative rho (up, down):  7.498E-01 0.000E+00

     negative rho (up, down):  7.498E-01 0.000E+00

     negative rho (up, down):  7.498E-01 0.000E+00

     negative rho (up, down):  7.498E-01 0.000E+00

     negative rho (up, down):  7.498E-01 0.000E+00

     negative rho (up, down):  7.498E-01 0.000E+00

     negative rho (up, down):  7.498E-01 0.000E+00

     negative rho (up, down):  7.498E-01 0.000E+00

     negative rho (up, down):  7.498E-01 0.000E+00

     negative rho (up, down):  7.498E-01 0.000E+00

     negative rho (up, down):  7.498E-01 0.000E+00

     negative rho (up, down):  7.498E-01 0.000E+00

     negative rho (up, down):  7.498E-01 0.000E+00

     negative rho (up, down):  7.498E-01 0.000E+00

     negative rho (up, down):  7.498E-01 0.000E+00

     negative rho (up, down):  7.498E-01 0.000E+00
 
     Adding external electric field

     Computed dipole along edir(3) : 
        Dipole                0.0817 Ry au,          0.2077 Debye
        Dipole field          0.0002 Ry au
 
        Potential amp.       -0.0157 Ry
        Total length         46.5096 bohr
 

     total cpu time spent up to now is      248.4 secs

     End of self-consistent calculation

          k = 0.0000 0.0000 0.0000 ( 22923 PWs)   bands (ev):

   -47.6677 -47.6466 -47.5960 -47.5587 -47.5584 -47.5539 -47.5375 -47.4750
   -47.3225 -47.2513 -47.2497 -47.1951 -25.9513 -25.9425 -25.9282 -25.9023
   -25.8956 -25.8666 -25.8568 -25.7842 -25.7595 -25.7450 -25.6738 -25.5956
   -25.5612 -25.5252 -25.4314 -25.4179 -25.3980 -25.3942 -25.3849 -25.3818
   -25.3764 -25.3622 -25.3336 -25.2164 -25.2162 -25.1889 -25.1763 -25.1645
   -25.1624 -25.1522 -25.0880 -25.0660 -25.0507 -25.0506 -24.9029 -24.9019
   -10.5573  -4.9143  -3.3727  -2.6012  -1.8429  -1.2854  -1.0872  -0.9185
    -0.8907  -0.8514  -0.7921  -0.6414  -0.5508  -0.3411  -0.2502  -0.2070
    -0.1626   0.2457   0.2548   0.7144   0.9945   1.3719   1.5704   1.8099
     1.8220   1.8934   2.0035   2.2347   2.3023   2.3243   2.3276   2.5360
     2.5563   2.5928   2.7782   2.7935   2.7990

          k = 0.0000 0.0300 0.0000 ( 22902 PWs)   bands (ev):

   -47.6635 -47.6407 -47.5980 -47.5636 -47.5587 -47.5548 -47.5381 -47.4766
   -47.3175 -47.2545 -47.2502 -47.1964 -25.9236 -25.9128 -25.8945 -25.8751
   -25.8633 -25.8484 -25.8280 -25.7676 -25.7429 -25.7256 -25.6688 -25.6063
   -25.5695 -25.5350 -25.4215 -25.4180 -25.4111 -25.4074 -25.4033 -25.3882
   -25.3808 -25.3708 -25.3383 -25.2702 -25.2360 -25.2275 -25.1905 -25.1603
   -25.1576 -25.1429 -25.0874 -25.0809 -25.0750 -25.0449 -24.9472 -24.9124
   -10.5542  -4.9205  -3.1917  -2.4799  -1.7026  -1.1186  -0.9998  -0.8970
    -0.7866  -0.7582  -0.6838  -0.5478  -0.3926  -0.1862  -0.1188  -0.0842
    -0.0501   0.2964   0.3210   0.7522   0.9549   1.3119   1.5350   1.7459
     1.8310   1.9355   1.9600   2.0944   2.1317   2.1528   2.2273   2.3448
     2.4753   2.6177   2.6632   2.6738   2.7082

          k = 0.0000 0.0599 0.0000 ( 22852 PWs)   bands (ev):

   -47.6539 -47.6246 -47.6034 -47.5798 -47.5587 -47.5552 -47.5394 -47.4798
   -47.3041 -47.2655 -47.2503 -47.1989 -25.8635 -25.8465 -25.8181 -25.8121
   -25.8020 -25.7767 -25.7357 -25.7231 -25.7063 -25.6871 -25.6568 -25.6295
   -25.5888 -25.5562 -25.4852 -25.4766 -25.4752 -25.4499 -25.4041 -25.3839
   -25.3681 -25.3579 -25.3433 -25.3379 -25.3149 -25.2582 -25.2163 -25.1614
   -25.1526 -25.1410 -25.1374 -25.1299 -25.0720 -25.0630 -25.0198 -24.9392
   -10.5480  -4.9319  -2.7162  -2.2072  -1.3658  -1.1959  -0.8091  -0.6104
    -0.5284  -0.4521  -0.3747  -0.2684  -0.1045   0.1252   0.2406   0.2847
     0.3122   0.4871   0.5362   0.8224   0.9363   1.1572   1.2804   1.4874
     1.5457   1.5882   1.6463   1.7429   1.9436   1.9727   2.0392   2.1018
     2.1587   2.1740   2.2420   2.3266   2.4432

          k = 0.0000-0.0899 0.0000 ( 22880 PWs)   bands (ev):

   -47.6478 -47.6076 -47.6036 -47.6006 -47.5587 -47.5553 -47.5400 -47.4814
   -47.2915 -47.2771 -47.2504 -47.2001 -25.8246 -25.8027 -25.7808 -25.7779
   -25.7545 -25.7434 -25.6994 -25.6798 -25.6613 -25.6468 -25.6131 -25.5954
   -25.5851 -25.5694 -25.5627 -25.5520 -25.5191 -25.5104 -25.4809 -25.4744
   -25.3586 -25.3302 -25.3115 -25.3001 -25.2966 -25.2371 -25.2256 -25.2198
   -25.1980 -25.1646 -25.1455 -25.1378 -25.1308 -25.0690 -24.9946 -24.9649
   -10.5449  -4.9372  -2.3479  -1.8889  -1.7302  -1.0174  -0.7237  -0.4237
    -0.2368  -0.2016  -0.1356  -0.0935  -0.0359   0.2133   0.5999   0.6497
     0.6817   0.7045   0.7182   0.7665   1.1051   1.1301   1.1542   1.1683
     1.2233   1.3235   1.4275   1.4884   1.6105   1.6377   1.6993   1.7280
     1.8184   1.9437   2.0027   2.2934   2.3461

          k = 0.0260-0.0150 0.0000 ( 22902 PWs)   bands (ev):

   -47.6634 -47.6407 -47.5986 -47.5637 -47.5584 -47.5549 -47.5375 -47.4768
   -47.3174 -47.2550 -47.2498 -47.1965 -25.9197 -25.9150 -25.8955 -25.8721
   -25.8655 -25.8476 -25.8302 -25.7672 -25.7433 -25.7253 -25.6690 -25.6072
   -25.5684 -25.5352 -25.4203 -25.4180 -25.4104 -25.4079 -25.4034 -25.4002
   -25.3750 -25.3697 -25.3357 -25.2702 -25.2277 -25.2266 -25.1987 -25.1601
   -25.1581 -25.1429 -25.0877 -25.0818 -25.0739 -25.0446 -24.9475 -24.9121
   -10.5544  -4.9137  -3.1947  -2.4802  -1.7093  -1.1356  -1.0143  -0.8951
    -0.7868  -0.7619  -0.6548  -0.5628  -0.3923  -0.1537  -0.1198  -0.0939
    -0.0448   0.2834   0.3173   0.7459   0.9630   1.3199   1.5356   1.7505
     1.8512   1.8981   1.9698   2.0965   2.1283   2.1548   2.2269   2.3535
     2.4819   2.6170   2.6666   2.6789   2.6982

          k = 0.0260 0.0150 0.0000 ( 22902 PWs)   bands (ev):

   -47.6643 -47.6407 -47.5955 -47.5637 -47.5586 -47.5549 -47.5407 -47.4758
   -47.3175 -47.2536 -47.2512 -47.1964 -25.9278 -25.9098 -25.8939 -25.8785
   -25.8593 -25.8486 -25.8278 -25.7686 -25.7404 -25.7272 -25.6687 -25.6003
   -25.5774 -25.5338 -25.4241 -25.4165 -25.4113 -25.4057 -25.4029 -25.3905
   -25.3754 -25.3638 -25.3480 -25.2703 -25.2400 -25.2275 -25.1862 -25.1597
   -25.1578 -25.1432 -25.0871 -25.0813 -25.0750 -25.0454 -24.9468 -24.9128
   -10.5541  -4.9257  -3.1887  -2.4795  -1.6965  -1.1121  -0.9663  -0.9039
    -0.7857  -0.7475  -0.7212  -0.5351  -0.3944  -0.2159  -0.1187  -0.0770
    -0.0551   0.3043   0.3257   0.7586   0.9469   1.3048   1.5342   1.7388
     1.8149   1.9481   1.9740   2.0937   2.1404   2.1446   2.2227   2.3351
     2.4712   2.6234   2.6560   2.6710   2.6991

          k = 0.0260 0.0450 0.0000 ( 22896 PWs)   bands (ev):

   -47.6581 -47.6297 -47.5971 -47.5698 -47.5673 -47.5514 -47.5437 -47.4775
   -47.3084 -47.2601 -47.2522 -47.1982 -25.8876 -25.8507 -25.8440 -25.8266
   -25.8196 -25.7943 -25.7669 -25.7429 -25.7149 -25.6979 -25.6600 -25.6166
   -25.5950 -25.5463 -25.4951 -25.4773 -25.4030 -25.4013 -25.3882 -25.3847
   -25.3758 -25.3627 -25.3586 -25.3353 -25.3198 -25.2515 -25.2081 -25.1561
   -25.1554 -25.1494 -25.1378 -25.0745 -25.0650 -25.0560 -25.0224 -24.9345
   -10.5493  -4.9399  -2.8535  -2.2814  -1.4201  -0.9175  -0.8947  -0.7862
    -0.7044  -0.5715  -0.5127  -0.2903  -0.1424   0.0271   0.1223   0.1436
     0.1793   0.4217   0.4959   0.8171   0.8851   1.2154   1.4146   1.5306
     1.6256   1.6781   1.7891   1.8277   1.9901   2.0463   2.1030   2.1798
     2.2353   2.3044   2.3341   2.4231   2.5435

          k = 0.0260-0.1049 0.0000 ( 22856 PWs)   bands (ev):

   -47.6496 -47.6106 -47.6033 -47.5880 -47.5714 -47.5486 -47.5434 -47.4802
   -47.2936 -47.2723 -47.2534 -47.1996 -25.8208 -25.7915 -25.7855 -25.7688
   -25.7455 -25.7213 -25.7065 -25.6862 -25.6662 -25.6539 -25.6495 -25.6268
   -25.6105 -25.5985 -25.5593 -25.5481 -25.5070 -25.4890 -25.4285 -25.4005
   -25.3600 -25.3496 -25.3353 -25.3178 -25.2958 -25.2820 -25.2438 -25.2313
   -25.1573 -25.1514 -25.1442 -25.1337 -25.0908 -25.0676 -25.0227 -24.9715
   -10.5448  -4.9418  -2.3845  -1.9630  -1.4068  -0.9648  -0.8132  -0.6543
    -0.3257  -0.2446  -0.1347  -0.0093   0.1557   0.3008   0.5049   0.5205
     0.5893   0.6104   0.7071   0.9376   1.0000   1.0403   1.1461   1.2214
     1.2797   1.3228   1.3682   1.4512   1.5749   1.6673   1.7257   1.8132
     1.8802   1.9136   1.9418   2.1833   2.3556

          k = 0.0260-0.0749 0.0000 ( 22856 PWs)   bands (ev):

   -47.6477 -47.6109 -47.6073 -47.5880 -47.5714 -47.5486 -47.5398 -47.4814
   -47.2933 -47.2730 -47.2529 -47.1997 -25.8179 -25.7896 -25.7848 -25.7682
   -25.7460 -25.7230 -25.7060 -25.6830 -25.6641 -25.6550 -25.6471 -25.6337
   -25.6119 -25.5973 -25.5811 -25.5526 -25.5031 -25.4674 -25.4287 -25.4034
   -25.3576 -25.3469 -25.3341 -25.3144 -25.2960 -25.2821 -25.2523 -25.2363
   -25.1561 -25.1485 -25.1455 -25.1324 -25.0908 -25.0676 -25.0226 -24.9712
   -10.5451  -4.9305  -2.3873  -1.9805  -1.3923  -1.0680  -0.8097  -0.5880
    -0.4121  -0.1833  -0.0793   0.0052   0.1577   0.2914   0.5160   0.5290
     0.5894   0.6115   0.6887   0.9068   1.0081   1.0308   1.1412   1.2310
     1.2884   1.3332   1.3659   1.4483   1.5779   1.6830   1.7360   1.8097
     1.8833   1.9155   1.9489   2.1507   2.3821

          k = 0.0260-0.0450 0.0000 ( 22896 PWs)   bands (ev):

   -47.6557 -47.6297 -47.6041 -47.5699 -47.5671 -47.5515 -47.5369 -47.4798
   -47.3082 -47.2616 -47.2508 -47.1983 -25.8811 -25.8497 -25.8417 -25.8277
   -25.8191 -25.7974 -25.7718 -25.7423 -25.7172 -25.6952 -25.6602 -25.6265
   -25.5833 -25.5495 -25.4967 -25.4924 -25.4009 -25.3904 -25.3874 -25.3817
   -25.3733 -25.3597 -25.3563 -25.3494 -25.3045 -25.2515 -25.2190 -25.1572
   -25.1551 -25.1518 -25.1356 -25.0751 -25.0639 -25.0550 -25.0228 -24.9337
   -10.5499  -4.9165  -2.8666  -2.2825  -1.4692  -1.0094  -0.8926  -0.8290
    -0.6953  -0.5362  -0.4520  -0.2812  -0.1333   0.0710   0.1144   0.1749
     0.2379   0.3823   0.4214   0.8044   0.9271   1.2139   1.4150   1.5437
     1.6307   1.7106   1.7747   1.8287   1.9837   2.0493   2.0928   2.2003
     2.2161   2.3289   2.3325   2.3924   2.5024

          k = 0.0519-0.0300 0.0000 ( 22852 PWs)   bands (ev):

   -47.6530 -47.6246 -47.6056 -47.5798 -47.5585 -47.5554 -47.5374 -47.4805
   -47.3040 -47.2661 -47.2498 -47.1990 -25.8571 -25.8477 -25.8132 -25.8122
   -25.8047 -25.7787 -25.7376 -25.7255 -25.7071 -25.6859 -25.6574 -25.6322
   -25.5880 -25.5555 -25.4850 -25.4786 -25.4744 -25.4648 -25.4033 -25.3779
   -25.3713 -25.3486 -25.3421 -25.3299 -25.3091 -25.2584 -25.2280 -25.1612
   -25.1542 -25.1397 -25.1372 -25.1312 -25.0723 -25.0619 -25.0193 -24.9389
   -10.5486  -4.9123  -2.7241  -2.2090  -1.4166  -1.2112  -0.8542  -0.5978
    -0.5167  -0.4546  -0.3356  -0.2922  -0.1077   0.2069   0.2537   0.2825
     0.3484   0.4390   0.4997   0.8106   0.9611   1.1666   1.2827   1.4875
     1.5549   1.5937   1.6354   1.7408   1.9400   1.9694   2.0483   2.1037
     2.1569   2.1639   2.2569   2.3387   2.4186

          k = 0.0519 0.0000 0.0000 ( 22896 PWs)   bands (ev):

   -47.6576 -47.6297 -47.5986 -47.5700 -47.5670 -47.5515 -47.5422 -47.4780
   -47.3083 -47.2607 -47.2516 -47.1982 -25.8848 -25.8511 -25.8420 -25.8273
   -25.8187 -25.7944 -25.7707 -25.7427 -25.7152 -25.6973 -25.6603 -25.6191
   -25.5921 -25.5490 -25.4959 -25.4825 -25.4029 -25.3978 -25.3892 -25.3847
   -25.3750 -25.3622 -25.3583 -25.3387 -25.3062 -25.2515 -25.2156 -25.1566
   -25.1549 -25.1511 -25.1367 -25.0750 -25.0646 -25.0554 -25.0225 -24.9341
   -10.5497  -4.9267  -2.8600  -2.2818  -1.4434  -0.9711  -0.8935  -0.8199
    -0.6942  -0.5392  -0.4866  -0.2859  -0.1379   0.0514   0.1166   0.1715
     0.1840   0.4189   0.4487   0.8099   0.9100   1.2151   1.4148   1.5353
     1.6242   1.6951   1.7827   1.8289   1.9861   2.0433   2.1009   2.1941
     2.2240   2.3151   2.3327   2.4123   2.5167

          k = 0.0519 0.0300 0.0000 ( 22852 PWs)   bands (ev):

   -47.6570 -47.6246 -47.5941 -47.5798 -47.5586 -47.5553 -47.5482 -47.4772
   -47.3043 -47.2645 -47.2512 -47.1988 -25.8723 -25.8442 -25.8213 -25.8151
   -25.7947 -25.7714 -25.7359 -25.7220 -25.7058 -25.6878 -25.6574 -25.6140
   -25.6062 -25.5563 -25.4883 -25.4784 -25.4742 -25.4341 -25.4043 -25.3878
   -25.3689 -25.3524 -25.3447 -25.3387 -25.3302 -25.2581 -25.2081 -25.1605
   -25.1512 -25.1414 -25.1393 -25.1292 -25.0728 -25.0631 -25.0204 -24.9395
   -10.5477  -4.9464  -2.7085  -2.2048  -1.3295  -1.1717  -0.7238  -0.6340
    -0.5566  -0.4475  -0.4181  -0.2525  -0.0947   0.0225   0.2375   0.2877
     0.3042   0.4906   0.5733   0.8551   0.8991   1.1479   1.2770   1.4865
     1.5298   1.5830   1.6580   1.7454   1.9421   1.9838   2.0254   2.1005
     2.1622   2.1859   2.2212   2.3173   2.4752

          k = 0.0519-0.1199 0.0000 ( 22856 PWs)   bands (ev):

   -47.6521 -47.6106 -47.5963 -47.5880 -47.5714 -47.5497 -47.5486 -47.4785
   -47.2940 -47.2715 -47.2540 -47.1996 -25.8270 -25.7936 -25.7892 -25.7660
   -25.7388 -25.7149 -25.7086 -25.6850 -25.6647 -25.6511 -25.6455 -25.6323
   -25.6122 -25.5983 -25.5726 -25.5472 -25.5041 -25.4735 -25.4300 -25.4050
   -25.3606 -25.3553 -25.3442 -25.3091 -25.2959 -25.2839 -25.2381 -25.2317
   -25.1568 -25.1514 -25.1421 -25.1363 -25.0901 -25.0684 -25.0232 -24.9717
   -10.5446  -4.9512  -2.3830  -1.9570  -1.3782  -0.9306  -0.8174  -0.6152
    -0.4194  -0.1883  -0.1496  -0.0089   0.1492   0.2330   0.5102   0.5221
     0.5928   0.6108   0.7170   0.9372   1.0002   1.0425   1.1379   1.2238
     1.2873   1.3208   1.3728   1.4548   1.5580   1.6671   1.7274   1.8147
     1.8782   1.9141   1.9404   2.1859   2.3389

          k = 0.0519-0.0899 0.0000 ( 22914 PWs)   bands (ev):

   -47.6469 -47.6044 -47.5926 -47.5922 -47.5881 -47.5456 -47.5447 -47.4807
   -47.2823 -47.2803 -47.2567 -47.1997 -25.7707 -25.7596 -25.7418 -25.7208
   -25.7127 -25.7099 -25.6891 -25.6820 -25.6687 -25.6382 -25.6224 -25.6194
   -25.6179 -25.6124 -25.6067 -25.5931 -25.5818 -25.5517 -25.3649 -25.3639
   -25.3618 -25.3602 -25.3503 -25.3153 -25.3126 -25.2979 -25.2517 -25.2395
   -25.2250 -25.1542 -25.1394 -25.1324 -25.0717 -25.0453 -25.0238 -25.0238
   -10.5435  -4.9369  -2.2334  -1.5051  -1.4293  -1.3664  -0.7556  -0.5058
    -0.3418  -0.0868   0.3016   0.3171   0.3642   0.3973   0.4637   0.4912
     0.8462   0.8534   0.8875   0.9207   0.9376   0.9500   0.9581   0.9642
     0.9713   1.1411   1.2094   1.4224   1.4405   1.5572   1.5886   1.5991
     1.6258   1.7006   1.7995   1.8876   2.3280

          k = 0.0519-0.0599 0.0000 ( 22856 PWs)   bands (ev):

   -47.6469 -47.6112 -47.6087 -47.5880 -47.5713 -47.5486 -47.5384 -47.4820
   -47.2930 -47.2736 -47.2526 -47.1997 -25.8144 -25.7871 -25.7814 -25.7706
   -25.7494 -25.7196 -25.7059 -25.6852 -25.6640 -25.6579 -25.6477 -25.6365
   -25.6137 -25.5951 -25.5839 -25.5526 -25.5040 -25.4775 -25.4286 -25.3850
   -25.3571 -25.3456 -25.3286 -25.3181 -25.2959 -25.2806 -25.2617 -25.2363
   -25.1563 -25.1486 -25.1469 -25.1312 -25.0921 -25.0662 -25.0223 -24.9712
   -10.5455  -4.9177  -2.3883  -1.9891  -1.4290  -1.0804  -0.8090  -0.6229
    -0.3520  -0.2048  -0.0884   0.0008   0.1619   0.3766   0.5153   0.5261
     0.5789   0.6071   0.6722   0.9107   1.0110   1.0245   1.1469   1.2317
     1.2838   1.3342   1.3630   1.4427   1.5934   1.6812   1.7316   1.8072
     1.8836   1.9179   1.9532   2.1435   2.4074

          k =-0.0779 0.0450 0.0000 ( 22880 PWs)   bands (ev):

   -47.6461 -47.6110 -47.6034 -47.6009 -47.5585 -47.5555 -47.5373 -47.4824
   -47.2906 -47.2784 -47.2498 -47.2001 -25.8149 -25.8041 -25.7769 -25.7726
   -25.7642 -25.7435 -25.6961 -25.6837 -25.6545 -25.6539 -25.6102 -25.6009
   -25.5874 -25.5755 -25.5657 -25.5578 -25.5240 -25.5124 -25.5081 -25.4239
   -25.3514 -25.3417 -25.3015 -25.2999 -25.2860 -25.2564 -25.2269 -25.2210
   -25.1981 -25.1647 -25.1439 -25.1399 -25.1302 -25.0680 -24.9938 -24.9649
   -10.5457  -4.9116  -2.3466  -1.9275  -1.7385  -1.1035  -0.7331  -0.4187
    -0.2367  -0.1961  -0.1330  -0.0952  -0.0324   0.3526   0.6029   0.6376
     0.6835   0.6875   0.7168   0.7663   1.1065   1.1364   1.1626   1.1712
     1.2017   1.3283   1.4324   1.4993   1.5618   1.6366   1.6877   1.7389
     1.8209   1.9441   2.0283   2.3207   2.3360

          k =-0.0779 0.0749 0.0000 ( 22856 PWs)   bands (ev):

   -47.6485 -47.6107 -47.6058 -47.5880 -47.5713 -47.5486 -47.5412 -47.4810
   -47.2932 -47.2732 -47.2528 -47.1997 -25.8158 -25.7896 -25.7813 -25.7708
   -25.7471 -25.7184 -25.7065 -25.6880 -25.6658 -25.6573 -25.6506 -25.6307
   -25.6118 -25.5976 -25.5731 -25.5466 -25.5078 -25.4906 -25.4284 -25.3831
   -25.3586 -25.3464 -25.3272 -25.3210 -25.2958 -25.2789 -25.2590 -25.2337
   -25.1566 -25.1504 -25.1463 -25.1316 -25.0922 -25.0662 -25.0222 -24.9713
   -10.5454  -4.9227  -2.3872  -1.9788  -1.4351  -1.0390  -0.8112  -0.6481
    -0.3065  -0.2406  -0.1109  -0.0056   0.1603   0.3780   0.5014   0.5201
     0.5832   0.6091   0.6845   0.9266   1.0070   1.0282   1.1490   1.2262
     1.2779   1.3285   1.3644   1.4436   1.5900   1.6738   1.7301   1.8083
     1.8832   1.9159   1.9508   2.1608   2.3898

          k =-0.0779 0.1049 0.0000 ( 22856 PWs)   bands (ev):

   -47.6518 -47.6106 -47.5972 -47.5881 -47.5713 -47.5489 -47.5485 -47.4787
   -47.2938 -47.2718 -47.2538 -47.1996 -25.8256 -25.7934 -25.7890 -25.7655
   -25.7375 -25.7136 -25.7104 -25.6842 -25.6626 -25.6537 -25.6449 -25.6316
   -25.6174 -25.5991 -25.5774 -25.5482 -25.5039 -25.4688 -25.4299 -25.4043
   -25.3597 -25.3508 -25.3448 -25.3075 -25.2960 -25.2831 -25.2433 -25.2342
   -25.1559 -25.1502 -25.1432 -25.1353 -25.0902 -25.0684 -25.0232 -24.9715
   -10.5448  -4.9448  -2.3847  -1.9644  -1.3699  -0.9954  -0.8152  -0.5622
    -0.4673  -0.1716  -0.1070  -0.0018   0.1475   0.2233   0.5137   0.5250
     0.5935   0.6124   0.7106   0.9222   1.0044   1.0374   1.1357   1.2274
     1.2896   1.3254   1.3720   1.4528   1.5579   1.6755   1.7361   1.8118
     1.8803   1.9138   1.9458   2.1703   2.3497

          k =-0.0779-0.0450 0.0000 ( 22880 PWs)   bands (ev):

   -47.6530 -47.6037 -47.6009 -47.5929 -47.5587 -47.5553 -47.5527 -47.4778
   -47.2924 -47.2754 -47.2512 -47.1999 -25.8373 -25.8006 -25.7875 -25.7821
   -25.7429 -25.7245 -25.7083 -25.6759 -25.6594 -25.6372 -25.6301 -25.5974
   -25.5861 -25.5717 -25.5634 -25.5277 -25.5210 -25.5099 -25.5062 -25.4580
   -25.3633 -25.3345 -25.3174 -25.3001 -25.2979 -25.2297 -25.2211 -25.2180
   -25.1983 -25.1650 -25.1452 -25.1379 -25.1321 -25.0700 -24.9955 -24.9649
   -10.5445  -4.9559  -2.3471  -1.8593  -1.7222  -0.9137  -0.7030  -0.4351
    -0.2310  -0.2130  -0.1413  -0.0941  -0.0477   0.0629   0.5977   0.6542
     0.6814   0.7063   0.7282   0.7671   1.1017   1.1324   1.1448   1.1685
     1.2407   1.3176   1.4204   1.4847   1.6241   1.6585   1.7171   1.7410
     1.7885   1.9385   1.9766   2.2608   2.3528

     the Fermi energy is     1.6304 ev

!    total energy              =   -1210.92117545 Ry
     Harris-Foulkes estimate   =   -1210.92117426 Ry
     estimated scf accuracy    <       0.00000057 Ry

     The total energy is the sum of the following terms:

     one-electron contribution =   -8449.84714512 Ry
     hartree contribution      =    4218.48397180 Ry
     xc contribution           =    -225.75433945 Ry
     ewald contribution        =    3246.31367974 Ry
     electric field correction =       0.00001379 Ry
     smearing contrib. (-TS)   =      -0.11735621 Ry

     convergence has been achieved in  18 iterations
 
 BEEF-vdW xc energy contributions
           1 :   -193.263844918397     
           2 :    174.827093207498     
           3 :   -143.802360287278     
           4 :    108.960665148815     
           5 :   -78.1698136571386     
           6 :    55.6669523707959     
           7 :   -41.4258420293598     
           8 :    32.5072314012347     
           9 :   -25.3561393168893     
          10 :    17.7411610453279     
          11 :   -9.47764272764343     
          12 :    1.86901581864007     
          13 :    3.53038988604288     
          14 :   -6.01044040720225     
          15 :    6.08598523947688     
          16 :   -5.08624425147295     
          17 :    4.32396759292556     
          18 :   -4.39628263010229     
          19 :    5.01623122920438     
          20 :   -5.40513361805731     
          21 :    4.92843990320293     
          22 :   -3.54421589112067     
          23 :    1.80252561456120     
          24 :  -0.452513755882762     
          25 :  -4.069841476533043E-002
          26 :  -0.252488741706316     
          27 :   0.838068186520530     
          28 :   -1.15916300612540     
          29 :   0.950126161114639     
          30 :  -0.364059500697266     
          31 :   -22.4902787996530     
          32 :   -16.7550747992414     

     Forces acting on atoms (Ry/au):


     negative rho (up, down):  7.498E-01 0.000E+00
     atom    1 type  1   force =    -0.00019619    0.00003119    0.01464708
     atom    2 type  1   force =    -0.00021450    0.00091893    0.01491798
     atom    3 type  1   force =     0.00061238   -0.00051223    0.01513049
     atom    4 type  1   force =    -0.00094853   -0.00044499    0.01483440
     atom    5 type  1   force =    -0.00118805   -0.00044984   -0.00164430
     atom    6 type  1   force =     0.00216442    0.00233117   -0.00191303
     atom    7 type  1   force =     0.00171077   -0.00003371   -0.00506470
     atom    8 type  1   force =    -0.00191784   -0.00182741   -0.00186374
     atom    9 type  1   force =     0.02272472    0.01574281    0.02030500
     atom   10 type  1   force =     0.00020305   -0.00231153    0.00017600
     atom   11 type  1   force =    -0.00426475   -0.01265705    0.01057624
     atom   12 type  1   force =     0.00375135   -0.00025806   -0.02426435
     atom   13 type  2   force =    -0.01776269   -0.00044607   -0.08364744
     atom   14 type  3   force =     0.00323105    0.00532458    0.01357484
     atom   15 type  3   force =    -0.00790519   -0.00540780    0.01423554

     Total force =     0.099525     Total SCF correction =     0.002775


     entering subroutine stress ...


     negative rho (up, down):  7.498E-01 0.000E+00
          total   stress  (Ry/bohr**3)                   (kbar)     P=  -11.95
  -0.00006585  -0.00000403  -0.00001168         -9.69     -0.59     -1.72
  -0.00000403  -0.00006656  -0.00000029         -0.59     -9.79     -0.04
  -0.00001168  -0.00000029  -0.00011120         -1.72     -0.04    -16.36


     BFGS Geometry Optimization

     number of scf cycles    =   1
     number of bfgs steps    =   0

     energy   new            =   -1210.9211754476 Ry

     new trust radius        =       0.0855137804 bohr
     new conv_thr            =       0.0000099958 Ry


ATOMIC_POSITIONS (crystal)
Zr1      0.166666667   0.166666667   0.396150897    0   0   0
Zr1      0.666666667   0.166666667   0.396150897    0   0   0
Zr1      0.166666667   0.666666667   0.396150897    0   0   0
Zr1      0.666666667   0.666666667   0.396150897    0   0   0
Zr1      0.833333333   0.333333333   0.500000000    0   0   0
Zr1      0.333333333   0.333333333   0.500000000    0   0   0
Zr1      0.833333333   0.833333333   0.500000000    0   0   0
Zr1      0.333333333   0.833333333   0.500000000    0   0   0
Zr1      0.001123719   0.001498080   0.604274765
Zr1      0.500126715  -0.000219964   0.603852792
Zr1      0.000250759   0.498795560   0.604070817
Zr1      0.500321429   0.499975443   0.603340439
C1       0.165224055   0.166624219   0.666727587
H1       0.208146674   0.280463511   0.693723203
H1       0.124805420   0.052861903   0.693737054



     Writing output data file calc.save
     Check: negative starting charge=   -0.729022
     NEW-OLD atomic charge density approx. for the potential
     Check: negative starting charge=   -0.728353

     negative rho (up, down):  7.491E-01 0.000E+00
 
     Adding external electric field

     Computed dipole along edir(3) : 
        Dipole                0.0817 Ry au,          0.2077 Debye
        Dipole field          0.0002 Ry au
 
        Potential amp.       -0.0157 Ry
        Total length         46.5096 bohr
 

     total cpu time spent up to now is      271.7 secs

     per-process dynamical memory:    46.9 Mb

     Self-consistent Calculation

     iteration #  1     ecut=    36.75 Ry     beta=0.30
     Davidson diagonalization with overlap
     ethr =  1.00E-06,  avg # of iterations =  7.9

     negative rho (up, down):  7.491E-01 0.000E+00
 
     Adding external electric field

     Computed dipole along edir(3) : 
        Dipole                0.0833 Ry au,          0.2116 Debye
        Dipole field          0.0002 Ry au
 
        Potential amp.       -0.0160 Ry
        Total length         46.5096 bohr
 

     total cpu time spent up to now is      291.3 secs

     total energy              =   -1210.92707891 Ry
     Harris-Foulkes estimate   =   -1210.92877090 Ry
     estimated scf accuracy    <       0.00411380 Ry

     iteration #  2     ecut=    36.75 Ry     beta=0.30
     Davidson diagonalization with overlap
     ethr =  2.74E-06,  avg # of iterations =  5.3

     negative rho (up, down):  7.491E-01 0.000E+00
 
     Adding external electric field

     Computed dipole along edir(3) : 
        Dipole                0.1580 Ry au,          0.4015 Debye
        Dipole field          0.0003 Ry au
 
        Potential amp.       -0.0304 Ry
        Total length         46.5096 bohr
 

     total cpu time spent up to now is      305.1 secs

     total energy              =   -1210.92429411 Ry
     Harris-Foulkes estimate   =   -1210.92946283 Ry
     estimated scf accuracy    <       0.16187788 Ry

     iteration #  3     ecut=    36.75 Ry     beta=0.30
     Davidson diagonalization with overlap
     ethr =  2.74E-06,  avg # of iterations =  5.8

     negative rho (up, down):  7.491E-01 0.000E+00
 
     Adding external electric field

     Computed dipole along edir(3) : 
        Dipole                0.1012 Ry au,          0.2573 Debye
        Dipole field          0.0002 Ry au
 
        Potential amp.       -0.0195 Ry
        Total length         46.5096 bohr
 

     total cpu time spent up to now is      318.7 secs

     total energy              =   -1210.92669484 Ry
     Harris-Foulkes estimate   =   -1210.92885456 Ry
     estimated scf accuracy    <       0.09289551 Ry

     iteration #  4     ecut=    36.75 Ry     beta=0.30
     Davidson diagonalization with overlap
     ethr =  2.74E-06,  avg # of iterations =  5.2

     negative rho (up, down):  7.491E-01 0.000E+00
 
     Adding external electric field

     Computed dipole along edir(3) : 
        Dipole                0.1023 Ry au,          0.2600 Debye
        Dipole field          0.0002 Ry au
 
        Potential amp.       -0.0197 Ry
        Total length         46.5096 bohr
 

     total cpu time spent up to now is      331.3 secs

     total energy              =   -1210.92749581 Ry
     Harris-Foulkes estimate   =   -1210.92789141 Ry
     estimated scf accuracy    <       0.00233343 Ry

     iteration #  5     ecut=    36.75 Ry     beta=0.30
     Davidson diagonalization with overlap
     ethr =  1.56E-06,  avg # of iterations =  3.4

     negative rho (up, down):  7.491E-01 0.000E+00
 
     Adding external electric field

     Computed dipole along edir(3) : 
        Dipole                0.1039 Ry au,          0.2640 Debye
        Dipole field          0.0002 Ry au
 
        Potential amp.       -0.0200 Ry
        Total length         46.5096 bohr
 

     total cpu time spent up to now is      342.4 secs

     total energy              =   -1210.92758800 Ry
     Harris-Foulkes estimate   =   -1210.92786439 Ry
     estimated scf accuracy    <       0.00238692 Ry

     iteration #  6     ecut=    36.75 Ry     beta=0.30
     Davidson diagonalization with overlap
     ethr =  1.56E-06,  avg # of iterations =  3.0

     negative rho (up, down):  7.491E-01 0.000E+00
 
     Adding external electric field

     Computed dipole along edir(3) : 
        Dipole                0.1055 Ry au,          0.2681 Debye
        Dipole field          0.0002 Ry au
 
        Potential amp.       -0.0203 Ry
        Total length         46.5096 bohr
 

     total cpu time spent up to now is      352.3 secs

     total energy              =   -1210.92770538 Ry
     Harris-Foulkes estimate   =   -1210.92774260 Ry
     estimated scf accuracy    <       0.00018564 Ry

     iteration #  7     ecut=    36.75 Ry     beta=0.30
     Davidson diagonalization with overlap
     ethr =  1.24E-07,  avg # of iterations =  4.3

     negative rho (up, down):  7.491E-01 0.000E+00
 
     Adding external electric field

     Computed dipole along edir(3) : 
        Dipole                0.1028 Ry au,          0.2614 Debye
        Dipole field          0.0002 Ry au
 
        Potential amp.       -0.0198 Ry
        Total length         46.5096 bohr
 

     total cpu time spent up to now is      364.5 secs

     total energy              =   -1210.92773703 Ry
     Harris-Foulkes estimate   =   -1210.92773978 Ry
     estimated scf accuracy    <       0.00003318 Ry

     iteration #  8     ecut=    36.75 Ry     beta=0.30
     Davidson diagonalization with overlap
     ethr =  2.21E-08,  avg # of iterations =  3.5

     negative rho (up, down):  7.492E-01 0.000E+00
 
     Adding external electric field

     Computed dipole along edir(3) : 
        Dipole                0.1021 Ry au,          0.2596 Debye
        Dipole field          0.0002 Ry au
 
        Potential amp.       -0.0196 Ry
        Total length         46.5096 bohr
 

     total cpu time spent up to now is      375.6 secs

     total energy              =   -1210.92774003 Ry
     Harris-Foulkes estimate   =   -1210.92774092 Ry
     estimated scf accuracy    <       0.00001047 Ry

     iteration #  9     ecut=    36.75 Ry     beta=0.30
     Davidson diagonalization with overlap
     ethr =  6.98E-09,  avg # of iterations =  3.5

     negative rho (up, down):  7.492E-01 0.000E+00

     negative rho (up, down):  7.492E-01 0.000E+00

     negative rho (up, down):  7.492E-01 0.000E+00

     negative rho (up, down):  7.492E-01 0.000E+00

     negative rho (up, down):  7.492E-01 0.000E+00

     negative rho (up, down):  7.492E-01 0.000E+00

     negative rho (up, down):  7.492E-01 0.000E+00

     negative rho (up, down):  7.492E-01 0.000E+00

     negative rho (up, down):  7.492E-01 0.000E+00

     negative rho (up, down):  7.492E-01 0.000E+00

     negative rho (up, down):  7.492E-01 0.000E+00

     negative rho (up, down):  7.492E-01 0.000E+00

     negative rho (up, down):  7.492E-01 0.000E+00

     negative rho (up, down):  7.492E-01 0.000E+00

     negative rho (up, down):  7.492E-01 0.000E+00

     negative rho (up, down):  7.492E-01 0.000E+00

     negative rho (up, down):  7.492E-01 0.000E+00

     negative rho (up, down):  7.492E-01 0.000E+00

     negative rho (up, down):  7.492E-01 0.000E+00

     negative rho (up, down):  7.492E-01 0.000E+00

     negative rho (up, down):  7.492E-01 0.000E+00

     negative rho (up, down):  7.492E-01 0.000E+00

     negative rho (up, down):  7.492E-01 0.000E+00

     negative rho (up, down):  7.492E-01 0.000E+00

     negative rho (up, down):  7.492E-01 0.000E+00

     negative rho (up, down):  7.492E-01 0.000E+00

     negative rho (up, down):  7.492E-01 0.000E+00

     negative rho (up, down):  7.492E-01 0.000E+00

     negative rho (up, down):  7.492E-01 0.000E+00

     negative rho (up, down):  7.492E-01 0.000E+00

     negative rho (up, down):  7.492E-01 0.000E+00

     negative rho (up, down):  7.492E-01 0.000E+00

     negative rho (up, down):  7.492E-01 0.000E+00

     negative rho (up, down):  7.492E-01 0.000E+00

     negative rho (up, down):  7.492E-01 0.000E+00
 
     Adding external electric field

     Computed dipole along edir(3) : 
        Dipole                0.0999 Ry au,          0.2539 Debye
        Dipole field          0.0002 Ry au
 
        Potential amp.       -0.0192 Ry
        Total length         46.5096 bohr
 

     total cpu time spent up to now is      401.4 secs

     End of self-consistent calculation

          k = 0.0000 0.0000 0.0000 ( 22923 PWs)   bands (ev):

   -47.6347 -47.6216 -47.5659 -47.5340 -47.5339 -47.5291 -47.5129 -47.4505
   -47.2962 -47.2242 -47.2234 -47.1734 -25.9236 -25.9159 -25.9040 -25.8755
   -25.8683 -25.8441 -25.8330 -25.7577 -25.7333 -25.7201 -25.6482 -25.5675
   -25.5377 -25.5019 -25.4041 -25.3945 -25.3726 -25.3665 -25.3597 -25.3569
   -25.3509 -25.3352 -25.3077 -25.1916 -25.1914 -25.1624 -25.1512 -25.1378
   -25.1367 -25.1254 -25.0676 -25.0394 -25.0261 -25.0254 -24.8778 -24.8770
   -10.4736  -4.7165  -3.3714  -2.6925  -1.8682  -1.2691  -1.1081  -0.8925
    -0.8648  -0.8258  -0.7649  -0.6223  -0.5469  -0.3131  -0.2262  -0.1811
    -0.1331   0.2413   0.2728   0.7433   1.0075   1.4025   1.6000   1.8351
     1.8541   1.9200   2.0261   2.2595   2.3278   2.3433   2.3465   2.5580
     2.5822   2.6317   2.7925   2.8200   2.8240

          k = 0.0000 0.0300 0.0000 ( 22902 PWs)   bands (ev):

   -47.6301 -47.6158 -47.5683 -47.5390 -47.5340 -47.5301 -47.5135 -47.4521
   -47.2912 -47.2277 -47.2237 -47.1747 -25.8963 -25.8864 -25.8693 -25.8485
   -25.8369 -25.8213 -25.8075 -25.7407 -25.7166 -25.7006 -25.6434 -25.5791
   -25.5457 -25.5118 -25.3941 -25.3917 -25.3856 -25.3817 -25.3771 -25.3616
   -25.3567 -25.3460 -25.3119 -25.2454 -25.2110 -25.2027 -25.1651 -25.1338
   -25.1313 -25.1159 -25.0617 -25.0595 -25.0503 -25.0196 -24.9224 -24.8875
   -10.4701  -4.7232  -3.1969  -2.5795  -1.7194  -1.1018  -1.0204  -0.8754
    -0.7606  -0.7317  -0.6580  -0.5282  -0.3892  -0.1598  -0.0943  -0.0579
    -0.0214   0.3012   0.3350   0.7809   0.9712   1.3444   1.5647   1.7703
     1.8533   1.9617   1.9835   2.1116   2.1555   2.1782   2.2567   2.3722
     2.5027   2.6390   2.6796   2.6961   2.7341

          k = 0.0000 0.0599 0.0000 ( 22852 PWs)   bands (ev):

   -47.6190 -47.5998 -47.5749 -47.5551 -47.5340 -47.5305 -47.5148 -47.4553
   -47.2777 -47.2388 -47.2237 -47.1772 -25.8364 -25.8213 -25.7917 -25.7840
   -25.7759 -25.7533 -25.7082 -25.6978 -25.6805 -25.6619 -25.6318 -25.6041
   -25.5647 -25.5330 -25.4562 -25.4516 -25.4502 -25.4234 -25.3795 -25.3567
   -25.3442 -25.3340 -25.3179 -25.3126 -25.2884 -25.2334 -25.1914 -25.1349
   -25.1263 -25.1146 -25.1109 -25.1040 -25.0514 -25.0390 -24.9942 -24.9144
   -10.4632  -4.7354  -2.7635  -2.2971  -1.3563  -1.1849  -0.8211  -0.6012
    -0.5099  -0.4265  -0.3533  -0.2436  -0.0985   0.1398   0.2650   0.3095
     0.3371   0.5135   0.5503   0.8489   0.9597   1.1891   1.3059   1.5132
     1.5706   1.6121   1.6651   1.7707   1.9646   1.9959   2.0615   2.1299
     2.1860   2.1976   2.2601   2.3549   2.4712

          k = 0.0000-0.0899 0.0000 ( 22880 PWs)   bands (ev):

   -47.6114 -47.5809 -47.5787 -47.5758 -47.5340 -47.5306 -47.5155 -47.4569
   -47.2648 -47.2508 -47.2237 -47.1783 -25.7973 -25.7776 -25.7537 -25.7492
   -25.7293 -25.7199 -25.6726 -25.6536 -25.6351 -25.6226 -25.5866 -25.5677
   -25.5569 -25.5454 -25.5388 -25.5286 -25.4940 -25.4864 -25.4575 -25.4495
   -25.3316 -25.3071 -25.2830 -25.2753 -25.2707 -25.2126 -25.1998 -25.1936
   -25.1714 -25.1412 -25.1193 -25.1109 -25.1054 -25.0485 -24.9681 -24.9409
   -10.4597  -4.7410  -2.4989  -1.8642  -1.7353  -1.0130  -0.7199  -0.4463
    -0.2121  -0.1769  -0.1120  -0.0671  -0.0226   0.2221   0.6230   0.6736
     0.7051   0.7305   0.7407   0.7942   1.1310   1.1620   1.1775   1.1917
     1.2437   1.3546   1.4467   1.5181   1.6352   1.6606   1.7221   1.7481
     1.8481   1.9623   2.0390   2.3141   2.3712

          k = 0.0260-0.0150 0.0000 ( 22902 PWs)   bands (ev):

   -47.6299 -47.6158 -47.5688 -47.5390 -47.5340 -47.5301 -47.5130 -47.4523
   -47.2912 -47.2279 -47.2235 -47.1747 -25.8924 -25.8887 -25.8704 -25.8446
   -25.8397 -25.8204 -25.8100 -25.7403 -25.7171 -25.7004 -25.6435 -25.5796
   -25.5450 -25.5119 -25.3931 -25.3914 -25.3858 -25.3826 -25.3783 -25.3711
   -25.3509 -25.3453 -25.3093 -25.2453 -25.2030 -25.2025 -25.1725 -25.1332
   -25.1321 -25.1159 -25.0619 -25.0607 -25.0491 -25.0194 -24.9226 -24.8872
   -10.4703  -4.7154  -3.2004  -2.5800  -1.7275  -1.1274  -1.0241  -0.8741
    -0.7606  -0.7362  -0.6275  -0.5454  -0.3856  -0.1277  -0.0966  -0.0680
    -0.0153   0.2814   0.3374   0.7735   0.9814   1.3519   1.5649   1.7753
     1.8753   1.9246   1.9937   2.1134   2.1538   2.1785   2.2563   2.3806
     2.5118   2.6361   2.6883   2.6961   2.7189

          k = 0.0260 0.0150 0.0000 ( 22902 PWs)   bands (ev):

   -47.6309 -47.6158 -47.5656 -47.5391 -47.5339 -47.5301 -47.5162 -47.4513
   -47.2912 -47.2273 -47.2241 -47.1747 -25.8998 -25.8841 -25.8688 -25.8517
   -25.8328 -25.8218 -25.8074 -25.7417 -25.7143 -25.7023 -25.6432 -25.5726
   -25.5540 -25.5106 -25.3972 -25.3899 -25.3861 -25.3794 -25.3787 -25.3651
   -25.3493 -25.3370 -25.3226 -25.2454 -25.2141 -25.2027 -25.1617 -25.1332
   -25.1318 -25.1161 -25.0614 -25.0598 -25.0506 -25.0200 -24.9220 -24.8879
   -10.4700  -4.7296  -3.1932  -2.5788  -1.7122  -1.0924  -0.9919  -0.8799
    -0.7605  -0.7211  -0.6958  -0.5146  -0.3931  -0.1891  -0.0941  -0.0506
    -0.0265   0.3162   0.3336   0.7866   0.9632   1.3350   1.5635   1.7642
     1.8369   1.9703   1.9992   2.1100   2.1649   2.1696   2.2540   2.3620
     2.4961   2.6479   2.6702   2.6965   2.7268

          k = 0.0260 0.0450 0.0000 ( 22896 PWs)   bands (ev):

   -47.6239 -47.6049 -47.5678 -47.5453 -47.5424 -47.5267 -47.5192 -47.4531
   -47.2819 -47.2337 -47.2253 -47.1765 -25.8605 -25.8241 -25.8173 -25.8009
   -25.7936 -25.7672 -25.7456 -25.7155 -25.6889 -25.6728 -25.6349 -25.5906
   -25.5712 -25.5229 -25.4703 -25.4502 -25.3767 -25.3741 -25.3619 -25.3590
   -25.3494 -25.3378 -25.3334 -25.3106 -25.2949 -25.2267 -25.1838 -25.1305
   -25.1290 -25.1231 -25.1109 -25.0537 -25.0390 -25.0308 -24.9983 -24.9095
   -10.4646  -4.7452  -2.8808  -2.3810  -1.4187  -0.9109  -0.8698  -0.7897
    -0.6978  -0.5475  -0.4904  -0.2756  -0.1341   0.0527   0.1455   0.1688
     0.2052   0.4480   0.5031   0.8460   0.9046   1.2463   1.4436   1.5511
     1.6488   1.6984   1.8112   1.8548   2.0160   2.0623   2.1240   2.2118
     2.2628   2.3262   2.3585   2.4514   2.5707

          k = 0.0260-0.1049 0.0000 ( 22856 PWs)   bands (ev):

   -47.6137 -47.5859 -47.5756 -47.5633 -47.5467 -47.5239 -47.5190 -47.4558
   -47.2670 -47.2459 -47.2269 -47.1779 -25.7942 -25.7650 -25.7566 -25.7436
   -25.7187 -25.6966 -25.6792 -25.6601 -25.6403 -25.6282 -25.6246 -25.6012
   -25.5879 -25.5736 -25.5336 -25.5256 -25.4819 -25.4619 -25.4036 -25.3754
   -25.3336 -25.3241 -25.3076 -25.2932 -25.2709 -25.2558 -25.2195 -25.2068
   -25.1314 -25.1254 -25.1172 -25.1073 -25.0665 -25.0467 -24.9971 -24.9469
   -10.4596  -4.7465  -2.5138  -1.9836  -1.3889  -0.9564  -0.8030  -0.6519
    -0.3292  -0.2286  -0.1151   0.0092   0.1767   0.3192   0.5283   0.5441
     0.6117   0.6380   0.7318   0.9619   1.0262   1.0634   1.1709   1.2466
     1.3047   1.3440   1.3971   1.4777   1.5963   1.6885   1.7526   1.8392
     1.9050   1.9414   1.9706   2.2063   2.3744

          k = 0.0260-0.0749 0.0000 ( 22856 PWs)   bands (ev):

   -47.6114 -47.5860 -47.5803 -47.5633 -47.5467 -47.5239 -47.5154 -47.4569
   -47.2668 -47.2462 -47.2267 -47.1779 -25.7916 -25.7632 -25.7563 -25.7426
   -25.7200 -25.6988 -25.6783 -25.6567 -25.6390 -25.6280 -25.6230 -25.6073
   -25.5872 -25.5731 -25.5552 -25.5285 -25.4787 -25.4431 -25.4038 -25.3774
   -25.3316 -25.3220 -25.3066 -25.2896 -25.2712 -25.2565 -25.2278 -25.2106
   -25.1300 -25.1230 -25.1184 -25.1060 -25.0666 -25.0468 -24.9970 -24.9467
   -10.4599  -4.7334  -2.5163  -2.0055  -1.3739  -1.0711  -0.7923  -0.5818
    -0.4040  -0.1652  -0.0602   0.0143   0.1780   0.3094   0.5391   0.5542
     0.6131   0.6361   0.7139   0.9328   1.0339   1.0530   1.1718   1.2551
     1.3133   1.3524   1.3922   1.4783   1.6032   1.7006   1.7594   1.8370
     1.9063   1.9437   1.9758   2.1758   2.4076

          k = 0.0260-0.0450 0.0000 ( 22896 PWs)   bands (ev):

   -47.6212 -47.6049 -47.5752 -47.5452 -47.5425 -47.5267 -47.5124 -47.4552
   -47.2818 -47.2345 -47.2246 -47.1765 -25.8551 -25.8227 -25.8146 -25.8025
   -25.7930 -25.7703 -25.7502 -25.7144 -25.6911 -25.6702 -25.6351 -25.6001
   -25.5596 -25.5262 -25.4705 -25.4650 -25.3742 -25.3658 -25.3608 -25.3558
   -25.3478 -25.3347 -25.3307 -25.3242 -25.2816 -25.2268 -25.1929 -25.1315
   -25.1288 -25.1250 -25.1088 -25.0544 -25.0374 -25.0303 -24.9984 -24.9089
   -10.4653  -4.7179  -2.8951  -2.3854  -1.4757  -1.0205  -0.8687  -0.8082
    -0.6815  -0.5130  -0.4273  -0.2672  -0.1232   0.0972   0.1381   0.1995
     0.2625   0.3831   0.4501   0.8312   0.9493   1.2499   1.4429   1.5637
     1.6584   1.7277   1.8027   1.8532   2.0078   2.0733   2.1144   2.2277
     2.2453   2.3501   2.3573   2.4166   2.5255

          k = 0.0519-0.0300 0.0000 ( 22852 PWs)   bands (ev):

   -47.6181 -47.5998 -47.5770 -47.5551 -47.5340 -47.5305 -47.5131 -47.4559
   -47.2776 -47.2391 -47.2235 -47.1772 -25.8300 -25.8228 -25.7862 -25.7846
   -25.7779 -25.7561 -25.7113 -25.6992 -25.6810 -25.6606 -25.6326 -25.6059
   -25.5641 -25.5325 -25.4573 -25.4527 -25.4492 -25.4373 -25.3785 -25.3506
   -25.3479 -25.3248 -25.3172 -25.3058 -25.2826 -25.2337 -25.2022 -25.1350
   -25.1273 -25.1142 -25.1105 -25.1052 -25.0515 -25.0379 -24.9937 -24.9142
   -10.4638  -4.7132  -2.7717  -2.3023  -1.4159  -1.1989  -0.8597  -0.5826
    -0.5008  -0.4291  -0.3156  -0.2660  -0.0945   0.2191   0.2740   0.3082
     0.3701   0.4532   0.5288   0.8350   0.9859   1.2004   1.3059   1.5131
     1.5834   1.6233   1.6503   1.7687   1.9602   1.9932   2.0730   2.1303
     2.1814   2.1884   2.2753   2.3689   2.4480

          k = 0.0519 0.0000 0.0000 ( 22896 PWs)   bands (ev):

   -47.6234 -47.6049 -47.5692 -47.5453 -47.5423 -47.5267 -47.5179 -47.4535
   -47.2819 -47.2340 -47.2250 -47.1765 -25.8578 -25.8242 -25.8155 -25.8015
   -25.7928 -25.7674 -25.7496 -25.7151 -25.6891 -25.6723 -25.6353 -25.5925
   -25.5686 -25.5256 -25.4708 -25.4554 -25.3755 -25.3696 -25.3635 -25.3599
   -25.3495 -25.3371 -25.3335 -25.3138 -25.2817 -25.2267 -25.1908 -25.1310
   -25.1285 -25.1246 -25.1098 -25.0543 -25.0382 -25.0305 -24.9983 -24.9093
   -10.4650  -4.7303  -2.8876  -2.3829  -1.4462  -0.9781  -0.8695  -0.8042
    -0.6814  -0.5165  -0.4650  -0.2722  -0.1276   0.0767   0.1396   0.1945
     0.2092   0.4372   0.4637   0.8351   0.9328   1.2462   1.4426   1.5560
     1.6516   1.7130   1.8081   1.8543   2.0125   2.0634   2.1231   2.2222
     2.2530   2.3371   2.3565   2.4386   2.5417

          k = 0.0519 0.0300 0.0000 ( 22852 PWs)   bands (ev):

   -47.6225 -47.5998 -47.5647 -47.5552 -47.5339 -47.5306 -47.5240 -47.4528
   -47.2778 -47.2384 -47.2241 -47.1772 -25.8437 -25.8193 -25.7948 -25.7875
   -25.7688 -25.7483 -25.7082 -25.6979 -25.6798 -25.6628 -25.6323 -25.5884
   -25.5821 -25.5331 -25.4600 -25.4535 -25.4496 -25.4085 -25.3795 -25.3606
   -25.3438 -25.3240 -25.3202 -25.3134 -25.3047 -25.2333 -25.1845 -25.1339
   -25.1258 -25.1146 -25.1128 -25.1034 -25.0522 -25.0390 -24.9947 -24.9147
   -10.4628  -4.7529  -2.7546  -2.2922  -1.3140  -1.1563  -0.7359  -0.6396
    -0.5367  -0.4223  -0.3951  -0.2286  -0.0953   0.0450   0.2625   0.3126
     0.3301   0.5166   0.5884   0.8796   0.9224   1.1756   1.3031   1.5131
     1.5525   1.6017   1.6788   1.7729   1.9634   2.0086   2.0451   2.1308
     2.1894   2.2105   2.2409   2.3489   2.5028

          k = 0.0519-0.1199 0.0000 ( 22856 PWs)   bands (ev):

   -47.6168 -47.5858 -47.5676 -47.5634 -47.5466 -47.5256 -47.5239 -47.4541
   -47.2672 -47.2454 -47.2272 -47.1778 -25.7991 -25.7671 -25.7606 -25.7409
   -25.7128 -25.6892 -25.6821 -25.6597 -25.6393 -25.6263 -25.6209 -25.6074
   -25.5881 -25.5738 -25.5462 -25.5239 -25.4796 -25.4477 -25.4050 -25.3786
   -25.3340 -25.3271 -25.3179 -25.2844 -25.2710 -25.2581 -25.2134 -25.2084
   -25.1310 -25.1253 -25.1156 -25.1097 -25.0656 -25.0476 -24.9975 -24.9471
   -10.4593  -4.7577  -2.5107  -1.9762  -1.3562  -0.9110  -0.8149  -0.6167
    -0.4251  -0.1817  -0.1269   0.0087   0.1704   0.2552   0.5340   0.5469
     0.6173   0.6355   0.7415   0.9585   1.0260   1.0677   1.1629   1.2487
     1.3126   1.3412   1.3990   1.4824   1.5813   1.6863   1.7536   1.8407
     1.9029   1.9437   1.9690   2.2090   2.3555

          k = 0.0519-0.0899 0.0000 ( 22914 PWs)   bands (ev):

   -47.6104 -47.5770 -47.5679 -47.5677 -47.5633 -47.5209 -47.5206 -47.4562
   -47.2551 -47.2540 -47.2307 -47.1778 -25.7414 -25.7329 -25.7157 -25.6942
   -25.6868 -25.6824 -25.6627 -25.6548 -25.6439 -25.6143 -25.5982 -25.5944
   -25.5933 -25.5876 -25.5816 -25.5671 -25.5562 -25.5306 -25.3393 -25.3388
   -25.3359 -25.3338 -25.3227 -25.2894 -25.2872 -25.2736 -25.2255 -25.2152
   -25.2014 -25.1276 -25.1122 -25.1062 -25.0503 -25.0196 -24.9997 -24.9993
   -10.4581  -4.7409  -2.4093  -1.4903  -1.4025  -1.3542  -0.7715  -0.4776
    -0.3267  -0.1107   0.3268   0.3420   0.3893   0.4224   0.4864   0.5107
     0.8662   0.8788   0.9132   0.9412   0.9604   0.9775   0.9830   0.9911
     0.9972   1.1653   1.2281   1.4492   1.4640   1.5928   1.6147   1.6247
     1.6512   1.7267   1.8250   1.9122   2.3516

          k = 0.0519-0.0599 0.0000 ( 22856 PWs)   bands (ev):

   -47.6103 -47.5861 -47.5820 -47.5633 -47.5467 -47.5239 -47.5142 -47.4573
   -47.2666 -47.2466 -47.2265 -47.1779 -25.7885 -25.7594 -25.7543 -25.7444
   -25.7238 -25.6953 -25.6781 -25.6592 -25.6392 -25.6311 -25.6232 -25.6103
   -25.5881 -25.5714 -25.5569 -25.5288 -25.4795 -25.4520 -25.4037 -25.3608
   -25.3312 -25.3210 -25.3024 -25.2920 -25.2712 -25.2545 -25.2368 -25.2108
   -25.1300 -25.1232 -25.1197 -25.1046 -25.0684 -25.0449 -24.9966 -24.9466
   -10.4603  -4.7189  -2.5181  -2.0164  -1.4156  -1.0801  -0.7924  -0.6125
    -0.3436  -0.1859  -0.0689   0.0144   0.1850   0.3841   0.5388   0.5504
     0.6003   0.6333   0.7010   0.9370   1.0374   1.0470   1.1760   1.2556
     1.3097   1.3544   1.3900   1.4723   1.6165   1.7000   1.7555   1.8352
     1.9084   1.9433   1.9785   2.1702   2.4427

          k =-0.0779 0.0450 0.0000 ( 22880 PWs)   bands (ev):

   -47.6092 -47.5844 -47.5789 -47.5759 -47.5340 -47.5306 -47.5131 -47.4577
   -47.2642 -47.2515 -47.2235 -47.1783 -25.7876 -25.7795 -25.7474 -25.7445
   -25.7394 -25.7215 -25.6693 -25.6576 -25.6306 -25.6274 -25.5854 -25.5711
   -25.5594 -25.5523 -25.5404 -25.5331 -25.4999 -25.4871 -25.4830 -25.4024
   -25.3240 -25.3189 -25.2763 -25.2752 -25.2565 -25.2328 -25.2013 -25.1939
   -25.1717 -25.1410 -25.1184 -25.1132 -25.1043 -25.0474 -24.9672 -24.9410
   -10.4606  -4.7121  -2.5016  -1.9083  -1.7426  -1.1052  -0.7239  -0.4313
    -0.2108  -0.1696  -0.1090  -0.0694  -0.0147   0.3482   0.6269   0.6659
     0.7062   0.7072   0.7448   0.7943   1.1351   1.1665   1.1889   1.1967
     1.2214   1.3566   1.4528   1.5280   1.5818   1.6591   1.7100   1.7602
     1.8529   1.9640   2.0615   2.3451   2.3616

          k =-0.0779 0.0749 0.0000 ( 22856 PWs)   bands (ev):

   -47.6125 -47.5859 -47.5782 -47.5633 -47.5467 -47.5239 -47.5170 -47.4564
   -47.2667 -47.2464 -47.2267 -47.1779 -25.7895 -25.7621 -25.7535 -25.7452
   -25.7211 -25.6944 -25.6788 -25.6619 -25.6404 -25.6313 -25.6257 -25.6050
   -25.5872 -25.5737 -25.5479 -25.5224 -25.4824 -25.4636 -25.4035 -25.3592
   -25.3326 -25.3217 -25.3004 -25.2953 -25.2710 -25.2522 -25.2348 -25.2088
   -25.1304 -25.1248 -25.1193 -25.1050 -25.0685 -25.0449 -24.9966 -24.9468
   -10.4602  -4.7249  -2.5171  -2.0037  -1.4214  -1.0371  -0.7953  -0.6385
    -0.3028  -0.2214  -0.0926   0.0116   0.1835   0.3862   0.5266   0.5425
     0.6043   0.6375   0.7104   0.9520   1.0320   1.0522   1.1746   1.2510
     1.3037   1.3498   1.3925   1.4713   1.6123   1.6952   1.7569   1.8341
     1.9084   1.9410   1.9793   2.1855   2.4184

          k =-0.0779 0.1049 0.0000 ( 22856 PWs)   bands (ev):

   -47.6165 -47.5859 -47.5685 -47.5634 -47.5466 -47.5248 -47.5239 -47.4543
   -47.2671 -47.2456 -47.2271 -47.1778 -25.7977 -25.7667 -25.7608 -25.7401
   -25.7118 -25.6886 -25.6837 -25.6588 -25.6377 -25.6280 -25.6208 -25.6064
   -25.5915 -25.5749 -25.5525 -25.5237 -25.4794 -25.4435 -25.4048 -25.3778
   -25.3333 -25.3237 -25.3177 -25.2828 -25.2711 -25.2576 -25.2195 -25.2096
   -25.1300 -25.1244 -25.1166 -25.1086 -25.0658 -25.0477 -24.9974 -24.9470
   -10.4595  -4.7506  -2.5121  -1.9856  -1.3471  -0.9930  -0.8003  -0.5560
    -0.4699  -0.1564  -0.0931   0.0107   0.1684   0.2460   0.5373   0.5504
     0.6189   0.6362   0.7336   0.9446   1.0293   1.0619   1.1633   1.2520
     1.3148   1.3446   1.3969   1.4820   1.5841   1.6936   1.7614   1.8374
     1.9037   1.9432   1.9755   2.1941   2.3680

          k =-0.0779-0.0450 0.0000 ( 22880 PWs)   bands (ev):

   -47.6178 -47.5789 -47.5763 -47.5639 -47.5339 -47.5307 -47.5288 -47.4535
   -47.2653 -47.2499 -47.2241 -47.1783 -25.8081 -25.7756 -25.7594 -25.7550
   -25.7188 -25.7009 -25.6814 -25.6500 -25.6347 -25.6142 -25.6034 -25.5686
   -25.5591 -25.5473 -25.5393 -25.5094 -25.4964 -25.4854 -25.4766 -25.4330
   -25.3362 -25.3034 -25.2939 -25.2754 -25.2728 -25.2033 -25.1980 -25.1930
   -25.1712 -25.1423 -25.1187 -25.1106 -25.1072 -25.0494 -24.9688 -24.9410
   -10.4592  -4.7634  -2.4934  -1.8318  -1.7263  -0.8883  -0.6975  -0.4932
    -0.2085  -0.1901  -0.1177  -0.0691  -0.0320   0.0826   0.6215   0.6767
     0.7053   0.7313   0.7518   0.7946   1.1256   1.1609   1.1665   1.1911
     1.2615   1.3514   1.4385   1.5129   1.6495   1.6820   1.7339   1.7672
     1.8182   1.9600   2.0120   2.2793   2.3775

     the Fermi energy is     1.6552 ev

!    total energy              =   -1210.92774146 Ry
     Harris-Foulkes estimate   =   -1210.92774222 Ry
     estimated scf accuracy    <       0.00000263 Ry

     The total energy is the sum of the following terms:

     one-electron contribution =   -8454.56907532 Ry
     hartree contribution      =    4220.92985216 Ry
     xc contribution           =    -225.73284640 Ry
     ewald contribution        =    3248.56178492 Ry
     electric field correction =       0.00002061 Ry
     smearing contrib. (-TS)   =      -0.11747742 Ry

     convergence has been achieved in   9 iterations
 
 BEEF-vdW xc energy contributions
           1 :   -193.247706768768     
           2 :    174.823953428494     
           3 :   -143.814764029985     
           4 :    108.980423381500     
           5 :   -78.1854900721501     
           6 :    55.6712093589454     
           7 :   -41.4180640150918     
           8 :    32.4917658578554     
           9 :   -25.3387208112561     
          10 :    17.7260548468589     
          11 :   -9.46666910973698     
          12 :    1.86202325546611     
          13 :    3.53456071785988     
          14 :   -6.01281440290856     
          15 :    6.08665266310680     
          16 :   -5.08451995996830     
          17 :    4.31914490551907     
          18 :   -4.38826805017496     
          19 :    5.00575392244264     
          20 :   -5.39347303395951     
          21 :    4.91695670366747     
          22 :   -3.53390829687072     
          23 :    1.79370940210563     
          24 :  -0.444759636256151     
          25 :  -4.840306428980057E-002
          26 :  -0.243686126142677     
          27 :   0.827613857348467     
          28 :   -1.14755590173462     
          29 :   0.938723121374352     
          30 :  -0.354326938350653     
          31 :   -22.4894804143665     
          32 :   -16.7571475580548     

     Forces acting on atoms (Ry/au):


     negative rho (up, down):  7.492E-01 0.000E+00
     atom    1 type  1   force =    -0.00003293    0.00002870    0.01435157
     atom    2 type  1   force =    -0.00034849    0.00098146    0.01486538
     atom    3 type  1   force =     0.00065369   -0.00061916    0.01499325
     atom    4 type  1   force =    -0.00101982   -0.00040683    0.01483419
     atom    5 type  1   force =    -0.00072188   -0.00056029   -0.00235465
     atom    6 type  1   force =     0.00151496    0.00182573   -0.00187542
     atom    7 type  1   force =     0.00199050   -0.00009590   -0.00388872
     atom    8 type  1   force =    -0.00166617   -0.00122255   -0.00226140
     atom    9 type  1   force =     0.01744136    0.01172805    0.01763095
     atom   10 type  1   force =     0.00409854   -0.00407706   -0.00244048
     atom   11 type  1   force =    -0.00300647   -0.00714889    0.00831933
     atom   12 type  1   force =     0.00311274   -0.00018368   -0.02344482
     atom   13 type  2   force =    -0.01139944    0.00529667   -0.02333875
     atom   14 type  3   force =    -0.01740715   -0.01506475   -0.01605191
     atom   15 type  3   force =     0.00679054    0.00951849   -0.00933852

     Total force =     0.056524     Total SCF correction =     0.001166


     entering subroutine stress ...


     negative rho (up, down):  7.492E-01 0.000E+00
          total   stress  (Ry/bohr**3)                   (kbar)     P=  -12.53
  -0.00006853  -0.00001119  -0.00001277        -10.08     -1.65     -1.88
  -0.00001119  -0.00006931  -0.00000120         -1.65    -10.20     -0.18
  -0.00001277  -0.00000120  -0.00011768         -1.88     -0.18    -17.31


     number of scf cycles    =   2
     number of bfgs steps    =   1

     energy   old            =   -1210.9211754476 Ry
     energy   new            =   -1210.9277414555 Ry

     CASE: energy  _new < energy  _old

     new trust radius        =       0.0793101411 bohr
     new conv_thr            =       0.0000001000 Ry


ATOMIC_POSITIONS (crystal)
Zr1      0.166666667   0.166666667   0.396150897    0   0   0
Zr1      0.666666667   0.166666667   0.396150897    0   0   0
Zr1      0.166666667   0.666666667   0.396150897    0   0   0
Zr1      0.666666667   0.666666667   0.396150897    0   0   0
Zr1      0.833333333   0.333333333   0.500000000    0   0   0
Zr1      0.333333333   0.333333333   0.500000000    0   0   0
Zr1      0.833333333   0.833333333   0.500000000    0   0   0
Zr1      0.333333333   0.833333333   0.500000000    0   0   0
Zr1      0.002973279   0.003879713   0.605029970
Zr1      0.500982098  -0.000904743   0.603778052
Zr1      0.000508216   0.497205209   0.604437096
Zr1      0.500871018   0.499937623   0.602363500
C1       0.162756061   0.167357652   0.665161554
H1       0.207079626   0.278561161   0.693355484
H1       0.124777417   0.053971341   0.693586356



     Writing output data file calc.save
     Check: negative starting charge=   -0.728353
     NEW-OLD atomic charge density approx. for the potential
     Check: negative starting charge=   -0.728201

     negative rho (up, down):  7.489E-01 0.000E+00
 
     Adding external electric field

     Computed dipole along edir(3) : 
        Dipole                0.0999 Ry au,          0.2539 Debye
        Dipole field          0.0002 Ry au
 
        Potential amp.       -0.0192 Ry
        Total length         46.5096 bohr
 

     total cpu time spent up to now is      424.7 secs

     per-process dynamical memory:    50.7 Mb

     Self-consistent Calculation

     iteration #  1     ecut=    36.75 Ry     beta=0.30
     Davidson diagonalization with overlap
     ethr =  1.00E-06,  avg # of iterations =  9.6

     negative rho (up, down):  7.489E-01 0.000E+00
 
     Adding external electric field

     Computed dipole along edir(3) : 
        Dipole                0.2431 Ry au,          0.6178 Debye
        Dipole field          0.0005 Ry au
 
        Potential amp.       -0.0467 Ry
        Total length         46.5096 bohr
 

     total cpu time spent up to now is      446.5 secs

     total energy              =   -1210.93172210 Ry
     Harris-Foulkes estimate   =   -1210.93326602 Ry
     estimated scf accuracy    <       0.00393767 Ry

     iteration #  2     ecut=    36.75 Ry     beta=0.30
     Davidson diagonalization with overlap
     ethr =  2.63E-06,  avg # of iterations =  6.8

     negative rho (up, down):  7.489E-01 0.000E+00
 
     Adding external electric field

[...]
   -25.4969 -25.4741 -25.3463 -25.3458 -25.3136 -25.3065 -25.2844 -25.2724
   -25.2634 -25.2508 -25.2337 -25.2041 -25.1640 -25.1286 -25.0856 -25.0335
   -25.0285 -24.9965 -24.9639 -24.9589 -24.9526 -24.9227 -24.8276 -24.7936
   -10.9587  -5.1891  -3.2775  -2.7438  -1.7091  -1.2675  -1.0527  -0.8770
    -0.7508  -0.7213  -0.6835  -0.4915  -0.4247  -0.1595  -0.0747  -0.0298
     0.0070   0.2846   0.4220   0.8281   0.9658   1.4171   1.6347   1.7530
     1.8980   2.0168   2.0998   2.1446   2.2136   2.2390   2.3841   2.4599
     2.5925   2.6360   2.6590   2.7365   2.7601

          k = 0.0260 0.0450 0.0000 ( 22896 PWs)   bands (ev):

   -47.5670 -47.5083 -47.5035 -47.4915 -47.4882 -47.4390 -47.4242 -47.3736
   -47.1823 -47.1336 -47.1276 -47.0791 -25.8099 -25.7697 -25.7677 -25.7533
   -25.7372 -25.6953 -25.6853 -25.6619 -25.6337 -25.6263 -25.5796 -25.5313
   -25.5170 -25.4842 -25.4295 -25.3659 -25.3236 -25.3211 -25.2942 -25.2923
   -25.2579 -25.2501 -25.2333 -25.2222 -25.2183 -25.1874 -25.1064 -25.0319
   -25.0276 -25.0165 -24.9926 -24.9518 -24.9416 -24.9344 -24.9031 -24.8145
   -10.9513  -5.2038  -3.0245  -2.4916  -1.3957  -1.1388  -0.8547  -0.8220
    -0.6878  -0.5504  -0.4631  -0.2897  -0.1467   0.0832   0.1550   0.1975
     0.2176   0.4871   0.5196   0.8771   0.9147   1.2848   1.4539   1.5717
     1.6580   1.6988   1.8015   1.9049   2.0687   2.0979   2.1721   2.2690
     2.3310   2.3585   2.4600   2.5484   2.6385

          k = 0.0260-0.1049 0.0000 ( 22856 PWs)   bands (ev):

   -47.5479 -47.5254 -47.5084 -47.4855 -47.4737 -47.4530 -47.4267 -47.3752
   -47.1692 -47.1420 -47.1313 -47.0803 -25.7444 -25.7154 -25.7033 -25.6822
   -25.6699 -25.6298 -25.6201 -25.6023 -25.5923 -25.5772 -25.5675 -25.5440
   -25.5318 -25.5268 -25.4917 -25.4576 -25.4375 -25.3748 -25.3596 -25.3065
   -25.2804 -25.2327 -25.2260 -25.2239 -25.1906 -25.1583 -25.1368 -25.1068
   -25.0358 -25.0240 -25.0060 -24.9905 -24.9656 -24.9464 -24.9029 -24.8501
   -10.9447  -5.2039  -2.7824  -1.9845  -1.3996  -1.0465  -0.8305  -0.6700
    -0.3788  -0.2141  -0.1028  -0.0083   0.1696   0.3426   0.5122   0.5632
     0.6008   0.6364   0.7556   0.9652   1.0205   1.0892   1.1643   1.2471
     1.3220   1.3758   1.4227   1.5150   1.6072   1.7218   1.7919   1.8959
     1.9557   1.9770   2.0166   2.2564   2.4016

          k = 0.0260-0.0749 0.0000 ( 22856 PWs)   bands (ev):

   -47.5479 -47.5253 -47.5085 -47.4855 -47.4742 -47.4520 -47.4275 -47.3750
   -47.1690 -47.1431 -47.1303 -47.0803 -25.7437 -25.7141 -25.7058 -25.6815
   -25.6687 -25.6370 -25.6166 -25.5995 -25.5910 -25.5773 -25.5662 -25.5402
   -25.5370 -25.5255 -25.4952 -25.4618 -25.4376 -25.3751 -25.3598 -25.3000
   -25.2804 -25.2346 -25.2308 -25.2154 -25.1897 -25.1575 -25.1426 -25.1102
   -25.0326 -25.0230 -25.0070 -24.9894 -24.9656 -24.9468 -24.9016 -24.8505
   -10.9455  -5.1902  -2.8019  -2.0114  -1.3936  -1.1571  -0.7846  -0.6244
    -0.4035  -0.1611  -0.0821   0.0057   0.1684   0.3209   0.5290   0.5748
     0.6138   0.6373   0.7347   0.9498   1.0235   1.0650   1.1968   1.2441
     1.3446   1.3675   1.4154   1.5216   1.6309   1.7266   1.7862   1.8982
     1.9427   1.9811   2.0110   2.2379   2.4574

          k = 0.0260-0.0450 0.0000 ( 22896 PWs)   bands (ev):

   -47.5670 -47.5076 -47.5043 -47.4918 -47.4881 -47.4371 -47.4264 -47.3732
   -47.1821 -47.1357 -47.1257 -47.0792 -25.8091 -25.7708 -25.7670 -25.7528
   -25.7366 -25.6967 -25.6907 -25.6592 -25.6327 -25.6237 -25.5795 -25.5321
   -25.5150 -25.4874 -25.4277 -25.3756 -25.3224 -25.3217 -25.2938 -25.2787
   -25.2651 -25.2553 -25.2385 -25.2255 -25.2026 -25.1878 -25.1057 -25.0354
   -25.0282 -25.0177 -24.9899 -24.9564 -24.9371 -24.9332 -24.9016 -24.8146
   -10.9529  -5.1755  -3.0606  -2.5058  -1.5054  -1.1815  -0.8576  -0.7979
    -0.6838  -0.4707  -0.4447  -0.2827  -0.1450   0.1097   0.1646   0.2022
     0.2842   0.3845   0.5132   0.8606   0.9624   1.3254   1.4645   1.5698
     1.6792   1.7409   1.8272   1.8838   2.0375   2.1428   2.1643   2.2458
     2.3199   2.4057   2.4676   2.5140   2.5649

          k = 0.0519-0.0300 0.0000 ( 22852 PWs)   bands (ev):

   -47.5619 -47.5171 -47.4971 -47.4910 -47.4874 -47.4402 -47.4272 -47.3736
   -47.1776 -47.1427 -47.1221 -47.0803 -25.7821 -25.7798 -25.7414 -25.7205
   -25.7103 -25.7060 -25.6561 -25.6389 -25.6234 -25.6073 -25.5767 -25.5404
   -25.5154 -25.4977 -25.4126 -25.4058 -25.3712 -25.3454 -25.3350 -25.2782
   -25.2631 -25.2565 -25.2262 -25.2094 -25.1962 -25.1941 -25.1137 -25.0327
   -25.0322 -25.0181 -25.0043 -24.9865 -24.9540 -24.9350 -24.8957 -24.8205
   -10.9517  -5.1700  -2.9923  -2.3910  -1.4808  -1.1778  -0.9738  -0.5888
    -0.4871  -0.4356  -0.2987  -0.2574  -0.1062   0.2086   0.2865   0.3124
     0.3952   0.4548   0.5871   0.8561   1.0055   1.2530   1.3267   1.5136
     1.6101   1.6436   1.6540   1.8148   1.9472   2.0434   2.1277   2.1605
     2.2308   2.2468   2.3298   2.4609   2.5807

          k = 0.0519 0.0000 0.0000 ( 22896 PWs)   bands (ev):

   -47.5670 -47.5081 -47.5037 -47.4919 -47.4882 -47.4352 -47.4283 -47.3730
   -47.1818 -47.1386 -47.1226 -47.0796 -25.8095 -25.7712 -25.7663 -25.7528
   -25.7379 -25.6974 -25.6891 -25.6602 -25.6335 -25.6246 -25.5799 -25.5279
   -25.5192 -25.4868 -25.4286 -25.3735 -25.3227 -25.3213 -25.2938 -25.2720
   -25.2681 -25.2592 -25.2351 -25.2200 -25.2044 -25.1876 -25.1092 -25.0367
   -25.0273 -25.0195 -24.9895 -24.9551 -24.9381 -24.9323 -24.9022 -24.8153
   -10.9528  -5.1884  -3.0481  -2.5011  -1.4576  -1.1522  -0.8587  -0.8053
    -0.6811  -0.4952  -0.4689  -0.2878  -0.1424   0.0999   0.1561   0.1971
     0.2440   0.4361   0.5162   0.8614   0.9509   1.3002   1.4577   1.5654
     1.6736   1.7233   1.8275   1.8855   2.0465   2.1201   2.1755   2.2565
     2.3174   2.3772   2.4656   2.5348   2.5897

          k = 0.0519 0.0300 0.0000 ( 22852 PWs)   bands (ev):

   -47.5619 -47.5173 -47.4963 -47.4916 -47.4870 -47.4427 -47.4245 -47.3742
   -47.1779 -47.1411 -47.1235 -47.0801 -25.7831 -25.7802 -25.7428 -25.7164
   -25.7145 -25.7024 -25.6533 -25.6330 -25.6255 -25.6154 -25.5778 -25.5358
   -25.5197 -25.4954 -25.4104 -25.4092 -25.3652 -25.3400 -25.3364 -25.2777
   -25.2667 -25.2466 -25.2320 -25.2096 -25.2073 -25.1942 -25.1126 -25.0314
   -25.0300 -25.0165 -25.0023 -24.9872 -24.9522 -24.9412 -24.8982 -24.8200
   -10.9493  -5.2116  -2.9351  -2.3686  -1.2838  -1.1646  -1.0004  -0.6354
    -0.5066  -0.4144  -0.3963  -0.2001  -0.1379   0.0777   0.2744   0.3246
     0.3472   0.5537   0.5993   0.9017   0.9442   1.1886   1.3188   1.5135
     1.5537   1.6100   1.6671   1.8181   1.9879   2.0315   2.0909   2.1721
     2.2382   2.2849   2.2941   2.4335   2.5904

          k = 0.0519-0.1199 0.0000 ( 22856 PWs)   bands (ev):

   -47.5479 -47.5255 -47.5083 -47.4855 -47.4744 -47.4516 -47.4276 -47.3751
   -47.1681 -47.1463 -47.1277 -47.0806 -25.7445 -25.7138 -25.7074 -25.6809
   -25.6665 -25.6314 -25.6232 -25.6045 -25.5910 -25.5791 -25.5674 -25.5500
   -25.5330 -25.5173 -25.4946 -25.4552 -25.4373 -25.3695 -25.3600 -25.3067
   -25.2802 -25.2324 -25.2263 -25.2217 -25.1862 -25.1597 -25.1406 -25.1072
   -25.0372 -25.0237 -25.0088 -24.9883 -24.9655 -24.9467 -24.9015 -24.8517
   -10.9446  -5.2160  -2.7706  -1.9747  -1.3398  -1.0036  -0.8664  -0.6641
    -0.4461  -0.1886  -0.1077  -0.0105   0.1651   0.2828   0.5158   0.5709
     0.6109   0.6302   0.7646   0.9513   1.0191   1.0936   1.1551   1.2526
     1.3332   1.3657   1.4214   1.5180   1.6018   1.7099   1.7900   1.8949
     1.9573   1.9798   2.0145   2.2576   2.3698

          k = 0.0519-0.0899 0.0000 ( 22914 PWs)   bands (ev):

   -47.5309 -47.5300 -47.5237 -47.4826 -47.4634 -47.4575 -47.4332 -47.3747
   -47.1592 -47.1518 -47.1312 -47.0806 -25.6866 -25.6789 -25.6688 -25.6545
   -25.6467 -25.6079 -25.5943 -25.5900 -25.5884 -25.5707 -25.5530 -25.5517
   -25.5470 -25.5266 -25.5135 -25.5039 -25.4917 -25.4679 -25.2972 -25.2930
   -25.2917 -25.2511 -25.2400 -25.2093 -25.1912 -25.1729 -25.1256 -25.1144
   -25.1017 -25.0258 -25.0027 -24.9867 -24.9509 -24.9223 -24.9067 -24.9001
   -10.9435  -5.1979  -2.7233  -1.5251  -1.3719  -1.3253  -0.9234  -0.4338
    -0.2684  -0.2159   0.2435   0.3658   0.3817   0.4201   0.5067   0.5247
     0.8245   0.8720   0.8889   0.9247   0.9401   1.0022   1.0236   1.0283
     1.0317   1.2129   1.2485   1.4841   1.5311   1.5998   1.6648   1.6724
     1.7079   1.7527   1.8597   1.9584   2.3996

          k = 0.0519-0.0599 0.0000 ( 22856 PWs)   bands (ev):

   -47.5479 -47.5252 -47.5086 -47.4855 -47.4755 -47.4486 -47.4302 -47.3744
   -47.1671 -47.1489 -47.1260 -47.0808 -25.7434 -25.7110 -25.7058 -25.6834
   -25.6729 -25.6331 -25.6170 -25.6002 -25.5968 -25.5809 -25.5627 -25.5411
   -25.5359 -25.5255 -25.4949 -25.4622 -25.4372 -25.3785 -25.3595 -25.2888
   -25.2805 -25.2353 -25.2310 -25.2117 -25.1881 -25.1564 -25.1499 -25.1096
   -25.0333 -25.0241 -25.0126 -24.9841 -24.9713 -24.9402 -24.8985 -24.8532
   -10.9470  -5.1751  -2.8316  -2.0268  -1.4481  -1.1355  -0.7979  -0.6087
    -0.3817  -0.1759  -0.0757   0.0038   0.1876   0.3781   0.5319   0.5554
     0.5912   0.6513   0.7386   0.9484   1.0138   1.0908   1.2130   1.2468
     1.3335   1.3556   1.4257   1.5282   1.6066   1.7290   1.7785   1.9052
     1.9576   1.9682   2.0048   2.2364   2.5437

          k =-0.0779 0.0450 0.0000 ( 22880 PWs)   bands (ev):

   -47.5420 -47.5370 -47.4971 -47.4911 -47.4742 -47.4524 -47.4273 -47.3747
   -47.1622 -47.1569 -47.1222 -47.0815 -25.7396 -25.7378 -25.6941 -25.6919
   -25.6717 -25.6674 -25.6138 -25.5959 -25.5859 -25.5728 -25.5342 -25.5277
   -25.5098 -25.4957 -25.4688 -25.4557 -25.4429 -25.4407 -25.4149 -25.3420
   -25.2398 -25.2350 -25.2328 -25.2028 -25.1615 -25.1515 -25.1059 -25.0946
   -25.0701 -25.0473 -25.0182 -25.0055 -24.9818 -24.9437 -24.8661 -24.8505
   -10.9477  -5.1678  -2.8437  -1.9102  -1.7226  -1.2052  -0.6899  -0.5353
    -0.1907  -0.1551  -0.0892  -0.0731  -0.0073   0.3229   0.6100   0.6580
     0.7006   0.7247   0.7757   0.8199   1.1494   1.1787   1.1920   1.2288
     1.2568   1.3540   1.4585   1.5214   1.6279   1.6880   1.7335   1.8205
     1.9469   2.0154   2.0441   2.4024   2.4192

          k =-0.0779 0.0749 0.0000 ( 22856 PWs)   bands (ev):

   -47.5479 -47.5253 -47.5085 -47.4855 -47.4758 -47.4477 -47.4309 -47.3744
   -47.1663 -47.1506 -47.1249 -47.0810 -25.7436 -25.7132 -25.7029 -25.6839
   -25.6733 -25.6313 -25.6187 -25.6025 -25.5964 -25.5812 -25.5639 -25.5389
   -25.5343 -25.5295 -25.4957 -25.4611 -25.4371 -25.3715 -25.3594 -25.2916
   -25.2808 -25.2339 -25.2301 -25.2133 -25.1902 -25.1575 -25.1458 -25.1105
   -25.0335 -25.0239 -25.0127 -24.9847 -24.9714 -24.9401 -24.8989 -24.8534
   -10.9469  -5.1814  -2.8264  -2.0122  -1.4482  -1.0984  -0.7997  -0.6354
    -0.3646  -0.2025  -0.0844  -0.0007   0.1837   0.3864   0.5179   0.5496
     0.5889   0.6592   0.7384   0.9623   1.0165   1.0894   1.2043   1.2403
     1.3234   1.3582   1.4223   1.5250   1.6038   1.7205   1.7934   1.9042
     1.9617   1.9658   2.0141   2.2381   2.5129

          k =-0.0779 0.1049 0.0000 ( 22856 PWs)   bands (ev):

   -47.5479 -47.5255 -47.5083 -47.4855 -47.4751 -47.4498 -47.4290 -47.3747
   -47.1671 -47.1489 -47.1258 -47.0809 -25.7441 -25.7137 -25.7080 -25.6789
   -25.6676 -25.6366 -25.6210 -25.6035 -25.5897 -25.5793 -25.5672 -25.5477
   -25.5361 -25.5196 -25.4978 -25.4552 -25.4376 -25.3662 -25.3597 -25.3018
   -25.2802 -25.2322 -25.2287 -25.2185 -25.1844 -25.1593 -25.1457 -25.1109
   -25.0332 -25.0237 -25.0094 -24.9880 -24.9657 -24.9472 -24.9004 -24.8523
   -10.9453  -5.2085  -2.7849  -1.9869  -1.3292  -1.1093  -0.7929  -0.6367
    -0.4616  -0.1666  -0.0915  -0.0048   0.1594   0.2705   0.5226   0.5733
     0.6221   0.6337   0.7466   0.9517   1.0256   1.0716   1.1797   1.2414
     1.3440   1.3558   1.4190   1.5208   1.6160   1.7160   1.7843   1.8915
     1.9501   1.9821   2.0206   2.2491   2.3986

          k =-0.0779-0.0450 0.0000 ( 22880 PWs)   bands (ev):

   -47.5412 -47.5379 -47.4963 -47.4917 -47.4723 -47.4562 -47.4247 -47.3755
   -47.1653 -47.1524 -47.1237 -47.0813 -25.7423 -25.7371 -25.7051 -25.6790
   -25.6724 -25.6611 -25.6217 -25.5907 -25.5876 -25.5736 -25.5451 -25.5239
   -25.5058 -25.5004 -25.4613 -25.4494 -25.4458 -25.4238 -25.4060 -25.3723
   -25.2385 -25.2342 -25.2207 -25.2002 -25.1891 -25.1366 -25.1054 -25.0943
   -25.0670 -25.0487 -25.0197 -25.0003 -24.9856 -24.9474 -24.8726 -24.8461
   -10.9445  -5.2220  -2.7601  -1.7966  -1.7216  -0.9703  -0.7686  -0.6110
    -0.1949  -0.1831  -0.0894  -0.0613  -0.0504   0.1082   0.5916   0.6747
     0.7121   0.7433   0.7490   0.8062   1.1081   1.1337   1.1979   1.2131
     1.2791   1.3573   1.4564   1.5684   1.6862   1.6904   1.7780   1.8034
     1.8983   2.0164   2.0366   2.2797   2.4275

     the Fermi energy is     1.6870 ev

!    total energy              =   -1210.94698350 Ry
     Harris-Foulkes estimate   =   -1210.94698324 Ry
     estimated scf accuracy    <       0.00000006 Ry

     The total energy is the sum of the following terms:

     one-electron contribution =   -8606.89334740 Ry
     hartree contribution      =    4297.40247153 Ry
     xc contribution           =    -225.97128200 Ry
     ewald contribution        =    3324.62894758 Ry
     electric field correction =       0.00004529 Ry
     smearing contrib. (-TS)   =      -0.11381850 Ry

     convergence has been achieved in   9 iterations
 
 BEEF-vdW xc energy contributions
           1 :   -193.486662108602     
           2 :    175.134777593433     
           3 :   -144.195262251749     
           4 :    109.348552368306     
           5 :   -78.4362705506057     
           6 :    55.7471853117430     
           7 :   -41.3452310375705     
           8 :    32.3604585466184     
           9 :   -25.2477976976471     
          10 :    17.7279985473795     
          11 :   -9.54429518997011     
          12 :    1.94614456504718     
          13 :    3.51925696158781     
          14 :   -6.09981181722668     
          15 :    6.24491690767036     
          16 :   -5.23585117148014     
          17 :    4.38741584817427     
          18 :   -4.35007563538900     
          19 :    4.90718289942441     
          20 :   -5.31936996780752     
          21 :    4.93345326636813     
          22 :   -3.64497407939200     
          23 :    1.94179951409069     
          24 :  -0.552858815389470     
          25 :  -2.485306923910002E-002
          26 :  -0.196844418265187     
          27 :   0.769113515796789     
          28 :   -1.13915972658958     
          29 :    1.00487494401096     
          30 :  -0.468183919102728     
          31 :   -22.5070779126148     
          32 :   -16.7891668377973     

     Forces acting on atoms (Ry/au):


     negative rho (up, down):  7.495E-01 0.000E+00
     atom    1 type  1   force =     0.00017230    0.00004702    0.01101037
     atom    2 type  1   force =    -0.00059027    0.00150606    0.01336315
     atom    3 type  1   force =     0.00105127   -0.00108313    0.01285749
     atom    4 type  1   force =    -0.00142647   -0.00055916    0.01348052
     atom    5 type  1   force =     0.00565082   -0.00292698   -0.01255994
     atom    6 type  1   force =    -0.00330913   -0.00046057   -0.01039809
     atom    7 type  1   force =     0.00439344   -0.00141834   -0.01416062
     atom    8 type  1   force =    -0.00203612    0.00359581   -0.01421916
     atom    9 type  1   force =    -0.00002191    0.00026296    0.00068252
     atom   10 type  1   force =    -0.00126570    0.00076574    0.00143321
     atom   11 type  1   force =    -0.00081925   -0.00083673   -0.00053390
     atom   12 type  1   force =    -0.00067839    0.00032935   -0.00046138
     atom   13 type  2   force =    -0.00051053    0.00005422   -0.00035099
     atom   14 type  3   force =     0.00041275    0.00164357   -0.00042127
     atom   15 type  3   force =    -0.00102280   -0.00091981    0.00027809

     Total force =     0.003553     Total SCF correction =     0.000372
     SCF correction compared to forces is large: reduce conv_thr to get better values


     entering subroutine stress ...


     negative rho (up, down):  7.495E-01 0.000E+00
          total   stress  (Ry/bohr**3)                   (kbar)     P=   -5.09
  -0.00003066  -0.00000344  -0.00000303         -4.51     -0.51     -0.45
  -0.00000344  -0.00003155   0.00000156         -0.51     -4.64      0.23
  -0.00000303   0.00000156  -0.00004161         -0.45      0.23     -6.12


     bfgs converged in  18 scf cycles and  17 bfgs steps
     (criteria: energy <  1.0E+00, force <  1.9E-03)

     End of BFGS Geometry Optimization

     Final energy   =   -1210.9469835040 Ry
Begin final coordinates

ATOMIC_POSITIONS (crystal)
Zr1      0.166666667   0.166666667   0.396150897    0   0   0
Zr1      0.666666667   0.166666667   0.396150897    0   0   0
Zr1      0.166666667   0.666666667   0.396150897    0   0   0
Zr1      0.666666667   0.666666667   0.396150897    0   0   0
Zr1      0.833333333   0.333333333   0.500000000    0   0   0
Zr1      0.333333333   0.333333333   0.500000000    0   0   0
Zr1      0.833333333   0.833333333   0.500000000    0   0   0
Zr1      0.333333333   0.833333333   0.500000000    0   0   0
Zr1      0.002973393   0.002517607   0.602307849
Zr1      0.506826885  -0.004664743   0.599590302
Zr1     -0.000252538   0.502109955   0.602326521
Zr1      0.503082933   0.499432225   0.596582751
C1       0.147334264   0.171793981   0.656959997
H1       0.194368557   0.280774349   0.683216086
H1       0.117355881   0.056099073   0.685107295
End final coordinates



     Writing output data file calc.save
 
     init_run     :      6.66s CPU      7.11s WALL (       1 calls)
     electrons    :   2794.26s CPU   2949.68s WALL (      18 calls)
     update_pot   :     21.26s CPU     22.12s WALL (      17 calls)
     forces       :     89.87s CPU     91.71s WALL (      18 calls)
     stress       :    279.81s CPU    282.60s WALL (      18 calls)

     Called by init_run:
     wfcinit      :      4.67s CPU      5.01s WALL (       1 calls)
     potinit      :      0.66s CPU      0.73s WALL (       1 calls)

     Called by electrons:
     c_bands      :   1966.18s CPU   2068.14s WALL (     214 calls)
     sum_band     :    348.58s CPU    368.87s WALL (     214 calls)
     v_of_rho     :    101.97s CPU    115.04s WALL (     231 calls)
     newd         :    139.91s CPU    143.03s WALL (     231 calls)
     mix_rho      :      3.80s CPU      4.09s WALL (     214 calls)
     vdW_energy   :     82.60s CPU     87.82s WALL (     879 calls)
     vdW_ffts     :    121.28s CPU    137.44s WALL (    1794 calls)
     vdW_v        :     53.14s CPU     55.53s WALL (     879 calls)

     Called by c_bands:
     init_us_2    :     18.87s CPU     19.01s WALL (    9300 calls)
     cegterg      :   1862.47s CPU   1963.89s WALL (    4280 calls)

     Called by *egterg:
     h_psi        :   1027.24s CPU   1116.56s WALL (   22383 calls)
     s_psi        :     96.71s CPU     96.98s WALL (   22383 calls)
     g_psi        :      6.57s CPU      6.63s WALL (   18083 calls)
     cdiaghg      :    354.52s CPU    360.60s WALL (   22003 calls)

     Called by h_psi:
     add_vuspsi   :     97.01s CPU     97.34s WALL (   22383 calls)

     General routines
     calbec       :    141.83s CPU    149.51s WALL (   27383 calls)
     fft          :    198.43s CPU    222.36s WALL (   53121 calls)
     ffts         :      0.32s CPU      0.36s WALL (     445 calls)
     fftw         :    794.37s CPU    875.49s WALL ( 2302796 calls)
     interpolate  :      2.15s CPU      2.49s WALL (     445 calls)
     davcio       :      0.00s CPU      0.03s WALL (      20 calls)
 
     Parallel routines
     fft_scatter  :    535.82s CPU    604.66s WALL ( 2356362 calls)
 
     PWSCF        : 53m27.25s CPU    56m13.12s WALL

 
   This run was terminated on:  12:20:24  27Apr2018            

=------------------------------------------------------------------------------=
   JOB DONE.
=------------------------------------------------------------------------------=
