  python dir    : /nfs/slac/g/suncatfs/mamunm/src/decaf-espresso/decaf
espresso dir  : /nfs/slac/g/suncatfs/sw/espv18/espresso-dynpy-beef/bin/pw.x
executable    : pam -g /afs/slac/g/suncat/bin/suncat-tsmpirun -x LD_LIBRARY_PATH -wdir /tmp/qe_673710lx7yh2nf_scratch pw.x -npool 4 -in pw.pwi

     Program PWSCF v.5.1rc2 (svn rev. 11289) starts on 11Jan2019 at 22:59:24 

     This program is part of the open-source Quantum ESPRESSO suite
     for quantum simulation of materials; please cite
         "P. Giannozzi et al., J. Phys.:Condens. Matter 21 395502 (2009);
          URL http://www.quantum-espresso.org", 
     in publications or presentations arising from this work. More details at
     http://www.quantum-espresso.org/quote

     Parallel version (MPI), running on    32 processors
     K-points division:     npool     =       4
     R & G space division:  proc/nbgrp/npool/nimage =       8
     Reading input from pw.pwi
Warning: card &CELL ignored
Warning: card / ignored

     Current dimensions of program PWSCF are:
     Max number of different atomic species (ntypx) = 10
     Max number of k-points (npk) =  40000
     Max angular momentum in pseudopotentials (lmaxx) =  3

     **************************************************************************
     Initializing libbeef V0.1.1 with the BEEF-vdW functional.
     Citation: Wellendorff et al., PRB 85, 235149 (2012).
     **************************************************************************


     IMPORTANT: XC functional enforced from input :
     Exchange-correlation      = BEEF-VDW ( 1  4 27 13 2)
     Any further DFT definition will be discarded
     Please, verify this is what you really want


     Subspace diagonalization in iterative solution of the eigenvalue problem:
     a serial algorithm will be used

 
     Parallelization info
     --------------------
     sticks:   dense  smooth     PW     G-vecs:    dense   smooth      PW
     Min         504     203     57                98952    25029    3812
     Max         505     204     59                98973    25048    3817
     Sum        4033    1627    463               791681   200291   30513
 


     bravais-lattice index     =            0
     lattice parameter (alat)  =      12.6383  a.u.
     unit-cell volume          =    6655.4372 (a.u.)^3
     number of atoms/cell      =           13
     number of atomic types    =            2
     number of electrons       =       160.00
     number of Kohn-Sham states=           90
     kinetic-energy cutoff     =      36.7493  Ry
     charge density cutoff     =     367.4933  Ry
     convergence threshold     =      1.0E-04
     mixing beta               =       0.2000
     number of iterations used =            8  plain     mixing
     Exchange-correlation      = BEEF-VDW ( 1  4 27 13 2)
     nstep                     =           50


     celldm(1)=  12.638304  celldm(2)=   0.000000  celldm(3)=   0.000000
     celldm(4)=   0.000000  celldm(5)=   0.000000  celldm(6)=   0.000000

     crystal axes: (cart. coord. in units of alat)
               a(1) = (   1.000000   0.000000   0.000000 )  
               a(2) = (   0.500000   0.866025   0.000000 )  
               a(3) = (   0.000000   0.000000   3.806971 )  

     reciprocal axes: (cart. coord. in units 2 pi/alat)
               b(1) = (  1.000000 -0.577350  0.000000 )  
               b(2) = (  0.000000  1.154701  0.000000 )  
               b(3) = (  0.000000  0.000000  0.262676 )  


     PseudoPot. # 1 for Tl read from file:
     /u/if/jboes/code/decaf-espresso/gbrv15pbe/Tl.UPF
     MD5 check sum: b76cf1f7e72655a2b2c53cf6385d7059
     Pseudo is Ultrasoft + core correction, Zval = 13.0
     Generated by new atomic code, or converted to UPF format
     Using radial grid of  899 points,  6 beta functions with: 
                l(1) =   0
                l(2) =   0
                l(3) =   1
                l(4) =   1
                l(5) =   2
                l(6) =   2
     Q(r) pseudized with  6 coefficients,  rinner =    1.100   1.100   1.100
                                                       1.100   1.100

     PseudoPot. # 2 for C  read from file:
     /u/if/jboes/code/decaf-espresso/gbrv15pbe/C.UPF
     MD5 check sum: d1aef80898a10debaa0f26306b886e00
     Pseudo is Ultrasoft + core correction, Zval =  4.0
     Generated by new atomic code, or converted to UPF format
     Using radial grid of  721 points,  4 beta functions with: 
                l(1) =   0
                l(2) =   0
                l(3) =   1
                l(4) =   1
     Q(r) pseudized with  8 coefficients,  rinner =    1.100   1.100   1.100


     vdW kernel table read from file vdW_kernel_table
     MD5 check sum: 095c7af220d748ca6e76c0b4c6cfb241

     atomic species   valence    mass     pseudopotential
        Tl            13.00   204.38000     Tl( 1.00)
        C              4.00    12.01100     C ( 1.00)

     No symmetry found



   Cartesian axes

     site n.     atom                  positions (alat units)
         1           Tl  tau(   1) = (   0.2500000   0.1443376   1.4952371  )
         2           Tl  tau(   2) = (   0.7500000   0.1443376   1.4952371  )
         3           Tl  tau(   3) = (   0.5000000   0.5773503   1.4952371  )
         4           Tl  tau(   4) = (   1.0000000   0.5773503   1.4952371  )
         5           Tl  tau(   5) = (   1.0000000   0.2886751   1.9034854  )
         6           Tl  tau(   6) = (   0.5000000   0.2886751   1.9034854  )
         7           Tl  tau(   7) = (   1.2500000   0.7216878   1.9034854  )
         8           Tl  tau(   8) = (   0.7500000   0.7216878   1.9034854  )
         9           Tl  tau(   9) = (   0.0000032  -0.0000004   2.3830283  )
        10           Tl  tau(  10) = (   0.5000001  -0.0146373   2.3641402  )
        11           Tl  tau(  11) = (   0.2373258   0.4403311   2.3641362  )
        12           Tl  tau(  12) = (   0.7626776   0.4403299   2.3641433  )
        13           C   tau(  13) = (   0.5000014   0.2886745   2.5236973  )

     number of k points=    20  Fermi-Dirac smearing, width (Ry)=  0.0110
                       cart. coord. in units 2pi/alat
        k(    1) = (   0.0000000   0.0000000   0.0000000), wk =   0.0555556
        k(    2) = (   0.0000000   0.1924501   0.0000000), wk =   0.1111111
        k(    3) = (   0.0000000   0.3849002   0.0000000), wk =   0.1111111
        k(    4) = (   0.0000000  -0.5773503   0.0000000), wk =   0.0555556
        k(    5) = (   0.1666667  -0.0962250   0.0000000), wk =   0.1111111
        k(    6) = (   0.1666667   0.0962250   0.0000000), wk =   0.1111111
        k(    7) = (   0.1666667   0.2886751   0.0000000), wk =   0.1111111
        k(    8) = (   0.1666667  -0.6735753   0.0000000), wk =   0.1111111
        k(    9) = (   0.1666667  -0.4811252   0.0000000), wk =   0.1111111
        k(   10) = (   0.1666667  -0.2886751   0.0000000), wk =   0.1111111
        k(   11) = (   0.3333333  -0.1924501   0.0000000), wk =   0.1111111
        k(   12) = (   0.3333333  -0.0000000   0.0000000), wk =   0.1111111
        k(   13) = (   0.3333333   0.1924501   0.0000000), wk =   0.1111111
        k(   14) = (   0.3333333  -0.7698004   0.0000000), wk =   0.1111111
        k(   15) = (   0.3333333  -0.5773503   0.0000000), wk =   0.1111111
        k(   16) = (   0.3333333  -0.3849002   0.0000000), wk =   0.1111111
        k(   17) = (  -0.5000000   0.2886751   0.0000000), wk =   0.0555556
        k(   18) = (  -0.5000000   0.4811252   0.0000000), wk =   0.1111111
        k(   19) = (  -0.5000000   0.6735753   0.0000000), wk =   0.1111111
        k(   20) = (  -0.5000000  -0.2886751   0.0000000), wk =   0.0555556

     Dense  grid:   791681 G-vectors     FFT dimensions: (  80,  80, 300)

     Smooth grid:   200291 G-vectors     FFT dimensions: (  50,  50, 192)

     Largest allocated arrays     est. size (Mb)     dimensions
        Kohn-Sham Wavefunctions         4.42 Mb     (    3219,   90)
        NL pseudopotentials            11.00 Mb     (    3219,  224)
        Each V/rho on FFT grid          3.71 Mb     (  243200)
        Each G-vector array             0.75 Mb     (   98956)
        G-vector shells                 0.18 Mb     (   24180)
     Largest temporary arrays     est. size (Mb)     dimensions
        Auxiliary wavefunctions        17.68 Mb     (    3219,  360)
        Each subspace H/S matrix        1.98 Mb     (     360,  360)
        Each <psi_i|beta_j> matrix      0.31 Mb     (     224,   90)
        Arrays for rho mixing          29.69 Mb     (  243200,    8)

     Check: negative/imaginary core charge=   -0.000001    0.000000

     Initial potential from superposition of free atoms
     Check: negative starting charge=   -0.601862

     starting charge  159.94157, renormalised to  160.00000

     negative rho (up, down):  6.021E-01 0.000E+00


     ************************************************************************
     *
     * You are using vdW-DF for exchange-correlation in this calculation.
     * Please cite the following three references that made this development
     * possible:
     *
     *   M. Dion, H. Rydberg, E. Schroder, D. C. Langreth, and
     *   B. I. Lundqvist, Phys. Rev. Lett. 92, 246401 (2004).
     *
     *   T. Thonhauser, V. R. Cooper, S. Li, A. Puzder, P. Hyldgaard, and
     *   D. C. Langreth, Phys. Rev. B 76, 125112 (2007).
     *
     *   G. Roman-Perez and J. M. Soler, Phys. Rev. Lett. 103, 096102 (2009).
     *
     *
     * If you are using vdW-DF2, please also cite:
     *
     *   K. Lee, E. D. Murray, L. Kong, B. I. Lundqvist, and
     *   D. C. Langreth, Phys. Rev. B 82, 081101(R) (2010).
     *
     *
     * If you are calculating the stress with vdW-DF, please also cite:
     *
     *   R. Sabatini, E. Kucukbenli, B. Kolb, T. Thonhauser, and
     *   S. de Gironcoli, J. Phys.: Condens. Matter 24, 424209 (2012).
     *
     ************************************************************************

     Carrying out vdW-DF run using the following parameters:

     Nqs =      20    Nr_points =    1024   r_max =   100.000
     q_mesh =
               0.00001000     0.04494208     0.09755937     0.15916263
               0.23128650     0.31572767     0.41458969     0.53033537
               0.66584808     0.82450364     1.01025438     1.22772762
               1.48234092     1.78043706     2.12944203     2.53805004
               3.01644009     3.57652955     4.23227104     5.00000000

     Gradients computed in reciprocal space

     ************************************************************************


 
     Adding external electric field

     Computed dipole along edir(3) : 
        Dipole               -0.0108 Ry au,         -0.0274 Debye
        Dipole field         -0.0000 Ry au
 
        Potential amp.        0.0018 Ry
        Total length         43.3023 bohr
 
     Starting wfc are  112 randomized atomic wfcs

     total cpu time spent up to now is       14.9 secs

     per-process dynamical memory:   108.5 Mb

     Self-consistent Calculation

     iteration #  1     ecut=    36.75 Ry     beta=0.20
     Davidson diagonalization with overlap
     ethr =  1.00E-02,  avg # of iterations =  2.0

     negative rho (up, down):  6.076E-01 0.000E+00
 
     Adding external electric field

     Computed dipole along edir(3) : 
        Dipole               -2.9324 Ry au,         -7.4534 Debye
        Dipole field         -0.0055 Ry au
 
        Potential amp.        0.4795 Ry
        Total length         43.3023 bohr
 

     total cpu time spent up to now is       38.1 secs

     total energy              =   -1771.94149964 Ry
     Harris-Foulkes estimate   =   -1772.95284723 Ry
     estimated scf accuracy    <       3.09747181 Ry

     iteration #  2     ecut=    36.75 Ry     beta=0.20
     Davidson diagonalization with overlap
     ethr =  1.94E-03,  avg # of iterations =  6.6

     negative rho (up, down):  6.073E-01 0.000E+00
 
     Adding external electric field

     Computed dipole along edir(3) : 
        Dipole                0.1509 Ry au,          0.3835 Debye
        Dipole field          0.0003 Ry au
 
        Potential amp.       -0.0247 Ry
        Total length         43.3023 bohr
 

     total cpu time spent up to now is       65.3 secs

     total energy              =   -1771.38738489 Ry
     Harris-Foulkes estimate   =   -1774.37008439 Ry
     estimated scf accuracy    <      39.83125433 Ry

     iteration #  3     ecut=    36.75 Ry     beta=0.20
     Davidson diagonalization with overlap
     ethr =  1.94E-03,  avg # of iterations =  6.4

     negative rho (up, down):  6.093E-01 0.000E+00
 
     Adding external electric field

     Computed dipole along edir(3) : 
        Dipole               -0.2727 Ry au,         -0.6930 Debye
        Dipole field         -0.0005 Ry au
 
        Potential amp.        0.0446 Ry
        Total length         43.3023 bohr
 

     total cpu time spent up to now is       93.2 secs

     total energy              =   -1772.75041965 Ry
     Harris-Foulkes estimate   =   -1772.87866930 Ry
     estimated scf accuracy    <       1.16759691 Ry

     iteration #  4     ecut=    36.75 Ry     beta=0.20
     Davidson diagonalization with overlap
     ethr =  7.30E-04,  avg # of iterations =  3.0

     negative rho (up, down):  6.132E-01 0.000E+00
 
     Adding external electric field

     Computed dipole along edir(3) : 
        Dipole               -0.3101 Ry au,         -0.7882 Debye
        Dipole field         -0.0006 Ry au
 
        Potential amp.        0.0507 Ry
        Total length         43.3023 bohr
 

     total cpu time spent up to now is      116.7 secs

     total energy              =   -1772.80791666 Ry
     Harris-Foulkes estimate   =   -1772.81297493 Ry
     estimated scf accuracy    <       0.03923502 Ry

     iteration #  5     ecut=    36.75 Ry     beta=0.20
     Davidson diagonalization with overlap
     ethr =  2.45E-05,  avg # of iterations =  6.7

     negative rho (up, down):  6.183E-01 0.000E+00
 
     Adding external electric field

     Computed dipole along edir(3) : 
        Dipole               -0.2469 Ry au,         -0.6275 Debye
        Dipole field         -0.0005 Ry au
 
        Potential amp.        0.0404 Ry
        Total length         43.3023 bohr
 

     total cpu time spent up to now is      144.8 secs

     total energy              =   -1772.81380763 Ry
     Harris-Foulkes estimate   =   -1772.81882606 Ry
     estimated scf accuracy    <       0.02132680 Ry

     iteration #  6     ecut=    36.75 Ry     beta=0.20
     Davidson diagonalization with overlap
     ethr =  1.33E-05,  avg # of iterations =  3.8

     negative rho (up, down):  6.241E-01 0.000E+00
 
     Adding external electric field

     Computed dipole along edir(3) : 
        Dipole               -0.2713 Ry au,         -0.6895 Debye
        Dipole field         -0.0005 Ry au
 
        Potential amp.        0.0444 Ry
        Total length         43.3023 bohr
 

     total cpu time spent up to now is      170.8 secs

     total energy              =   -1772.81532644 Ry
     Harris-Foulkes estimate   =   -1772.81864979 Ry
     estimated scf accuracy    <       0.02145198 Ry

     iteration #  7     ecut=    36.75 Ry     beta=0.20
     Davidson diagonalization with overlap
     ethr =  1.33E-05,  avg # of iterations =  3.1

     negative rho (up, down):  6.276E-01 0.000E+00
 
     Adding external electric field

     Computed dipole along edir(3) : 
        Dipole               -0.3017 Ry au,         -0.7668 Debye
        Dipole field         -0.0006 Ry au
 
        Potential amp.        0.0493 Ry
        Total length         43.3023 bohr
 

     total cpu time spent up to now is      195.5 secs

     total energy              =   -1772.81643459 Ry
     Harris-Foulkes estimate   =   -1772.81664633 Ry
     estimated scf accuracy    <       0.00325481 Ry

     iteration #  8     ecut=    36.75 Ry     beta=0.20
     Davidson diagonalization with overlap
     ethr =  2.03E-06,  avg # of iterations =  6.8

     negative rho (up, down):  6.292E-01 0.000E+00
 
     Adding external electric field

     Computed dipole along edir(3) : 
        Dipole               -0.2863 Ry au,         -0.7277 Debye
        Dipole field         -0.0005 Ry au
 
        Potential amp.        0.0468 Ry
        Total length         43.3023 bohr
 

     total cpu time spent up to now is      223.7 secs

     total energy              =   -1772.81678786 Ry
     Harris-Foulkes estimate   =   -1772.81698418 Ry
     estimated scf accuracy    <       0.00095656 Ry

     iteration #  9     ecut=    36.75 Ry     beta=0.20
     Davidson diagonalization with overlap
     ethr =  5.98E-07,  avg # of iterations =  4.8

     negative rho (up, down):  6.299E-01 0.000E+00
 
     Adding external electric field

     Computed dipole along edir(3) : 
        Dipole               -0.2925 Ry au,         -0.7435 Debye
        Dipole field         -0.0006 Ry au
 
        Potential amp.        0.0478 Ry
        Total length         43.3023 bohr
 

     total cpu time spent up to now is      249.6 secs

     total energy              =   -1772.81696198 Ry
     Harris-Foulkes estimate   =   -1772.81698043 Ry
     estimated scf accuracy    <       0.00031208 Ry

     iteration # 10     ecut=    36.75 Ry     beta=0.20
     Davidson diagonalization with overlap
     ethr =  1.95E-07,  avg # of iterations =  3.0

     negative rho (up, down):  6.301E-01 0.000E+00
 
     Adding external electric field

     Computed dipole along edir(3) : 
        Dipole               -0.2598 Ry au,         -0.6603 Debye
        Dipole field         -0.0005 Ry au
 
        Potential amp.        0.0425 Ry
        Total length         43.3023 bohr
 

     total cpu time spent up to now is      273.7 secs

     End of self-consistent calculation

          k = 0.0000 0.0000 0.0000 ( 24957 PWs)   bands (ev):

   -11.8527 -11.3571 -11.3571 -11.3514 -11.2925 -11.2925 -11.2403 -11.2283
   -11.2151 -11.2151 -11.2066 -11.2066 -11.1932 -11.1810 -11.0842 -11.0597
   -11.0597 -11.0310 -11.0310 -11.0263 -11.0081 -11.0081 -10.9864 -10.9748
   -10.9748 -10.9673 -10.9673 -10.9020 -10.9020 -10.8890 -10.7596 -10.7596
   -10.7250 -10.7250 -10.7171 -10.6554 -10.6245 -10.6245 -10.6119 -10.6084
   -10.6084 -10.5691 -10.5691 -10.5471 -10.5470 -10.5347 -10.5204 -10.5204
   -10.5200 -10.4828 -10.4827 -10.4466 -10.4466 -10.4418 -10.4024 -10.4024
   -10.3774 -10.3728 -10.3728 -10.2722  -9.0690  -8.5481  -6.5977  -5.4208
    -4.2218  -4.2218  -4.1671  -4.0709  -4.0709  -3.6020  -3.2515  -3.2515
    -3.1763  -1.3629  -1.3581  -1.3580  -0.8517  -0.6708  -0.6707  -0.2524
    -0.1121  -0.1121   0.0203   1.9190   2.0211   2.0211   3.1246   3.7192
     3.7317   3.7317

          k = 0.0000 0.1925 0.0000 ( 25013 PWs)   bands (ev):

   -11.8071 -11.3377 -11.3139 -11.3106 -11.2709 -11.2521 -11.2116 -11.2060
   -11.1963 -11.1940 -11.1792 -11.1695 -11.1576 -11.1518 -11.0700 -11.0539
   -11.0455 -11.0225 -11.0223 -11.0190 -11.0101 -10.9878 -10.9757 -10.9734
   -10.9636 -10.9427 -10.9351 -10.9112 -10.9044 -10.8880 -10.7756 -10.7583
   -10.7485 -10.7321 -10.7308 -10.6627 -10.6472 -10.6439 -10.6364 -10.6232
   -10.6118 -10.5892 -10.5830 -10.5706 -10.5581 -10.5501 -10.5459 -10.5403
   -10.5263 -10.5104 -10.5083 -10.4799 -10.4779 -10.4719 -10.4363 -10.4356
   -10.4243 -10.4149 -10.3853 -10.3070  -8.9663  -8.4422  -6.5696  -5.5805
    -5.1832  -4.5816  -4.5499  -4.2609  -4.0907  -3.4827  -3.2253  -3.1275
    -3.0926  -1.1408  -1.0051  -0.7977  -0.5854  -0.5809  -0.4347  -0.0491
     0.4175   0.4280   1.0805   1.5969   1.9901   2.2248   2.9886   3.2974
     3.6615   3.8004

          k = 0.0000 0.3849 0.0000 ( 25069 PWs)   bands (ev):

   -11.7007 -11.2899 -11.2359 -11.2084 -11.2054 -11.1805 -11.1575 -11.1568
   -11.1409 -11.1380 -11.1165 -11.0861 -11.0832 -11.0673 -11.0467 -11.0440
   -11.0321 -11.0116 -11.0035 -10.9928 -10.9869 -10.9835 -10.9481 -10.9294
   -10.9169 -10.9066 -10.8924 -10.8713 -10.8614 -10.8472 -10.8187 -10.8047
   -10.7757 -10.7621 -10.7347 -10.7277 -10.7128 -10.7110 -10.6794 -10.6670
   -10.6531 -10.6433 -10.6369 -10.6253 -10.6161 -10.6128 -10.5978 -10.5948
   -10.5797 -10.5792 -10.5475 -10.5429 -10.5414 -10.5304 -10.5254 -10.5141
   -10.4636 -10.4563 -10.4305 -10.3571  -8.7144  -8.1150  -6.7208  -6.3476
    -5.5794  -5.0522  -4.9419  -4.6702  -4.3057  -4.1170  -3.1972  -3.0737
    -2.8156  -0.6483  -0.3275  -0.1701   0.0311   0.1300   0.6553   1.1077
     1.2817   1.3218   1.6071   1.8951   2.0982   2.4146   2.7974   3.2466
     3.3377   3.8287

          k = 0.0000-0.5774 0.0000 ( 25090 PWs)   bands (ev):

   -11.6350 -11.2378 -11.2292 -11.2114 -11.1324 -11.1272 -11.1231 -11.1102
   -11.1075 -11.0920 -11.0792 -11.0655 -11.0535 -11.0333 -11.0237 -11.0182
   -10.9945 -10.9926 -10.9885 -10.9671 -10.9574 -10.9311 -10.9288 -10.9185
   -10.9105 -10.9015 -10.8615 -10.8479 -10.8327 -10.8252 -10.8182 -10.8149
   -10.8046 -10.7907 -10.7550 -10.7464 -10.7379 -10.7251 -10.7200 -10.7018
   -10.6993 -10.6860 -10.6826 -10.6743 -10.6663 -10.6590 -10.6538 -10.6527
   -10.6422 -10.6252 -10.6169 -10.5763 -10.5750 -10.5493 -10.5395 -10.5218
   -10.4948 -10.4582 -10.4472 -10.3664  -8.5545  -7.5785  -7.4329  -6.5915
    -5.5521  -5.0730  -5.0361  -4.9469  -4.5766  -4.4047  -3.2160  -3.0969
    -2.5856  -0.6664   0.2570   0.5651   0.5719   0.8075   0.9073   1.1359
     1.1944   1.5359   1.8116   2.2954   2.3411   2.8531   2.8643   3.3846
     3.5581   3.6822

          k = 0.1667-0.0962 0.0000 ( 25013 PWs)   bands (ev):

   -11.8071 -11.3377 -11.3139 -11.3106 -11.2709 -11.2521 -11.2116 -11.2060
   -11.1963 -11.1940 -11.1792 -11.1695 -11.1576 -11.1518 -11.0700 -11.0539
   -11.0455 -11.0225 -11.0223 -11.0190 -11.0101 -10.9878 -10.9757 -10.9734
   -10.9636 -10.9427 -10.9351 -10.9111 -10.9045 -10.8880 -10.7756 -10.7583
   -10.7485 -10.7321 -10.7308 -10.6627 -10.6472 -10.6439 -10.6364 -10.6233
   -10.6118 -10.5892 -10.5830 -10.5706 -10.5582 -10.5501 -10.5459 -10.5403
   -10.5263 -10.5104 -10.5083 -10.4799 -10.4779 -10.4719 -10.4364 -10.4356
   -10.4243 -10.4149 -10.3853 -10.3070  -8.9663  -8.4422  -6.5696  -5.5805
    -5.1833  -4.5816  -4.5499  -4.2609  -4.0907  -3.4827  -3.2253  -3.1275
    -3.0926  -1.1408  -1.0051  -0.7977  -0.5854  -0.5809  -0.4347  -0.0492
     0.4174   0.4280   1.0805   1.5969   1.9901   2.2248   2.9886   3.2974
     3.6615   3.8004

          k = 0.1667 0.0962 0.0000 ( 25013 PWs)   bands (ev):

   -11.8071 -11.3377 -11.3139 -11.3106 -11.2709 -11.2521 -11.2116 -11.2060
   -11.1963 -11.1940 -11.1792 -11.1695 -11.1576 -11.1518 -11.0700 -11.0539
   -11.0455 -11.0225 -11.0223 -11.0190 -11.0101 -10.9878 -10.9757 -10.9734
   -10.9636 -10.9427 -10.9351 -10.9111 -10.9044 -10.8880 -10.7756 -10.7583
   -10.7485 -10.7321 -10.7308 -10.6627 -10.6472 -10.6439 -10.6364 -10.6232
   -10.6118 -10.5892 -10.5830 -10.5706 -10.5581 -10.5501 -10.5459 -10.5403
   -10.5263 -10.5104 -10.5083 -10.4799 -10.4779 -10.4719 -10.4364 -10.4356
   -10.4243 -10.4149 -10.3853 -10.3070  -8.9663  -8.4422  -6.5696  -5.5805
    -5.1832  -4.5816  -4.5499  -4.2609  -4.0907  -3.4827  -3.2253  -3.1275
    -3.0926  -1.1408  -1.0051  -0.7977  -0.5854  -0.5809  -0.4347  -0.0491
     0.4175   0.4280   1.0805   1.5969   1.9901   2.2248   2.9886   3.2974
     3.6615   3.8004

          k = 0.1667 0.2887 0.0000 ( 25022 PWs)   bands (ev):

   -11.7292 -11.2813 -11.2788 -11.2280 -11.2211 -11.2028 -11.1681 -11.1634
   -11.1573 -11.1540 -11.1331 -11.1153 -11.1057 -11.0799 -11.0637 -11.0432
   -11.0228 -11.0179 -11.0125 -11.0009 -10.9960 -10.9880 -10.9831 -10.9515
   -10.9216 -10.9106 -10.8925 -10.8870 -10.8815 -10.8733 -10.8027 -10.7812
   -10.7712 -10.7520 -10.7452 -10.7069 -10.6968 -10.6812 -10.6749 -10.6467
   -10.6387 -10.6270 -10.6130 -10.6104 -10.5978 -10.5928 -10.5750 -10.5741
   -10.5672 -10.5626 -10.5380 -10.5239 -10.5183 -10.5073 -10.4947 -10.4884
   -10.4750 -10.4567 -10.4062 -10.3633  -8.7861  -8.2256  -6.5768  -5.8450
    -5.8018  -5.4667  -4.9935  -4.1208  -3.8590  -3.7230  -3.5796  -3.0860
    -3.0363  -0.9067  -0.4315  -0.3255  -0.0395   0.2777   0.3018   0.4729
     0.6156   1.5138   1.6657   1.9521   1.9778   2.3339   2.7820   2.9599
     3.3287   3.7805

          k = 0.1667-0.6736 0.0000 ( 25036 PWs)   bands (ev):

   -11.6322 -11.2263 -11.2005 -11.1725 -11.1636 -11.1442 -11.1223 -11.1083
   -11.0997 -11.0924 -11.0709 -11.0671 -11.0510 -11.0471 -11.0343 -11.0196
   -11.0150 -10.9976 -10.9890 -10.9783 -10.9626 -10.9540 -10.9341 -10.9113
   -10.8961 -10.8871 -10.8717 -10.8604 -10.8532 -10.8457 -10.8405 -10.8146
   -10.8005 -10.7855 -10.7757 -10.7591 -10.7380 -10.7329 -10.7122 -10.7094
   -10.7019 -10.6887 -10.6762 -10.6633 -10.6460 -10.6410 -10.6324 -10.6262
   -10.6145 -10.6117 -10.5832 -10.5679 -10.5560 -10.5537 -10.5374 -10.5233
   -10.4933 -10.4805 -10.4641 -10.3977  -8.5647  -7.7563  -6.9856  -6.4837
    -6.1197  -5.5950  -5.2104  -4.5960  -4.0289  -3.8839  -3.6258  -2.8518
    -2.7975  -0.6756  -0.0840   0.1548   0.5896   0.7185   1.0106   1.3277
     1.4651   1.7265   2.0361   2.1959   2.2602   2.5011   2.8346   3.0789
     3.3385   3.4941

          k = 0.1667-0.4811 0.0000 ( 25036 PWs)   bands (ev):

   -11.6322 -11.2263 -11.2005 -11.1725 -11.1636 -11.1442 -11.1223 -11.1083
   -11.0997 -11.0924 -11.0709 -11.0671 -11.0510 -11.0471 -11.0343 -11.0196
   -11.0150 -10.9976 -10.9890 -10.9783 -10.9626 -10.9540 -10.9341 -10.9113
   -10.8961 -10.8871 -10.8717 -10.8604 -10.8532 -10.8457 -10.8405 -10.8146
   -10.8005 -10.7855 -10.7757 -10.7591 -10.7380 -10.7329 -10.7123 -10.7094
   -10.7019 -10.6887 -10.6762 -10.6633 -10.6460 -10.6410 -10.6324 -10.6262
   -10.6145 -10.6117 -10.5832 -10.5679 -10.5560 -10.5537 -10.5374 -10.5233
   -10.4933 -10.4805 -10.4641 -10.3977  -8.5647  -7.7563  -6.9856  -6.4837
    -6.1197  -5.5950  -5.2104  -4.5960  -4.0289  -3.8839  -3.6258  -2.8518
    -2.7976  -0.6756  -0.0841   0.1548   0.5897   0.7185   1.0106   1.3277
     1.4651   1.7265   2.0361   2.1959   2.2602   2.5011   2.8346   3.0789
     3.3385   3.4941

          k = 0.1667-0.2887 0.0000 ( 25022 PWs)   bands (ev):

   -11.7292 -11.2813 -11.2788 -11.2280 -11.2211 -11.2028 -11.1681 -11.1634
   -11.1573 -11.1540 -11.1331 -11.1153 -11.1057 -11.0799 -11.0637 -11.0432
   -11.0228 -11.0179 -11.0125 -11.0009 -10.9960 -10.9880 -10.9831 -10.9515
   -10.9216 -10.9106 -10.8925 -10.8870 -10.8815 -10.8732 -10.8027 -10.7812
   -10.7712 -10.7520 -10.7452 -10.7069 -10.6968 -10.6812 -10.6749 -10.6467
   -10.6388 -10.6270 -10.6131 -10.6104 -10.5978 -10.5928 -10.5750 -10.5741
   -10.5672 -10.5626 -10.5380 -10.5239 -10.5183 -10.5073 -10.4947 -10.4884
   -10.4750 -10.4567 -10.4062 -10.3633  -8.7861  -8.2256  -6.5768  -5.8450
    -5.8018  -5.4667  -4.9935  -4.1208  -3.8590  -3.7230  -3.5796  -3.0860
    -3.0363  -0.9067  -0.4315  -0.3255  -0.0395   0.2777   0.3018   0.4729
     0.6156   1.5138   1.6657   1.9521   1.9778   2.3339   2.7820   2.9599
     3.3287   3.7805

          k = 0.3333-0.1925 0.0000 ( 25069 PWs)   bands (ev):

   -11.7007 -11.2899 -11.2359 -11.2084 -11.2054 -11.1805 -11.1575 -11.1568
   -11.1409 -11.1380 -11.1165 -11.0861 -11.0832 -11.0673 -11.0467 -11.0440
   -11.0321 -11.0116 -11.0035 -10.9928 -10.9868 -10.9835 -10.9481 -10.9294
   -10.9169 -10.9066 -10.8924 -10.8713 -10.8614 -10.8472 -10.8187 -10.8047
   -10.7757 -10.7621 -10.7347 -10.7277 -10.7128 -10.7109 -10.6794 -10.6670
   -10.6531 -10.6433 -10.6369 -10.6253 -10.6161 -10.6128 -10.5978 -10.5948
   -10.5797 -10.5792 -10.5475 -10.5429 -10.5414 -10.5304 -10.5253 -10.5141
   -10.4636 -10.4563 -10.4305 -10.3571  -8.7144  -8.1150  -6.7208  -6.3476
    -5.5794  -5.0522  -4.9419  -4.6702  -4.3057  -4.1170  -3.1972  -3.0737
    -2.8156  -0.6483  -0.3275  -0.1701   0.0311   0.1300   0.6553   1.1077
     1.2817   1.3218   1.6071   1.8951   2.0982   2.4145   2.7974   3.2466
     3.3377   3.8286

          k = 0.3333-0.0000 0.0000 ( 25022 PWs)   bands (ev):

   -11.7292 -11.2813 -11.2788 -11.2280 -11.2211 -11.2028 -11.1681 -11.1634
   -11.1573 -11.1540 -11.1331 -11.1153 -11.1057 -11.0799 -11.0637 -11.0432
   -11.0228 -11.0179 -11.0125 -11.0009 -10.9960 -10.9880 -10.9831 -10.9515
   -10.9216 -10.9106 -10.8925 -10.8870 -10.8815 -10.8733 -10.8027 -10.7812
   -10.7712 -10.7520 -10.7452 -10.7069 -10.6968 -10.6812 -10.6748 -10.6467
   -10.6387 -10.6270 -10.6131 -10.6104 -10.5978 -10.5928 -10.5750 -10.5741
   -10.5672 -10.5626 -10.5380 -10.5239 -10.5183 -10.5072 -10.4947 -10.4884
   -10.4750 -10.4567 -10.4062 -10.3633  -8.7861  -8.2256  -6.5768  -5.8450
    -5.8018  -5.4667  -4.9935  -4.1208  -3.8590  -3.7230  -3.5796  -3.0860
    -3.0363  -0.9067  -0.4315  -0.3255  -0.0395   0.2777   0.3018   0.4729
     0.6156   1.5138   1.6657   1.9521   1.9778   2.3339   2.7820   2.9599
     3.3287   3.7805

          k = 0.3333 0.1925 0.0000 ( 25069 PWs)   bands (ev):

   -11.7007 -11.2900 -11.2359 -11.2084 -11.2054 -11.1805 -11.1575 -11.1568
   -11.1409 -11.1380 -11.1165 -11.0861 -11.0832 -11.0673 -11.0467 -11.0440
   -11.0321 -11.0116 -11.0035 -10.9928 -10.9869 -10.9835 -10.9481 -10.9294
   -10.9169 -10.9066 -10.8924 -10.8713 -10.8614 -10.8472 -10.8187 -10.8047
   -10.7757 -10.7621 -10.7347 -10.7277 -10.7128 -10.7109 -10.6794 -10.6670
   -10.6531 -10.6433 -10.6369 -10.6253 -10.6161 -10.6128 -10.5978 -10.5948
   -10.5797 -10.5792 -10.5475 -10.5429 -10.5414 -10.5304 -10.5254 -10.5141
   -10.4636 -10.4563 -10.4305 -10.3571  -8.7144  -8.1150  -6.7208  -6.3476
    -5.5794  -5.0521  -4.9419  -4.6702  -4.3057  -4.1170  -3.1972  -3.0737
    -2.8156  -0.6483  -0.3275  -0.1701   0.0311   0.1300   0.6553   1.1077
     1.2817   1.3218   1.6071   1.8951   2.0982   2.4146   2.7974   3.2466
     3.3377   3.8286

          k = 0.3333-0.7698 0.0000 ( 25036 PWs)   bands (ev):

   -11.6322 -11.2263 -11.2005 -11.1725 -11.1636 -11.1442 -11.1224 -11.1083
   -11.0997 -11.0924 -11.0709 -11.0671 -11.0510 -11.0471 -11.0343 -11.0196
   -11.0150 -10.9976 -10.9890 -10.9783 -10.9626 -10.9540 -10.9341 -10.9113
   -10.8961 -10.8871 -10.8717 -10.8604 -10.8532 -10.8457 -10.8405 -10.8146
   -10.8004 -10.7855 -10.7757 -10.7591 -10.7380 -10.7329 -10.7122 -10.7094
   -10.7019 -10.6887 -10.6762 -10.6633 -10.6460 -10.6410 -10.6324 -10.6262
   -10.6145 -10.6117 -10.5832 -10.5679 -10.5560 -10.5537 -10.5374 -10.5233
   -10.4933 -10.4805 -10.4641 -10.3977  -8.5647  -7.7563  -6.9856  -6.4837
    -6.1197  -5.5950  -5.2104  -4.5960  -4.0289  -3.8839  -3.6258  -2.8518
    -2.7975  -0.6756  -0.0840   0.1548   0.5896   0.7185   1.0106   1.3277
     1.4651   1.7265   2.0361   2.1959   2.2602   2.5011   2.8346   3.0789
     3.3385   3.4941

          k = 0.3333-0.5774 0.0000 ( 25044 PWs)   bands (ev):

   -11.5894 -11.1697 -11.1470 -11.1428 -11.1329 -11.1210 -11.0954 -11.0912
   -11.0879 -11.0781 -11.0758 -11.0688 -11.0646 -11.0339 -11.0289 -11.0137
   -10.9933 -10.9883 -10.9653 -10.9614 -10.9454 -10.9417 -10.9240 -10.8971
   -10.8900 -10.8881 -10.8622 -10.8579 -10.8558 -10.8450 -10.8445 -10.8357
   -10.8282 -10.8071 -10.7937 -10.7920 -10.7827 -10.7719 -10.7600 -10.7494
   -10.7312 -10.6909 -10.6695 -10.6634 -10.6541 -10.6457 -10.6390 -10.6241
   -10.6073 -10.5796 -10.5716 -10.5714 -10.5619 -10.5600 -10.5584 -10.5444
   -10.5423 -10.4928 -10.4719 -10.4637  -8.4895  -7.1659  -7.1087  -7.0042
    -6.2514  -6.1033  -4.9553  -4.5983  -4.5798  -3.3916  -3.1826  -3.0633
    -2.8500  -0.7337   0.2509   0.2908   0.5414   0.7143   1.1400   1.3288
     1.3618   1.6224   2.4435   2.4893   2.7617   2.8519   2.9393   3.3033
     3.6451   3.6988

          k = 0.3333-0.3849 0.0000 ( 25036 PWs)   bands (ev):

   -11.6322 -11.2263 -11.2005 -11.1725 -11.1636 -11.1442 -11.1223 -11.1083
   -11.0997 -11.0924 -11.0709 -11.0671 -11.0510 -11.0471 -11.0343 -11.0196
   -11.0150 -10.9976 -10.9890 -10.9783 -10.9626 -10.9540 -10.9341 -10.9113
   -10.8961 -10.8871 -10.8717 -10.8604 -10.8532 -10.8457 -10.8405 -10.8146
   -10.8005 -10.7855 -10.7757 -10.7591 -10.7380 -10.7329 -10.7123 -10.7094
   -10.7019 -10.6887 -10.6762 -10.6633 -10.6460 -10.6410 -10.6324 -10.6262
   -10.6145 -10.6117 -10.5831 -10.5679 -10.5560 -10.5537 -10.5374 -10.5233
   -10.4933 -10.4805 -10.4641 -10.3977  -8.5647  -7.7563  -6.9856  -6.4837
    -6.1197  -5.5950  -5.2104  -4.5960  -4.0289  -3.8839  -3.6258  -2.8518
    -2.7976  -0.6756  -0.0841   0.1548   0.5897   0.7185   1.0106   1.3277
     1.4651   1.7265   2.0361   2.1959   2.2602   2.5011   2.8346   3.0789
     3.3385   3.4941

          k =-0.5000 0.2887 0.0000 ( 25090 PWs)   bands (ev):

   -11.6350 -11.2378 -11.2291 -11.2114 -11.1324 -11.1272 -11.1231 -11.1102
   -11.1075 -11.0920 -11.0792 -11.0655 -11.0535 -11.0333 -11.0237 -11.0182
   -10.9945 -10.9926 -10.9885 -10.9671 -10.9575 -10.9311 -10.9288 -10.9185
   -10.9105 -10.9015 -10.8615 -10.8479 -10.8327 -10.8252 -10.8182 -10.8149
   -10.8046 -10.7907 -10.7550 -10.7464 -10.7379 -10.7251 -10.7200 -10.7018
   -10.6993 -10.6860 -10.6826 -10.6743 -10.6663 -10.6590 -10.6538 -10.6527
   -10.6422 -10.6252 -10.6169 -10.5763 -10.5750 -10.5493 -10.5395 -10.5218
   -10.4948 -10.4581 -10.4473 -10.3664  -8.5545  -7.5785  -7.4329  -6.5915
    -5.5521  -5.0730  -5.0361  -4.9469  -4.5766  -4.4047  -3.2160  -3.0969
    -2.5856  -0.6664   0.2570   0.5651   0.5719   0.8075   0.9073   1.1360
     1.1944   1.5359   1.8116   2.2954   2.3411   2.8530   2.8643   3.3846
     3.5581   3.6822

          k =-0.5000 0.4811 0.0000 ( 25036 PWs)   bands (ev):

   -11.6322 -11.2263 -11.2005 -11.1725 -11.1636 -11.1442 -11.1223 -11.1083
   -11.0997 -11.0924 -11.0709 -11.0671 -11.0510 -11.0471 -11.0343 -11.0196
   -11.0150 -10.9976 -10.9890 -10.9783 -10.9626 -10.9540 -10.9341 -10.9113
   -10.8961 -10.8871 -10.8717 -10.8604 -10.8532 -10.8457 -10.8405 -10.8146
   -10.8005 -10.7855 -10.7757 -10.7591 -10.7380 -10.7329 -10.7123 -10.7094
   -10.7019 -10.6887 -10.6762 -10.6633 -10.6460 -10.6410 -10.6324 -10.6262
   -10.6145 -10.6117 -10.5831 -10.5679 -10.5560 -10.5537 -10.5374 -10.5233
   -10.4933 -10.4805 -10.4641 -10.3977  -8.5647  -7.7563  -6.9856  -6.4837
    -6.1197  -5.5950  -5.2104  -4.5960  -4.0289  -3.8839  -3.6258  -2.8518
    -2.7975  -0.6756  -0.0841   0.1548   0.5896   0.7185   1.0106   1.3277
     1.4651   1.7265   2.0361   2.1959   2.2602   2.5011   2.8346   3.0789
     3.3385   3.4941

          k =-0.5000 0.6736 0.0000 ( 25036 PWs)   bands (ev):

   -11.6322 -11.2263 -11.2005 -11.1725 -11.1636 -11.1442 -11.1223 -11.1083
   -11.0997 -11.0924 -11.0709 -11.0671 -11.0510 -11.0471 -11.0343 -11.0196
   -11.0150 -10.9976 -10.9890 -10.9783 -10.9626 -10.9540 -10.9341 -10.9113
   -10.8961 -10.8871 -10.8717 -10.8604 -10.8532 -10.8457 -10.8405 -10.8146
   -10.8005 -10.7855 -10.7757 -10.7591 -10.7380 -10.7329 -10.7123 -10.7094
   -10.7019 -10.6887 -10.6762 -10.6633 -10.6460 -10.6410 -10.6324 -10.6262
   -10.6145 -10.6117 -10.5832 -10.5679 -10.5560 -10.5537 -10.5374 -10.5233
   -10.4933 -10.4805 -10.4641 -10.3977  -8.5647  -7.7563  -6.9856  -6.4837
    -6.1197  -5.5950  -5.2104  -4.5960  -4.0289  -3.8839  -3.6258  -2.8518
    -2.7975  -0.6756  -0.0840   0.1548   0.5897   0.7185   1.0106   1.3277
     1.4651   1.7265   2.0361   2.1959   2.2602   2.5011   2.8346   3.0789
     3.3385   3.4941

          k =-0.5000-0.2887 0.0000 ( 25090 PWs)   bands (ev):

   -11.6350 -11.2378 -11.2292 -11.2114 -11.1324 -11.1272 -11.1231 -11.1102
   -11.1075 -11.0920 -11.0792 -11.0655 -11.0535 -11.0334 -11.0237 -11.0182
   -10.9945 -10.9926 -10.9885 -10.9671 -10.9574 -10.9311 -10.9288 -10.9185
   -10.9105 -10.9015 -10.8615 -10.8479 -10.8327 -10.8252 -10.8182 -10.8149
   -10.8046 -10.7907 -10.7550 -10.7464 -10.7379 -10.7251 -10.7200 -10.7018
   -10.6993 -10.6860 -10.6826 -10.6743 -10.6663 -10.6590 -10.6538 -10.6527
   -10.6422 -10.6252 -10.6169 -10.5763 -10.5750 -10.5493 -10.5395 -10.5218
   -10.4948 -10.4582 -10.4473 -10.3664  -8.5545  -7.5785  -7.4329  -6.5915
    -5.5521  -5.0730  -5.0361  -4.9469  -4.5766  -4.4047  -3.2160  -3.0969
    -2.5856  -0.6664   0.2570   0.5651   0.5719   0.8075   0.9073   1.1359
     1.1944   1.5359   1.8116   2.2954   2.3410   2.8530   2.8643   3.3845
     3.5581   3.6822

     the Fermi energy is     1.0538 ev

!    total energy              =   -1772.81693665 Ry
     Harris-Foulkes estimate   =   -1772.81702836 Ry
     estimated scf accuracy    <       0.00007486 Ry

     The total energy is the sum of the following terms:

     one-electron contribution =   -8429.56355348 Ry
     hartree contribution      =    4298.64778061 Ry
     xc contribution           =    -771.86163467 Ry
     ewald contribution        =    3129.99555550 Ry
     electric field correction =       0.00012743 Ry
     smearing contrib. (-TS)   =      -0.03521203 Ry

     convergence has been achieved in  10 iterations

     Forces acting on atoms (Ry/au):


     negative rho (up, down):  6.301E-01 0.000E+00
     atom    1 type  1   force =     0.00003790   -0.00000491   -0.03218856
     atom    2 type  1   force =    -0.00000150    0.00001113   -0.03216153
     atom    3 type  1   force =     0.00000421   -0.00004946   -0.03218233
     atom    4 type  1   force =    -0.00000186    0.00003413   -0.02824990
     atom    5 type  1   force =    -0.00000892   -0.00195405    0.02158702
     atom    6 type  1   force =     0.00000761   -0.00000081    0.02473363
     atom    7 type  1   force =     0.00167770    0.00096644    0.02156632
     atom    8 type  1   force =    -0.00165187    0.00096585    0.02156736
     atom    9 type  1   force =     0.00001884   -0.00000508    0.01183979
     atom   10 type  1   force =     0.00001177    0.00257473    0.00905796
     atom   11 type  1   force =     0.00219340   -0.00129175    0.00899169
     atom   12 type  1   force =    -0.00229582   -0.00124530    0.00901175
     atom   13 type  2   force =     0.00000853   -0.00000092   -0.00357319

     Total force =     0.020420     Total SCF correction =     0.039523
     SCF correction compared to forces is large: reduce conv_thr to get better values

     BFGS Geometry Optimization

     number of scf cycles    =   1
     number of bfgs steps    =   0

     energy   new            =   -1772.8169366526 Ry

     new trust radius        =       0.0118398070 bohr
     new conv_thr            =       0.0001000000 Ry


ATOMIC_POSITIONS (angstrom)
Tl       1.671975640   0.965315586  10.000000000    0   0   0
Tl       5.015926920   0.965315586  10.000000000    0   0   0
Tl       3.343951280   3.861262344  10.000000000    0   0   0
Tl       6.687902560   3.861262344  10.000000000    0   0   0
Tl       6.687902560   1.930631172  12.730324787    0   0   0
Tl       3.343951280   1.930631172  12.730324787    0   0   0
Tl       8.359878201   4.826577929  12.730324787    0   0   0
Tl       5.015926920   4.826577929  12.730324787    0   0   0
Tl       0.000031341  -0.000005553  15.943726702
Tl       3.343958049  -0.096530525  15.815932551
Tl       1.588372704   2.944208132  15.815870441
Tl       5.099498329   2.944224749  15.815928518
C        3.343965109   1.930626668  16.876350771



     Writing output data file calc.save
     Check: negative starting charge=   -0.601862
     NEW-OLD atomic charge density approx. for the potential

     Check: negative/imaginary core charge=   -0.000001    0.000000
     Check: negative starting charge=   -0.602861

     negative rho (up, down):  6.312E-01 0.000E+00
 
     Adding external electric field

     Computed dipole along edir(3) : 
        Dipole               -0.2596 Ry au,         -0.6598 Debye
        Dipole field         -0.0005 Ry au
 
        Potential amp.        0.0424 Ry
        Total length         43.3023 bohr
 

     total cpu time spent up to now is      302.8 secs

     per-process dynamical memory:   101.7 Mb

     Self-consistent Calculation

     iteration #  1     ecut=    36.75 Ry     beta=0.20
     Davidson diagonalization with overlap
     ethr =  1.00E-06,  avg # of iterations =  4.0

     negative rho (up, down):  6.312E-01 0.000E+00
 
     Adding external electric field

     Computed dipole along edir(3) : 
        Dipole               -0.5685 Ry au,         -1.4450 Debye
        Dipole field         -0.0011 Ry au
 
        Potential amp.        0.0930 Ry
        Total length         43.3023 bohr
 

     total cpu time spent up to now is      337.3 secs

     total energy              =   -1772.81014042 Ry
     Harris-Foulkes estimate   =   -1772.81744281 Ry
     estimated scf accuracy    <       0.02236448 Ry

     iteration #  2     ecut=    36.75 Ry     beta=0.20
     Davidson diagonalization with overlap
     ethr =  1.40E-05,  avg # of iterations =  7.2

     negative rho (up, down):  6.312E-01 0.000E+00
 
     Adding external electric field

     Computed dipole along edir(3) : 
        Dipole               -0.2663 Ry au,         -0.6768 Debye
        Dipole field         -0.0005 Ry au
 
        Potential amp.        0.0435 Ry
        Total length         43.3023 bohr
 

     total cpu time spent up to now is      366.2 secs

     total energy              =   -1772.79651303 Ry
     Harris-Foulkes estimate   =   -1772.83698687 Ry
     estimated scf accuracy    <       0.71375002 Ry

     iteration #  3     ecut=    36.75 Ry     beta=0.20
     Davidson diagonalization with overlap
     ethr =  1.40E-05,  avg # of iterations =  6.8

     negative rho (up, down):  6.312E-01 0.000E+00
 
     Adding external electric field

     Computed dipole along edir(3) : 
        Dipole               -0.2890 Ry au,         -0.7346 Debye
        Dipole field         -0.0005 Ry au
 
        Potential amp.        0.0473 Ry
        Total length         43.3023 bohr
 

     total cpu time spent up to now is      394.7 secs

     total energy              =   -1772.81679239 Ry
     Harris-Foulkes estimate   =   -1772.81719905 Ry
     estimated scf accuracy    <       0.00340457 Ry

     iteration #  4     ecut=    36.75 Ry     beta=0.20
     Davidson diagonalization with overlap
     ethr =  2.13E-06,  avg # of iterations =  3.5

     negative rho (up, down):  6.313E-01 0.000E+00
 
     Adding external electric field

     Computed dipole along edir(3) : 
        Dipole               -0.3303 Ry au,         -0.8395 Debye
        Dipole field         -0.0006 Ry au
 
        Potential amp.        0.0540 Ry
        Total length         43.3023 bohr
 

     total cpu time spent up to now is      419.8 secs

     End of self-consistent calculation

          k = 0.0000 0.0000 0.0000 ( 24957 PWs)   bands (ev):

   -11.8727 -11.3592 -11.3592 -11.3532 -11.2987 -11.2987 -11.2436 -11.2304
   -11.2173 -11.2173 -11.2080 -11.2080 -11.1942 -11.1821 -11.0849 -11.0658
   -11.0658 -11.0320 -11.0320 -11.0262 -11.0104 -11.0104 -10.9871 -10.9787
   -10.9787 -10.9694 -10.9694 -10.9026 -10.9026 -10.8891 -10.7623 -10.7623
   -10.7260 -10.7260 -10.7199 -10.6553 -10.6252 -10.6252 -10.6128 -10.6097
   -10.6097 -10.5704 -10.5704 -10.5477 -10.5477 -10.5354 -10.5221 -10.5221
   -10.5215 -10.4844 -10.4844 -10.4489 -10.4489 -10.4440 -10.4042 -10.4042
   -10.3775 -10.3757 -10.3757 -10.2753  -9.0716  -8.5546  -6.5960  -5.4251
    -4.2239  -4.2239  -4.1691  -4.0782  -4.0782  -3.6000  -3.2557  -3.2557
    -3.1793  -1.3665  -1.3596  -1.3596  -0.8544  -0.6775  -0.6775  -0.2562
    -0.1166  -0.1166   0.0149   1.9197   2.0183   2.0183   3.1283   3.7222
     3.7290   3.7290

          k = 0.0000 0.1925 0.0000 ( 25013 PWs)   bands (ev):

   -11.8273 -11.3397 -11.3160 -11.3125 -11.2772 -11.2585 -11.2151 -11.2078
   -11.1982 -11.1954 -11.1812 -11.1717 -11.1585 -11.1532 -11.0708 -11.0600
   -11.0516 -11.0237 -11.0237 -11.0198 -11.0115 -10.9909 -10.9780 -10.9750
   -10.9650 -10.9454 -10.9382 -10.9118 -10.9049 -10.8883 -10.7782 -10.7607
   -10.7497 -10.7343 -10.7319 -10.6628 -10.6480 -10.6445 -10.6378 -10.6244
   -10.6132 -10.5906 -10.5842 -10.5712 -10.5597 -10.5519 -10.5470 -10.5415
   -10.5276 -10.5118 -10.5103 -10.4821 -10.4800 -10.4739 -10.4379 -10.4376
   -10.4269 -10.4153 -10.3876 -10.3103  -8.9698  -8.4482  -6.5679  -5.5854
    -5.1847  -4.5833  -4.5511  -4.2651  -4.0997  -3.4838  -3.2293  -3.1305
    -3.0960  -1.1460  -1.0069  -0.8002  -0.5878  -0.5869  -0.4394  -0.0538
     0.4135   0.4233   1.0764   1.5944   1.9873   2.2240   2.9868   3.2972
     3.6582   3.8044

          k = 0.0000 0.3849 0.0000 ( 25069 PWs)   bands (ev):

   -11.7216 -11.2919 -11.2426 -11.2101 -11.2069 -11.1821 -11.1635 -11.1586
   -11.1440 -11.1399 -11.1207 -11.0882 -11.0849 -11.0682 -11.0498 -11.0481
   -11.0337 -11.0160 -11.0077 -10.9945 -10.9892 -10.9847 -10.9493 -10.9303
   -10.9174 -10.9077 -10.8943 -10.8720 -10.8624 -10.8508 -10.8201 -10.8068
   -10.7767 -10.7636 -10.7359 -10.7290 -10.7142 -10.7125 -10.6801 -10.6684
   -10.6548 -10.6444 -10.6376 -10.6271 -10.6186 -10.6140 -10.5993 -10.5956
   -10.5818 -10.5803 -10.5493 -10.5453 -10.5424 -10.5317 -10.5270 -10.5146
   -10.4654 -10.4583 -10.4321 -10.3597  -8.7212  -8.1187  -6.7199  -6.3490
    -5.5840  -5.0520  -4.9432  -4.6726  -4.3151  -4.1217  -3.1976  -3.0771
    -2.8180  -0.6602  -0.3280  -0.1717   0.0275   0.1244   0.6499   1.1070
     1.2779   1.3186   1.6019   1.8921   2.0949   2.4132   2.7971   3.2432
     3.3365   3.8270

          k = 0.0000-0.5774 0.0000 ( 25090 PWs)   bands (ev):

   -11.6567 -11.2427 -11.2318 -11.2142 -11.1339 -11.1284 -11.1248 -11.1124
   -11.1082 -11.0935 -11.0874 -11.0685 -11.0553 -11.0378 -11.0295 -11.0235
   -10.9982 -10.9943 -10.9901 -10.9686 -10.9592 -10.9325 -10.9311 -10.9203
   -10.9114 -10.9028 -10.8627 -10.8481 -10.8344 -10.8260 -10.8198 -10.8150
   -10.8056 -10.7918 -10.7559 -10.7484 -10.7399 -10.7268 -10.7219 -10.7040
   -10.7008 -10.6870 -10.6837 -10.6762 -10.6677 -10.6594 -10.6544 -10.6541
   -10.6437 -10.6279 -10.6186 -10.5782 -10.5769 -10.5499 -10.5413 -10.5224
   -10.4973 -10.4600 -10.4480 -10.3686  -8.5643  -7.5776  -7.4353  -6.5937
    -5.5499  -5.0742  -5.0379  -4.9518  -4.5815  -4.4141  -3.2166  -3.1007
    -2.5847  -0.6788   0.2516   0.5632   0.5676   0.8052   0.9046   1.1282
     1.1931   1.5305   1.8073   2.2941   2.3403   2.8486   2.8666   3.3857
     3.5572   3.6816

          k = 0.1667-0.0962 0.0000 ( 25013 PWs)   bands (ev):

   -11.8273 -11.3397 -11.3160 -11.3125 -11.2772 -11.2585 -11.2151 -11.2078
   -11.1982 -11.1954 -11.1812 -11.1718 -11.1585 -11.1532 -11.0708 -11.0600
   -11.0516 -11.0237 -11.0237 -11.0198 -11.0115 -10.9909 -10.9780 -10.9750
   -10.9650 -10.9454 -10.9382 -10.9118 -10.9049 -10.8883 -10.7782 -10.7607
   -10.7497 -10.7343 -10.7319 -10.6628 -10.6480 -10.6445 -10.6378 -10.6244
   -10.6132 -10.5906 -10.5842 -10.5712 -10.5597 -10.5519 -10.5470 -10.5415
   -10.5276 -10.5118 -10.5103 -10.4820 -10.4800 -10.4739 -10.4379 -10.4376
   -10.4269 -10.4153 -10.3876 -10.3103  -8.9698  -8.4482  -6.5679  -5.5854
    -5.1847  -4.5833  -4.5511  -4.2651  -4.0998  -3.4838  -3.2293  -3.1305
    -3.0960  -1.1460  -1.0069  -0.8002  -0.5878  -0.5869  -0.4394  -0.0538
     0.4135   0.4233   1.0764   1.5944   1.9873   2.2240   2.9868   3.2972
     3.6582   3.8044

          k = 0.1667 0.0962 0.0000 ( 25013 PWs)   bands (ev):

   -11.8273 -11.3397 -11.3160 -11.3125 -11.2772 -11.2585 -11.2151 -11.2078
   -11.1982 -11.1954 -11.1812 -11.1717 -11.1585 -11.1532 -11.0708 -11.0600
   -11.0516 -11.0237 -11.0237 -11.0198 -11.0115 -10.9909 -10.9780 -10.9750
   -10.9650 -10.9454 -10.9382 -10.9118 -10.9049 -10.8883 -10.7782 -10.7607
   -10.7497 -10.7343 -10.7319 -10.6628 -10.6480 -10.6445 -10.6378 -10.6244
   -10.6132 -10.5906 -10.5842 -10.5712 -10.5597 -10.5519 -10.5470 -10.5415
   -10.5276 -10.5118 -10.5103 -10.4821 -10.4800 -10.4739 -10.4379 -10.4376
   -10.4269 -10.4153 -10.3876 -10.3103  -8.9698  -8.4482  -6.5679  -5.5854
    -5.1847  -4.5833  -4.5511  -4.2651  -4.0997  -3.4838  -3.2293  -3.1305
    -3.0960  -1.1460  -1.0069  -0.8002  -0.5878  -0.5869  -0.4394  -0.0538
     0.4135   0.4233   1.0764   1.5944   1.9873   2.2240   2.9868   3.2973
     3.6582   3.8044

          k = 0.1667 0.2887 0.0000 ( 25022 PWs)   bands (ev):

   -11.7499 -11.2834 -11.2806 -11.2345 -11.2231 -11.2087 -11.1694 -11.1654
   -11.1594 -11.1559 -11.1377 -11.1171 -11.1071 -11.0812 -11.0653 -11.0490
   -11.0276 -11.0212 -11.0140 -11.0026 -10.9973 -10.9893 -10.9852 -10.9524
   -10.9225 -10.9126 -10.8931 -10.8879 -10.8828 -10.8765 -10.8050 -10.7822
   -10.7727 -10.7540 -10.7464 -10.7085 -10.6981 -10.6822 -10.6757 -10.6478
   -10.6397 -10.6290 -10.6144 -10.6120 -10.5981 -10.5942 -10.5770 -10.5761
   -10.5693 -10.5639 -10.5396 -10.5253 -10.5199 -10.5088 -10.4963 -10.4903
   -10.4763 -10.4573 -10.4082 -10.3667  -8.7918  -8.2302  -6.5755  -5.8447
    -5.8039  -5.4726  -4.9983  -4.1229  -3.8608  -3.7282  -3.5840  -3.0880
    -3.0403  -0.9123  -0.4354  -0.3305  -0.0446   0.2773   0.2998   0.4674
     0.6101   1.5100   1.6639   1.9480   1.9747   2.3334   2.7798   2.9561
     3.3263   3.7805

          k = 0.1667-0.6736 0.0000 ( 25036 PWs)   bands (ev):

   -11.6539 -11.2288 -11.2067 -11.1742 -11.1652 -11.1451 -11.1285 -11.1104
   -11.1017 -11.0946 -11.0748 -11.0693 -11.0542 -11.0499 -11.0381 -11.0235
   -11.0174 -11.0007 -10.9906 -10.9817 -10.9649 -10.9551 -10.9362 -10.9133
   -10.8970 -10.8881 -10.8726 -10.8615 -10.8543 -10.8465 -10.8421 -10.8159
   -10.8018 -10.7866 -10.7770 -10.7601 -10.7396 -10.7341 -10.7146 -10.7107
   -10.7037 -10.6901 -10.6777 -10.6647 -10.6476 -10.6422 -10.6341 -10.6276
   -10.6157 -10.6135 -10.5851 -10.5691 -10.5578 -10.5545 -10.5383 -10.5242
   -10.4951 -10.4819 -10.4662 -10.4003  -8.5741  -7.7578  -6.9855  -6.4852
    -6.1203  -5.5974  -5.2157  -4.5994  -4.0313  -3.8874  -3.6324  -2.8536
    -2.7963  -0.6879  -0.0869   0.1510   0.5841   0.7141   1.0074   1.3246
     1.4608   1.7246   2.0339   2.1941   2.2573   2.4998   2.8322   3.0768
     3.3362   3.4916

          k = 0.1667-0.4811 0.0000 ( 25036 PWs)   bands (ev):

   -11.6539 -11.2288 -11.2067 -11.1742 -11.1652 -11.1451 -11.1285 -11.1104
   -11.1017 -11.0946 -11.0748 -11.0693 -11.0542 -11.0499 -11.0381 -11.0235
   -11.0174 -11.0007 -10.9906 -10.9817 -10.9649 -10.9551 -10.9362 -10.9133
   -10.8970 -10.8881 -10.8726 -10.8615 -10.8543 -10.8465 -10.8421 -10.8159
   -10.8018 -10.7866 -10.7770 -10.7601 -10.7396 -10.7341 -10.7146 -10.7107
   -10.7037 -10.6901 -10.6777 -10.6647 -10.6476 -10.6422 -10.6341 -10.6276
   -10.6157 -10.6135 -10.5851 -10.5691 -10.5578 -10.5545 -10.5383 -10.5242
   -10.4951 -10.4819 -10.4662 -10.4003  -8.5741  -7.7578  -6.9855  -6.4852
    -6.1203  -5.5974  -5.2157  -4.5995  -4.0313  -3.8874  -3.6324  -2.8537
    -2.7963  -0.6879  -0.0869   0.1510   0.5841   0.7141   1.0074   1.3246
     1.4608   1.7246   2.0339   2.1941   2.2573   2.4998   2.8322   3.0768
     3.3362   3.4916

          k = 0.1667-0.2887 0.0000 ( 25022 PWs)   bands (ev):

   -11.7499 -11.2834 -11.2806 -11.2345 -11.2231 -11.2087 -11.1694 -11.1654
   -11.1594 -11.1559 -11.1377 -11.1171 -11.1071 -11.0812 -11.0653 -11.0490
   -11.0276 -11.0212 -11.0140 -11.0026 -10.9973 -10.9893 -10.9852 -10.9524
   -10.9225 -10.9126 -10.8931 -10.8879 -10.8828 -10.8765 -10.8050 -10.7822
   -10.7727 -10.7540 -10.7464 -10.7085 -10.6981 -10.6822 -10.6756 -10.6478
   -10.6397 -10.6290 -10.6144 -10.6120 -10.5982 -10.5942 -10.5770 -10.5761
   -10.5693 -10.5639 -10.5396 -10.5253 -10.5199 -10.5088 -10.4963 -10.4903
   -10.4763 -10.4573 -10.4082 -10.3667  -8.7918  -8.2302  -6.5755  -5.8447
    -5.8038  -5.4726  -4.9983  -4.1228  -3.8608  -3.7282  -3.5840  -3.0880
    -3.0404  -0.9123  -0.4354  -0.3305  -0.0446   0.2773   0.2998   0.4674
     0.6100   1.5101   1.6639   1.9480   1.9747   2.3334   2.7798   2.9561
     3.3263   3.7805

          k = 0.3333-0.1925 0.0000 ( 25069 PWs)   bands (ev):

   -11.7216 -11.2919 -11.2426 -11.2101 -11.2069 -11.1821 -11.1635 -11.1586
   -11.1440 -11.1399 -11.1207 -11.0883 -11.0849 -11.0682 -11.0498 -11.0481
   -11.0337 -11.0160 -11.0077 -10.9945 -10.9892 -10.9847 -10.9493 -10.9304
   -10.9174 -10.9077 -10.8943 -10.8720 -10.8624 -10.8508 -10.8201 -10.8068
   -10.7767 -10.7636 -10.7359 -10.7290 -10.7143 -10.7125 -10.6801 -10.6684
   -10.6548 -10.6444 -10.6376 -10.6271 -10.6186 -10.6140 -10.5993 -10.5956
   -10.5818 -10.5803 -10.5493 -10.5453 -10.5424 -10.5317 -10.5270 -10.5146
   -10.4654 -10.4583 -10.4321 -10.3597  -8.7212  -8.1187  -6.7198  -6.3490
    -5.5840  -5.0520  -4.9432  -4.6726  -4.3152  -4.1217  -3.1976  -3.0771
    -2.8180  -0.6601  -0.3281  -0.1717   0.0275   0.1244   0.6499   1.1070
     1.2779   1.3186   1.6019   1.8921   2.0949   2.4132   2.7971   3.2432
     3.3365   3.8269

          k = 0.3333-0.0000 0.0000 ( 25022 PWs)   bands (ev):

   -11.7499 -11.2834 -11.2806 -11.2345 -11.2231 -11.2087 -11.1694 -11.1654
   -11.1594 -11.1559 -11.1377 -11.1171 -11.1071 -11.0812 -11.0653 -11.0490
   -11.0276 -11.0212 -11.0140 -11.0026 -10.9973 -10.9893 -10.9852 -10.9524
   -10.9225 -10.9126 -10.8931 -10.8879 -10.8828 -10.8765 -10.8050 -10.7822
   -10.7727 -10.7540 -10.7464 -10.7085 -10.6981 -10.6822 -10.6756 -10.6478
   -10.6397 -10.6290 -10.6144 -10.6120 -10.5982 -10.5942 -10.5770 -10.5761
   -10.5693 -10.5639 -10.5396 -10.5253 -10.5199 -10.5088 -10.4963 -10.4903
   -10.4763 -10.4573 -10.4082 -10.3667  -8.7918  -8.2302  -6.5755  -5.8447
    -5.8038  -5.4726  -4.9983  -4.1228  -3.8608  -3.7282  -3.5840  -3.0880
    -3.0404  -0.9123  -0.4354  -0.3305  -0.0446   0.2773   0.2998   0.4674
     0.6100   1.5101   1.6639   1.9480   1.9747   2.3334   2.7798   2.9561
     3.3263   3.7805

          k = 0.3333 0.1925 0.0000 ( 25069 PWs)   bands (ev):

   -11.7216 -11.2919 -11.2426 -11.2101 -11.2069 -11.1821 -11.1635 -11.1586
   -11.1440 -11.1399 -11.1207 -11.0882 -11.0849 -11.0682 -11.0498 -11.0481
   -11.0337 -11.0160 -11.0077 -10.9945 -10.9892 -10.9847 -10.9493 -10.9303
   -10.9174 -10.9077 -10.8943 -10.8720 -10.8624 -10.8508 -10.8201 -10.8068
   -10.7767 -10.7636 -10.7359 -10.7290 -10.7142 -10.7125 -10.6801 -10.6684
   -10.6548 -10.6444 -10.6376 -10.6271 -10.6186 -10.6140 -10.5993 -10.5956
   -10.5818 -10.5803 -10.5493 -10.5453 -10.5424 -10.5317 -10.5270 -10.5147
   -10.4654 -10.4583 -10.4321 -10.3597  -8.7212  -8.1187  -6.7199  -6.3490
    -5.5840  -5.0520  -4.9432  -4.6726  -4.3151  -4.1217  -3.1976  -3.0771
    -2.8180  -0.6602  -0.3280  -0.1717   0.0275   0.1244   0.6499   1.1070
     1.2779   1.3186   1.6019   1.8921   2.0949   2.4132   2.7971   3.2432
     3.3365   3.8270

          k = 0.3333-0.7698 0.0000 ( 25036 PWs)   bands (ev):

   -11.6539 -11.2288 -11.2067 -11.1742 -11.1652 -11.1451 -11.1285 -11.1104
   -11.1017 -11.0946 -11.0748 -11.0693 -11.0542 -11.0499 -11.0381 -11.0235
   -11.0174 -11.0007 -10.9906 -10.9817 -10.9649 -10.9551 -10.9362 -10.9133
   -10.8970 -10.8881 -10.8726 -10.8615 -10.8543 -10.8465 -10.8421 -10.8159
   -10.8018 -10.7866 -10.7770 -10.7601 -10.7396 -10.7341 -10.7146 -10.7107
   -10.7037 -10.6901 -10.6777 -10.6647 -10.6476 -10.6422 -10.6341 -10.6276
   -10.6157 -10.6135 -10.5851 -10.5691 -10.5578 -10.5545 -10.5383 -10.5242
   -10.4951 -10.4819 -10.4662 -10.4003  -8.5741  -7.7578  -6.9855  -6.4852
    -6.1203  -5.5974  -5.2157  -4.5994  -4.0313  -3.8874  -3.6324  -2.8536
    -2.7963  -0.6879  -0.0869   0.1510   0.5841   0.7141   1.0074   1.3246
     1.4608   1.7246   2.0339   2.1941   2.2573   2.4998   2.8322   3.0768
     3.3362   3.4916

          k = 0.3333-0.5774 0.0000 ( 25044 PWs)   bands (ev):

   -11.6120 -11.1767 -11.1488 -11.1445 -11.1340 -11.1221 -11.0977 -11.0933
   -11.0933 -11.0817 -11.0791 -11.0704 -11.0701 -11.0373 -11.0315 -11.0145
   -10.9980 -10.9918 -10.9670 -10.9650 -10.9467 -10.9435 -10.9273 -10.8989
   -10.8918 -10.8886 -10.8626 -10.8585 -10.8564 -10.8453 -10.8444 -10.8376
   -10.8303 -10.8089 -10.7948 -10.7929 -10.7832 -10.7733 -10.7604 -10.7512
   -10.7332 -10.6921 -10.6709 -10.6676 -10.6552 -10.6464 -10.6407 -10.6252
   -10.6096 -10.5805 -10.5731 -10.5724 -10.5634 -10.5607 -10.5593 -10.5453
   -10.5430 -10.4938 -10.4762 -10.4657  -8.5001  -7.1642  -7.1088  -7.0067
    -6.2526  -6.1082  -4.9558  -4.6025  -4.5855  -3.4021  -3.1812  -3.0657
    -2.8460  -0.7478   0.2492   0.2794   0.5391   0.7152   1.1389   1.3254
     1.3558   1.6187   2.4415   2.4897   2.7620   2.8472   2.9333   3.3017
     3.6424   3.6923

          k = 0.3333-0.3849 0.0000 ( 25036 PWs)   bands (ev):

   -11.6539 -11.2288 -11.2067 -11.1742 -11.1652 -11.1451 -11.1285 -11.1104
   -11.1017 -11.0946 -11.0748 -11.0693 -11.0542 -11.0499 -11.0381 -11.0235
   -11.0174 -11.0007 -10.9906 -10.9817 -10.9649 -10.9551 -10.9362 -10.9133
   -10.8970 -10.8881 -10.8726 -10.8615 -10.8543 -10.8465 -10.8421 -10.8159
   -10.8018 -10.7866 -10.7770 -10.7601 -10.7396 -10.7341 -10.7146 -10.7107
   -10.7037 -10.6901 -10.6777 -10.6647 -10.6476 -10.6422 -10.6341 -10.6276
   -10.6157 -10.6135 -10.5851 -10.5691 -10.5578 -10.5545 -10.5383 -10.5242
   -10.4952 -10.4819 -10.4662 -10.4003  -8.5741  -7.7578  -6.9855  -6.4851
    -6.1203  -5.5975  -5.2157  -4.5995  -4.0313  -3.8874  -3.6324  -2.8536
    -2.7963  -0.6879  -0.0869   0.1510   0.5841   0.7141   1.0075   1.3246
     1.4608   1.7246   2.0340   2.1942   2.2573   2.4998   2.8322   3.0768
     3.3362   3.4916

          k =-0.5000 0.2887 0.0000 ( 25090 PWs)   bands (ev):

   -11.6567 -11.2427 -11.2318 -11.2142 -11.1339 -11.1284 -11.1248 -11.1124
   -11.1082 -11.0935 -11.0874 -11.0685 -11.0553 -11.0378 -11.0295 -11.0235
   -10.9982 -10.9943 -10.9901 -10.9686 -10.9592 -10.9325 -10.9311 -10.9203
   -10.9114 -10.9027 -10.8627 -10.8481 -10.8344 -10.8260 -10.8198 -10.8150
   -10.8056 -10.7918 -10.7559 -10.7484 -10.7399 -10.7268 -10.7219 -10.7040
   -10.7008 -10.6871 -10.6837 -10.6762 -10.6677 -10.6594 -10.6544 -10.6541
   -10.6437 -10.6279 -10.6186 -10.5782 -10.5769 -10.5499 -10.5413 -10.5224
   -10.4973 -10.4600 -10.4479 -10.3686  -8.5644  -7.5775  -7.4353  -6.5936
    -5.5499  -5.0742  -5.0379  -4.9518  -4.5815  -4.4141  -3.2166  -3.1007
    -2.5847  -0.6787   0.2516   0.5632   0.5676   0.8052   0.9046   1.1282
     1.1932   1.5305   1.8073   2.2940   2.3403   2.8486   2.8666   3.3858
     3.5572   3.6816

          k =-0.5000 0.4811 0.0000 ( 25036 PWs)   bands (ev):

   -11.6539 -11.2288 -11.2067 -11.1742 -11.1652 -11.1451 -11.1285 -11.1104
   -11.1017 -11.0946 -11.0748 -11.0693 -11.0542 -11.0499 -11.0381 -11.0235
   -11.0174 -11.0007 -10.9906 -10.9817 -10.9649 -10.9551 -10.9362 -10.9133
   -10.8970 -10.8881 -10.8726 -10.8615 -10.8543 -10.8465 -10.8421 -10.8159
   -10.8018 -10.7866 -10.7770 -10.7601 -10.7396 -10.7341 -10.7146 -10.7107
   -10.7037 -10.6901 -10.6777 -10.6647 -10.6476 -10.6422 -10.6341 -10.6276
   -10.6157 -10.6135 -10.5851 -10.5691 -10.5578 -10.5545 -10.5383 -10.5242
   -10.4952 -10.4819 -10.4662 -10.4003  -8.5741  -7.7578  -6.9855  -6.4851
    -6.1203  -5.5975  -5.2157  -4.5995  -4.0313  -3.8874  -3.6324  -2.8537
    -2.7963  -0.6879  -0.0869   0.1510   0.5841   0.7141   1.0075   1.3246
     1.4608   1.7246   2.0340   2.1942   2.2573   2.4998   2.8322   3.0768
     3.3362   3.4916

          k =-0.5000 0.6736 0.0000 ( 25036 PWs)   bands (ev):

   -11.6539 -11.2288 -11.2067 -11.1742 -11.1652 -11.1451 -11.1285 -11.1104
   -11.1017 -11.0946 -11.0748 -11.0693 -11.0542 -11.0499 -11.0381 -11.0235
   -11.0174 -11.0007 -10.9906 -10.9817 -10.9649 -10.9551 -10.9362 -10.9133
   -10.8970 -10.8881 -10.8726 -10.8615 -10.8543 -10.8465 -10.8421 -10.8159
   -10.8018 -10.7866 -10.7770 -10.7601 -10.7396 -10.7341 -10.7146 -10.7107
   -10.7037 -10.6901 -10.6777 -10.6647 -10.6476 -10.6422 -10.6341 -10.6276
   -10.6157 -10.6135 -10.5851 -10.5691 -10.5578 -10.5545 -10.5383 -10.5242
   -10.4951 -10.4819 -10.4662 -10.4003  -8.5741  -7.7578  -6.9855  -6.4852
    -6.1203  -5.5974  -5.2157  -4.5995  -4.0313  -3.8874  -3.6324  -2.8537
    -2.7963  -0.6879  -0.0869   0.1510   0.5842   0.7141   1.0074   1.3246
     1.4608   1.7246   2.0339   2.1941   2.2573   2.4998   2.8322   3.0768
     3.3362   3.4916

          k =-0.5000-0.2887 0.0000 ( 25090 PWs)   bands (ev):

   -11.6567 -11.2427 -11.2318 -11.2142 -11.1339 -11.1284 -11.1248 -11.1124
   -11.1082 -11.0935 -11.0874 -11.0685 -11.0553 -11.0378 -11.0295 -11.0235
   -10.9982 -10.9943 -10.9901 -10.9686 -10.9592 -10.9325 -10.9311 -10.9203
   -10.9114 -10.9028 -10.8627 -10.8481 -10.8344 -10.8260 -10.8198 -10.8150
   -10.8056 -10.7918 -10.7559 -10.7484 -10.7399 -10.7268 -10.7219 -10.7040
   -10.7008 -10.6870 -10.6837 -10.6762 -10.6677 -10.6594 -10.6544 -10.6541
   -10.6437 -10.6279 -10.6186 -10.5782 -10.5769 -10.5499 -10.5413 -10.5224
   -10.4973 -10.4600 -10.4480 -10.3686  -8.5643  -7.5776  -7.4353  -6.5937
    -5.5499  -5.0742  -5.0379  -4.9518  -4.5815  -4.4141  -3.2166  -3.1007
    -2.5847  -0.6788   0.2516   0.5632   0.5676   0.8052   0.9046   1.1282
     1.1931   1.5305   1.8072   2.2941   2.3403   2.8486   2.8666   3.3857
     3.5572   3.6816

     the Fermi energy is     1.0504 ev

!    total energy              =   -1772.81697666 Ry
     Harris-Foulkes estimate   =   -1772.81695645 Ry
     estimated scf accuracy    <       0.00002636 Ry

     The total energy is the sum of the following terms:

     one-electron contribution =   -8423.81890852 Ry
     hartree contribution      =    4295.75695277 Ry
     xc contribution           =    -771.86243629 Ry
     ewald contribution        =    3127.14239030 Ry
     electric field correction =       0.00020599 Ry
     smearing contrib. (-TS)   =      -0.03518091 Ry

     convergence has been achieved in   4 iterations

     Forces acting on atoms (Ry/au):


     negative rho (up, down):  6.313E-01 0.000E+00
     atom    1 type  1   force =    -0.00082483   -0.00047053   -0.02482382
     atom    2 type  1   force =     0.00080844   -0.00047799   -0.02483042
     atom    3 type  1   force =    -0.00000005    0.00095182   -0.02480741
     atom    4 type  1   force =     0.00000546   -0.00001551   -0.02184446
     atom    5 type  1   force =    -0.00000466   -0.00068479    0.02006265
     atom    6 type  1   force =    -0.00000010   -0.00000632    0.02069116
     atom    7 type  1   force =     0.00059557    0.00035617    0.02006757
     atom    8 type  1   force =    -0.00060024    0.00035298    0.02005600
     atom    9 type  1   force =    -0.00002792   -0.00000923    0.00260111
     atom   10 type  1   force =     0.00001005    0.00281842    0.00352778
     atom   11 type  1   force =     0.00246418   -0.00141110    0.00354855
     atom   12 type  1   force =    -0.00241319   -0.00142422    0.00355160
     atom   13 type  2   force =    -0.00001272    0.00002029    0.00219969

     Total force =     0.008551     Total SCF correction =     0.009506
     SCF correction compared to forces is large: reduce conv_thr to get better values

     number of scf cycles    =   2
     number of bfgs steps    =   1

     energy   old            =   -1772.8169366526 Ry
     energy   new            =   -1772.8169766624 Ry

     CASE: energy  _new < energy  _old

     new trust radius        =       0.0080813077 bohr
     new conv_thr            =       0.0000010000 Ry


ATOMIC_POSITIONS (angstrom)
Tl       1.671975640   0.965315586  10.000000000    0   0   0
Tl       5.015926920   0.965315586  10.000000000    0   0   0
Tl       3.343951280   3.861262344  10.000000000    0   0   0
Tl       6.687902560   3.861262344  10.000000000    0   0   0
Tl       6.687902560   1.930631172  12.730324787    0   0   0
Tl       3.343951280   1.930631172  12.730324787    0   0   0
Tl       8.359878201   4.826577930  12.730324787    0   0   0
Tl       5.015926920   4.826577930  12.730324787    0   0   0
Tl       0.000010445  -0.000013299  15.946682575
Tl       3.343966950  -0.094089164  15.819421681
Tl       1.590502935   2.942985619  15.819371233
Tl       5.097401204   2.942995208  15.819433234
C        3.343955590   1.930642797  16.877841618



     Writing output data file calc.save
     Check: negative starting charge=   -0.602861
     NEW-OLD atomic charge density approx. for the potential

     Check: negative/imaginary core charge=   -0.000001    0.000000
     Check: negative starting charge=   -0.603324

     negative rho (up, down):  6.318E-01 0.000E+00
 
     Adding external electric field

     Computed dipole along edir(3) : 
        Dipole               -0.3302 Ry au,         -0.8392 Debye
        Dipole field         -0.0006 Ry au
 
        Potential amp.        0.0540 Ry
        Total length         43.3023 bohr
 

     total cpu time spent up to now is      450.1 secs

     per-process dynamical memory:   101.7 Mb

     Self-consistent Calculation

     iteration #  1     ecut=    36.75 Ry     beta=0.20
     Davidson diagonalization with overlap
     ethr =  1.00E-06,  avg # of iterations =  4.7

     negative rho (up, down):  6.318E-01 0.000E+00
 
     Adding external electric field

     Computed dipole along edir(3) : 
        Dipole               -0.0763 Ry au,         -0.1939 Debye
        Dipole field         -0.0001 Ry au
 
        Potential amp.        0.0125 Ry
        Total length         43.3023 bohr
 

     total cpu time spent up to now is      484.2 secs

     total energy              =   -1772.81369534 Ry
     Harris-Foulkes estimate   =   -1772.81762594 Ry
     estimated scf accuracy    <       0.01050798 Ry

     iteration #  2     ecut=    36.75 Ry     beta=0.20
     Davidson diagonalization with overlap
     ethr =  6.57E-06,  avg # of iterations =  7.3

     negative rho (up, down):  6.318E-01 0.000E+00
 
     Adding external electric field

     Computed dipole along edir(3) : 
        Dipole               -0.2894 Ry au,         -0.7355 Debye
        Dipole field         -0.0005 Ry au
 
        Potential amp.        0.0473 Ry
        Total length         43.3023 bohr
 

     total cpu time spent up to now is      513.3 secs

     total energy              =   -1772.80757809 Ry
     Harris-Foulkes estimate   =   -1772.82620023 Ry
     estimated scf accuracy    <       0.33020442 Ry

     iteration #  3     ecut=    36.75 Ry     beta=0.20
     Davidson diagonalization with overlap
     ethr =  6.57E-06,  avg # of iterations =  6.7

     negative rho (up, down):  6.318E-01 0.000E+00
 
     Adding external electric field

     Computed dipole along edir(3) : 
        Dipole               -0.2889 Ry au,         -0.7343 Debye
        Dipole field         -0.0005 Ry au
 
        Potential amp.        0.0472 Ry
        Total length         43.3023 bohr
 

     total cpu time spent up to now is      542.2 secs

     total energy              =   -1772.81691364 Ry
     Harris-Foulkes estimate   =   -1772.81708208 Ry
     estimated scf accuracy    <       0.00114977 Ry

     iteration #  4     ecut=    36.75 Ry     beta=0.20
     Davidson diagonalization with overlap
     ethr =  7.19E-07,  avg # of iterations =  3.1

     negative rho (up, down):  6.318E-01 0.000E+00
 
     Adding external electric field

     Computed dipole along edir(3) : 
        Dipole               -0.2893 Ry au,         -0.7354 Debye
        Dipole field         -0.0005 Ry au
 
        Potential amp.        0.0473 Ry
        Total length         43.3023 bohr
 

     total cpu time spent up to now is      568.5 secs

     total energy              =   -1772.81700333 Ry
     Harris-Foulkes estimate   =   -1772.81700499 Ry
     estimated scf accuracy    <       0.00000710 Ry

     iteration #  5     ecut=    36.75 Ry     beta=0.20
     Davidson diagonalization with overlap
     ethr =  4.44E-09,  avg # of iterations =  4.9

     negative rho (up, down):  6.318E-01 0.000E+00
 
     Adding external electric field

     Computed dipole along edir(3) : 
        Dipole               -0.2886 Ry au,         -0.7335 Debye
        Dipole field         -0.0005 Ry au
 
        Potential amp.        0.0472 Ry
        Total length         43.3023 bohr
 

     total cpu time spent up to now is      605.4 secs

     total energy              =   -1772.81701462 Ry
     Harris-Foulkes estimate   =   -1772.81701703 Ry
     estimated scf accuracy    <       0.00000876 Ry

     iteration #  6     ecut=    36.75 Ry     beta=0.20
     Davidson diagonalization with overlap
     ethr =  4.44E-09,  avg # of iterations =  3.0

     negative rho (up, down):  6.318E-01 0.000E+00
 
     Adding external electric field

     Computed dipole along edir(3) : 
        Dipole               -0.2882 Ry au,         -0.7324 Debye
        Dipole field         -0.0005 Ry au
 
        Potential amp.        0.0471 Ry
        Total length         43.3023 bohr
 

     total cpu time spent up to now is      631.0 secs

     total energy              =   -1772.81701451 Ry
     Harris-Foulkes estimate   =   -1772.81701543 Ry
     estimated scf accuracy    <       0.00000128 Ry

     iteration #  7     ecut=    36.75 Ry     beta=0.20
     Davidson diagonalization with overlap
     ethr =  8.02E-10,  avg # of iterations =  4.2

     negative rho (up, down):  6.318E-01 0.000E+00
 
     Adding external electric field

     Computed dipole along edir(3) : 
        Dipole               -0.2899 Ry au,         -0.7368 Debye
        Dipole field         -0.0005 Ry au
 
        Potential amp.        0.0474 Ry
        Total length         43.3023 bohr
 

     total cpu time spent up to now is      658.0 secs

     End of self-consistent calculation

          k = 0.0000 0.0000 0.0000 ( 24957 PWs)   bands (ev):

   -11.8777 -11.3559 -11.3559 -11.3503 -11.2931 -11.2931 -11.2388 -11.2272
   -11.2139 -11.2139 -11.2047 -11.2047 -11.1911 -11.1789 -11.0819 -11.0601
   -11.0601 -11.0291 -11.0290 -11.0233 -11.0078 -11.0078 -10.9818 -10.9743
   -10.9743 -10.9657 -10.9657 -10.8997 -10.8997 -10.8865 -10.7577 -10.7577
   -10.7234 -10.7234 -10.7150 -10.6516 -10.6223 -10.6223 -10.6101 -10.6064
   -10.6064 -10.5671 -10.5671 -10.5448 -10.5448 -10.5329 -10.5191 -10.5191
   -10.5184 -10.4811 -10.4811 -10.4463 -10.4463 -10.4414 -10.4006 -10.4006
   -10.3745 -10.3723 -10.3723 -10.2720  -9.0675  -8.5529  -6.5878  -5.4173
    -4.2203  -4.2203  -4.1659  -4.0775  -4.0775  -3.5900  -3.2539  -3.2538
    -3.1728  -1.3635  -1.3541  -1.3541  -0.8503  -0.6750  -0.6750  -0.2534
    -0.1133  -0.1133   0.0164   1.9225   2.0209   2.0209   3.1316   3.7233
     3.7309   3.7309

          k = 0.0000 0.1925 0.0000 ( 25013 PWs)   bands (ev):

   -11.8327 -11.3365 -11.3126 -11.3094 -11.2716 -11.2529 -11.2103 -11.2047
   -11.1949 -11.1921 -11.1777 -11.1683 -11.1554 -11.1500 -11.0678 -11.0543
   -11.0459 -11.0207 -11.0206 -11.0168 -11.0087 -10.9863 -10.9754 -10.9715
   -10.9600 -10.9413 -10.9341 -10.9089 -10.9020 -10.8856 -10.7736 -10.7561
   -10.7469 -10.7298 -10.7292 -10.6592 -10.6449 -10.6414 -10.6348 -10.6212
   -10.6098 -10.5872 -10.5809 -10.5684 -10.5568 -10.5488 -10.5442 -10.5385
   -10.5248 -10.5088 -10.5069 -10.4794 -10.4772 -10.4711 -10.4344 -10.4341
   -10.4236 -10.4123 -10.3844 -10.3072  -8.9660  -8.4464  -6.5590  -5.5800
    -5.1803  -4.5795  -4.5460  -4.2610  -4.0996  -3.4782  -3.2260  -3.1280
    -3.0914  -1.1433  -1.0021  -0.7960  -0.5838  -0.5834  -0.4357  -0.0510
     0.4171   0.4263   1.0796   1.5971   1.9899   2.2268   2.9902   3.2995
     3.6603   3.8046

          k = 0.0000 0.3849 0.0000 ( 25069 PWs)   bands (ev):

   -11.7281 -11.2888 -11.2369 -11.2067 -11.2038 -11.1792 -11.1579 -11.1554
   -11.1404 -11.1364 -11.1158 -11.0846 -11.0814 -11.0649 -11.0452 -11.0444
   -11.0304 -11.0111 -11.0031 -10.9907 -10.9859 -10.9815 -10.9460 -10.9270
   -10.9145 -10.9028 -10.8915 -10.8691 -10.8592 -10.8452 -10.8162 -10.8033
   -10.7726 -10.7595 -10.7328 -10.7253 -10.7113 -10.7093 -10.6765 -10.6649
   -10.6517 -10.6411 -10.6344 -10.6239 -10.6155 -10.6109 -10.5964 -10.5928
   -10.5782 -10.5773 -10.5464 -10.5423 -10.5398 -10.5286 -10.5243 -10.5119
   -10.4624 -10.4551 -10.4295 -10.3568  -8.7187  -8.1160  -6.7114  -6.3440
    -5.5804  -5.0444  -4.9393  -4.6682  -4.3151  -4.1183  -3.1936  -3.0747
    -2.8131  -0.6586  -0.3236  -0.1677   0.0305   0.1289   0.6539   1.1112
     1.2812   1.3220   1.6046   1.8947   2.0985   2.4170   2.8007   3.2463
     3.3396   3.8274

          k = 0.0000-0.5774 0.0000 ( 25090 PWs)   bands (ev):

   -11.6643 -11.2375 -11.2284 -11.2110 -11.1304 -11.1254 -11.1213 -11.1091
   -11.1049 -11.0902 -11.0814 -11.0645 -11.0520 -11.0326 -11.0247 -11.0185
   -10.9932 -10.9909 -10.9868 -10.9650 -10.9562 -10.9295 -10.9282 -10.9170
   -10.9080 -10.8964 -10.8597 -10.8453 -10.8306 -10.8220 -10.8165 -10.8113
   -10.8016 -10.7855 -10.7527 -10.7455 -10.7372 -10.7229 -10.7181 -10.7003
   -10.6974 -10.6837 -10.6809 -10.6733 -10.6644 -10.6565 -10.6512 -10.6508
   -10.6408 -10.6249 -10.6161 -10.5756 -10.5743 -10.5474 -10.5384 -10.5198
   -10.4949 -10.4569 -10.4452 -10.3657  -8.5633  -7.5719  -7.4319  -6.5862
    -5.5417  -5.0702  -5.0334  -4.9496  -4.5766  -4.4141  -3.2127  -3.0984
    -2.5796  -0.6765   0.2558   0.5666   0.5709   0.8082   0.9105   1.1315
     1.1972   1.5333   1.8092   2.2969   2.3419   2.8513   2.8698   3.3935
     3.5597   3.6849

          k = 0.1667-0.0962 0.0000 ( 25013 PWs)   bands (ev):

   -11.8327 -11.3365 -11.3126 -11.3094 -11.2716 -11.2529 -11.2103 -11.2047
   -11.1949 -11.1921 -11.1777 -11.1683 -11.1554 -11.1500 -11.0678 -11.0543
   -11.0459 -11.0207 -11.0206 -11.0168 -11.0087 -10.9863 -10.9754 -10.9715
   -10.9600 -10.9413 -10.9341 -10.9089 -10.9020 -10.8856 -10.7736 -10.7561
   -10.7469 -10.7298 -10.7292 -10.6592 -10.6449 -10.6414 -10.6348 -10.6212
   -10.6098 -10.5872 -10.5809 -10.5684 -10.5568 -10.5488 -10.5442 -10.5385
   -10.5248 -10.5088 -10.5069 -10.4794 -10.4772 -10.4711 -10.4344 -10.4341
   -10.4236 -10.4123 -10.3844 -10.3072  -8.9660  -8.4464  -6.5590  -5.5800
    -5.1803  -4.5795  -4.5460  -4.2610  -4.0996  -3.4782  -3.2260  -3.1280
    -3.0914  -1.1433  -1.0021  -0.7960  -0.5838  -0.5834  -0.4357  -0.0510
     0.4171   0.4263   1.0796   1.5971   1.9899   2.2268   2.9902   3.2995
     3.6604   3.8046

          k = 0.1667 0.0962 0.0000 ( 25013 PWs)   bands (ev):

   -11.8327 -11.3365 -11.3126 -11.3094 -11.2716 -11.2529 -11.2103 -11.2047
   -11.1949 -11.1921 -11.1777 -11.1683 -11.1554 -11.1500 -11.0678 -11.0543
   -11.0459 -11.0207 -11.0206 -11.0168 -11.0087 -10.9863 -10.9754 -10.9715
   -10.9600 -10.9413 -10.9341 -10.9089 -10.9020 -10.8856 -10.7737 -10.7561
   -10.7469 -10.7298 -10.7292 -10.6592 -10.6449 -10.6414 -10.6348 -10.6212
   -10.6098 -10.5872 -10.5809 -10.5684 -10.5568 -10.5488 -10.5442 -10.5385
   -10.5248 -10.5088 -10.5069 -10.4794 -10.4772 -10.4711 -10.4344 -10.4341
   -10.4236 -10.4123 -10.3844 -10.3072  -8.9660  -8.4464  -6.5590  -5.5800
    -5.1803  -4.5795  -4.5460  -4.2610  -4.0996  -3.4782  -3.2260  -3.1280
    -3.0914  -1.1433  -1.0021  -0.7960  -0.5838  -0.5834  -0.4357  -0.0510
     0.4171   0.4264   1.0796   1.5971   1.9899   2.2268   2.9902   3.2995
     3.6603   3.8046

          k = 0.1667 0.2887 0.0000 ( 25022 PWs)   bands (ev):

   -11.7561 -11.2800 -11.2775 -11.2288 -11.2196 -11.2033 -11.1666 -11.1620
   -11.1559 -11.1527 -11.1328 -11.1136 -11.1038 -11.0778 -11.0625 -11.0435
   -11.0225 -11.0170 -11.0106 -10.9995 -10.9941 -10.9860 -10.9816 -10.9482
   -10.9183 -10.9099 -10.8902 -10.8849 -10.8794 -10.8715 -10.8007 -10.7793
   -10.7685 -10.7500 -10.7429 -10.7050 -10.6951 -10.6788 -10.6721 -10.6443
   -10.6365 -10.6256 -10.6113 -10.6088 -10.5955 -10.5910 -10.5739 -10.5730
   -10.5661 -10.5609 -10.5367 -10.5227 -10.5173 -10.5060 -10.4930 -10.4873
   -10.4730 -10.4544 -10.4051 -10.3640  -8.7888  -8.2278  -6.5659  -5.8395
    -5.8001  -5.4696  -4.9935  -4.1180  -3.8574  -3.7259  -3.5814  -3.0838
    -3.0364  -0.9092  -0.4318  -0.3276  -0.0407   0.2817   0.3035   0.4701
     0.6150   1.5127   1.6679   1.9512   1.9773   2.3361   2.7839   2.9593
     3.3289   3.7819

          k = 0.1667-0.6736 0.0000 ( 25036 PWs)   bands (ev):

   -11.6617 -11.2252 -11.2012 -11.1710 -11.1623 -11.1419 -11.1229 -11.1071
   -11.0984 -11.0913 -11.0703 -11.0656 -11.0500 -11.0460 -11.0337 -11.0192
   -11.0136 -10.9961 -10.9872 -10.9779 -10.9613 -10.9519 -10.9329 -10.9091
   -10.8934 -10.8830 -10.8694 -10.8578 -10.8509 -10.8432 -10.8376 -10.8123
   -10.7982 -10.7826 -10.7732 -10.7565 -10.7358 -10.7306 -10.7115 -10.7072
   -10.7004 -10.6867 -10.6745 -10.6615 -10.6445 -10.6392 -10.6309 -10.6246
   -10.6123 -10.6108 -10.5824 -10.5663 -10.5550 -10.5516 -10.5357 -10.5216
   -10.4922 -10.4790 -10.4638 -10.3974  -8.5728  -7.7539  -6.9799  -6.4776
    -6.1155  -5.5918  -5.2128  -4.5962  -4.0265  -3.8847  -3.6310  -2.8499
    -2.7911  -0.6852  -0.0828   0.1544   0.5877   0.7178   1.0106   1.3287
     1.4642   1.7279   2.0374   2.1972   2.2609   2.5017   2.8349   3.0821
     3.3383   3.4948

          k = 0.1667-0.4811 0.0000 ( 25036 PWs)   bands (ev):

   -11.6617 -11.2252 -11.2012 -11.1710 -11.1623 -11.1419 -11.1229 -11.1071
   -11.0984 -11.0913 -11.0703 -11.0656 -11.0500 -11.0460 -11.0337 -11.0192
   -11.0136 -10.9961 -10.9872 -10.9779 -10.9613 -10.9519 -10.9329 -10.9091
   -10.8934 -10.8830 -10.8694 -10.8578 -10.8509 -10.8432 -10.8376 -10.8123
   -10.7982 -10.7826 -10.7732 -10.7565 -10.7358 -10.7306 -10.7115 -10.7072
   -10.7004 -10.6867 -10.6745 -10.6615 -10.6445 -10.6392 -10.6309 -10.6246
   -10.6123 -10.6108 -10.5824 -10.5663 -10.5550 -10.5516 -10.5357 -10.5216
   -10.4922 -10.4790 -10.4638 -10.3974  -8.5728  -7.7539  -6.9799  -6.4776
    -6.1155  -5.5918  -5.2127  -4.5963  -4.0265  -3.8847  -3.6310  -2.8499
    -2.7911  -0.6852  -0.0829   0.1544   0.5877   0.7178   1.0105   1.3287
     1.4642   1.7279   2.0374   2.1972   2.2609   2.5017   2.8349   3.0821
     3.3383   3.4948

          k = 0.1667-0.2887 0.0000 ( 25022 PWs)   bands (ev):

   -11.7561 -11.2800 -11.2775 -11.2288 -11.2196 -11.2033 -11.1666 -11.1620
   -11.1559 -11.1527 -11.1328 -11.1136 -11.1038 -11.0778 -11.0625 -11.0435
   -11.0225 -11.0170 -11.0106 -10.9995 -10.9941 -10.9860 -10.9816 -10.9482
   -10.9184 -10.9099 -10.8902 -10.8849 -10.8794 -10.8715 -10.8007 -10.7793
   -10.7685 -10.7500 -10.7429 -10.7050 -10.6951 -10.6788 -10.6721 -10.6443
   -10.6365 -10.6256 -10.6113 -10.6088 -10.5955 -10.5910 -10.5739 -10.5730
   -10.5661 -10.5609 -10.5367 -10.5227 -10.5173 -10.5060 -10.4930 -10.4873
   -10.4730 -10.4544 -10.4051 -10.3640  -8.7888  -8.2278  -6.5659  -5.8395
    -5.8001  -5.4696  -4.9935  -4.1180  -3.8574  -3.7259  -3.5814  -3.0838
    -3.0364  -0.9092  -0.4318  -0.3276  -0.0407   0.2817   0.3035   0.4701
     0.6150   1.5127   1.6679   1.9512   1.9773   2.3361   2.7839   2.9593
     3.3289   3.7819

          k = 0.3333-0.1925 0.0000 ( 25069 PWs)   bands (ev):

   -11.7281 -11.2888 -11.2369 -11.2067 -11.2038 -11.1792 -11.1579 -11.1554
   -11.1404 -11.1364 -11.1158 -11.0846 -11.0814 -11.0649 -11.0452 -11.0444
   -11.0304 -11.0111 -11.0031 -10.9907 -10.9859 -10.9815 -10.9460 -10.9270
   -10.9145 -10.9028 -10.8915 -10.8691 -10.8592 -10.8452 -10.8162 -10.8033
   -10.7726 -10.7595 -10.7328 -10.7253 -10.7113 -10.7093 -10.6765 -10.6650
   -10.6517 -10.6411 -10.6344 -10.6239 -10.6155 -10.6109 -10.5964 -10.5928
   -10.5782 -10.5773 -10.5464 -10.5423 -10.5398 -10.5286 -10.5243 -10.5119
   -10.4625 -10.4551 -10.4295 -10.3568  -8.7187  -8.1160  -6.7114  -6.3440
    -5.5804  -5.0445  -4.9392  -4.6682  -4.3151  -4.1183  -3.1937  -3.0747
    -2.8131  -0.6586  -0.3236  -0.1677   0.0305   0.1289   0.6539   1.1113
     1.2812   1.3220   1.6046   1.8947   2.0985   2.4170   2.8007   3.2463
     3.3396   3.8274

          k = 0.3333-0.0000 0.0000 ( 25022 PWs)   bands (ev):

   -11.7561 -11.2800 -11.2775 -11.2288 -11.2196 -11.2033 -11.1666 -11.1620
   -11.1559 -11.1527 -11.1328 -11.1136 -11.1038 -11.0778 -11.0625 -11.0435
   -11.0225 -11.0170 -11.0106 -10.9995 -10.9941 -10.9860 -10.9816 -10.9482
   -10.9184 -10.9099 -10.8902 -10.8849 -10.8794 -10.8715 -10.8007 -10.7793
   -10.7685 -10.7500 -10.7429 -10.7050 -10.6951 -10.6788 -10.6721 -10.6443
   -10.6365 -10.6256 -10.6113 -10.6088 -10.5955 -10.5910 -10.5739 -10.5730
   -10.5661 -10.5609 -10.5367 -10.5227 -10.5173 -10.5060 -10.4930 -10.4873
   -10.4730 -10.4544 -10.4051 -10.3640  -8.7888  -8.2278  -6.5659  -5.8395
    -5.8001  -5.4696  -4.9935  -4.1180  -3.8574  -3.7259  -3.5814  -3.0838
    -3.0364  -0.9092  -0.4318  -0.3276  -0.0407   0.2817   0.3035   0.4701
     0.6150   1.5127   1.6679   1.9512   1.9773   2.3361   2.7839   2.9593
     3.3289   3.7819

          k = 0.3333 0.1925 0.0000 ( 25069 PWs)   bands (ev):

   -11.7281 -11.2888 -11.2369 -11.2067 -11.2038 -11.1792 -11.1579 -11.1554
   -11.1404 -11.1364 -11.1158 -11.0846 -11.0814 -11.0649 -11.0452 -11.0444
   -11.0304 -11.0111 -11.0031 -10.9907 -10.9859 -10.9815 -10.9460 -10.9270
   -10.9145 -10.9028 -10.8915 -10.8691 -10.8592 -10.8452 -10.8162 -10.8033
   -10.7726 -10.7595 -10.7328 -10.7253 -10.7113 -10.7093 -10.6765 -10.6649
   -10.6517 -10.6411 -10.6344 -10.6239 -10.6155 -10.6109 -10.5964 -10.5928
   -10.5782 -10.5773 -10.5464 -10.5423 -10.5398 -10.5286 -10.5243 -10.5119
   -10.4624 -10.4551 -10.4295 -10.3568  -8.7187  -8.1160  -6.7114  -6.3440
    -5.5804  -5.0445  -4.9392  -4.6682  -4.3151  -4.1183  -3.1936  -3.0747
    -2.8131  -0.6586  -0.3236  -0.1677   0.0305   0.1289   0.6539   1.1112
     1.2812   1.3220   1.6046   1.8947   2.0985   2.4170   2.8007   3.2463
     3.3396   3.8274

          k = 0.3333-0.7698 0.0000 ( 25036 PWs)   bands (ev):

   -11.6616 -11.2252 -11.2012 -11.1710 -11.1623 -11.1419 -11.1229 -11.1071
   -11.0984 -11.0913 -11.0703 -11.0656 -11.0500 -11.0460 -11.0337 -11.0192
   -11.0136 -10.9961 -10.9872 -10.9779 -10.9613 -10.9519 -10.9329 -10.9091
   -10.8934 -10.8830 -10.8694 -10.8578 -10.8509 -10.8432 -10.8376 -10.8123
   -10.7982 -10.7826 -10.7732 -10.7565 -10.7358 -10.7306 -10.7115 -10.7072
   -10.7004 -10.6867 -10.6745 -10.6615 -10.6445 -10.6392 -10.6309 -10.6246
   -10.6123 -10.6108 -10.5824 -10.5663 -10.5550 -10.5516 -10.5357 -10.5216
   -10.4922 -10.4790 -10.4638 -10.3974  -8.5728  -7.7539  -6.9799  -6.4776
    -6.1155  -5.5918  -5.2128  -4.5962  -4.0265  -3.8847  -3.6310  -2.8499
    -2.7911  -0.6852  -0.0828   0.1544   0.5877   0.7178   1.0105   1.3287
     1.4642   1.7279   2.0374   2.1972   2.2609   2.5017   2.8349   3.0821
     3.3383   3.4948

          k = 0.3333-0.5774 0.0000 ( 25044 PWs)   bands (ev):

   -11.6207 -11.1699 -11.1455 -11.1415 -11.1311 -11.1190 -11.0944 -11.0902
   -11.0884 -11.0778 -11.0756 -11.0663 -11.0649 -11.0330 -11.0277 -11.0114
   -10.9938 -10.9881 -10.9618 -10.9598 -10.9434 -10.9401 -10.9224 -10.8956
   -10.8885 -10.8854 -10.8593 -10.8557 -10.8509 -10.8413 -10.8397 -10.8344
   -10.8277 -10.8058 -10.7916 -10.7897 -10.7798 -10.7691 -10.7565 -10.7476
   -10.7297 -10.6891 -10.6674 -10.6653 -10.6518 -10.6424 -10.6378 -10.6218
   -10.6070 -10.5778 -10.5701 -10.5694 -10.5607 -10.5577 -10.5561 -10.5428
   -10.5402 -10.4911 -10.4743 -10.4628  -8.4994  -7.1573  -7.1045  -7.0033
    -6.2431  -6.1049  -4.9509  -4.5999  -4.5836  -3.4013  -3.1754  -3.0628
    -2.8403  -0.7443   0.2531   0.2814   0.5424   0.7208   1.1415   1.3293
     1.3585   1.6219   2.4437   2.4912   2.7678   2.8501   2.9353   3.3050
     3.6441   3.6933

          k = 0.3333-0.3849 0.0000 ( 25036 PWs)   bands (ev):

   -11.6617 -11.2252 -11.2012 -11.1710 -11.1623 -11.1419 -11.1229 -11.1071
   -11.0984 -11.0913 -11.0703 -11.0656 -11.0500 -11.0460 -11.0337 -11.0192
   -11.0136 -10.9961 -10.9872 -10.9779 -10.9613 -10.9519 -10.9329 -10.9091
   -10.8934 -10.8830 -10.8694 -10.8578 -10.8509 -10.8432 -10.8376 -10.8123
   -10.7982 -10.7826 -10.7732 -10.7565 -10.7358 -10.7306 -10.7115 -10.7072
   -10.7004 -10.6867 -10.6745 -10.6615 -10.6445 -10.6392 -10.6309 -10.6246
   -10.6123 -10.6108 -10.5824 -10.5663 -10.5550 -10.5516 -10.5357 -10.5216
   -10.4922 -10.4790 -10.4638 -10.3974  -8.5728  -7.7539  -6.9799  -6.4776
    -6.1155  -5.5918  -5.2128  -4.5962  -4.0265  -3.8847  -3.6310  -2.8499
    -2.7911  -0.6852  -0.0829   0.1544   0.5877   0.7178   1.0106   1.3287
     1.4642   1.7279   2.0374   2.1972   2.2609   2.5018   2.8349   3.0821
     3.3383   3.4948

          k =-0.5000 0.2887 0.0000 ( 25090 PWs)   bands (ev):

   -11.6643 -11.2375 -11.2284 -11.2110 -11.1303 -11.1254 -11.1213 -11.1091
   -11.1049 -11.0902 -11.0814 -11.0645 -11.0520 -11.0326 -11.0247 -11.0185
   -10.9932 -10.9909 -10.9868 -10.9650 -10.9562 -10.9295 -10.9282 -10.9170
   -10.9080 -10.8964 -10.8597 -10.8453 -10.8306 -10.8220 -10.8165 -10.8113
   -10.8016 -10.7855 -10.7527 -10.7455 -10.7372 -10.7229 -10.7181 -10.7003
   -10.6974 -10.6837 -10.6809 -10.6733 -10.6644 -10.6565 -10.6512 -10.6508
   -10.6408 -10.6249 -10.6161 -10.5756 -10.5743 -10.5474 -10.5384 -10.5198
   -10.4949 -10.4569 -10.4452 -10.3657  -8.5633  -7.5719  -7.4319  -6.5862
    -5.5417  -5.0702  -5.0334  -4.9495  -4.5766  -4.4141  -3.2127  -3.0984
    -2.5796  -0.6765   0.2557   0.5666   0.5709   0.8082   0.9105   1.1315
     1.1972   1.5333   1.8092   2.2969   2.3420   2.8513   2.8698   3.3935
     3.5597   3.6849

          k =-0.5000 0.4811 0.0000 ( 25036 PWs)   bands (ev):

   -11.6617 -11.2252 -11.2012 -11.1710 -11.1623 -11.1419 -11.1229 -11.1071
   -11.0984 -11.0913 -11.0703 -11.0656 -11.0500 -11.0460 -11.0337 -11.0192
   -11.0136 -10.9961 -10.9872 -10.9779 -10.9613 -10.9519 -10.9329 -10.9091
   -10.8934 -10.8830 -10.8694 -10.8578 -10.8509 -10.8432 -10.8376 -10.8123
   -10.7982 -10.7826 -10.7732 -10.7565 -10.7358 -10.7306 -10.7115 -10.7072
   -10.7004 -10.6867 -10.6745 -10.6615 -10.6445 -10.6392 -10.6309 -10.6246
   -10.6123 -10.6108 -10.5824 -10.5663 -10.5550 -10.5516 -10.5357 -10.5216
   -10.4922 -10.4790 -10.4638 -10.3974  -8.5728  -7.7539  -6.9799  -6.4776
    -6.1155  -5.5918  -5.2128  -4.5963  -4.0265  -3.8847  -3.6310  -2.8499
    -2.7911  -0.6852  -0.0829   0.1544   0.5877   0.7178   1.0106   1.3287
     1.4642   1.7279   2.0374   2.1972   2.2609   2.5017   2.8349   3.0821
     3.3383   3.4948

          k =-0.5000 0.6736 0.0000 ( 25036 PWs)   bands (ev):

   -11.6616 -11.2252 -11.2012 -11.1710 -11.1623 -11.1419 -11.1229 -11.1071
   -11.0984 -11.0913 -11.0703 -11.0656 -11.0500 -11.0460 -11.0337 -11.0192
   -11.0136 -10.9961 -10.9872 -10.9779 -10.9613 -10.9519 -10.9329 -10.9091
   -10.8934 -10.8830 -10.8694 -10.8578 -10.8509 -10.8432 -10.8376 -10.8123
   -10.7982 -10.7826 -10.7732 -10.7565 -10.7358 -10.7306 -10.7115 -10.7072
   -10.7004 -10.6867 -10.6745 -10.6615 -10.6445 -10.6392 -10.6309 -10.6246
   -10.6123 -10.6108 -10.5824 -10.5663 -10.5550 -10.5516 -10.5357 -10.5216
   -10.4922 -10.4790 -10.4638 -10.3974  -8.5728  -7.7539  -6.9799  -6.4776
    -6.1155  -5.5918  -5.2127  -4.5963  -4.0265  -3.8847  -3.6310  -2.8499
    -2.7911  -0.6852  -0.0829   0.1544   0.5878   0.7178   1.0105   1.3287
     1.4642   1.7279   2.0374   2.1972   2.2609   2.5017   2.8349   3.0821
     3.3383   3.4948

          k =-0.5000-0.2887 0.0000 ( 25090 PWs)   bands (ev):

   -11.6643 -11.2375 -11.2284 -11.2110 -11.1304 -11.1254 -11.1213 -11.1091
   -11.1049 -11.0902 -11.0814 -11.0645 -11.0520 -11.0326 -11.0247 -11.0185
   -10.9932 -10.9909 -10.9868 -10.9650 -10.9562 -10.9295 -10.9282 -10.9170
   -10.9080 -10.8964 -10.8597 -10.8453 -10.8306 -10.8220 -10.8165 -10.8113
   -10.8016 -10.7855 -10.7527 -10.7455 -10.7372 -10.7229 -10.7181 -10.7003
   -10.6974 -10.6837 -10.6809 -10.6733 -10.6644 -10.6565 -10.6512 -10.6508
   -10.6408 -10.6249 -10.6161 -10.5756 -10.5743 -10.5474 -10.5384 -10.5198
   -10.4949 -10.4569 -10.4452 -10.3657  -8.5633  -7.5719  -7.4319  -6.5862
    -5.5417  -5.0702  -5.0334  -4.9496  -4.5766  -4.4140  -3.2127  -3.0984
    -2.5796  -0.6765   0.2558   0.5665   0.5710   0.8082   0.9105   1.1315
     1.1972   1.5333   1.8092   2.2969   2.3419   2.8513   2.8698   3.3935
     3.5597   3.6849

     the Fermi energy is     1.0540 ev

!    total energy              =   -1772.81701386 Ry
     Harris-Foulkes estimate   =   -1772.81701285 Ry
     estimated scf accuracy    <       0.00000019 Ry

     The total energy is the sum of the following terms:

     one-electron contribution =   -8419.58793765 Ry
     hartree contribution      =    4293.54445580 Ry
     xc contribution           =    -771.86430202 Ry
     ewald contribution        =    3125.12581157 Ry
     electric field correction =       0.00015864 Ry
     smearing contrib. (-TS)   =      -0.03520019 Ry

     convergence has been achieved in   7 iterations

     Forces acting on atoms (Ry/au):


     negative rho (up, down):  6.318E-01 0.000E+00
     atom    1 type  1   force =    -0.00065190   -0.00037538   -0.02412200
     atom    2 type  1   force =     0.00065231   -0.00037655   -0.02411974
     atom    3 type  1   force =    -0.00000044    0.00075242   -0.02411997
     atom    4 type  1   force =     0.00000085   -0.00000111   -0.02077861
     atom    5 type  1   force =    -0.00000267   -0.00124854    0.02268038
     atom    6 type  1   force =     0.00000138   -0.00000125    0.02328944
     atom    7 type  1   force =     0.00108035    0.00062554    0.02268435
     atom    8 type  1   force =    -0.00107999    0.00062340    0.02268460
     atom    9 type  1   force =    -0.00000170    0.00000184    0.00101917
     atom   10 type  1   force =     0.00000141   -0.00147844    0.00016012
     atom   11 type  1   force =    -0.00128211    0.00073974    0.00016557
     atom   12 type  1   force =     0.00128587    0.00074055    0.00016316
     atom   13 type  2   force =    -0.00000336   -0.00000219    0.00029353

     Total force =     0.002790     Total SCF correction =     0.001742
     SCF correction compared to forces is large: reduce conv_thr to get better values

     bfgs converged in   3 scf cycles and   2 bfgs steps
     (criteria: energy <  1.0E+12, force <  1.9E-03)

     End of BFGS Geometry Optimization

     Final energy   =   -1772.8170138575 Ry
Begin final coordinates

ATOMIC_POSITIONS (angstrom)
Tl       1.671975640   0.965315586  10.000000000    0   0   0
Tl       5.015926920   0.965315586  10.000000000    0   0   0
Tl       3.343951280   3.861262344  10.000000000    0   0   0
Tl       6.687902560   3.861262344  10.000000000    0   0   0
Tl       6.687902560   1.930631172  12.730324787    0   0   0
Tl       3.343951280   1.930631172  12.730324787    0   0   0
Tl       8.359878201   4.826577930  12.730324787    0   0   0
Tl       5.015926920   4.826577930  12.730324787    0   0   0
Tl       0.000010445  -0.000013299  15.946682575
Tl       3.343966950  -0.094089164  15.819421681
Tl       1.590502935   2.942985619  15.819371233
Tl       5.097401204   2.942995208  15.819433234
C        3.343955590   1.930642797  16.877841618
End final coordinates



     Writing output data file calc.save
 
     init_run     :     14.01s CPU     14.40s WALL (       1 calls)
     electrons    :    560.12s CPU    585.34s WALL (       3 calls)
     update_pot   :      7.74s CPU      8.04s WALL (       2 calls)
     forces       :     55.74s CPU     57.82s WALL (       3 calls)

     Called by init_run:
     wfcinit      :      4.60s CPU      4.70s WALL (       1 calls)
     potinit      :      2.49s CPU      2.66s WALL (       1 calls)

     Called by electrons:
     c_bands      :    263.47s CPU    273.73s WALL (      21 calls)
     sum_band     :    128.91s CPU    134.57s WALL (      21 calls)
     v_of_rho     :     47.15s CPU     50.18s WALL (      24 calls)
     newd         :    129.54s CPU    130.58s WALL (      24 calls)
     mix_rho      :      1.50s CPU      1.51s WALL (      21 calls)
     vdW_energy   :      8.16s CPU      8.99s WALL (      27 calls)
     vdW_ffts     :     18.90s CPU     19.54s WALL (      54 calls)
     vdW_v        :      7.18s CPU      7.56s WALL (      27 calls)

     Called by c_bands:
     init_us_2    :      1.52s CPU      1.54s WALL (     230 calls)
     cegterg      :    246.17s CPU    252.31s WALL (     105 calls)

     Called by *egterg:
     h_psi        :    164.17s CPU    167.78s WALL (     663 calls)
     s_psi        :     15.03s CPU     15.11s WALL (     663 calls)
     g_psi        :      0.97s CPU      0.98s WALL (     553 calls)
     cdiaghg      :     22.50s CPU     22.63s WALL (     648 calls)

     Called by h_psi:
     add_vuspsi   :     15.33s CPU     15.38s WALL (     663 calls)

     General routines
     calbec       :     23.11s CPU     23.56s WALL (     783 calls)
     fft          :     32.60s CPU     34.89s WALL (    1757 calls)
     ffts         :      0.11s CPU      0.12s WALL (      45 calls)
     fftw         :    100.24s CPU    103.95s WALL (   59018 calls)
     interpolate  :      1.08s CPU      1.13s WALL (      45 calls)
     davcio       :      0.01s CPU      0.08s WALL (       5 calls)
 
     Parallel routines
     fft_scatter  :     73.09s CPU     78.46s WALL (   60820 calls)
 
     PWSCF        : 10m49.99s CPU    11m19.22s WALL

 
   This run was terminated on:  23:10:43  11Jan2019            

=------------------------------------------------------------------------------=
   JOB DONE.
=------------------------------------------------------------------------------=
Job  /afs/slac/g/suncat/bin/suncat-tsmpirun -x LD_LIBRARY_PATH -wdir /tmp/qe_673710lx7yh2nf_scratch pw.x -npool 4 -in pw.pwi

TID   HOST_NAME   COMMAND_LINE            STATUS            TERMINATION_TIME
===== ========== ================  =======================  ===================
00000 suncat0001 pw.x -npool 4 -i  Done                     01/11/2019 23:10:43
00001 suncat0001 pw.x -npool 4 -i  Done                     01/11/2019 23:10:43
00002 suncat0001 pw.x -npool 4 -i  Done                     01/11/2019 23:10:43
00003 suncat0001 pw.x -npool 4 -i  Done                     01/11/2019 23:10:43
00004 suncat0001 pw.x -npool 4 -i  Done                     01/11/2019 23:10:43
00005 suncat0001 pw.x -npool 4 -i  Done                     01/11/2019 23:10:43
00006 suncat0001 pw.x -npool 4 -i  Done                     01/11/2019 23:10:43
00007 suncat0001 pw.x -npool 4 -i  Done                     01/11/2019 23:10:43
00008 suncat0242 pw.x -npool 4 -i  Done                     01/11/2019 23:10:43
00009 suncat0242 pw.x -npool 4 -i  Done                     01/11/2019 23:10:43
00010 suncat0242 pw.x -npool 4 -i  Done                     01/11/2019 23:10:43
00011 suncat0242 pw.x -npool 4 -i  Done                     01/11/2019 23:10:43
00012 suncat0242 pw.x -npool 4 -i  Done                     01/11/2019 23:10:43
00013 suncat0242 pw.x -npool 4 -i  Done                     01/11/2019 23:10:43
00014 suncat0242 pw.x -npool 4 -i  Done                     01/11/2019 23:10:43
00015 suncat0242 pw.x -npool 4 -i  Done                     01/11/2019 23:10:43
00016 suncat0241 pw.x -npool 4 -i  Done                     01/11/2019 23:10:43
00017 suncat0241 pw.x -npool 4 -i  Done                     01/11/2019 23:10:43
00018 suncat0241 pw.x -npool 4 -i  Done                     01/11/2019 23:10:43
00019 suncat0241 pw.x -npool 4 -i  Done                     01/11/2019 23:10:43
00020 suncat0241 pw.x -npool 4 -i  Done                     01/11/2019 23:10:43
00021 suncat0241 pw.x -npool 4 -i  Done                     01/11/2019 23:10:43
00022 suncat0241 pw.x -npool 4 -i  Done                     01/11/2019 23:10:43
00023 suncat0241 pw.x -npool 4 -i  Done                     01/11/2019 23:10:43
00024 suncat0238 pw.x -npool 4 -i  Done                     01/11/2019 23:10:43
00025 suncat0238 pw.x -npool 4 -i  Done                     01/11/2019 23:10:43
00026 suncat0238 pw.x -npool 4 -i  Done                     01/11/2019 23:10:43
00027 suncat0238 pw.x -npool 4 -i  Done                     01/11/2019 23:10:43
00028 suncat0238 pw.x -npool 4 -i  Done                     01/11/2019 23:10:43
00029 suncat0238 pw.x -npool 4 -i  Done                     01/11/2019 23:10:43
00030 suncat0238 pw.x -npool 4 -i  Done                     01/11/2019 23:10:43
00031 suncat0238 pw.x -npool 4 -i  Done                     01/11/2019 23:10:43
