  python dir          : /u/if/mamunm/src/espresso
  espresso dir        : /nfs/slac/g/suncatfs/sw/espv18/espresso-dynpy-beef/bin
  pseudo dir          : /u/if/mamunm/psp/gbrv1.5pbe
  ase-espresso py git : GITVERSION



     Program PWSCF v.5.1rc2 (svn rev. 11289) starts on  3May2018 at 11: 2:43 

     This program is part of the open-source Quantum ESPRESSO suite
     for quantum simulation of materials; please cite
         "P. Giannozzi et al., J. Phys.:Condens. Matter 21 395502 (2009);
          URL http://www.quantum-espresso.org", 
     in publications or presentations arising from this work. More details at
     http://www.quantum-espresso.org/quote

     Parallel version (MPI), running on    32 processors
     K-points division:     npool     =       4
     R & G space division:  proc/nbgrp/npool/nimage =       8
     Reading input from pw.inp
     Message from routine read_cards :
     DEPRECATED: no units specified in CELL_PARAMETERS card

     Current dimensions of program PWSCF are:
     Max number of different atomic species (ntypx) = 10
     Max number of k-points (npk) =  40000
     Max angular momentum in pseudopotentials (lmaxx) =  3
     Presently stress not available with electric field


     **************************************************************************
     Initializing libbeef V0.1.1 with the BEEF-vdW functional.
     Citation: Wellendorff et al., PRB 85, 235149 (2012).
     **************************************************************************


     IMPORTANT: XC functional enforced from input :
     Exchange-correlation      = BEEF-VDW ( 1  4 27 13 2)
     Any further DFT definition will be discarded
     Please, verify this is what you really want


     Subspace diagonalization in iterative solution of the eigenvalue problem:
     a serial algorithm will be used

 
     Parallelization info
     --------------------
     sticks:   dense  smooth     PW     G-vecs:    dense   smooth      PW
     Min         630     253     71               126464    31969    4789
     Max         631     254     73               126473    31991    4796
     Sum        5041    2029    571              1011733   255863   38327
 


     bravais-lattice index     =            0
     lattice parameter (alat)  =       1.8897  a.u.
     unit-cell volume          =    8507.0471 (a.u.)^3
     number of atoms/cell      =           13
     number of atomic types    =            2
     number of electrons       =       137.00
     number of Kohn-Sham states=           78
     kinetic-energy cutoff     =      36.7493  Ry
     charge density cutoff     =     367.4932  Ry
     convergence threshold     =      1.0E-05
     mixing beta               =       0.3000
     number of iterations used =           10  plain     mixing
     Exchange-correlation      = BEEF-VDW ( 1  4 27 13 2)
     nstep                     =           50


     celldm(1)=   1.889726  celldm(2)=   0.000000  celldm(3)=   0.000000
     celldm(4)=   0.000000  celldm(5)=   0.000000  celldm(6)=   0.000000

     crystal axes: (cart. coord. in units of alat)
               a(1) = (   7.468327   0.000000   0.000000 )  
               a(2) = (   3.734164   6.467761   0.000000 )  
               a(3) = (   0.000000   0.000000  26.097863 )  

     reciprocal axes: (cart. coord. in units 2 pi/alat)
               b(1) = (  0.133899 -0.077307  0.000000 )  
               b(2) = (  0.000000  0.154613  0.000000 )  
               b(3) = (  0.000000  0.000000  0.038317 )  


     PseudoPot. # 1 for La read from file:
     /u/if/mamunm/psp/gbrv1.5pbe/La.UPF
     MD5 check sum: 5937b0c7494ba0601a847275249473aa
     Pseudo is Ultrasoft + core correction, Zval = 11.0
     Generated by new atomic code, or converted to UPF format
     Using radial grid of  995 points,  8 beta functions with: 
                l(1) =   0
                l(2) =   0
                l(3) =   1
                l(4) =   1
                l(5) =   2
                l(6) =   2
                l(7) =   3
                l(8) =   3
     Q(r) pseudized with  8 coefficients,  rinner =    1.700   1.700   1.700
                                                       1.700   1.700   1.700
                                                       1.700

     PseudoPot. # 2 for N  read from file:
     /u/if/mamunm/psp/gbrv1.5pbe/N.UPF
     MD5 check sum: 95339753478d7afb44899504a8723017
     Pseudo is Ultrasoft + core correction, Zval =  5.0
     Generated by new atomic code, or converted to UPF format
     Using radial grid of  729 points,  4 beta functions with: 
                l(1) =   0
                l(2) =   0
                l(3) =   1
                l(4) =   1
     Q(r) pseudized with  8 coefficients,  rinner =    0.900   0.900   0.900


     vdW kernel table read from file vdW_kernel_table
     MD5 check sum: 095c7af220d748ca6e76c0b4c6cfb241

     atomic species   valence    mass     pseudopotential
        La1           11.00   138.90547     La( 1.00)
        N1             5.00    14.00700     N ( 1.00)

     No symmetry found



   Cartesian axes

     site n.     atom                  positions (alat units)
         1           La1 tau(   1) = (   1.8670818   1.0779602  10.0000000  )
         2           La1 tau(   2) = (   5.6012453   1.0779602  10.0000000  )
         3           La1 tau(   3) = (   3.7341635   4.3118406  10.0000000  )
         4           La1 tau(   4) = (   7.4683270   4.3118406  10.0000000  )
         5           La1 tau(   5) = (   7.4683270   2.1559203  13.0489317  )
         6           La1 tau(   6) = (   3.7341635   2.1559203  13.0489317  )
         7           La1 tau(   7) = (   9.3354088   5.3898008  13.0489317  )
         8           La1 tau(   8) = (   5.6012453   5.3898008  13.0489317  )
         9           La1 tau(   9) = (   0.0000000   0.0000000  16.0978635  )
        10           La1 tau(  10) = (   3.7341635   0.0000000  16.0978635  )
        11           La1 tau(  11) = (   1.8670818   3.2338805  16.0978635  )
        12           La1 tau(  12) = (   5.6012453   3.2338805  16.0978635  )
        13           N1  tau(  13) = (   1.8670818   1.0779602  17.9048635  )

     number of k points=    20  Fermi-Dirac smearing, width (Ry)=  0.0110
                       cart. coord. in units 2pi/alat
        k(    1) = (   0.0000000   0.0000000   0.0000000), wk =   0.0555556
        k(    2) = (   0.0000000   0.0257688   0.0000000), wk =   0.1111111
        k(    3) = (   0.0000000   0.0515377   0.0000000), wk =   0.1111111
        k(    4) = (   0.0000000  -0.0773065   0.0000000), wk =   0.0555556
        k(    5) = (   0.0223165  -0.0128844   0.0000000), wk =   0.1111111
        k(    6) = (   0.0223165   0.0128844   0.0000000), wk =   0.1111111
        k(    7) = (   0.0223165   0.0386533   0.0000000), wk =   0.1111111
        k(    8) = (   0.0223165  -0.0901909   0.0000000), wk =   0.1111111
        k(    9) = (   0.0223165  -0.0644221   0.0000000), wk =   0.1111111
        k(   10) = (   0.0223165  -0.0386533   0.0000000), wk =   0.1111111
        k(   11) = (   0.0446329  -0.0257688   0.0000000), wk =   0.1111111
        k(   12) = (   0.0446329   0.0000000   0.0000000), wk =   0.1111111
        k(   13) = (   0.0446329   0.0257688   0.0000000), wk =   0.1111111
        k(   14) = (   0.0446329  -0.1030753   0.0000000), wk =   0.1111111
        k(   15) = (   0.0446329  -0.0773065   0.0000000), wk =   0.1111111
        k(   16) = (   0.0446329  -0.0515377   0.0000000), wk =   0.1111111
        k(   17) = (  -0.0669494   0.0386533   0.0000000), wk =   0.0555556
        k(   18) = (  -0.0669494   0.0644221   0.0000000), wk =   0.1111111
        k(   19) = (  -0.0669494   0.0901909   0.0000000), wk =   0.1111111
        k(   20) = (  -0.0669494  -0.0386533   0.0000000), wk =   0.0555556

     Dense  grid:  1011733 G-vectors     FFT dimensions: (  90,  90, 320)

     Smooth grid:   255863 G-vectors     FFT dimensions: (  60,  60, 192)

     Largest allocated arrays     est. size (Mb)     dimensions
        Kohn-Sham Wavefunctions         4.90 Mb     (    4116,   78)
        NL pseudopotentials            24.62 Mb     (    4116,  392)
        Each V/rho on FFT grid          4.94 Mb     (  324000)
        Each G-vector array             0.96 Mb     (  126464)
        G-vector shells                 0.24 Mb     (   31359)
     Largest temporary arrays     est. size (Mb)     dimensions
        Auxiliary wavefunctions        19.60 Mb     (    4116,  312)
        Each subspace H/S matrix        1.49 Mb     (     312,  312)
        Each <psi_i|beta_j> matrix      0.47 Mb     (     392,   78)
        Arrays for rho mixing          49.44 Mb     (  324000,   10)

     Initial potential from superposition of free atoms
     Check: negative starting charge=   -0.831238

     starting charge  136.61517, renormalised to  137.00000

     negative rho (up, down):  8.336E-01 0.000E+00


     ************************************************************************
     *
     * You are using vdW-DF for exchange-correlation in this calculation.
     * Please cite the following three references that made this development
     * possible:
     *
     *   M. Dion, H. Rydberg, E. Schroder, D. C. Langreth, and
     *   B. I. Lundqvist, Phys. Rev. Lett. 92, 246401 (2004).
     *
     *   T. Thonhauser, V. R. Cooper, S. Li, A. Puzder, P. Hyldgaard, and
     *   D. C. Langreth, Phys. Rev. B 76, 125112 (2007).
     *
     *   G. Roman-Perez and J. M. Soler, Phys. Rev. Lett. 103, 096102 (2009).
     *
     *
     * If you are using vdW-DF2, please also cite:
     *
     *   K. Lee, E. D. Murray, L. Kong, B. I. Lundqvist, and
     *   D. C. Langreth, Phys. Rev. B 82, 081101(R) (2010).
     *
     *
     * If you are calculating the stress with vdW-DF, please also cite:
     *
     *   R. Sabatini, E. Kucukbenli, B. Kolb, T. Thonhauser, and
     *   S. de Gironcoli, J. Phys.: Condens. Matter 24, 424209 (2012).
     *
     ************************************************************************

     Carrying out vdW-DF run using the following parameters:

     Nqs =      20    Nr_points =    1024   r_max =   100.000
     q_mesh =
               0.00001000     0.04494208     0.09755937     0.15916263
               0.23128650     0.31572767     0.41458969     0.53033537
               0.66584808     0.82450364     1.01025438     1.22772762
               1.48234092     1.78043706     2.12944203     2.53805004
               3.01644009     3.57652955     4.23227104     5.00000000

     Gradients computed in reciprocal space

     ************************************************************************


 
     Adding external electric field

     Computed dipole along edir(3) : 
        Dipole               -0.1292 Ry au,         -0.3283 Debye
        Dipole field         -0.0002 Ry au
 
        Potential amp.        0.0183 Ry
        Total length         48.0849 bohr
 
     Starting wfc are  244 randomized atomic wfcs

     total cpu time spent up to now is       44.7 secs

     per-process dynamical memory:   126.7 Mb

     Self-consistent Calculation

     iteration #  1     ecut=    36.75 Ry     beta=0.30
     Davidson diagonalization with overlap
     ethr =  1.00E-02,  avg # of iterations =  2.0

     negative rho (up, down):  7.268E-01 0.000E+00
 
     Adding external electric field

     Computed dipole along edir(3) : 
        Dipole               -5.2209 Ry au,        -13.2703 Debye
        Dipole field         -0.0077 Ry au
 
        Potential amp.        0.7417 Ry
        Total length         48.0849 bohr
 

     total cpu time spent up to now is      100.3 secs

     total energy              =   -1265.70165922 Ry
     Harris-Foulkes estimate   =   -1269.23988580 Ry
     estimated scf accuracy    <       7.54683240 Ry

     iteration #  2     ecut=    36.75 Ry     beta=0.30
     Davidson diagonalization with overlap
     ethr =  5.51E-03,  avg # of iterations =  8.8

     negative rho (up, down):  6.602E-01 0.000E+00
 
     Adding external electric field

     Computed dipole along edir(3) : 
        Dipole                1.7164 Ry au,          4.3627 Debye
        Dipole field          0.0025 Ry au
 
        Potential amp.       -0.2438 Ry
        Total length         48.0849 bohr
 

     total cpu time spent up to now is      172.4 secs

     total energy              =   -1259.08679458 Ry
     Harris-Foulkes estimate   =   -1280.18885595 Ry
     estimated scf accuracy    <     461.14048835 Ry

     iteration #  3     ecut=    36.75 Ry     beta=0.30
     Davidson diagonalization with overlap
     ethr =  5.51E-03,  avg # of iterations = 13.1

     negative rho (up, down):  5.399E-01 0.000E+00
 
     Adding external electric field

     Computed dipole along edir(3) : 
        Dipole               -0.2190 Ry au,         -0.5567 Debye
        Dipole field         -0.0003 Ry au
 
        Potential amp.        0.0311 Ry
        Total length         48.0849 bohr
 

     total cpu time spent up to now is      253.9 secs

     total energy              =   -1263.09398287 Ry
     Harris-Foulkes estimate   =   -1274.97041263 Ry
     estimated scf accuracy    <     353.59629900 Ry

     iteration #  4     ecut=    36.75 Ry     beta=0.30
     Davidson diagonalization with overlap
     ethr =  5.51E-03,  avg # of iterations =  8.7

     negative rho (up, down):  5.400E-01 0.000E+00
 
     Adding external electric field

     Computed dipole along edir(3) : 
        Dipole               -0.9011 Ry au,         -2.2904 Debye
        Dipole field         -0.0013 Ry au
 
        Potential amp.        0.1280 Ry
        Total length         48.0849 bohr
 

     total cpu time spent up to now is      324.6 secs

     total energy              =   -1267.68436691 Ry
     Harris-Foulkes estimate   =   -1268.75113888 Ry
     estimated scf accuracy    <      21.46521073 Ry

     iteration #  5     ecut=    36.75 Ry     beta=0.30
     Davidson diagonalization with overlap
     ethr =  5.51E-03,  avg # of iterations =  7.2

     negative rho (up, down):  5.370E-01 0.000E+00
 
     Adding external electric field

     Computed dipole along edir(3) : 
        Dipole               -0.4951 Ry au,         -1.2585 Debye
        Dipole field         -0.0007 Ry au
 
        Potential amp.        0.0703 Ry
        Total length         48.0849 bohr
 

     total cpu time spent up to now is      388.3 secs

     total energy              =   -1268.26305966 Ry
     Harris-Foulkes estimate   =   -1268.45650057 Ry
     estimated scf accuracy    <       1.61910576 Ry

     iteration #  6     ecut=    36.75 Ry     beta=0.30
     Davidson diagonalization with overlap
     ethr =  1.18E-03,  avg # of iterations =  7.3

     negative rho (up, down):  5.424E-01 0.000E+00
 
     Adding external electric field

     Computed dipole along edir(3) : 
        Dipole               -0.5796 Ry au,         -1.4732 Debye
        Dipole field         -0.0009 Ry au
 
        Potential amp.        0.0823 Ry
        Total length         48.0849 bohr
 

     total cpu time spent up to now is      453.4 secs

     total energy              =   -1268.42092564 Ry
     Harris-Foulkes estimate   =   -1268.54821997 Ry
     estimated scf accuracy    <       1.29002744 Ry

     iteration #  7     ecut=    36.75 Ry     beta=0.30
     Davidson diagonalization with overlap
     ethr =  9.42E-04,  avg # of iterations =  2.2

     negative rho (up, down):  5.341E-01 0.000E+00
 
     Adding external electric field

     Computed dipole along edir(3) : 
        Dipole               -0.7839 Ry au,         -1.9925 Debye
        Dipole field         -0.0012 Ry au
 
        Potential amp.        0.1114 Ry
        Total length         48.0849 bohr
 

     total cpu time spent up to now is      511.4 secs

     total energy              =   -1268.39257368 Ry
     Harris-Foulkes estimate   =   -1268.46244767 Ry
     estimated scf accuracy    <       0.30531289 Ry

     iteration #  8     ecut=    36.75 Ry     beta=0.30
     Davidson diagonalization with overlap
     ethr =  2.23E-04,  avg # of iterations =  8.0

     negative rho (up, down):  5.388E-01 0.000E+00
 
     Adding external electric field

     Computed dipole along edir(3) : 
        Dipole               -0.4924 Ry au,         -1.2515 Debye
        Dipole field         -0.0007 Ry au
 
        Potential amp.        0.0699 Ry
        Total length         48.0849 bohr
 

     total cpu time spent up to now is      578.4 secs

     total energy              =   -1268.39833060 Ry
     Harris-Foulkes estimate   =   -1268.48026452 Ry
     estimated scf accuracy    <       0.97075919 Ry

     iteration #  9     ecut=    36.75 Ry     beta=0.30
     Davidson diagonalization with overlap
     ethr =  2.23E-04,  avg # of iterations =  4.6

     negative rho (up, down):  5.381E-01 0.000E+00
 
     Adding external electric field

     Computed dipole along edir(3) : 
        Dipole               -0.4954 Ry au,         -1.2593 Debye
        Dipole field         -0.0007 Ry au
 
        Potential amp.        0.0704 Ry
        Total length         48.0849 bohr
 

     total cpu time spent up to now is      638.1 secs

     total energy              =   -1268.43145409 Ry
     Harris-Foulkes estimate   =   -1268.44866534 Ry
     estimated scf accuracy    <       0.49597793 Ry

     iteration # 10     ecut=    36.75 Ry     beta=0.30
     Davidson diagonalization with overlap
     ethr =  2.23E-04,  avg # of iterations =  2.9

     negative rho (up, down):  5.457E-01 0.000E+00
 
     Adding external electric field

     Computed dipole along edir(3) : 
        Dipole               -0.5581 Ry au,         -1.4187 Debye
        Dipole field         -0.0008 Ry au
 
        Potential amp.        0.0793 Ry
        Total length         48.0849 bohr
 

     total cpu time spent up to now is      696.5 secs

     total energy              =   -1268.43242987 Ry
     Harris-Foulkes estimate   =   -1268.44210023 Ry
     estimated scf accuracy    <       0.13148005 Ry

     iteration # 11     ecut=    36.75 Ry     beta=0.30
     Davidson diagonalization with overlap
     ethr =  9.60E-05,  avg # of iterations =  6.5

     negative rho (up, down):  5.554E-01 0.000E+00
 
     Adding external electric field

     Computed dipole along edir(3) : 
        Dipole               -0.6147 Ry au,         -1.5624 Debye
        Dipole field         -0.0009 Ry au
 
        Potential amp.        0.0873 Ry
        Total length         48.0849 bohr
 

     total cpu time spent up to now is      759.8 secs

     total energy              =   -1268.42985313 Ry
     Harris-Foulkes estimate   =   -1268.43622736 Ry
     estimated scf accuracy    <       0.11409062 Ry

     iteration # 12     ecut=    36.75 Ry     beta=0.30
     Davidson diagonalization with overlap
     ethr =  8.33E-05,  avg # of iterations =  1.2

     negative rho (up, down):  5.636E-01 0.000E+00
 
     Adding external electric field

     Computed dipole along edir(3) : 
        Dipole               -0.6449 Ry au,         -1.6392 Debye
        Dipole field         -0.0010 Ry au
 
        Potential amp.        0.0916 Ry
        Total length         48.0849 bohr
 

     total cpu time spent up to now is      820.3 secs

     total energy              =   -1268.42841504 Ry
     Harris-Foulkes estimate   =   -1268.43200412 Ry
     estimated scf accuracy    <       0.06158871 Ry

     iteration # 13     ecut=    36.75 Ry     beta=0.30
     Davidson diagonalization with overlap
     ethr =  4.50E-05,  avg # of iterations =  6.5

     negative rho (up, down):  5.771E-01 0.000E+00
 
     Adding external electric field

     Computed dipole along edir(3) : 
        Dipole               -0.6552 Ry au,         -1.6654 Debye
        Dipole field         -0.0010 Ry au
 
        Potential amp.        0.0931 Ry
        Total length         48.0849 bohr
 

     total cpu time spent up to now is      884.9 secs

     total energy              =   -1268.42878647 Ry
     Harris-Foulkes estimate   =   -1268.43044006 Ry
     estimated scf accuracy    <       0.00645675 Ry

     iteration # 14     ecut=    36.75 Ry     beta=0.30
     Davidson diagonalization with overlap
     c_bands:  2 eigenvalues not converged
     ethr =  4.71E-06,  avg # of iterations = 14.1

     negative rho (up, down):  5.820E-01 0.000E+00
 
     Adding external electric field

     Computed dipole along edir(3) : 
        Dipole               -0.6585 Ry au,         -1.6737 Debye
        Dipole field         -0.0010 Ry au
 
        Potential amp.        0.0935 Ry
        Total length         48.0849 bohr
 

     total cpu time spent up to now is      965.3 secs

     total energy              =   -1268.43177040 Ry
     Harris-Foulkes estimate   =   -1268.43179516 Ry
     estimated scf accuracy    <       0.01229081 Ry

     iteration # 15     ecut=    36.75 Ry     beta=0.30
     Davidson diagonalization with overlap
     ethr =  4.71E-06,  avg # of iterations =  2.7

     negative rho (up, down):  5.833E-01 0.000E+00
 
     Adding external electric field

     Computed dipole along edir(3) : 
        Dipole               -0.6652 Ry au,         -1.6907 Debye
        Dipole field         -0.0010 Ry au
 
        Potential amp.        0.0945 Ry
        Total length         48.0849 bohr
 

     total cpu time spent up to now is     1027.6 secs

     total energy              =   -1268.43102151 Ry
     Harris-Foulkes estimate   =   -1268.43188146 Ry
     estimated scf accuracy    <       0.01797951 Ry

     iteration # 16     ecut=    36.75 Ry     beta=0.30
     Davidson diagonalization with overlap
     ethr =  4.71E-06,  avg # of iterations =  5.1

     negative rho (up, down):  5.826E-01 0.000E+00
 
     Adding external electric field

     Computed dipole along edir(3) : 
        Dipole               -0.6610 Ry au,         -1.6800 Debye
        Dipole field         -0.0010 Ry au
 
        Potential amp.        0.0939 Ry
        Total length         48.0849 bohr
 

     total cpu time spent up to now is     1090.4 secs

     total energy              =   -1268.43126662 Ry
     Harris-Foulkes estimate   =   -1268.43139965 Ry
     estimated scf accuracy    <       0.00097061 Ry

     iteration # 17     ecut=    36.75 Ry     beta=0.30
     Davidson diagonalization with overlap
     c_bands:  2 eigenvalues not converged
     ethr =  7.08E-07,  avg # of iterations = 10.4

     negative rho (up, down):  5.821E-01 0.000E+00
 
     Adding external electric field

     Computed dipole along edir(3) : 
        Dipole               -0.6541 Ry au,         -1.6625 Debye
        Dipole field         -0.0010 Ry au
 
        Potential amp.        0.0929 Ry
        Total length         48.0849 bohr
 

     total cpu time spent up to now is     1172.6 secs

     total energy              =   -1268.43136519 Ry
     Harris-Foulkes estimate   =   -1268.43144646 Ry
     estimated scf accuracy    <       0.00072549 Ry

     iteration # 18     ecut=    36.75 Ry     beta=0.30
     Davidson diagonalization with overlap
     ethr =  5.30E-07,  avg # of iterations =  3.5

     negative rho (up, down):  5.825E-01 0.000E+00
 
     Adding external electric field

     Computed dipole along edir(3) : 
        Dipole               -0.6594 Ry au,         -1.6759 Debye
        Dipole field         -0.0010 Ry au
 
        Potential amp.        0.0937 Ry
        Total length         48.0849 bohr
 

     total cpu time spent up to now is     1248.1 secs

     total energy              =   -1268.43134280 Ry
     Harris-Foulkes estimate   =   -1268.43137367 Ry
     estimated scf accuracy    <       0.00037551 Ry

     iteration # 19     ecut=    36.75 Ry     beta=0.30
     Davidson diagonalization with overlap
     ethr =  2.74E-07,  avg # of iterations =  5.5

     negative rho (up, down):  5.820E-01 0.000E+00
 
     Adding external electric field

     Computed dipole along edir(3) : 
        Dipole               -0.6540 Ry au,         -1.6622 Debye
        Dipole field         -0.0010 Ry au
 
        Potential amp.        0.0929 Ry
        Total length         48.0849 bohr
 

     total cpu time spent up to now is     1315.6 secs

     total energy              =   -1268.43134161 Ry
     Harris-Foulkes estimate   =   -1268.43137922 Ry
     estimated scf accuracy    <       0.00011707 Ry

     iteration # 20     ecut=    36.75 Ry     beta=0.30
     Davidson diagonalization with overlap
     c_bands:  1 eigenvalues not converged
     ethr =  8.55E-08,  avg # of iterations =  9.0

     negative rho (up, down):  5.828E-01 0.000E+00
 
     Adding external electric field

     Computed dipole along edir(3) : 
        Dipole               -0.6599 Ry au,         -1.6773 Debye
        Dipole field         -0.0010 Ry au
 
        Potential amp.        0.0937 Ry
        Total length         48.0849 bohr
 

     total cpu time spent up to now is     1390.9 secs

     total energy              =   -1268.43132195 Ry
     Harris-Foulkes estimate   =   -1268.43138651 Ry
     estimated scf accuracy    <       0.00055130 Ry

     iteration # 21     ecut=    36.75 Ry     beta=0.30
     Davidson diagonalization with overlap
     ethr =  8.55E-08,  avg # of iterations =  8.2

     negative rho (up, down):  5.829E-01 0.000E+00
 
     Adding external electric field

     Computed dipole along edir(3) : 
        Dipole               -0.6569 Ry au,         -1.6696 Debye
        Dipole field         -0.0010 Ry au
 
        Potential amp.        0.0933 Ry
        Total length         48.0849 bohr
 

     total cpu time spent up to now is     1463.2 secs

     total energy              =   -1268.43136429 Ry
     Harris-Foulkes estimate   =   -1268.43138394 Ry
     estimated scf accuracy    <       0.00008714 Ry

     iteration # 22     ecut=    36.75 Ry     beta=0.30
     Davidson diagonalization with overlap
     ethr =  6.36E-08,  avg # of iterations =  4.7

     negative rho (up, down):  5.832E-01 0.000E+00
 
     Adding external electric field

     Computed dipole along edir(3) : 
        Dipole               -0.6561 Ry au,         -1.6677 Debye
        Dipole field         -0.0010 Ry au
 
        Potential amp.        0.0932 Ry
        Total length         48.0849 bohr
 

     total cpu time spent up to now is     1526.3 secs

     total energy              =   -1268.43136557 Ry
     Harris-Foulkes estimate   =   -1268.43136961 Ry
     estimated scf accuracy    <       0.00002259 Ry

     iteration # 23     ecut=    36.75 Ry     beta=0.30
     Davidson diagonalization with overlap
     ethr =  1.65E-08,  avg # of iterations =  6.0

     negative rho (up, down):  5.833E-01 0.000E+00

     negative rho (up, down):  5.833E-01 0.000E+00

     negative rho (up, down):  5.833E-01 0.000E+00

     negative rho (up, down):  5.833E-01 0.000E+00

     negative rho (up, down):  5.833E-01 0.000E+00

     negative rho (up, down):  5.833E-01 0.000E+00

     negative rho (up, down):  5.833E-01 0.000E+00

     negative rho (up, down):  5.833E-01 0.000E+00

     negative rho (up, down):  5.833E-01 0.000E+00

     negative rho (up, down):  5.833E-01 0.000E+00

     negative rho (up, down):  5.833E-01 0.000E+00

     negative rho (up, down):  5.833E-01 0.000E+00

     negative rho (up, down):  5.833E-01 0.000E+00

     negative rho (up, down):  5.833E-01 0.000E+00

     negative rho (up, down):  5.833E-01 0.000E+00

     negative rho (up, down):  5.833E-01 0.000E+00

     negative rho (up, down):  5.833E-01 0.000E+00

     negative rho (up, down):  5.833E-01 0.000E+00

     negative rho (up, down):  5.833E-01 0.000E+00

     negative rho (up, down):  5.833E-01 0.000E+00

     negative rho (up, down):  5.833E-01 0.000E+00

     negative rho (up, down):  5.833E-01 0.000E+00

     negative rho (up, down):  5.833E-01 0.000E+00

     negative rho (up, down):  5.833E-01 0.000E+00

     negative rho (up, down):  5.833E-01 0.000E+00

     negative rho (up, down):  5.833E-01 0.000E+00

     negative rho (up, down):  5.833E-01 0.000E+00

     negative rho (up, down):  5.833E-01 0.000E+00

     negative rho (up, down):  5.833E-01 0.000E+00

     negative rho (up, down):  5.833E-01 0.000E+00

     negative rho (up, down):  5.833E-01 0.000E+00

     negative rho (up, down):  5.833E-01 0.000E+00

     negative rho (up, down):  5.833E-01 0.000E+00

     negative rho (up, down):  5.833E-01 0.000E+00

     negative rho (up, down):  5.833E-01 0.000E+00
 
     Adding external electric field

     Computed dipole along edir(3) : 
        Dipole               -0.6704 Ry au,         -1.7039 Debye
        Dipole field         -0.0010 Ry au
 
        Potential amp.        0.0952 Ry
        Total length         48.0849 bohr
 

     total cpu time spent up to now is     1699.4 secs

     End of self-consistent calculation

          k = 0.0000 0.0000 0.0000 ( 31997 PWs)   bands (ev):

   -31.9228 -31.8792 -31.7532 -31.7437 -31.7436 -31.6485 -31.5577 -31.5576
   -31.4267 -31.3244 -31.2909 -31.2908 -15.9759 -15.9759 -15.9587 -15.9000
   -15.9000 -15.8301 -15.8013 -15.7319 -15.7115 -15.7114 -15.5366 -15.3595
   -15.3042 -15.3041 -15.2132 -15.1466 -15.1465 -15.1353 -15.1267 -15.1267
   -15.0339 -15.0339 -14.9979 -14.8842 -14.8842 -14.8361 -14.7940 -14.7939
   -14.7559 -14.7415 -14.7415 -14.6872 -14.6858 -14.6858 -14.4718 -14.4718
    -9.7539  -1.2910  -0.5545  -0.2225  -0.2225  -0.2225  -0.1707   0.0236
     0.0997   0.0997   0.2244   0.2244   0.2406   0.4147   0.4147   0.4293
     0.8715   0.8715   1.0364   1.4137   1.4137   1.6735   1.9607   2.0293
     2.1576   2.1576   2.3445   2.4407   2.6365   2.6793

          k = 0.0000 0.0258 0.0000 ( 32061 PWs)   bands (ev):

   -31.9206 -31.8706 -31.7583 -31.7477 -31.7436 -31.6449 -31.5638 -31.5577
   -31.4194 -31.3270 -31.2959 -31.2909 -15.9409 -15.9301 -15.9068 -15.8676
   -15.8461 -15.8093 -15.7564 -15.7052 -15.6825 -15.6715 -15.5327 -15.3722
   -15.3269 -15.3144 -15.1967 -15.1835 -15.1809 -15.1527 -15.1377 -15.1180
   -15.0679 -15.0416 -15.0108 -14.9680 -14.9017 -14.8583 -14.8109 -14.7926
   -14.7696 -14.7490 -14.7409 -14.7221 -14.7155 -14.6758 -14.5443 -14.4871
    -9.7484  -1.1133  -0.3840  -0.1314  -0.0818  -0.0555  -0.0152   0.0869
     0.1868   0.2416   0.3046   0.3780   0.4001   0.5044   0.5480   0.5545
     0.9092   0.9369   1.0731   1.3771   1.4202   1.6584   1.9042   2.0298
     2.1650   2.1671   2.2094   2.2666   2.4027   2.4718

          k = 0.0000 0.0515 0.0000 ( 32002 PWs)   bands (ev):

   -31.9162 -31.8470 -31.7810 -31.7495 -31.7437 -31.6352 -31.5787 -31.5578
   -31.4003 -31.3382 -31.3044 -31.2909 -15.8555 -15.8359 -15.7899 -15.7620
   -15.7487 -15.7078 -15.6553 -15.6236 -15.6154 -15.5863 -15.5282 -15.3971
   -15.3703 -15.3578 -15.2811 -15.2654 -15.2524 -15.1796 -15.1761 -15.1388
   -15.0776 -15.0767 -15.0515 -15.0249 -14.9921 -14.9488 -14.8497 -14.8371
   -14.7872 -14.7835 -14.7499 -14.7489 -14.7311 -14.7176 -14.6396 -14.5286
    -9.7376  -0.6528  -0.0357   0.0993   0.1449   0.2416   0.3098   0.3661
     0.4897   0.5193   0.5648   0.6833   0.6921   0.8308   0.9268   0.9426
     1.0754   1.1430   1.1857   1.3178   1.4891   1.5235   1.6823   1.8085
     1.8832   2.0001   2.0580   2.1154   2.1551   2.2505

          k = 0.0000-0.0773 0.0000 ( 31970 PWs)   bands (ev):

   -31.9139 -31.8176 -31.8105 -31.7497 -31.7437 -31.6275 -31.5890 -31.5578
   -31.3840 -31.3518 -31.3074 -31.2909 -15.7987 -15.7712 -15.7406 -15.7194
   -15.6607 -15.6182 -15.5907 -15.5703 -15.5542 -15.4944 -15.4646 -15.4490
   -15.4147 -15.4057 -15.3779 -15.3249 -15.2997 -15.2916 -15.2214 -15.2088
   -15.0963 -15.0310 -15.0170 -15.0094 -14.9791 -14.9498 -14.9342 -14.9137
   -14.8910 -14.8098 -14.7758 -14.7487 -14.7334 -14.7276 -14.5919 -14.5779
    -9.7323  -0.2012  -0.0988   0.1907   0.3279   0.4892   0.5043   0.6129
     0.6869   0.6924   0.7510   0.7606   0.7609   1.1158   1.1763   1.1945
     1.3069   1.3366   1.3580   1.3982   1.5929   1.6151   1.6975   1.7048
     1.7366   1.7834   1.8550   1.9016   2.0564   2.0663

          k = 0.0223-0.0129 0.0000 ( 32061 PWs)   bands (ev):

   -31.9206 -31.8706 -31.7583 -31.7475 -31.7437 -31.6449 -31.5638 -31.5576
   -31.4194 -31.3270 -31.2959 -31.2908 -15.9409 -15.9301 -15.9068 -15.8676
   -15.8461 -15.8093 -15.7564 -15.7052 -15.6825 -15.6715 -15.5327 -15.3722
   -15.3269 -15.3144 -15.1967 -15.1834 -15.1809 -15.1527 -15.1377 -15.1180
   -15.0679 -15.0415 -15.0108 -14.9680 -14.9017 -14.8583 -14.8110 -14.7926
   -14.7697 -14.7490 -14.7409 -14.7221 -14.7155 -14.6758 -14.5443 -14.4871
    -9.7484  -1.1133  -0.3840  -0.1314  -0.0818  -0.0555  -0.0152   0.0869
     0.1868   0.2416   0.3046   0.3780   0.4001   0.5044   0.5480   0.5545
     0.9092   0.9369   1.0731   1.3771   1.4201   1.6584   1.9042   2.0298
     2.1650   2.1671   2.2095   2.2666   2.4029   2.4719

          k = 0.0223 0.0129 0.0000 ( 32061 PWs)   bands (ev):

   -31.9206 -31.8706 -31.7583 -31.7476 -31.7437 -31.6449 -31.5638 -31.5577
   -31.4194 -31.3270 -31.2959 -31.2909 -15.9409 -15.9301 -15.9068 -15.8676
   -15.8461 -15.8093 -15.7564 -15.7052 -15.6825 -15.6715 -15.5327 -15.3722
   -15.3268 -15.3144 -15.1967 -15.1834 -15.1809 -15.1527 -15.1377 -15.1180
   -15.0679 -15.0415 -15.0108 -14.9680 -14.9017 -14.8583 -14.8109 -14.7926
   -14.7696 -14.7490 -14.7408 -14.7221 -14.7155 -14.6758 -14.5443 -14.4871
    -9.7484  -1.1133  -0.3840  -0.1314  -0.0818  -0.0555  -0.0152   0.0869
     0.1868   0.2416   0.3046   0.3780   0.4000   0.5044   0.5480   0.5545
     0.9092   0.9369   1.0731   1.3771   1.4201   1.6584   1.9042   2.0298
     2.1650   2.1671   2.2094   2.2666   2.4029   2.4718

          k = 0.0223 0.0387 0.0000 ( 32007 PWs)   bands (ev):

   -31.9173 -31.8545 -31.7675 -31.7606 -31.7384 -31.6379 -31.5752 -31.5572
   -31.4061 -31.3325 -31.3062 -31.2887 -15.8875 -15.8314 -15.8276 -15.8005
   -15.7724 -15.7484 -15.6805 -15.6571 -15.6302 -15.6102 -15.5289 -15.3899
   -15.3667 -15.3435 -15.2979 -15.2466 -15.1690 -15.1453 -15.1385 -15.1223
   -15.1054 -15.0827 -15.0495 -15.0220 -14.9654 -14.9390 -14.8528 -14.8055
   -14.7965 -14.7616 -14.7497 -14.7174 -14.7019 -14.6984 -14.6626 -14.5213
    -9.7402  -0.7896  -0.0996   0.0801   0.0985   0.2059   0.2129   0.2843
     0.3050   0.4752   0.4901   0.5610   0.6595   0.6725   0.8031   0.8562
     1.0086   1.0938   1.1247   1.3409   1.4322   1.5865   1.7575   1.8808
     1.9349   2.0269   2.0825   2.1674   2.2091   2.3295

          k = 0.0223-0.0902 0.0000 ( 31991 PWs)   bands (ev):

   -31.9140 -31.8265 -31.7929 -31.7680 -31.7341 -31.6261 -31.5916 -31.5565
   -31.3863 -31.3440 -31.3175 -31.2862 -15.7930 -15.7488 -15.7272 -15.7081
   -15.6710 -15.6163 -15.6065 -15.5699 -15.5524 -15.5359 -15.5157 -15.4732
   -15.4127 -15.4024 -15.3657 -15.3347 -15.3155 -15.2228 -15.1981 -15.1222
   -15.0985 -15.0789 -15.0345 -15.0235 -15.0075 -14.9909 -14.9617 -14.8703
   -14.8146 -14.7964 -14.7759 -14.7431 -14.7277 -14.7200 -14.6469 -14.5810
    -9.7322  -0.2801   0.0924   0.2860   0.3741   0.4330   0.5098   0.5738
     0.6409   0.6817   0.7590   0.8246   0.9052   1.0224   1.0694   1.1295
     1.2173   1.2728   1.3756   1.4042   1.4905   1.5182   1.6109   1.6671
     1.7113   1.7932   1.8318   1.9429   1.9955   2.0497

          k = 0.0223-0.0644 0.0000 ( 31991 PWs)   bands (ev):

   -31.9140 -31.8265 -31.7929 -31.7680 -31.7341 -31.6260 -31.5917 -31.5565
   -31.3863 -31.3440 -31.3175 -31.2862 -15.7930 -15.7488 -15.7272 -15.7081
   -15.6710 -15.6163 -15.6065 -15.5699 -15.5525 -15.5359 -15.5157 -15.4732
   -15.4127 -15.4024 -15.3656 -15.3347 -15.3155 -15.2228 -15.1981 -15.1222
   -15.0985 -15.0789 -15.0345 -15.0235 -15.0075 -14.9909 -14.9617 -14.8703
   -14.8146 -14.7964 -14.7759 -14.7431 -14.7277 -14.7200 -14.6469 -14.5810
    -9.7322  -0.2801   0.0924   0.2860   0.3741   0.4330   0.5098   0.5738
     0.6409   0.6817   0.7590   0.8246   0.9052   1.0224   1.0694   1.1295
     1.2173   1.2728   1.3756   1.4042   1.4905   1.5182   1.6109   1.6671
     1.7113   1.7932   1.8318   1.9429   1.9955   2.0497

          k = 0.0223-0.0387 0.0000 ( 32007 PWs)   bands (ev):

   -31.9173 -31.8545 -31.7675 -31.7606 -31.7384 -31.6379 -31.5752 -31.5572
   -31.4061 -31.3325 -31.3062 -31.2887 -15.8875 -15.8314 -15.8276 -15.8004
   -15.7724 -15.7484 -15.6805 -15.6571 -15.6302 -15.6102 -15.5289 -15.3899
   -15.3667 -15.3435 -15.2979 -15.2466 -15.1690 -15.1453 -15.1385 -15.1223
   -15.1054 -15.0828 -15.0495 -15.0220 -14.9654 -14.9390 -14.8528 -14.8055
   -14.7965 -14.7616 -14.7497 -14.7174 -14.7019 -14.6984 -14.6627 -14.5213
    -9.7402  -0.7896  -0.0996   0.0801   0.0985   0.2059   0.2129   0.2843
     0.3050   0.4752   0.4901   0.5610   0.6595   0.6725   0.8031   0.8562
     1.0086   1.0938   1.1247   1.3409   1.4322   1.5865   1.7575   1.8808
     1.9349   2.0268   2.0825   2.1675   2.2091   2.3295

          k = 0.0446-0.0258 0.0000 ( 32002 PWs)   bands (ev):

   -31.9162 -31.8470 -31.7810 -31.7494 -31.7438 -31.6351 -31.5788 -31.5577
   -31.4003 -31.3382 -31.3044 -31.2909 -15.8555 -15.8360 -15.7899 -15.7620
   -15.7487 -15.7078 -15.6553 -15.6236 -15.6154 -15.5862 -15.5282 -15.3971
   -15.3703 -15.3578 -15.2811 -15.2655 -15.2524 -15.1795 -15.1761 -15.1388
   -15.0776 -15.0767 -15.0514 -15.0249 -14.9921 -14.9488 -14.8497 -14.8371
   -14.7872 -14.7835 -14.7499 -14.7489 -14.7311 -14.7176 -14.6396 -14.5285
    -9.7376  -0.6528  -0.0357   0.0993   0.1449   0.2416   0.3098   0.3661
     0.4897   0.5193   0.5648   0.6833   0.6921   0.8308   0.9268   0.9426
     1.0754   1.1430   1.1857   1.3178   1.4891   1.5235   1.6823   1.8085
     1.8832   2.0001   2.0580   2.1154   2.1551   2.2505

          k = 0.0446 0.0000 0.0000 ( 32007 PWs)   bands (ev):

   -31.9173 -31.8545 -31.7675 -31.7605 -31.7384 -31.6379 -31.5752 -31.5572
   -31.4061 -31.3325 -31.3062 -31.2887 -15.8875 -15.8314 -15.8277 -15.8004
   -15.7724 -15.7484 -15.6805 -15.6571 -15.6302 -15.6102 -15.5289 -15.3899
   -15.3667 -15.3435 -15.2979 -15.2466 -15.1689 -15.1453 -15.1385 -15.1223
   -15.1054 -15.0828 -15.0495 -15.0221 -14.9654 -14.9390 -14.8528 -14.8055
   -14.7965 -14.7616 -14.7497 -14.7174 -14.7019 -14.6984 -14.6626 -14.5213
    -9.7402  -0.7896  -0.0996   0.0801   0.0985   0.2059   0.2129   0.2843
     0.3050   0.4752   0.4901   0.5610   0.6595   0.6725   0.8031   0.8562
     1.0086   1.0938   1.1247   1.3409   1.4322   1.5865   1.7575   1.8808
     1.9349   2.0268   2.0825   2.1674   2.2092   2.3300

          k = 0.0446 0.0258 0.0000 ( 32002 PWs)   bands (ev):

   -31.9162 -31.8470 -31.7810 -31.7494 -31.7438 -31.6352 -31.5787 -31.5578
   -31.4003 -31.3382 -31.3044 -31.2909 -15.8555 -15.8360 -15.7899 -15.7620
   -15.7487 -15.7078 -15.6553 -15.6236 -15.6154 -15.5862 -15.5282 -15.3971
   -15.3703 -15.3578 -15.2811 -15.2655 -15.2524 -15.1796 -15.1761 -15.1388
   -15.0776 -15.0767 -15.0515 -15.0249 -14.9921 -14.9488 -14.8497 -14.8371
   -14.7872 -14.7835 -14.7499 -14.7489 -14.7311 -14.7176 -14.6396 -14.5286
    -9.7376  -0.6528  -0.0357   0.0993   0.1449   0.2416   0.3098   0.3661
     0.4897   0.5193   0.5648   0.6833   0.6921   0.8308   0.9268   0.9426
     1.0754   1.1430   1.1857   1.3178   1.4891   1.5235   1.6823   1.8085
     1.8832   2.0001   2.0580   2.1154   2.1551   2.2684

          k = 0.0446-0.1031 0.0000 ( 31991 PWs)   bands (ev):

   -31.9140 -31.8265 -31.7930 -31.7680 -31.7341 -31.6260 -31.5916 -31.5565
   -31.3863 -31.3440 -31.3175 -31.2862 -15.7930 -15.7489 -15.7272 -15.7081
   -15.6710 -15.6163 -15.6065 -15.5700 -15.5524 -15.5359 -15.5157 -15.4732
   -15.4127 -15.4024 -15.3657 -15.3347 -15.3155 -15.2228 -15.1981 -15.1222
   -15.0985 -15.0789 -15.0345 -15.0235 -15.0075 -14.9909 -14.9617 -14.8703
   -14.8146 -14.7964 -14.7759 -14.7431 -14.7277 -14.7200 -14.6469 -14.5810
    -9.7322  -0.2801   0.0924   0.2860   0.3741   0.4330   0.5098   0.5738
     0.6409   0.6817   0.7590   0.8246   0.9052   1.0224   1.0694   1.1295
     1.2173   1.2728   1.3756   1.4042   1.4905   1.5182   1.6109   1.6671
     1.7113   1.7932   1.8318   1.9429   1.9955   2.0497

          k = 0.0446-0.0773 0.0000 ( 31986 PWs)   bands (ev):

   -31.9129 -31.8041 -31.7941 -31.7939 -31.7297 -31.6126 -31.6076 -31.5553
   -31.3777 -31.3373 -31.3361 -31.2831 -15.7041 -15.6961 -15.6693 -15.6448
   -15.6422 -15.6068 -15.5967 -15.5805 -15.5110 -15.5052 -15.5002 -15.4920
   -15.4447 -15.4243 -15.3931 -15.3855 -15.3633 -15.3506 -15.1210 -15.1041
   -15.1023 -15.0706 -15.0545 -15.0397 -15.0313 -15.0200 -14.9580 -14.9466
   -14.8343 -14.7964 -14.7481 -14.7381 -14.7320 -14.6728 -14.6701 -14.6592
    -9.7296   0.0513   0.2662   0.2905   0.4968   0.5446   0.5661   0.7592
     0.8160   0.8546   0.8613   0.9036   1.1612   1.1764   1.1769   1.1903
     1.2631   1.2759   1.2978   1.3498   1.4093   1.4344   1.4854   1.5385
     1.6669   1.7565   1.8123   1.8354   1.8770   1.8818

          k = 0.0446-0.0515 0.0000 ( 31991 PWs)   bands (ev):

   -31.9140 -31.8265 -31.7930 -31.7680 -31.7341 -31.6260 -31.5917 -31.5565
   -31.3863 -31.3440 -31.3175 -31.2862 -15.7930 -15.7489 -15.7272 -15.7081
   -15.6710 -15.6163 -15.6065 -15.5699 -15.5524 -15.5359 -15.5157 -15.4732
   -15.4127 -15.4024 -15.3657 -15.3347 -15.3155 -15.2228 -15.1981 -15.1222
   -15.0985 -15.0789 -15.0345 -15.0235 -15.0075 -14.9910 -14.9617 -14.8702
   -14.8146 -14.7964 -14.7759 -14.7431 -14.7277 -14.7200 -14.6469 -14.5810
    -9.7322  -0.2801   0.0924   0.2860   0.3741   0.4330   0.5098   0.5738
     0.6409   0.6817   0.7590   0.8246   0.9052   1.0224   1.0694   1.1295
     1.2173   1.2728   1.3756   1.4042   1.4905   1.5182   1.6109   1.6671
     1.7113   1.7932   1.8318   1.9429   1.9955   2.0497

          k =-0.0669 0.0387 0.0000 ( 31970 PWs)   bands (ev):

   -31.9139 -31.8176 -31.8106 -31.7496 -31.7438 -31.6274 -31.5891 -31.5577
   -31.3840 -31.3518 -31.3074 -31.2909 -15.7987 -15.7713 -15.7406 -15.7194
   -15.6607 -15.6182 -15.5907 -15.5703 -15.5542 -15.4944 -15.4647 -15.4489
   -15.4148 -15.4057 -15.3779 -15.3249 -15.2997 -15.2916 -15.2213 -15.2089
   -15.0963 -15.0310 -15.0170 -15.0094 -14.9792 -14.9498 -14.9342 -14.9137
   -14.8910 -14.8098 -14.7758 -14.7486 -14.7334 -14.7276 -14.5919 -14.5779
    -9.7323  -0.2012  -0.0988   0.1907   0.3279   0.4892   0.5043   0.6129
     0.6869   0.6924   0.7510   0.7606   0.7609   1.1158   1.1763   1.1945
     1.3069   1.3366   1.3580   1.3982   1.5929   1.6151   1.6975   1.7048
     1.7366   1.7834   1.8550   1.9016   2.0564   2.0663

          k =-0.0669 0.0644 0.0000 ( 31991 PWs)   bands (ev):

   -31.9140 -31.8265 -31.7930 -31.7680 -31.7341 -31.6260 -31.5917 -31.5565
   -31.3863 -31.3440 -31.3175 -31.2862 -15.7930 -15.7489 -15.7272 -15.7081
   -15.6710 -15.6163 -15.6065 -15.5700 -15.5524 -15.5359 -15.5157 -15.4732
   -15.4127 -15.4024 -15.3656 -15.3347 -15.3155 -15.2228 -15.1981 -15.1222
   -15.0985 -15.0789 -15.0345 -15.0235 -15.0075 -14.9910 -14.9616 -14.8702
   -14.8146 -14.7964 -14.7759 -14.7431 -14.7277 -14.7200 -14.6469 -14.5810
    -9.7322  -0.2801   0.0924   0.2860   0.3741   0.4330   0.5098   0.5738
     0.6409   0.6817   0.7590   0.8246   0.9052   1.0224   1.0694   1.1295
     1.2173   1.2728   1.3756   1.4042   1.4905   1.5182   1.6109   1.6671
     1.7113   1.7932   1.8318   1.9429   1.9955   2.0497

          k =-0.0669 0.0902 0.0000 ( 31991 PWs)   bands (ev):

   -31.9140 -31.8265 -31.7930 -31.7680 -31.7341 -31.6260 -31.5917 -31.5565
   -31.3863 -31.3440 -31.3175 -31.2862 -15.7930 -15.7489 -15.7272 -15.7081
   -15.6710 -15.6163 -15.6065 -15.5700 -15.5524 -15.5359 -15.5157 -15.4732
   -15.4127 -15.4024 -15.3656 -15.3347 -15.3155 -15.2229 -15.1981 -15.1222
   -15.0985 -15.0789 -15.0345 -15.0235 -15.0075 -14.9909 -14.9616 -14.8703
   -14.8146 -14.7964 -14.7759 -14.7431 -14.7277 -14.7200 -14.6469 -14.5810
    -9.7322  -0.2801   0.0924   0.2860   0.3741   0.4330   0.5098   0.5738
     0.6409   0.6817   0.7590   0.8246   0.9052   1.0224   1.0694   1.1295
     1.2173   1.2728   1.3756   1.4042   1.4905   1.5182   1.6109   1.6671
     1.7113   1.7932   1.8318   1.9429   1.9955   2.0497

          k =-0.0669-0.0387 0.0000 ( 31970 PWs)   bands (ev):

   -31.9139 -31.8176 -31.8106 -31.7497 -31.7438 -31.6274 -31.5890 -31.5578
   -31.3840 -31.3518 -31.3074 -31.2909 -15.7987 -15.7713 -15.7406 -15.7194
   -15.6607 -15.6182 -15.5907 -15.5703 -15.5542 -15.4944 -15.4647 -15.4489
   -15.4148 -15.4057 -15.3779 -15.3249 -15.2997 -15.2916 -15.2214 -15.2088
   -15.0963 -15.0310 -15.0170 -15.0094 -14.9791 -14.9498 -14.9342 -14.9137
   -14.8910 -14.8098 -14.7758 -14.7487 -14.7334 -14.7276 -14.5920 -14.5779
    -9.7323  -0.2012  -0.0988   0.1907   0.3279   0.4892   0.5043   0.6129
     0.6869   0.6924   0.7510   0.7606   0.7609   1.1158   1.1763   1.1945
     1.3069   1.3366   1.3580   1.3982   1.5929   1.6151   1.6975   1.7048
     1.7366   1.7835   1.8550   1.9016   2.0564   2.0663

     the Fermi energy is     1.4715 ev

!    total energy              =   -1268.43136682 Ry
     Harris-Foulkes estimate   =   -1268.43134189 Ry
     estimated scf accuracy    <       0.00000297 Ry

     The total energy is the sum of the following terms:

     one-electron contribution =   -4779.92640082 Ry
     hartree contribution      =    2402.27560427 Ry
     xc contribution           =    -613.84700511 Ry
     ewald contribution        =    1723.18845065 Ry
     electric field correction =       0.00066380 Ry
     smearing contrib. (-TS)   =      -0.12267961 Ry

     convergence has been achieved in  23 iterations
 
 BEEF-vdW xc energy contributions
           1 :   -543.783340839737     
           2 :    500.128410116121     
           3 :   -422.935928329667     
           4 :    328.684348948440     
           5 :   -234.868568124510     
           6 :    155.336412003442     
           7 :   -97.6785129533724     
           8 :    62.9167601792925     
           9 :   -46.9829501860830     
          10 :    43.1101162985948     
          11 :   -44.2405253287574     
          12 :    44.7659468182893     
          13 :   -41.3391546280577     
          14 :    32.9059795466768     
          15 :   -20.3084675886998     
          16 :    5.71691806867091     
          17 :    8.03293611525135     
          18 :   -18.2059654198866     
          19 :    22.9528774714520     
          20 :   -21.9055298630877     
          21 :    16.3377318618186     
          22 :   -8.76596610774061     
          23 :    2.07656071858344     
          24 :    1.50654315607255     
          25 :   -1.19010210000204     
          26 :   -2.22160265188279     
          27 :    6.82327826833159     
          28 :   -10.5192953070662     
          29 :    11.9140899153848     
          30 :   -10.7931242621590     
          31 :   -46.3139160301531     
          32 :   -33.2184789735634     

     Forces acting on atoms (Ry/au):


     negative rho (up, down):  5.833E-01 0.000E+00
     atom    1 type  1   force =     0.00000672   -0.00000019    0.00351975
     atom    2 type  1   force =    -0.00000325   -0.00253416    0.00404899
     atom    3 type  1   force =    -0.00219672    0.00125923    0.00403828
     atom    4 type  1   force =     0.00219558    0.00127097    0.00404459
     atom    5 type  1   force =    -0.00353868    0.00205067   -0.00417109
     atom    6 type  1   force =     0.00353650    0.00203691   -0.00416356
     atom    7 type  1   force =    -0.00000777    0.00000307   -0.00856157
     atom    8 type  1   force =     0.00001367   -0.00408712   -0.00416213
     atom    9 type  1   force =     0.05181647    0.02991649    0.04963317
     atom   10 type  1   force =    -0.05181879    0.02991891    0.04963705
     atom   11 type  1   force =     0.00000550   -0.05983446    0.04964474
     atom   12 type  1   force =    -0.00000716    0.00000146    0.00219422
     atom   13 type  2   force =    -0.00000206   -0.00000178   -0.14570243

     Total force =     0.198410     Total SCF correction =     0.002857


     entering subroutine stress ...


     negative rho (up, down):  5.833E-01 0.000E+00
          total   stress  (Ry/bohr**3)                   (kbar)     P=   -6.33
  -0.00003155   0.00000000  -0.00000000         -4.64      0.00     -0.00
   0.00000000  -0.00003156  -0.00000000          0.00     -4.64     -0.00
  -0.00000000  -0.00000000  -0.00006601         -0.00     -0.00     -9.71


     BFGS Geometry Optimization

     number of scf cycles    =   1
     number of bfgs steps    =   0

     energy   new            =   -1268.4313668195 Ry

     new trust radius        =       0.1457024324 bohr
     new conv_thr            =       0.0000099958 Ry


ATOMIC_POSITIONS (crystal)
La1      0.166666667   0.166666667   0.383173129    0   0   0
La1      0.666666667   0.166666667   0.383173129    0   0   0
La1      0.166666667   0.666666667   0.383173129    0   0   0
La1      0.666666667   0.666666667   0.383173129    0   0   0
La1      0.833333333   0.333333333   0.500000000    0   0   0
La1      0.333333333   0.333333333   0.500000000    0   0   0
La1      0.833333333   0.833333333   0.500000000    0   0   0
La1      0.333333333   0.833333333   0.500000000    0   0   0
La1      0.002447669   0.002447698   0.617833265
La1      0.495104370   0.002447896   0.617833344
La1      0.002448148   0.495104483   0.617833500
La1      0.499999433   0.500000119   0.616871362
N1       0.166666593   0.166666521   0.683111898



     Writing output data file calc.save
     Check: negative starting charge=   -0.831238
     NEW-OLD atomic charge density approx. for the potential
     Check: negative starting charge=   -0.832803

     negative rho (up, down):  5.837E-01 0.000E+00
 
     Adding external electric field

     Computed dipole along edir(3) : 
        Dipole               -0.6655 Ry au,         -1.6916 Debye
        Dipole field         -0.0010 Ry au
 
        Potential amp.        0.0945 Ry
        Total length         48.0849 bohr
 

     total cpu time spent up to now is     2007.9 secs

     per-process dynamical memory:   163.8 Mb

     Self-consistent Calculation

     iteration #  1     ecut=    36.75 Ry     beta=0.30
     Davidson diagonalization with overlap
     c_bands:  1 eigenvalues not converged
     ethr =  1.00E-06,  avg # of iterations = 15.6

     negative rho (up, down):  5.841E-01 0.000E+00
 
     Adding external electric field

     Computed dipole along edir(3) : 
        Dipole               -0.4994 Ry au,         -1.2692 Debye
        Dipole field         -0.0007 Ry au
 
        Potential amp.        0.0709 Ry
        Total length         48.0849 bohr
 

     total cpu time spent up to now is     2111.3 secs

     total energy              =   -1268.45522546 Ry
     Harris-Foulkes estimate   =   -1268.47533804 Ry
     estimated scf accuracy    <       0.04276004 Ry

     iteration #  2     ecut=    36.75 Ry     beta=0.30
     Davidson diagonalization with overlap
     ethr =  3.12E-05,  avg # of iterations = 11.7

     negative rho (up, down):  5.832E-01 0.000E+00
 
     Adding external electric field

     Computed dipole along edir(3) : 
        Dipole               -0.9425 Ry au,         -2.3957 Debye
        Dipole field         -0.0014 Ry au
 
        Potential amp.        0.1339 Ry
        Total length         48.0849 bohr
 

     total cpu time spent up to now is     2195.8 secs

     total energy              =   -1268.41166217 Ry
     Harris-Foulkes estimate   =   -1268.51026261 Ry
     estimated scf accuracy    <       1.59638809 Ry

     iteration #  3     ecut=    36.75 Ry     beta=0.30
     Davidson diagonalization with overlap
     ethr =  3.12E-05,  avg # of iterations = 11.8

     negative rho (up, down):  5.824E-01 0.000E+00
 
     Adding external electric field

     Computed dipole along edir(3) : 
        Dipole               -0.5780 Ry au,         -1.4690 Debye
        Dipole field         -0.0009 Ry au
 
        Potential amp.        0.0821 Ry
        Total length         48.0849 bohr
 

     total cpu time spent up to now is     2281.0 secs

     total energy              =   -1268.41393721 Ry
     Harris-Foulkes estimate   =   -1268.51678639 Ry
     estimated scf accuracy    <       4.18128366 Ry

     iteration #  4     ecut=    36.75 Ry     beta=0.30
     Davidson diagonalization with overlap
     ethr =  3.12E-05,  avg # of iterations = 10.7

     negative rho (up, down):  5.824E-01 0.000E+00
 
     Adding external electric field

     Computed dipole along edir(3) : 
        Dipole               -0.5841 Ry au,         -1.4846 Debye
        Dipole field         -0.0009 Ry au
 
        Potential amp.        0.0830 Ry
        Total length         48.0849 bohr
 

     total cpu time spent up to now is     2366.3 secs

     total energy              =   -1268.46868027 Ry
     Harris-Foulkes estimate   =   -1268.47195867 Ry
     estimated scf accuracy    <       0.03674942 Ry

     iteration #  5     ecut=    36.75 Ry     beta=0.30
     Davidson diagonalization with overlap
     ethr =  2.68E-05,  avg # of iterations =  4.3

     negative rho (up, down):  5.827E-01 0.000E+00
 
     Adding external electric field

     Computed dipole along edir(3) : 
        Dipole               -0.5944 Ry au,         -1.5108 Debye
        Dipole field         -0.0009 Ry au
 
        Potential amp.        0.0844 Ry
        Total length         48.0849 bohr
 

     total cpu time spent up to now is     2445.5 secs

     total energy              =   -1268.47003287 Ry
     Harris-Foulkes estimate   =   -1268.47048654 Ry
     estimated scf accuracy    <       0.00363987 Ry

     iteration #  6     ecut=    36.75 Ry     beta=0.30
     Davidson diagonalization with overlap
     ethr =  2.66E-06,  avg # of iterations =  9.4

     negative rho (up, down):  5.830E-01 0.000E+00
 
     Adding external electric field

     Computed dipole along edir(3) : 
        Dipole               -0.5894 Ry au,         -1.4981 Debye
        Dipole field         -0.0009 Ry au
 
        Potential amp.        0.0837 Ry
        Total length         48.0849 bohr
 

     total cpu time spent up to now is     2544.1 secs

     total energy              =   -1268.47056421 Ry
     Harris-Foulkes estimate   =   -1268.47075247 Ry
     estimated scf accuracy    <       0.00144960 Ry

     iteration #  7     ecut=    36.75 Ry     beta=0.30
     Davidson diagonalization with overlap
     ethr =  1.06E-06,  avg # of iterations =  5.4

     negative rho (up, down):  5.834E-01 0.000E+00
 
     Adding external electric field

     Computed dipole along edir(3) : 
        Dipole               -0.5856 Ry au,         -1.4885 Debye
        Dipole field         -0.0009 Ry au
 
        Potential amp.        0.0832 Ry
        Total length         48.0849 bohr
 

     total cpu time spent up to now is     2631.2 secs

     total energy              =   -1268.47058831 Ry
     Harris-Foulkes estimate   =   -1268.47065147 Ry
     estimated scf accuracy    <       0.00035930 Ry

     iteration #  8     ecut=    36.75 Ry     beta=0.30
     Davidson diagonalization with overlap
     ethr =  2.62E-07,  avg # of iterations =  7.4

     negative rho (up, down):  5.835E-01 0.000E+00
 
     Adding external electric field

     Computed dipole along edir(3) : 
        Dipole               -0.5886 Ry au,         -1.4960 Debye
        Dipole field         -0.0009 Ry au
 
        Potential amp.        0.0836 Ry
        Total length         48.0849 bohr
 

     total cpu time spent up to now is     2714.0 secs

     total energy              =   -1268.47065536 Ry
     Harris-Foulkes estimate   =   -1268.47067002 Ry
     estimated scf accuracy    <       0.00016532 Ry

     iteration #  9     ecut=    36.75 Ry     beta=0.30
     Davidson diagonalization with overlap
     ethr =  1.21E-07,  avg # of iterations =  4.6

     negative rho (up, down):  5.836E-01 0.000E+00
 
     Adding external electric field

     Computed dipole along edir(3) : 
        Dipole               -0.5873 Ry au,         -1.4929 Debye
        Dipole field         -0.0009 Ry au
 
        Potential amp.        0.0834 Ry
        Total length         48.0849 bohr
 

     total cpu time spent up to now is     2789.4 secs

     total energy              =   -1268.47065635 Ry
     Harris-Foulkes estimate   =   -1268.47066588 Ry
     estimated scf accuracy    <       0.00005716 Ry

     iteration # 10     ecut=    36.75 Ry     beta=0.30
     Davidson diagonalization with overlap
     c_bands:  1 eigenvalues not converged
     ethr =  4.17E-08,  avg # of iterations =  9.9

     negative rho (up, down):  5.837E-01 0.000E+00
 
     Adding external electric field

     Computed dipole along edir(3) : 
        Dipole               -0.5869 Ry au,         -1.4918 Debye
        Dipole field         -0.0009 Ry au
 
        Potential amp.        0.0834 Ry
        Total length         48.0849 bohr
 

     total cpu time spent up to now is     2875.9 secs

     total energy              =   -1268.47066662 Ry
     Harris-Foulkes estimate   =   -1268.47067255 Ry
     estimated scf accuracy    <       0.00004543 Ry

     iteration # 11     ecut=    36.75 Ry     beta=0.30
     Davidson diagonalization with overlap
     ethr =  3.32E-08,  avg # of iterations =  5.1

     negative rho (up, down):  5.838E-01 0.000E+00

     negative rho (up, down):  5.838E-01 0.000E+00

     negative rho (up, down):  5.838E-01 0.000E+00

     negative rho (up, down):  5.838E-01 0.000E+00

     negative rho (up, down):  5.838E-01 0.000E+00

     negative rho (up, down):  5.838E-01 0.000E+00

     negative rho (up, down):  5.838E-01 0.000E+00

     negative rho (up, down):  5.838E-01 0.000E+00

     negative rho (up, down):  5.838E-01 0.000E+00

     negative rho (up, down):  5.838E-01 0.000E+00

     negative rho (up, down):  5.838E-01 0.000E+00

     negative rho (up, down):  5.838E-01 0.000E+00

     negative rho (up, down):  5.838E-01 0.000E+00

     negative rho (up, down):  5.838E-01 0.000E+00

     negative rho (up, down):  5.838E-01 0.000E+00

     negative rho (up, down):  5.838E-01 0.000E+00

     negative rho (up, down):  5.838E-01 0.000E+00

     negative rho (up, down):  5.838E-01 0.000E+00

     negative rho (up, down):  5.838E-01 0.000E+00

     negative rho (up, down):  5.838E-01 0.000E+00

     negative rho (up, down):  5.838E-01 0.000E+00

     negative rho (up, down):  5.838E-01 0.000E+00

     negative rho (up, down):  5.838E-01 0.000E+00

     negative rho (up, down):  5.838E-01 0.000E+00

     negative rho (up, down):  5.838E-01 0.000E+00

     negative rho (up, down):  5.838E-01 0.000E+00

     negative rho (up, down):  5.838E-01 0.000E+00

     negative rho (up, down):  5.838E-01 0.000E+00

     negative rho (up, down):  5.838E-01 0.000E+00

     negative rho (up, down):  5.838E-01 0.000E+00

     negative rho (up, down):  5.838E-01 0.000E+00

     negative rho (up, down):  5.838E-01 0.000E+00

     negative rho (up, down):  5.838E-01 0.000E+00

     negative rho (up, down):  5.838E-01 0.000E+00

     negative rho (up, down):  5.838E-01 0.000E+00
 
     Adding external electric field

     Computed dipole along edir(3) : 
        Dipole               -0.5856 Ry au,         -1.4885 Debye
        Dipole field         -0.0009 Ry au
 
        Potential amp.        0.0832 Ry
        Total length         48.0849 bohr
 

     total cpu time spent up to now is     3051.4 secs

     End of self-consistent calculation

          k = 0.0000 0.0000 0.0000 ( 31997 PWs)   bands (ev):

   -31.8737 -31.8301 -31.7046 -31.6940 -31.6940 -31.5792 -31.4859 -31.4859
   -31.3906 -31.2890 -31.2458 -31.2458 -15.9247 -15.9247 -15.9085 -15.8464
   -15.8464 -15.7789 -15.7548 -15.6846 -15.6620 -15.6620 -15.4893 -15.3073
   -15.2494 -15.2494 -15.1639 -15.0956 -15.0956 -15.0858 -15.0737 -15.0737
   -14.9773 -14.9773 -14.9320 -14.8349 -14.8349 -14.8131 -14.7451 -14.7451
   -14.7153 -14.6865 -14.6865 -14.6425 -14.6339 -14.6339 -14.4302 -14.4302
    -9.7495  -1.2439  -0.5118  -0.2012  -0.2012  -0.1883  -0.1232   0.0285
     0.1413   0.1413   0.2385   0.2385   0.2788   0.4651   0.4651   0.4820
     0.8611   0.8611   1.0769   1.4544   1.4544   1.7205   2.0193   2.0827
     2.1913   2.1913   2.3877   2.4966   2.6855   2.7281

          k = 0.0000 0.0258 0.0000 ( 32061 PWs)   bands (ev):

   -31.8716 -31.8215 -31.7095 -31.6982 -31.6941 -31.5754 -31.4921 -31.4860
   -31.3838 -31.2910 -31.2510 -31.2458 -15.8897 -15.8794 -15.8560 -15.8144
   -15.7929 -15.7583 -15.7089 -15.6577 -15.6331 -15.6217 -15.4855 -15.3193
   -15.2709 -15.2586 -15.1476 -15.1345 -15.1316 -15.0979 -15.0842 -15.0673
   -15.0153 -14.9840 -14.9465 -14.9194 -14.8525 -14.8200 -14.7640 -14.7418
   -14.7224 -14.7020 -14.6985 -14.6683 -14.6662 -14.6306 -14.5028 -14.4455
    -9.7424  -1.0674  -0.3467  -0.1179  -0.0679  -0.0280   0.0311   0.1111
     0.2193   0.2794   0.3206   0.3882   0.4302   0.5531   0.6013   0.6090
     0.9052   0.9354   1.1132   1.4222   1.4664   1.7053   1.9680   2.0826
     2.2025   2.2048   2.2594   2.3102   2.4619   2.5246

          k = 0.0000 0.0515 0.0000 ( 32002 PWs)   bands (ev):

   -31.8676 -31.7979 -31.7319 -31.7003 -31.6941 -31.5652 -31.5071 -31.4860
   -31.3669 -31.2985 -31.2610 -31.2458 -15.8045 -15.7856 -15.7379 -15.7112
   -15.6975 -15.6562 -15.6060 -15.5751 -15.5662 -15.5361 -15.4799 -15.3424
   -15.3128 -15.3018 -15.2311 -15.2130 -15.1967 -15.1290 -15.1194 -15.0893
   -15.0276 -15.0273 -14.9989 -14.9702 -14.9308 -14.8995 -14.8141 -14.7907
   -14.7457 -14.7289 -14.7040 -14.6957 -14.6884 -14.6769 -14.5979 -14.4866
    -9.7283  -0.6132  -0.0566   0.1390   0.1928   0.2288   0.3399   0.3782
     0.5131   0.5406   0.5780   0.7145   0.7228   0.8644   0.9714   0.9930
     1.1069   1.1920   1.2224   1.3664   1.5397   1.5719   1.7464   1.8552
     1.9346   2.0538   2.1063   2.1759   2.2045   2.2968

          k = 0.0000-0.0773 0.0000 ( 31970 PWs)   bands (ev):

   -31.8656 -31.7688 -31.7610 -31.7006 -31.6942 -31.5572 -31.5175 -31.4861
   -31.3547 -31.3068 -31.2652 -31.2458 -15.7480 -15.7208 -15.6894 -15.6706
   -15.6092 -15.5683 -15.5385 -15.5219 -15.5055 -15.4452 -15.4108 -15.3994
   -15.3600 -15.3545 -15.3194 -15.2722 -15.2442 -15.2424 -15.1593 -15.1393
   -15.0464 -14.9840 -14.9678 -14.9591 -14.9220 -14.9186 -14.8884 -14.8722
   -14.8445 -14.7442 -14.7387 -14.6992 -14.6898 -14.6866 -14.5537 -14.5331
    -9.7213  -0.2053  -0.0529   0.1881   0.3760   0.4223   0.5214   0.5748
     0.7195   0.7324   0.7998   0.8009   0.8078   1.1749   1.2118   1.2342
     1.3545   1.3975   1.4018   1.4475   1.6467   1.6655   1.7423   1.7511
     1.7910   1.8322   1.9130   1.9661   2.1043   2.1140

          k = 0.0223-0.0129 0.0000 ( 32061 PWs)   bands (ev):

   -31.8716 -31.8215 -31.7095 -31.6982 -31.6941 -31.5754 -31.4921 -31.4860
   -31.3838 -31.2910 -31.2510 -31.2458 -15.8897 -15.8793 -15.8560 -15.8144
   -15.7929 -15.7583 -15.7089 -15.6577 -15.6331 -15.6217 -15.4855 -15.3193
   -15.2709 -15.2586 -15.1476 -15.1345 -15.1316 -15.0979 -15.0842 -15.0673
   -15.0153 -14.9840 -14.9465 -14.9194 -14.8525 -14.8200 -14.7640 -14.7418
   -14.7224 -14.7020 -14.6985 -14.6683 -14.6663 -14.6306 -14.5028 -14.4455
    -9.7424  -1.0674  -0.3467  -0.1179  -0.0679  -0.0280   0.0311   0.1111
     0.2193   0.2794   0.3206   0.3882   0.4302   0.5531   0.6013   0.6090
     0.9052   0.9354   1.1132   1.4222   1.4664   1.7053   1.9680   2.0826
     2.2025   2.2048   2.2594   2.3102   2.4619   2.5246

          k = 0.0223 0.0129 0.0000 ( 32061 PWs)   bands (ev):

   -31.8716 -31.8215 -31.7095 -31.6982 -31.6941 -31.5754 -31.4921 -31.4860
   -31.3838 -31.2910 -31.2510 -31.2458 -15.8897 -15.8793 -15.8560 -15.8144
   -15.7929 -15.7583 -15.7089 -15.6577 -15.6331 -15.6217 -15.4855 -15.3193
   -15.2709 -15.2586 -15.1476 -15.1345 -15.1316 -15.0979 -15.0842 -15.0673
   -15.0153 -14.9840 -14.9465 -14.9194 -14.8525 -14.8200 -14.7640 -14.7418
   -14.7223 -14.7020 -14.6985 -14.6683 -14.6662 -14.6306 -14.5027 -14.4455
    -9.7424  -1.0674  -0.3467  -0.1179  -0.0679  -0.0280   0.0311   0.1111
     0.2193   0.2794   0.3206   0.3882   0.4302   0.5531   0.6013   0.6090
     0.9052   0.9354   1.1132   1.4222   1.4664   1.7053   1.9680   2.0826
     2.2025   2.2048   2.2594   2.3102   2.4619   2.5246

          k = 0.0223 0.0387 0.0000 ( 32007 PWs)   bands (ev):

   -31.8686 -31.8054 -31.7187 -31.7110 -31.6889 -31.5680 -31.5035 -31.4855
   -31.3718 -31.2948 -31.2612 -31.2442 -15.8368 -15.7798 -15.7761 -15.7491
   -15.7226 -15.6950 -15.6316 -15.6094 -15.5805 -15.5603 -15.4813 -15.3362
   -15.3073 -15.2903 -15.2455 -15.1889 -15.1205 -15.0955 -15.0899 -15.0701
   -15.0558 -15.0334 -14.9919 -14.9611 -14.9094 -14.8900 -14.8135 -14.7592
   -14.7461 -14.7147 -14.6969 -14.6749 -14.6587 -14.6572 -14.6195 -14.4797
    -9.7317  -0.7473  -0.0949   0.0832   0.1089   0.2268   0.2526   0.3307
     0.3516   0.4802   0.4942   0.5749   0.7049   0.7218   0.8419   0.9008
     1.0279   1.1241   1.1633   1.3913   1.4835   1.6336   1.8237   1.9294
     1.9876   2.0757   2.1311   2.2133   2.2682   2.3796

          k = 0.0223-0.0902 0.0000 ( 31991 PWs)   bands (ev):

   -31.8656 -31.7775 -31.7438 -31.7187 -31.6848 -31.5560 -31.5199 -31.4849
   -31.3559 -31.3011 -31.2734 -31.2421 -15.7427 -15.6974 -15.6773 -15.6580
   -15.6196 -15.5678 -15.5551 -15.5210 -15.5021 -15.4883 -15.4650 -15.4234
   -15.3582 -15.3368 -15.3091 -15.2802 -15.2630 -15.1647 -15.1466 -15.0674
   -15.0490 -15.0292 -14.9870 -14.9738 -14.9578 -14.9346 -14.9202 -14.8223
   -14.7613 -14.7545 -14.7285 -14.6976 -14.6844 -14.6786 -14.6062 -14.5389
    -9.7213  -0.2577   0.0719   0.3152   0.3550   0.4386   0.5329   0.5815
     0.6563   0.7052   0.7832   0.8675   0.9579   1.0688   1.1176   1.1794
     1.2674   1.3119   1.4244   1.4566   1.5439   1.5662   1.6611   1.7223
     1.7593   1.8472   1.8843   1.9940   2.0476   2.1063

          k = 0.0223-0.0644 0.0000 ( 31991 PWs)   bands (ev):

   -31.8656 -31.7775 -31.7438 -31.7187 -31.6848 -31.5560 -31.5199 -31.4849
   -31.3559 -31.3011 -31.2734 -31.2421 -15.7427 -15.6974 -15.6773 -15.6580
   -15.6196 -15.5678 -15.5551 -15.5210 -15.5021 -15.4883 -15.4650 -15.4234
   -15.3582 -15.3368 -15.3091 -15.2802 -15.2630 -15.1647 -15.1466 -15.0674
   -15.0490 -15.0292 -14.9870 -14.9738 -14.9578 -14.9346 -14.9202 -14.8223
   -14.7613 -14.7545 -14.7285 -14.6976 -14.6844 -14.6786 -14.6062 -14.5389
    -9.7213  -0.2577   0.0719   0.3152   0.3550   0.4386   0.5329   0.5815
     0.6563   0.7052   0.7832   0.8675   0.9579   1.0688   1.1176   1.1793
     1.2674   1.3119   1.4244   1.4566   1.5439   1.5662   1.6611   1.7223
     1.7593   1.8472   1.8843   1.9940   2.0476   2.1063

          k = 0.0223-0.0387 0.0000 ( 32007 PWs)   bands (ev):

   -31.8686 -31.8054 -31.7187 -31.7109 -31.6890 -31.5680 -31.5035 -31.4855
   -31.3718 -31.2948 -31.2612 -31.2442 -15.8368 -15.7798 -15.7761 -15.7491
   -15.7226 -15.6950 -15.6316 -15.6094 -15.5805 -15.5602 -15.4813 -15.3362
   -15.3073 -15.2903 -15.2455 -15.1889 -15.1205 -15.0955 -15.0899 -15.0701
   -15.0558 -15.0334 -14.9919 -14.9611 -14.9094 -14.8900 -14.8135 -14.7592
   -14.7461 -14.7147 -14.6969 -14.6749 -14.6587 -14.6572 -14.6195 -14.4797
    -9.7317  -0.7473  -0.0949   0.0832   0.1089   0.2268   0.2526   0.3307
     0.3516   0.4802   0.4942   0.5749   0.7049   0.7218   0.8419   0.9008
     1.0279   1.1241   1.1633   1.3913   1.4835   1.6336   1.8237   1.9294
     1.9876   2.0757   2.1311   2.2133   2.2682   2.3796

          k = 0.0446-0.0258 0.0000 ( 32002 PWs)   bands (ev):

   -31.8676 -31.7979 -31.7319 -31.7003 -31.6941 -31.5652 -31.5071 -31.4860
   -31.3669 -31.2985 -31.2610 -31.2458 -15.8045 -15.7856 -15.7379 -15.7112
   -15.6975 -15.6562 -15.6060 -15.5751 -15.5662 -15.5361 -15.4799 -15.3424
   -15.3128 -15.3018 -15.2311 -15.2130 -15.1967 -15.1290 -15.1194 -15.0893
   -15.0276 -15.0273 -14.9989 -14.9702 -14.9308 -14.8995 -14.8141 -14.7907
   -14.7457 -14.7288 -14.7040 -14.6957 -14.6884 -14.6769 -14.5979 -14.4866
    -9.7283  -0.6132  -0.0566   0.1390   0.1928   0.2288   0.3399   0.3782
     0.5131   0.5406   0.5780   0.7145   0.7228   0.8644   0.9714   0.9930
     1.1069   1.1920   1.2224   1.3664   1.5397   1.5719   1.7464   1.8552
     1.9346   2.0538   2.1063   2.1759   2.2045   2.2968

          k = 0.0446 0.0000 0.0000 ( 32007 PWs)   bands (ev):

   -31.8686 -31.8054 -31.7187 -31.7110 -31.6889 -31.5680 -31.5035 -31.4855
   -31.3718 -31.2948 -31.2612 -31.2442 -15.8368 -15.7798 -15.7761 -15.7491
   -15.7226 -15.6950 -15.6316 -15.6094 -15.5805 -15.5603 -15.4813 -15.3362
   -15.3073 -15.2903 -15.2455 -15.1889 -15.1205 -15.0955 -15.0899 -15.0701
   -15.0558 -15.0334 -14.9919 -14.9611 -14.9094 -14.8900 -14.8135 -14.7592
   -14.7461 -14.7147 -14.6969 -14.6749 -14.6587 -14.6572 -14.6195 -14.4797
    -9.7317  -0.7473  -0.0949   0.0832   0.1089   0.2268   0.2526   0.3307
     0.3516   0.4802   0.4942   0.5749   0.7049   0.7218   0.8419   0.9008
     1.0279   1.1241   1.1633   1.3913   1.4835   1.6336   1.8237   1.9294
     1.9876   2.0757   2.1311   2.2133   2.2682   2.3796

          k = 0.0446 0.0258 0.0000 ( 32002 PWs)   bands (ev):

   -31.8676 -31.7979 -31.7319 -31.7003 -31.6941 -31.5652 -31.5071 -31.4860
   -31.3669 -31.2986 -31.2609 -31.2459 -15.8045 -15.7856 -15.7379 -15.7112
   -15.6975 -15.6562 -15.6060 -15.5751 -15.5662 -15.5361 -15.4799 -15.3424
   -15.3128 -15.3018 -15.2311 -15.2130 -15.1967 -15.1290 -15.1194 -15.0893
   -15.0276 -15.0273 -14.9989 -14.9702 -14.9308 -14.8995 -14.8141 -14.7907
   -14.7457 -14.7289 -14.7040 -14.6957 -14.6884 -14.6769 -14.5979 -14.4866
    -9.7283  -0.6132  -0.0566   0.1390   0.1928   0.2288   0.3399   0.3782
     0.5131   0.5407   0.5779   0.7145   0.7228   0.8644   0.9714   0.9930
     1.1069   1.1920   1.2224   1.3664   1.5397   1.5719   1.7464   1.8552
     1.9346   2.0538   2.1063   2.1759   2.2045   2.2968

          k = 0.0446-0.1031 0.0000 ( 31991 PWs)   bands (ev):

   -31.8656 -31.7775 -31.7438 -31.7187 -31.6848 -31.5560 -31.5199 -31.4849
   -31.3559 -31.3011 -31.2734 -31.2421 -15.7427 -15.6974 -15.6773 -15.6580
   -15.6196 -15.5678 -15.5551 -15.5210 -15.5021 -15.4883 -15.4650 -15.4234
   -15.3582 -15.3368 -15.3091 -15.2802 -15.2630 -15.1647 -15.1466 -15.0674
   -15.0490 -15.0292 -14.9870 -14.9738 -14.9578 -14.9346 -14.9202 -14.8223
   -14.7613 -14.7545 -14.7285 -14.6976 -14.6844 -14.6786 -14.6061 -14.5389
    -9.7213  -0.2577   0.0719   0.3152   0.3550   0.4386   0.5329   0.5815
     0.6563   0.7052   0.7832   0.8675   0.9579   1.0688   1.1176   1.1794
     1.2674   1.3119   1.4244   1.4566   1.5440   1.5662   1.6611   1.7223
     1.7593   1.8472   1.8843   1.9940   2.0476   2.1063

          k = 0.0446-0.0773 0.0000 ( 31986 PWs)   bands (ev):

   -31.8646 -31.7556 -31.7445 -31.7444 -31.6804 -31.5448 -31.5334 -31.4838
   -31.3499 -31.2923 -31.2911 -31.2394 -15.6553 -15.6479 -15.6163 -15.5944
   -15.5923 -15.5531 -15.5473 -15.5329 -15.4623 -15.4551 -15.4511 -15.4481
   -15.3999 -15.3369 -15.3342 -15.3332 -15.3031 -15.2991 -15.0730 -15.0578
   -15.0536 -15.0309 -14.9919 -14.9848 -14.9841 -14.9707 -14.9117 -14.8973
   -14.7692 -14.7593 -14.7031 -14.6935 -14.6915 -14.6325 -14.6321 -14.6142
    -9.7178  -0.0014   0.3050   0.3389   0.4383   0.5130   0.5565   0.7933
     0.8546   0.8929   0.9062   0.9433   1.2247   1.2260   1.2288   1.2419
     1.3046   1.3269   1.3533   1.4126   1.4567   1.4822   1.5261   1.5858
     1.7004   1.8296   1.8573   1.8890   1.9298   1.9305

          k = 0.0446-0.0515 0.0000 ( 31991 PWs)   bands (ev):

   -31.8656 -31.7775 -31.7438 -31.7187 -31.6848 -31.5560 -31.5199 -31.4849
   -31.3559 -31.3011 -31.2735 -31.2421 -15.7427 -15.6974 -15.6773 -15.6580
   -15.6196 -15.5678 -15.5551 -15.5210 -15.5021 -15.4883 -15.4650 -15.4234
   -15.3582 -15.3368 -15.3091 -15.2802 -15.2630 -15.1647 -15.1466 -15.0674
   -15.0490 -15.0292 -14.9870 -14.9738 -14.9578 -14.9346 -14.9202 -14.8223
   -14.7613 -14.7545 -14.7285 -14.6976 -14.6844 -14.6786 -14.6062 -14.5389
    -9.7213  -0.2577   0.0719   0.3152   0.3550   0.4386   0.5329   0.5815
     0.6563   0.7052   0.7832   0.8675   0.9579   1.0688   1.1176   1.1794
     1.2674   1.3119   1.4244   1.4566   1.5439   1.5662   1.6611   1.7223
     1.7593   1.8472   1.8843   1.9940   2.0476   2.1063

          k =-0.0669 0.0387 0.0000 ( 31970 PWs)   bands (ev):

   -31.8656 -31.7688 -31.7610 -31.7006 -31.6942 -31.5572 -31.5175 -31.4861
   -31.3547 -31.3068 -31.2652 -31.2458 -15.7480 -15.7208 -15.6894 -15.6706
   -15.6092 -15.5683 -15.5385 -15.5219 -15.5055 -15.4452 -15.4108 -15.3994
   -15.3600 -15.3545 -15.3194 -15.2722 -15.2442 -15.2424 -15.1593 -15.1393
   -15.0464 -14.9840 -14.9678 -14.9591 -14.9220 -14.9186 -14.8884 -14.8723
   -14.8445 -14.7442 -14.7387 -14.6992 -14.6898 -14.6866 -14.5537 -14.5331
    -9.7213  -0.2053  -0.0529   0.1881   0.3760   0.4223   0.5214   0.5748
     0.7195   0.7324   0.7998   0.8009   0.8078   1.1749   1.2119   1.2342
     1.3545   1.3975   1.4018   1.4475   1.6467   1.6655   1.7423   1.7511
     1.7910   1.8322   1.9130   1.9661   2.1043   2.1140

          k =-0.0669 0.0644 0.0000 ( 31991 PWs)   bands (ev):

   -31.8656 -31.7775 -31.7438 -31.7187 -31.6848 -31.5560 -31.5199 -31.4849
   -31.3559 -31.3011 -31.2734 -31.2421 -15.7427 -15.6974 -15.6773 -15.6580
   -15.6196 -15.5678 -15.5551 -15.5210 -15.5021 -15.4883 -15.4650 -15.4234
   -15.3582 -15.3368 -15.3091 -15.2802 -15.2630 -15.1647 -15.1466 -15.0674
   -15.0490 -15.0292 -14.9870 -14.9738 -14.9578 -14.9346 -14.9202 -14.8223
   -14.7613 -14.7545 -14.7284 -14.6976 -14.6844 -14.6786 -14.6062 -14.5389
    -9.7213  -0.2577   0.0719   0.3152   0.3550   0.4386   0.5329   0.5815
     0.6563   0.7052   0.7832   0.8675   0.9579   1.0688   1.1176   1.1794
     1.2674   1.3119   1.4244   1.4566   1.5439   1.5662   1.6611   1.7223
     1.7593   1.8472   1.8843   1.9940   2.0476   2.1063

          k =-0.0669 0.0902 0.0000 ( 31991 PWs)   bands (ev):

   -31.8656 -31.7775 -31.7438 -31.7187 -31.6848 -31.5560 -31.5199 -31.4849
   -31.3559 -31.3011 -31.2734 -31.2421 -15.7427 -15.6974 -15.6773 -15.6580
   -15.6196 -15.5678 -15.5551 -15.5210 -15.5021 -15.4883 -15.4650 -15.4234
   -15.3582 -15.3368 -15.3091 -15.2802 -15.2630 -15.1647 -15.1466 -15.0674
   -15.0490 -15.0292 -14.9870 -14.9738 -14.9578 -14.9346 -14.9202 -14.8223
   -14.7613 -14.7545 -14.7285 -14.6976 -14.6844 -14.6786 -14.6061 -14.5389
    -9.7213  -0.2577   0.0719   0.3152   0.3550   0.4386   0.5329   0.5815
     0.6563   0.7052   0.7832   0.8675   0.9579   1.0688   1.1176   1.1794
     1.2674   1.3119   1.4244   1.4566   1.5440   1.5662   1.6611   1.7223
     1.7593   1.8472   1.8843   1.9940   2.0476   2.1063

          k =-0.0669-0.0387 0.0000 ( 31970 PWs)   bands (ev):

   -31.8656 -31.7688 -31.7610 -31.7007 -31.6942 -31.5572 -31.5175 -31.4861
   -31.3547 -31.3068 -31.2652 -31.2459 -15.7480 -15.7208 -15.6894 -15.6706
   -15.6092 -15.5683 -15.5385 -15.5219 -15.5055 -15.4452 -15.4108 -15.3994
   -15.3600 -15.3545 -15.3194 -15.2722 -15.2442 -15.2424 -15.1593 -15.1393
   -15.0464 -14.9840 -14.9679 -14.9591 -14.9220 -14.9186 -14.8884 -14.8722
   -14.8445 -14.7442 -14.7387 -14.6992 -14.6898 -14.6866 -14.5536 -14.5331
    -9.7213  -0.2053  -0.0529   0.1881   0.3760   0.4223   0.5214   0.5748
     0.7195   0.7324   0.7998   0.8009   0.8078   1.1749   1.2119   1.2342
     1.3545   1.3975   1.4018   1.4475   1.6467   1.6655   1.7423   1.7511
     1.7910   1.8322   1.9130   1.9661   2.1043   2.1140

     the Fermi energy is     1.5203 ev

!    total energy              =   -1268.47066098 Ry
     Harris-Foulkes estimate   =   -1268.47067074 Ry
     estimated scf accuracy    <       0.00000928 Ry

     The total energy is the sum of the following terms:

     one-electron contribution =   -4777.11391721 Ry
     hartree contribution      =    2401.10676102 Ry
     xc contribution           =    -613.88141028 Ry
     ewald contribution        =    1721.53846700 Ry
     electric field correction =       0.00050662 Ry
     smearing contrib. (-TS)   =      -0.12106812 Ry

     convergence has been achieved in  11 iterations
 
 BEEF-vdW xc energy contributions
           1 :   -543.818501991851     
           2 :    500.172165255503     
           3 :   -422.987634808820     
           4 :    328.734979635851     
           5 :   -234.906337417848     
           6 :    155.350478196596     
           7 :   -97.6615139238595     
           8 :    62.8682767804579     
           9 :   -46.9126314559026     
          10 :    43.0373006840525     
          11 :   -44.1885162676742     
          12 :    44.7518548798872     
          13 :   -41.3641202425192     
          14 :    32.9522673095173     
          15 :   -20.3471319585310     
          16 :    5.72279204306335     
          17 :    8.06776699322268     
          18 :   -18.2679247566358     
          19 :    23.0144924604704     
          20 :   -21.9408637472147     
          21 :    16.3367438617637     
          22 :   -8.73925798714447     
          23 :    2.04769437379650     
          24 :    1.51602982901352     
          25 :   -1.17318503312276     
          26 :   -2.25518410999348     
          27 :    6.85551984566837     
          28 :   -10.5362970887268     
          29 :    11.9138703332706     
          30 :   -10.7847710593932     
          31 :   -46.3162452051918     
          32 :   -33.2224934431214     

     Forces acting on atoms (Ry/au):


     negative rho (up, down):  5.838E-01 0.000E+00
     atom    1 type  1   force =    -0.00000018   -0.00000018    0.00395616
     atom    2 type  1   force =     0.00000240   -0.00240358    0.00448737
     atom    3 type  1   force =    -0.00208166    0.00120213    0.00448885
     atom    4 type  1   force =     0.00207976    0.00120266    0.00448997
     atom    5 type  1   force =    -0.00362058    0.00208959   -0.00399952
     atom    6 type  1   force =     0.00361882    0.00208830   -0.00399981
     atom    7 type  1   force =    -0.00000014    0.00000330   -0.00806405
     atom    8 type  1   force =     0.00000015   -0.00418235   -0.00400065
     atom    9 type  1   force =     0.04956412    0.02861681    0.04971243
     atom   10 type  1   force =    -0.04956462    0.02861515    0.04971346
     atom   11 type  1   force =    -0.00000001   -0.05723387    0.04971390
     atom   12 type  1   force =     0.00000117    0.00000046   -0.00001366
     atom   13 type  2   force =     0.00000077    0.00000158   -0.14648443

     Total force =     0.196720     Total SCF correction =     0.004911


     entering subroutine stress ...


     negative rho (up, down):  5.838E-01 0.000E+00
          total   stress  (Ry/bohr**3)                   (kbar)     P=   -6.29
  -0.00003117  -0.00000000  -0.00000000         -4.58     -0.00     -0.00
  -0.00000000  -0.00003117   0.00000000         -0.00     -4.58      0.00
  -0.00000000   0.00000000  -0.00006585         -0.00      0.00     -9.69


     number of scf cycles    =   2
     number of bfgs steps    =   1

     energy   old            =   -1268.4313668195 Ry
     energy   new            =   -1268.4706609754 Ry

     CASE: energy  _new < energy  _old


     WARNING: bfgs curvature condition failed, Theta= 0.807
     new trust radius        =       0.2185536486 bohr
     new conv_thr            =       0.0000001000 Ry


ATOMIC_POSITIONS (crystal)
La1      0.166666667   0.166666667   0.383173129    0   0   0
La1      0.666666667   0.166666667   0.383173129    0   0   0
La1      0.166666667   0.666666667   0.383173129    0   0   0
La1      0.666666667   0.666666667   0.383173129    0   0   0
La1      0.833333333   0.333333333   0.500000000    0   0   0
La1      0.333333333   0.333333333   0.500000000    0   0   0
La1      0.833333333   0.833333333   0.500000000    0   0   0
La1      0.333333333   0.833333333   0.500000000    0   0   0
La1      0.006091055   0.006091148   0.619341965
La1      0.487817209   0.006091564   0.619342147
La1      0.006092169   0.487817426   0.619342503
La1      0.499998731   0.500000279   0.616927515
N1       0.166666498   0.166666368   0.678680363



     Writing output data file calc.save
     Check: negative starting charge=   -0.832803
     NEW-OLD atomic charge density approx. for the potential
     Check: negative starting charge=   -0.833476

[...]
   -15.2478 -15.1994 -15.1941 -15.1642 -15.1409 -15.1122 -15.1039 -15.0610
   -15.0053 -14.9407 -14.9072 -14.8887 -14.8657 -14.8081 -14.7750 -14.7219
   -14.7056 -14.6778 -14.6587 -14.6432 -14.6075 -14.5895 -14.5352 -14.5118
   -14.5014 -14.4619 -14.4054 -14.3806 -14.3567 -14.3212 -14.2940 -14.2163
    -9.4316  -1.2834  -0.9558  -0.7887   0.1836   0.6231   0.7991   0.9292
     0.9857   1.0394   1.0974   1.2242   1.3239   1.3998   1.4927   1.5559
     1.6007   1.6946   1.7544   1.8161   1.8980   1.9677   2.0111   2.0491
     2.1521   2.2312   2.3227   2.3516   2.4009   2.4778

          k = 0.0223-0.0644 0.0000 ( 31991 PWs)   bands (ev):

   -31.4156 -31.3823 -31.3576 -31.3237 -31.2908 -31.1606 -31.1044 -31.0811
   -31.0628 -30.9773 -30.9488 -30.9189 -16.3577 -15.3727 -15.3146 -15.2973
   -15.2478 -15.1994 -15.1941 -15.1642 -15.1409 -15.1122 -15.1039 -15.0610
   -15.0053 -14.9407 -14.9072 -14.8887 -14.8657 -14.8081 -14.7750 -14.7219
   -14.7056 -14.6778 -14.6587 -14.6432 -14.6075 -14.5895 -14.5352 -14.5118
   -14.5014 -14.4619 -14.4054 -14.3806 -14.3567 -14.3212 -14.2940 -14.2163
    -9.4316  -1.2834  -0.9558  -0.7887   0.1836   0.6231   0.7991   0.9292
     0.9857   1.0394   1.0974   1.2242   1.3239   1.3998   1.4927   1.5559
     1.6007   1.6946   1.7544   1.8161   1.8980   1.9677   2.0112   2.0491
     2.1521   2.2312   2.3227   2.3516   2.4009   2.4778

          k = 0.0223-0.0387 0.0000 ( 32007 PWs)   bands (ev):

   -31.4441 -31.3544 -31.3518 -31.3281 -31.2984 -31.1659 -31.0993 -31.0796
   -31.0639 -30.9802 -30.9360 -30.9203 -16.4322 -15.4670 -15.4051 -15.4027
   -15.3659 -15.2863 -15.2566 -15.2435 -15.2189 -15.2016 -15.0582 -14.9684
   -14.9233 -14.9048 -14.8680 -14.8521 -14.7553 -14.7354 -14.7328 -14.7232
   -14.7030 -14.6954 -14.6569 -14.5773 -14.5452 -14.5322 -14.5101 -14.4962
   -14.4341 -14.3837 -14.3752 -14.3535 -14.3394 -14.3268 -14.2884 -14.1614
    -9.5112  -1.2367  -1.0006  -0.8792  -0.3525   0.3634   0.6082   0.6578
     0.7206   0.7642   0.7845   0.8636   1.0677   1.1058   1.1908   1.2823
     1.3229   1.4624   1.7011   1.7517   1.8035   2.0036   2.1144   2.2482
     2.3139   2.4072   2.4890   2.5280   2.6380   2.6823

          k = 0.0446-0.0258 0.0000 ( 32002 PWs)   bands (ev):

   -31.4365 -31.3700 -31.3374 -31.3348 -31.2958 -31.1651 -31.0986 -31.0804
   -31.0647 -30.9805 -30.9375 -30.9213 -16.4088 -15.4266 -15.4233 -15.3463
   -15.3249 -15.2657 -15.2426 -15.2084 -15.2007 -15.1764 -15.0690 -14.9782
   -14.9217 -14.9155 -14.8581 -14.8472 -14.8425 -14.7787 -14.7662 -14.7181
   -14.6862 -14.6852 -14.6654 -14.6268 -14.5400 -14.5280 -14.5269 -14.4876
   -14.4701 -14.4188 -14.3888 -14.3622 -14.3538 -14.3201 -14.2897 -14.1671
    -9.4848  -1.2589  -0.9789  -0.8462  -0.2117   0.4643   0.5676   0.6894
     0.8039   0.8660   0.9191   1.0736   1.0758   1.1737   1.3442   1.3797
     1.4162   1.5596   1.7085   1.7381   1.8450   1.9762   2.0776   2.1964
     2.2456   2.4097   2.4264   2.5082   2.5931   2.6479

          k = 0.0446 0.0000 0.0000 ( 32007 PWs)   bands (ev):

   -31.4441 -31.3544 -31.3518 -31.3281 -31.2984 -31.1659 -31.0993 -31.0796
   -31.0639 -30.9802 -30.9360 -30.9203 -16.4322 -15.4670 -15.4051 -15.4027
   -15.3659 -15.2863 -15.2566 -15.2435 -15.2189 -15.2016 -15.0582 -14.9684
   -14.9233 -14.9048 -14.8680 -14.8521 -14.7553 -14.7354 -14.7328 -14.7232
   -14.7030 -14.6954 -14.6569 -14.5773 -14.5452 -14.5322 -14.5101 -14.4962
   -14.4341 -14.3837 -14.3752 -14.3536 -14.3394 -14.3268 -14.2884 -14.1614
    -9.5112  -1.2367  -1.0006  -0.8792  -0.3525   0.3634   0.6082   0.6578
     0.7206   0.7642   0.7845   0.8636   1.0677   1.1058   1.1908   1.2823
     1.3229   1.4624   1.7011   1.7517   1.8035   2.0036   2.1144   2.2482
     2.3139   2.4072   2.4890   2.5280   2.6380   2.6823

          k = 0.0446 0.0258 0.0000 ( 32002 PWs)   bands (ev):

   -31.4365 -31.3700 -31.3374 -31.3348 -31.2958 -31.1651 -31.0986 -31.0804
   -31.0647 -30.9805 -30.9375 -30.9213 -16.4088 -15.4266 -15.4233 -15.3463
   -15.3249 -15.2657 -15.2426 -15.2084 -15.2007 -15.1764 -15.0690 -14.9782
   -14.9217 -14.9155 -14.8581 -14.8472 -14.8425 -14.7787 -14.7662 -14.7181
   -14.6862 -14.6852 -14.6654 -14.6268 -14.5400 -14.5280 -14.5269 -14.4876
   -14.4701 -14.4188 -14.3888 -14.3622 -14.3538 -14.3201 -14.2897 -14.1671
    -9.4848  -1.2589  -0.9790  -0.8462  -0.2117   0.4643   0.5676   0.6894
     0.8039   0.8660   0.9191   1.0736   1.0758   1.1737   1.3442   1.3797
     1.4162   1.5596   1.7085   1.7381   1.8450   1.9762   2.0776   2.1964
     2.2456   2.4097   2.4264   2.5082   2.5931   2.6479

          k = 0.0446-0.1031 0.0000 ( 31991 PWs)   bands (ev):

   -31.4156 -31.3823 -31.3576 -31.3237 -31.2908 -31.1606 -31.1044 -31.0811
   -31.0628 -30.9773 -30.9488 -30.9189 -16.3577 -15.3727 -15.3146 -15.2973
   -15.2478 -15.1994 -15.1941 -15.1642 -15.1409 -15.1122 -15.1039 -15.0610
   -15.0053 -14.9407 -14.9072 -14.8887 -14.8657 -14.8081 -14.7750 -14.7219
   -14.7056 -14.6778 -14.6587 -14.6432 -14.6075 -14.5895 -14.5352 -14.5118
   -14.5014 -14.4619 -14.4054 -14.3806 -14.3567 -14.3212 -14.2940 -14.2163
    -9.4316  -1.2834  -0.9558  -0.7887   0.1836   0.6231   0.7991   0.9292
     0.9856   1.0394   1.0974   1.2242   1.3239   1.3998   1.4927   1.5559
     1.6007   1.6946   1.7544   1.8161   1.8980   1.9677   2.0111   2.0491
     2.1521   2.2312   2.3227   2.3516   2.4009   2.4778

          k = 0.0446-0.0773 0.0000 ( 31986 PWs)   bands (ev):

   -31.3890 -31.3859 -31.3854 -31.3191 -31.2883 -31.1559 -31.1122 -31.0797
   -31.0612 -30.9683 -30.9626 -30.9170 -16.3296 -15.2705 -15.2673 -15.2346
   -15.2247 -15.2225 -15.1568 -15.1467 -15.1258 -15.0975 -15.0963 -15.0859
   -15.0320 -15.0135 -14.9291 -14.9131 -14.9083 -14.8450 -14.7409 -14.6977
   -14.6961 -14.6865 -14.6604 -14.6432 -14.6390 -14.6107 -14.5646 -14.5483
   -14.5189 -14.4868 -14.3862 -14.3660 -14.3544 -14.3234 -14.2930 -14.2847
    -9.4048  -1.2909  -0.9465  -0.7661   0.6846   0.6875   0.7611   1.1317
     1.1466   1.1951   1.2330   1.2892   1.5103   1.5194   1.6181   1.6294
     1.6404   1.6947   1.7191   1.7281   1.7307   1.9563   1.9792   2.0132
     2.0834   2.1745   2.2241   2.2687   2.3391   2.3455

          k = 0.0446-0.0515 0.0000 ( 31991 PWs)   bands (ev):

   -31.4156 -31.3823 -31.3576 -31.3237 -31.2908 -31.1606 -31.1044 -31.0811
   -31.0628 -30.9773 -30.9488 -30.9189 -16.3577 -15.3727 -15.3146 -15.2973
   -15.2478 -15.1994 -15.1941 -15.1642 -15.1409 -15.1122 -15.1039 -15.0610
   -15.0053 -14.9407 -14.9072 -14.8887 -14.8657 -14.8081 -14.7750 -14.7219
   -14.7056 -14.6778 -14.6587 -14.6432 -14.6075 -14.5895 -14.5352 -14.5118
   -14.5014 -14.4619 -14.4054 -14.3806 -14.3567 -14.3212 -14.2940 -14.2163
    -9.4316  -1.2834  -0.9558  -0.7887   0.1836   0.6231   0.7991   0.9292
     0.9856   1.0394   1.0974   1.2242   1.3239   1.3998   1.4927   1.5559
     1.6007   1.6946   1.7544   1.8161   1.8980   1.9677   2.0112   2.0491
     2.1521   2.2312   2.3227   2.3516   2.4009   2.4778

          k =-0.0669 0.0387 0.0000 ( 31970 PWs)   bands (ev):

   -31.4045 -31.4023 -31.3374 -31.3349 -31.2906 -31.1623 -31.1017 -31.0802
   -31.0648 -30.9802 -30.9438 -30.9213 -16.3584 -15.3646 -15.3616 -15.2924
   -15.2381 -15.2111 -15.1878 -15.1683 -15.1187 -15.0943 -15.0484 -15.0327
   -14.9812 -14.9753 -14.9537 -14.8721 -14.8661 -14.8217 -14.8051 -14.7934
   -14.6890 -14.6567 -14.6529 -14.6039 -14.6038 -14.5704 -14.5497 -14.5423
   -14.4825 -14.4825 -14.4486 -14.3699 -14.3692 -14.3191 -14.2579 -14.2017
    -9.4321  -1.2949  -0.9458  -0.7814   0.2905   0.3562   0.7377   0.8736
     1.0499   1.1045   1.1534   1.1997   1.2484   1.3793   1.5332   1.5872
     1.7117   1.7629   1.7679   1.8587   2.0082   2.0305   2.0843   2.0894
     2.1567   2.1676   2.3334   2.3949   2.4380   2.4384

          k =-0.0669 0.0644 0.0000 ( 31991 PWs)   bands (ev):

   -31.4156 -31.3823 -31.3576 -31.3237 -31.2908 -31.1606 -31.1044 -31.0811
   -31.0628 -30.9773 -30.9488 -30.9189 -16.3577 -15.3727 -15.3146 -15.2973
   -15.2478 -15.1994 -15.1941 -15.1642 -15.1409 -15.1122 -15.1039 -15.0610
   -15.0053 -14.9407 -14.9072 -14.8887 -14.8657 -14.8081 -14.7750 -14.7219
   -14.7056 -14.6778 -14.6587 -14.6432 -14.6075 -14.5895 -14.5352 -14.5118
   -14.5014 -14.4619 -14.4054 -14.3806 -14.3567 -14.3212 -14.2940 -14.2163
    -9.4316  -1.2834  -0.9558  -0.7887   0.1836   0.6231   0.7991   0.9292
     0.9856   1.0394   1.0974   1.2242   1.3239   1.3998   1.4927   1.5559
     1.6007   1.6946   1.7544   1.8161   1.8980   1.9677   2.0112   2.0491
     2.1521   2.2312   2.3227   2.3516   2.4009   2.4778

          k =-0.0669 0.0902 0.0000 ( 31991 PWs)   bands (ev):

   -31.4156 -31.3823 -31.3576 -31.3237 -31.2908 -31.1606 -31.1044 -31.0811
   -31.0628 -30.9773 -30.9488 -30.9189 -16.3577 -15.3727 -15.3146 -15.2973
   -15.2478 -15.1994 -15.1941 -15.1642 -15.1409 -15.1122 -15.1039 -15.0610
   -15.0053 -14.9407 -14.9072 -14.8887 -14.8657 -14.8081 -14.7750 -14.7219
   -14.7056 -14.6778 -14.6587 -14.6432 -14.6075 -14.5895 -14.5352 -14.5118
   -14.5014 -14.4619 -14.4054 -14.3806 -14.3567 -14.3212 -14.2940 -14.2163
    -9.4316  -1.2834  -0.9558  -0.7887   0.1836   0.6231   0.7991   0.9292
     0.9856   1.0394   1.0974   1.2242   1.3239   1.3998   1.4927   1.5559
     1.6007   1.6946   1.7544   1.8161   1.8980   1.9677   2.0112   2.0491
     2.1521   2.2312   2.3227   2.3516   2.4009   2.4778

          k =-0.0669-0.0387 0.0000 ( 31970 PWs)   bands (ev):

   -31.4045 -31.4023 -31.3374 -31.3349 -31.2906 -31.1623 -31.1017 -31.0802
   -31.0648 -30.9802 -30.9438 -30.9213 -16.3584 -15.3646 -15.3616 -15.2924
   -15.2381 -15.2111 -15.1878 -15.1683 -15.1187 -15.0943 -15.0484 -15.0327
   -14.9812 -14.9753 -14.9537 -14.8721 -14.8661 -14.8217 -14.8051 -14.7934
   -14.6890 -14.6567 -14.6529 -14.6039 -14.6038 -14.5704 -14.5497 -14.5423
   -14.4825 -14.4825 -14.4486 -14.3699 -14.3692 -14.3191 -14.2579 -14.2017
    -9.4321  -1.2949  -0.9458  -0.7814   0.2905   0.3562   0.7377   0.8736
     1.0499   1.1045   1.1534   1.1997   1.2484   1.3793   1.5332   1.5872
     1.7117   1.7629   1.7679   1.8587   2.0082   2.0305   2.0843   2.0894
     2.1567   2.1676   2.3334   2.3949   2.4380   2.4384

     the Fermi energy is     1.8793 ev

!    total energy              =   -1268.64716464 Ry
     Harris-Foulkes estimate   =   -1268.64716427 Ry
     estimated scf accuracy    <       0.00000002 Ry

     The total energy is the sum of the following terms:

     one-electron contribution =   -4774.63388540 Ry
     hartree contribution      =    2401.27730609 Ry
     xc contribution           =    -614.29263628 Ry
     ewald contribution        =    1719.12450041 Ry
     electric field correction =       0.00000990 Ry
     smearing contrib. (-TS)   =      -0.12245936 Ry

     convergence has been achieved in  12 iterations
 
 BEEF-vdW xc energy contributions
           1 :   -544.229681238942     
           2 :    500.657663206265     
           3 :   -423.541513992033     
           4 :    329.289343664426     
           5 :   -235.382662781017     
           6 :    155.668371442320     
           7 :   -97.7302266955935     
           8 :    62.6149262288720     
           9 :   -46.3459103875240     
          10 :    42.2885970584172     
          11 :   -43.4776388715151     
          12 :    44.2844157327628     
          13 :   -41.2246605339236     
          14 :    33.0638358783514     
          15 :   -20.5238050663576     
          16 :    5.78061578046845     
          17 :    8.21212270227113     
          18 :   -18.5700068501316     
          19 :    23.3562682905159     
          20 :   -22.2239598657808     
          21 :    16.5495406004679     
          22 :   -8.95269087643419     
          23 :    2.34696880998524     
          24 :    1.10913826049762     
          25 :  -0.727744512343065     
          26 :   -2.62209658432300     
          27 :    7.05890062433457     
          28 :   -10.5815911032539     
          29 :    11.8926705922123     
          30 :   -10.8135941153436     
          31 :   -46.3379235019866     
          32 :   -33.2587151711103     

     Forces acting on atoms (Ry/au):


     negative rho (up, down):  5.782E-01 0.000E+00
     atom    1 type  1   force =     0.00000008   -0.00000018    0.00198157
     atom    2 type  1   force =    -0.00000028   -0.00213809    0.00583563
     atom    3 type  1   force =    -0.00185174    0.00106914    0.00583550
     atom    4 type  1   force =     0.00185160    0.00106920    0.00583566
     atom    5 type  1   force =    -0.00301689    0.00174165   -0.00347368
     atom    6 type  1   force =     0.00301735    0.00174183   -0.00347305
     atom    7 type  1   force =    -0.00000036    0.00000002   -0.00818009
     atom    8 type  1   force =     0.00000017   -0.00348387   -0.00347386
     atom    9 type  1   force =    -0.00087695   -0.00050658   -0.00081560
     atom   10 type  1   force =     0.00087846   -0.00050699   -0.00081511
     atom   11 type  1   force =     0.00000060    0.00101498   -0.00081615
     atom   12 type  1   force =    -0.00000116   -0.00000029    0.00034970
     atom   13 type  2   force =    -0.00000086   -0.00000083    0.00120949

     Total force =     0.002582     Total SCF correction =     0.000182


     entering subroutine stress ...


     negative rho (up, down):  5.782E-01 0.000E+00
          total   stress  (Ry/bohr**3)                   (kbar)     P=    0.57
   0.00001332   0.00000000   0.00000000          1.96      0.00      0.00
   0.00000000   0.00001332  -0.00000000          0.00      1.96     -0.00
   0.00000000  -0.00000000  -0.00001500          0.00     -0.00     -2.21


     bfgs converged in  17 scf cycles and  16 bfgs steps
     (criteria: energy <  1.0E+00, force <  1.9E-03)

     End of BFGS Geometry Optimization

     Final energy   =   -1268.6471646363 Ry
Begin final coordinates

ATOMIC_POSITIONS (crystal)
La1      0.166666667   0.166666667   0.383173129    0   0   0
La1      0.666666667   0.166666667   0.383173129    0   0   0
La1      0.166666667   0.666666667   0.383173129    0   0   0
La1      0.666666667   0.666666667   0.383173129    0   0   0
La1      0.833333333   0.333333333   0.500000000    0   0   0
La1      0.333333333   0.333333333   0.500000000    0   0   0
La1      0.833333333   0.833333333   0.500000000    0   0   0
La1      0.333333333   0.833333333   0.500000000    0   0   0
La1      0.004186230   0.004187688   0.627545117
La1      0.491624515   0.004187553   0.627545346
La1      0.004186045   0.491625089   0.627545985
La1      0.500000657   0.499999971   0.609053392
N1       0.166666054   0.166666721   0.653435262
End final coordinates



     Writing output data file calc.save
 
     init_run     :     43.31s CPU     44.27s WALL (       1 calls)
     electrons    :  18969.63s CPU  20746.87s WALL (      17 calls)
     update_pot   :     80.44s CPU     85.23s WALL (      16 calls)
     forces       :   1250.22s CPU   1328.90s WALL (      17 calls)
     stress       :   3850.05s CPU   4079.74s WALL (      17 calls)

     Called by init_run:
     wfcinit      :     16.94s CPU     17.32s WALL (       1 calls)
     potinit      :      3.54s CPU      3.87s WALL (       1 calls)

     Called by electrons:
     c_bands      :   5397.07s CPU   5809.91s WALL (     232 calls)
     sum_band     :   5057.19s CPU   5527.87s WALL (     232 calls)
     v_of_rho     :    732.00s CPU    807.24s WALL (     248 calls)
     newd         :   5488.65s CPU   5558.42s WALL (     248 calls)
     mix_rho      :     27.65s CPU     28.04s WALL (     232 calls)
     vdW_energy   :    338.06s CPU    372.99s WALL (     860 calls)
     vdW_ffts     :    938.46s CPU    977.96s WALL (    1754 calls)
     vdW_v        :    329.65s CPU    340.66s WALL (     860 calls)

     Called by c_bands:
     init_us_2    :     51.81s CPU     52.09s WALL (    2495 calls)
     cegterg      :   4357.95s CPU   4453.33s WALL (    1160 calls)

     Called by *egterg:
     h_psi        :   2991.10s CPU   3047.27s WALL (    9111 calls)
     s_psi        :    406.83s CPU    407.79s WALL (    9111 calls)
     g_psi        :     14.87s CPU     14.88s WALL (    7946 calls)
     cdiaghg      :    276.88s CPU    278.94s WALL (    9021 calls)

     Called by h_psi:
     add_vuspsi   :    412.86s CPU    413.73s WALL (    9111 calls)

     General routines
     calbec       :    581.70s CPU    593.43s WALL (   10441 calls)
     fft          :   1503.46s CPU   1634.81s WALL (   52139 calls)
     ffts         :      1.79s CPU      1.91s WALL (     480 calls)
     fftw         :   1512.78s CPU   1563.50s WALL (  624396 calls)
     interpolate  :     16.93s CPU     17.72s WALL (     480 calls)
     davcio       :      0.00s CPU      0.03s WALL (       5 calls)
 
     Parallel routines
     fft_scatter  :   1829.70s CPU   2006.16s WALL (  677015 calls)
 
     PWSCF        :     6h49m CPU        7h25m WALL

 
   This run was terminated on:  18:27:45   3May2018            

=------------------------------------------------------------------------------=
   JOB DONE.
=------------------------------------------------------------------------------=
Job  /afs/slac/g/suncat/bin/suncat-tsmpirun -x LD_LIBRARY_PATH -wdir /scratch/qe746154_Yfy93 pw.x -npool 4 -in pw.inp

TID   HOST_NAME   COMMAND_LINE            STATUS            TERMINATION_TIME
===== ========== ================  =======================  ===================
00000 suncat0161 pw.x -npool 4 -i  Done                     05/03/2018 18:27:45
00001 suncat0161 pw.x -npool 4 -i  Done                     05/03/2018 18:27:45
00002 suncat0161 pw.x -npool 4 -i  Done                     05/03/2018 18:27:45
00003 suncat0161 pw.x -npool 4 -i  Done                     05/03/2018 18:27:45
00004 suncat0161 pw.x -npool 4 -i  Done                     05/03/2018 18:27:45
00005 suncat0161 pw.x -npool 4 -i  Done                     05/03/2018 18:27:45
00006 suncat0161 pw.x -npool 4 -i  Done                     05/03/2018 18:27:45
00007 suncat0161 pw.x -npool 4 -i  Done                     05/03/2018 18:27:45
00008 suncat0146 pw.x -npool 4 -i  Done                     05/03/2018 18:27:45
00009 suncat0146 pw.x -npool 4 -i  Done                     05/03/2018 18:27:45
00010 suncat0146 pw.x -npool 4 -i  Done                     05/03/2018 18:27:45
00011 suncat0146 pw.x -npool 4 -i  Done                     05/03/2018 18:27:45
00012 suncat0146 pw.x -npool 4 -i  Done                     05/03/2018 18:27:45
00013 suncat0146 pw.x -npool 4 -i  Done                     05/03/2018 18:27:45
00014 suncat0146 pw.x -npool 4 -i  Done                     05/03/2018 18:27:45
00015 suncat0146 pw.x -npool 4 -i  Done                     05/03/2018 18:27:45
00016 suncat0244 pw.x -npool 4 -i  Done                     05/03/2018 18:27:45
00017 suncat0244 pw.x -npool 4 -i  Done                     05/03/2018 18:27:45
00018 suncat0244 pw.x -npool 4 -i  Done                     05/03/2018 18:27:45
00019 suncat0244 pw.x -npool 4 -i  Done                     05/03/2018 18:27:45
00020 suncat0244 pw.x -npool 4 -i  Done                     05/03/2018 18:27:45
00021 suncat0244 pw.x -npool 4 -i  Done                     05/03/2018 18:27:45
00022 suncat0244 pw.x -npool 4 -i  Done                     05/03/2018 18:27:45
00023 suncat0244 pw.x -npool 4 -i  Done                     05/03/2018 18:27:45
00024 suncat0243 pw.x -npool 4 -i  Done                     05/03/2018 18:27:45
00025 suncat0243 pw.x -npool 4 -i  Done                     05/03/2018 18:27:45
00026 suncat0243 pw.x -npool 4 -i  Done                     05/03/2018 18:27:45
00027 suncat0243 pw.x -npool 4 -i  Done                     05/03/2018 18:27:45
00028 suncat0243 pw.x -npool 4 -i  Done                     05/03/2018 18:27:45
00029 suncat0243 pw.x -npool 4 -i  Done                     05/03/2018 18:27:45
00030 suncat0243 pw.x -npool 4 -i  Done                     05/03/2018 18:27:45
00031 suncat0243 pw.x -npool 4 -i  Done                     05/03/2018 18:27:45
