  python dir          : /u/if/mamunm/src/espresso
  espresso dir        : /nfs/slac/g/suncatfs/sw/espv18/espresso-dynpy-beef/bin
  pseudo dir          : /u/if/mamunm/psp/gbrv1.5pbe
  ase-espresso py git : GITVERSION



     Program PWSCF v.5.1rc2 (svn rev. 11289) starts on  3May2018 at  5:20: 7 

     This program is part of the open-source Quantum ESPRESSO suite
     for quantum simulation of materials; please cite
         "P. Giannozzi et al., J. Phys.:Condens. Matter 21 395502 (2009);
          URL http://www.quantum-espresso.org", 
     in publications or presentations arising from this work. More details at
     http://www.quantum-espresso.org/quote

     Parallel version (MPI), running on    32 processors
     K-points division:     npool     =       4
     R & G space division:  proc/nbgrp/npool/nimage =       8
     Reading input from pw.inp
     Message from routine read_cards :
     DEPRECATED: no units specified in CELL_PARAMETERS card

     Current dimensions of program PWSCF are:
     Max number of different atomic species (ntypx) = 10
     Max number of k-points (npk) =  40000
     Max angular momentum in pseudopotentials (lmaxx) =  3
     Presently stress not available with electric field


     **************************************************************************
     Initializing libbeef V0.1.1 with the BEEF-vdW functional.
     Citation: Wellendorff et al., PRB 85, 235149 (2012).
     **************************************************************************


     IMPORTANT: XC functional enforced from input :
     Exchange-correlation      = BEEF-VDW ( 1  4 27 13 2)
     Any further DFT definition will be discarded
     Please, verify this is what you really want


     Subspace diagonalization in iterative solution of the eigenvalue problem:
     a serial algorithm will be used

 
     Parallelization info
     --------------------
     sticks:   dense  smooth     PW     G-vecs:    dense   smooth      PW
     Min         367     147     43                69909    17663    2781
     Max         369     148     44                69918    17695    2794
     Sum        2941    1177    349               559305   141419   22321
 


     bravais-lattice index     =            0
     lattice parameter (alat)  =       1.8897  a.u.
     unit-cell volume          =    4704.3541 (a.u.)^3
     number of atoms/cell      =           13
     number of atomic types    =            2
     number of electrons       =       174.00
     number of Kohn-Sham states=           97
     kinetic-energy cutoff     =      36.7493  Ry
     charge density cutoff     =     367.4932  Ry
     convergence threshold     =      1.0E-05
     mixing beta               =       0.3000
     number of iterations used =           10  plain     mixing
     Exchange-correlation      = BEEF-VDW ( 1  4 27 13 2)
     nstep                     =           50


     celldm(1)=   1.889726  celldm(2)=   0.000000  celldm(3)=   0.000000
     celldm(4)=   0.000000  celldm(5)=   0.000000  celldm(6)=   0.000000

     crystal axes: (cart. coord. in units of alat)
               a(1) = (   5.712816   0.000000   0.000000 )  
               a(2) = (   2.856408   4.947444   0.000000 )  
               a(3) = (   0.000000   0.000000  24.664495 )  

     reciprocal axes: (cart. coord. in units 2 pi/alat)
               b(1) = (  0.175045 -0.101062  0.000000 )  
               b(2) = (  0.000000  0.202125  0.000000 )  
               b(3) = (  0.000000  0.000000  0.040544 )  


     PseudoPot. # 1 for W  read from file:
     /u/if/mamunm/psp/gbrv1.5pbe/W.UPF
     MD5 check sum: 9c083fa34c2a2ea0f02f1f893e16e1c8
     Pseudo is Ultrasoft + core correction, Zval = 14.0
     Generated by new atomic code, or converted to UPF format
     Using radial grid of  923 points,  8 beta functions with: 
                l(1) =   0
                l(2) =   0
                l(3) =   0
                l(4) =   1
                l(5) =   1
                l(6) =   2
                l(7) =   2
                l(8) =   3
     Q(r) pseudized with  6 coefficients,  rinner =    1.350   1.350   1.350
                                                       1.350   1.350   1.350
                                                       1.350

     PseudoPot. # 2 for O  read from file:
     /u/if/mamunm/psp/gbrv1.5pbe/O.UPF
     MD5 check sum: 734c27235a0248c51dbae37a1fbe46ec
     Pseudo is Ultrasoft + core correction, Zval =  6.0
     Generated by new atomic code, or converted to UPF format
     Using radial grid of  737 points,  5 beta functions with: 
                l(1) =   0
                l(2) =   0
                l(3) =   1
                l(4) =   1
                l(5) =   2
     Q(r) pseudized with  8 coefficients,  rinner =    0.900   0.900   0.900
                                                       0.900   0.900

     vdW kernel table read from file vdW_kernel_table
     MD5 check sum: 095c7af220d748ca6e76c0b4c6cfb241

     atomic species   valence    mass     pseudopotential
        W1            14.00   183.84000     W ( 1.00)
        O1             6.00    15.99900     O ( 1.00)

     No symmetry found



   Cartesian axes

     site n.     atom                  positions (alat units)
         1           W1  tau(   1) = (   1.4282041   0.8245740  10.0000000  )
         2           W1  tau(   2) = (   4.2846123   0.8245740  10.0000000  )
         3           W1  tau(   3) = (   2.8564082   3.2982961  10.0000000  )
         4           W1  tau(   4) = (   5.7128165   3.2982961  10.0000000  )
         5           W1  tau(   5) = (   5.7128165   1.6491481  12.3322476  )
         6           W1  tau(   6) = (   2.8564082   1.6491481  12.3322476  )
         7           W1  tau(   7) = (   7.1410206   4.1228701  12.3322476  )
         8           W1  tau(   8) = (   4.2846123   4.1228701  12.3322476  )
         9           W1  tau(   9) = (   0.0000000   0.0000000  14.6644951  )
        10           W1  tau(  10) = (   2.8564082   0.0000000  14.6644951  )
        11           W1  tau(  11) = (   1.4282041   2.4737221  14.6644951  )
        12           W1  tau(  12) = (   4.2846123   2.4737221  14.6644951  )
        13           O1  tau(  13) = (   2.8564082   1.6491481  16.1464951  )

     number of k points=    20  Fermi-Dirac smearing, width (Ry)=  0.0110
                       cart. coord. in units 2pi/alat
        k(    1) = (   0.0000000   0.0000000   0.0000000), wk =   0.0555556
        k(    2) = (   0.0000000   0.0336874   0.0000000), wk =   0.1111111
        k(    3) = (   0.0000000   0.0673749   0.0000000), wk =   0.1111111
        k(    4) = (   0.0000000  -0.1010623   0.0000000), wk =   0.0555556
        k(    5) = (   0.0291742  -0.0168437   0.0000000), wk =   0.1111111
        k(    6) = (   0.0291742   0.0168437   0.0000000), wk =   0.1111111
        k(    7) = (   0.0291742   0.0505311   0.0000000), wk =   0.1111111
        k(    8) = (   0.0291742  -0.1179060   0.0000000), wk =   0.1111111
        k(    9) = (   0.0291742  -0.0842186   0.0000000), wk =   0.1111111
        k(   10) = (   0.0291742  -0.0505311   0.0000000), wk =   0.1111111
        k(   11) = (   0.0583483  -0.0336874   0.0000000), wk =   0.1111111
        k(   12) = (   0.0583483  -0.0000000   0.0000000), wk =   0.1111111
        k(   13) = (   0.0583483   0.0336874   0.0000000), wk =   0.1111111
        k(   14) = (   0.0583483  -0.1347497   0.0000000), wk =   0.1111111
        k(   15) = (   0.0583483  -0.1010623   0.0000000), wk =   0.1111111
        k(   16) = (   0.0583483  -0.0673749   0.0000000), wk =   0.1111111
        k(   17) = (  -0.0875225   0.0505311   0.0000000), wk =   0.0555556
        k(   18) = (  -0.0875225   0.0842186   0.0000000), wk =   0.1111111
        k(   19) = (  -0.0875225   0.1179060   0.0000000), wk =   0.1111111
        k(   20) = (  -0.0875225  -0.0505311   0.0000000), wk =   0.0555556

     Dense  grid:   559305 G-vectors     FFT dimensions: (  72,  72, 288)

     Smooth grid:   141419 G-vectors     FFT dimensions: (  45,  45, 180)

     Largest allocated arrays     est. size (Mb)     dimensions
        Kohn-Sham Wavefunctions         3.31 Mb     (    2239,   97)
        NL pseudopotentials            11.10 Mb     (    2239,  325)
        Each V/rho on FFT grid          2.85 Mb     (  186624)
        Each G-vector array             0.53 Mb     (   69911)
        G-vector shells                 0.14 Mb     (   18450)
     Largest temporary arrays     est. size (Mb)     dimensions
        Auxiliary wavefunctions        13.26 Mb     (    2239,  388)
        Each subspace H/S matrix        2.30 Mb     (     388,  388)
        Each <psi_i|beta_j> matrix      0.48 Mb     (     325,   97)
        Arrays for rho mixing          28.48 Mb     (  186624,   10)

     Initial potential from superposition of free atoms
     Check: negative starting charge=   -0.760529

     starting charge  172.79592, renormalised to  174.00000

     negative rho (up, down):  7.658E-01 0.000E+00


     ************************************************************************
     *
     * You are using vdW-DF for exchange-correlation in this calculation.
     * Please cite the following three references that made this development
     * possible:
     *
     *   M. Dion, H. Rydberg, E. Schroder, D. C. Langreth, and
     *   B. I. Lundqvist, Phys. Rev. Lett. 92, 246401 (2004).
     *
     *   T. Thonhauser, V. R. Cooper, S. Li, A. Puzder, P. Hyldgaard, and
     *   D. C. Langreth, Phys. Rev. B 76, 125112 (2007).
     *
     *   G. Roman-Perez and J. M. Soler, Phys. Rev. Lett. 103, 096102 (2009).
     *
     *
     * If you are using vdW-DF2, please also cite:
     *
     *   K. Lee, E. D. Murray, L. Kong, B. I. Lundqvist, and
     *   D. C. Langreth, Phys. Rev. B 82, 081101(R) (2010).
     *
     *
     * If you are calculating the stress with vdW-DF, please also cite:
     *
     *   R. Sabatini, E. Kucukbenli, B. Kolb, T. Thonhauser, and
     *   S. de Gironcoli, J. Phys.: Condens. Matter 24, 424209 (2012).
     *
     ************************************************************************

     Carrying out vdW-DF run using the following parameters:

     Nqs =      20    Nr_points =    1024   r_max =   100.000
     q_mesh =
               0.00001000     0.04494208     0.09755937     0.15916263
               0.23128650     0.31572767     0.41458969     0.53033537
               0.66584808     0.82450364     1.01025438     1.22772762
               1.48234092     1.78043706     2.12944203     2.53805004
               3.01644009     3.57652955     4.23227104     5.00000000

     Gradients computed in reciprocal space

     ************************************************************************


 
     Adding external electric field

     Computed dipole along edir(3) : 
        Dipole               -0.3013 Ry au,         -0.7659 Debye
        Dipole field         -0.0008 Ry au
 
        Potential amp.        0.0732 Ry
        Total length         45.4439 bohr
 
     Starting wfc are  160 randomized atomic wfcs

     total cpu time spent up to now is       16.7 secs

     per-process dynamical memory:    91.7 Mb

     Self-consistent Calculation

     iteration #  1     ecut=    36.75 Ry     beta=0.30
     Davidson diagonalization with overlap
     ethr =  1.00E-02,  avg # of iterations =  2.0

     negative rho (up, down):  7.707E-01 0.000E+00
 
     Adding external electric field

     Computed dipole along edir(3) : 
        Dipole                4.1778 Ry au,         10.6188 Debye
        Dipole field          0.0112 Ry au
 
        Potential amp.       -1.0143 Ry
        Total length         45.4439 bohr
 

     total cpu time spent up to now is       41.3 secs

     total energy              =   -1954.82504977 Ry
     Harris-Foulkes estimate   =   -1957.81932507 Ry
     estimated scf accuracy    <       6.40510361 Ry

     iteration #  2     ecut=    36.75 Ry     beta=0.30
     Davidson diagonalization with overlap
     ethr =  3.68E-03,  avg # of iterations =  9.8

     negative rho (up, down):  7.708E-01 0.000E+00
 
     Adding external electric field

     Computed dipole along edir(3) : 
        Dipole               -2.6377 Ry au,         -6.7045 Debye
        Dipole field         -0.0070 Ry au
 
        Potential amp.        0.6404 Ry
        Total length         45.4439 bohr
 

     total cpu time spent up to now is       78.2 secs

     total energy              =   -1936.55381165 Ry
     Harris-Foulkes estimate   =   -1976.78305312 Ry
     estimated scf accuracy    <    1258.34095448 Ry

     iteration #  3     ecut=    36.75 Ry     beta=0.30
     Davidson diagonalization with overlap
     ethr =  3.68E-03,  avg # of iterations =  6.5

     negative rho (up, down):  7.718E-01 0.000E+00
 
     Adding external electric field

     Computed dipole along edir(3) : 
        Dipole               -1.7941 Ry au,         -4.5602 Debye
        Dipole field         -0.0048 Ry au
 
        Potential amp.        0.4356 Ry
        Total length         45.4439 bohr
 

     total cpu time spent up to now is      112.5 secs

     total energy              =   -1956.12534458 Ry
     Harris-Foulkes estimate   =   -1958.50185755 Ry
     estimated scf accuracy    <      25.39990728 Ry

     iteration #  4     ecut=    36.75 Ry     beta=0.30
     Davidson diagonalization with overlap
     ethr =  3.68E-03,  avg # of iterations =  3.6

     negative rho (up, down):  7.736E-01 0.000E+00
 
     Adding external electric field

     Computed dipole along edir(3) : 
        Dipole               -1.3212 Ry au,         -3.3581 Debye
        Dipole field         -0.0035 Ry au
 
        Potential amp.        0.3208 Ry
        Total length         45.4439 bohr
 

     total cpu time spent up to now is      138.7 secs

     total energy              =   -1957.14635375 Ry
     Harris-Foulkes estimate   =   -1957.73316689 Ry
     estimated scf accuracy    <      14.00499929 Ry

     iteration #  5     ecut=    36.75 Ry     beta=0.30
     Davidson diagonalization with overlap
     ethr =  3.68E-03,  avg # of iterations =  1.1

     negative rho (up, down):  7.783E-01 0.000E+00
 
     Adding external electric field

     Computed dipole along edir(3) : 
        Dipole               -1.2466 Ry au,         -3.1686 Debye
        Dipole field         -0.0033 Ry au
 
        Potential amp.        0.3027 Ry
        Total length         45.4439 bohr
 

     total cpu time spent up to now is      162.2 secs

     total energy              =   -1957.39219767 Ry
     Harris-Foulkes estimate   =   -1957.44759001 Ry
     estimated scf accuracy    <       0.63339117 Ry

     iteration #  6     ecut=    36.75 Ry     beta=0.30
     Davidson diagonalization with overlap
     ethr =  3.64E-04,  avg # of iterations =  4.8

     negative rho (up, down):  7.826E-01 0.000E+00
 
     Adding external electric field

     Computed dipole along edir(3) : 
        Dipole               -1.1105 Ry au,         -2.8227 Debye
        Dipole field         -0.0030 Ry au
 
        Potential amp.        0.2696 Ry
        Total length         45.4439 bohr
 

     total cpu time spent up to now is      188.7 secs

     total energy              =   -1957.41977185 Ry
     Harris-Foulkes estimate   =   -1957.44194661 Ry
     estimated scf accuracy    <       0.11626673 Ry

     iteration #  7     ecut=    36.75 Ry     beta=0.30
     Davidson diagonalization with overlap
     ethr =  6.68E-05,  avg # of iterations =  5.8

     negative rho (up, down):  7.857E-01 0.000E+00
 
     Adding external electric field

     Computed dipole along edir(3) : 
        Dipole               -1.0040 Ry au,         -2.5520 Debye
        Dipole field         -0.0027 Ry au
 
        Potential amp.        0.2438 Ry
        Total length         45.4439 bohr
 

     total cpu time spent up to now is      218.7 secs

     total energy              =   -1957.42685086 Ry
     Harris-Foulkes estimate   =   -1957.43498494 Ry
     estimated scf accuracy    <       0.12085811 Ry

     iteration #  8     ecut=    36.75 Ry     beta=0.30
     Davidson diagonalization with overlap
     ethr =  6.68E-05,  avg # of iterations =  1.1

     negative rho (up, down):  7.884E-01 0.000E+00
 
     Adding external electric field

     Computed dipole along edir(3) : 
        Dipole               -0.8690 Ry au,         -2.2087 Debye
        Dipole field         -0.0023 Ry au
 
        Potential amp.        0.2110 Ry
        Total length         45.4439 bohr
 

     total cpu time spent up to now is      242.8 secs

     total energy              =   -1957.42730923 Ry
     Harris-Foulkes estimate   =   -1957.43152530 Ry
     estimated scf accuracy    <       0.04413078 Ry

     iteration #  9     ecut=    36.75 Ry     beta=0.30
     Davidson diagonalization with overlap
     ethr =  2.54E-05,  avg # of iterations =  2.4

     negative rho (up, down):  7.905E-01 0.000E+00
 
     Adding external electric field

     Computed dipole along edir(3) : 
        Dipole               -0.6725 Ry au,         -1.7094 Debye
        Dipole field         -0.0018 Ry au
 
        Potential amp.        0.1633 Ry
        Total length         45.4439 bohr
 

     total cpu time spent up to now is      267.8 secs

     total energy              =   -1957.42432377 Ry
     Harris-Foulkes estimate   =   -1957.42951356 Ry
     estimated scf accuracy    <       0.02409348 Ry

     iteration # 10     ecut=    36.75 Ry     beta=0.30
     Davidson diagonalization with overlap
     ethr =  1.38E-05,  avg # of iterations =  1.7

     negative rho (up, down):  7.915E-01 0.000E+00
 
     Adding external electric field

     Computed dipole along edir(3) : 
        Dipole               -0.5440 Ry au,         -1.3826 Debye
        Dipole field         -0.0015 Ry au
 
        Potential amp.        0.1321 Ry
        Total length         45.4439 bohr
 

     total cpu time spent up to now is      292.3 secs

     total energy              =   -1957.42232983 Ry
     Harris-Foulkes estimate   =   -1957.42509732 Ry
     estimated scf accuracy    <       0.00981168 Ry

     iteration # 11     ecut=    36.75 Ry     beta=0.30
     Davidson diagonalization with overlap
     c_bands:  1 eigenvalues not converged
     ethr =  5.64E-06,  avg # of iterations =  5.9

     negative rho (up, down):  7.918E-01 0.000E+00
 
     Adding external electric field

     Computed dipole along edir(3) : 
        Dipole               -0.4467 Ry au,         -1.1353 Debye
        Dipole field         -0.0012 Ry au
 
        Potential amp.        0.1084 Ry
        Total length         45.4439 bohr
 

     total cpu time spent up to now is      320.0 secs

     total energy              =   -1957.42149818 Ry
     Harris-Foulkes estimate   =   -1957.42279762 Ry
     estimated scf accuracy    <       0.00503294 Ry

     iteration # 12     ecut=    36.75 Ry     beta=0.30
     Davidson diagonalization with overlap
     ethr =  2.89E-06,  avg # of iterations =  5.1

     negative rho (up, down):  7.923E-01 0.000E+00
 
     Adding external electric field

     Computed dipole along edir(3) : 
        Dipole               -0.2828 Ry au,         -0.7187 Debye
        Dipole field         -0.0008 Ry au
 
        Potential amp.        0.0686 Ry
        Total length         45.4439 bohr
 

     total cpu time spent up to now is      346.4 secs

     total energy              =   -1957.42102168 Ry
     Harris-Foulkes estimate   =   -1957.42191458 Ry
     estimated scf accuracy    <       0.00257198 Ry

     iteration # 13     ecut=    36.75 Ry     beta=0.30
     Davidson diagonalization with overlap
     ethr =  1.48E-06,  avg # of iterations =  4.0

     negative rho (up, down):  7.927E-01 0.000E+00
 
     Adding external electric field

     Computed dipole along edir(3) : 
        Dipole               -0.1360 Ry au,         -0.3457 Debye
        Dipole field         -0.0004 Ry au
 
        Potential amp.        0.0330 Ry
        Total length         45.4439 bohr
 

     total cpu time spent up to now is      372.8 secs

     total energy              =   -1957.42118394 Ry
     Harris-Foulkes estimate   =   -1957.42129597 Ry
     estimated scf accuracy    <       0.00043138 Ry

     iteration # 14     ecut=    36.75 Ry     beta=0.30
     Davidson diagonalization with overlap
     ethr =  2.48E-07,  avg # of iterations =  6.5

     negative rho (up, down):  7.927E-01 0.000E+00
 
     Adding external electric field

     Computed dipole along edir(3) : 
        Dipole               -0.1267 Ry au,         -0.3219 Debye
        Dipole field         -0.0003 Ry au
 
        Potential amp.        0.0308 Ry
        Total length         45.4439 bohr
 

     total cpu time spent up to now is      402.0 secs

     total energy              =   -1957.42124040 Ry
     Harris-Foulkes estimate   =   -1957.42124372 Ry
     estimated scf accuracy    <       0.00003157 Ry

     iteration # 15     ecut=    36.75 Ry     beta=0.30
     Davidson diagonalization with overlap
     ethr =  1.81E-08,  avg # of iterations =  4.4

     negative rho (up, down):  7.927E-01 0.000E+00
 
     Adding external electric field

     Computed dipole along edir(3) : 
        Dipole               -0.1237 Ry au,         -0.3144 Debye
        Dipole field         -0.0003 Ry au
 
        Potential amp.        0.0300 Ry
        Total length         45.4439 bohr
 

     total cpu time spent up to now is      429.8 secs

     total energy              =   -1957.42124499 Ry
     Harris-Foulkes estimate   =   -1957.42124846 Ry
     estimated scf accuracy    <       0.00003477 Ry

     iteration # 16     ecut=    36.75 Ry     beta=0.30
     Davidson diagonalization with overlap
     ethr =  1.81E-08,  avg # of iterations =  2.4

     negative rho (up, down):  7.926E-01 0.000E+00

     negative rho (up, down):  7.926E-01 0.000E+00

     negative rho (up, down):  7.926E-01 0.000E+00

     negative rho (up, down):  7.926E-01 0.000E+00

     negative rho (up, down):  7.926E-01 0.000E+00

     negative rho (up, down):  7.926E-01 0.000E+00

     negative rho (up, down):  7.926E-01 0.000E+00

     negative rho (up, down):  7.926E-01 0.000E+00

     negative rho (up, down):  7.926E-01 0.000E+00

     negative rho (up, down):  7.926E-01 0.000E+00

     negative rho (up, down):  7.926E-01 0.000E+00

     negative rho (up, down):  7.926E-01 0.000E+00

     negative rho (up, down):  7.926E-01 0.000E+00

     negative rho (up, down):  7.926E-01 0.000E+00

     negative rho (up, down):  7.926E-01 0.000E+00

     negative rho (up, down):  7.926E-01 0.000E+00

     negative rho (up, down):  7.926E-01 0.000E+00

     negative rho (up, down):  7.926E-01 0.000E+00

     negative rho (up, down):  7.926E-01 0.000E+00

     negative rho (up, down):  7.926E-01 0.000E+00

     negative rho (up, down):  7.926E-01 0.000E+00

     negative rho (up, down):  7.926E-01 0.000E+00

     negative rho (up, down):  7.926E-01 0.000E+00

     negative rho (up, down):  7.926E-01 0.000E+00

     negative rho (up, down):  7.926E-01 0.000E+00

     negative rho (up, down):  7.926E-01 0.000E+00

     negative rho (up, down):  7.926E-01 0.000E+00

     negative rho (up, down):  7.926E-01 0.000E+00

     negative rho (up, down):  7.926E-01 0.000E+00

     negative rho (up, down):  7.926E-01 0.000E+00

     negative rho (up, down):  7.926E-01 0.000E+00

     negative rho (up, down):  7.926E-01 0.000E+00

     negative rho (up, down):  7.926E-01 0.000E+00

     negative rho (up, down):  7.926E-01 0.000E+00

     negative rho (up, down):  7.926E-01 0.000E+00
 
     Adding external electric field

     Computed dipole along edir(3) : 
        Dipole               -0.1217 Ry au,         -0.3094 Debye
        Dipole field         -0.0003 Ry au
 
        Potential amp.        0.0295 Ry
        Total length         45.4439 bohr
 

     total cpu time spent up to now is      501.6 secs

     End of self-consistent calculation

          k = 0.0000 0.0000 0.0000 ( 17753 PWs)   bands (ev):

   -72.0917 -72.0358 -72.0350 -71.9247 -71.8759 -71.8652 -71.8457 -71.8454
   -71.8419 -71.8214 -71.8177 -71.8173 -36.6336 -36.5292 -36.5291 -36.5000
   -36.4924 -36.4826 -36.4824 -36.3397 -36.3341 -36.3338 -36.1767 -36.1188
   -36.1181 -36.0182 -35.9652 -35.9572 -35.9569 -35.9004 -35.9000 -35.8940
   -35.7814 -35.7814 -35.7696 -35.7622 -35.7580 -35.7579 -35.6980 -35.6509
   -35.6508 -35.6381 -35.6307 -35.6307 -35.5684 -35.5683 -35.4624 -35.4624
   -15.9028  -5.8768  -4.1457  -3.3807  -2.9746  -2.9746  -2.8769  -2.7203
    -2.6641  -2.6641  -2.0793  -2.0786  -2.0786  -1.7102  -1.7013  -1.7013
    -1.2322  -1.2322  -0.7830  -0.0786  -0.0784   0.1527   0.9408   0.9735
     0.9735   1.2447   1.5442   1.6943   1.6943   1.8992   1.8994   1.9546
     2.0290   2.0291   2.1012   2.1390   2.1978   2.1978   2.3664   2.3664
     3.0264   3.1601   3.1602   3.5882   3.9022   4.0323   4.0324   4.1497
     4.1498

          k = 0.0000 0.0337 0.0000 ( 17716 PWs)   bands (ev):

   -72.0880 -72.0383 -72.0356 -71.9199 -71.8750 -71.8635 -71.8501 -71.8455
   -71.8426 -71.8230 -71.8189 -71.8174 -36.5987 -36.5004 -36.4888 -36.4787
   -36.4621 -36.4544 -36.4484 -36.3115 -36.3062 -36.2903 -36.1744 -36.1318
   -36.1258 -36.0420 -35.9658 -35.9570 -35.9475 -35.9216 -35.9210 -35.8854
   -35.8207 -35.8172 -35.7654 -35.7568 -35.7488 -35.7461 -35.7203 -35.6815
   -35.6673 -35.6642 -35.6567 -35.6250 -35.6132 -35.5807 -35.5155 -35.4739
   -15.8981  -5.6248  -3.9085  -3.1400  -2.9817  -2.8198  -2.7054  -2.6290
    -2.5038  -2.4626  -2.0426  -1.9099  -1.8541  -1.5916  -1.5399  -1.5242
    -1.1714  -1.1181  -0.6894  -0.0430  -0.0255   0.1350   0.7712   1.0439
     1.0445   1.1973   1.3415   1.4215   1.5265   1.5618   1.7551   1.9316
     1.9393   2.0060   2.1115   2.1343   2.1675   2.2521   2.3454   2.5214
     2.7775   2.8544   2.9252   3.1661   3.4753   3.5457   3.7374   3.7864
     4.0599

          k = 0.0000 0.0674 0.0000 ( 17708 PWs)   bands (ev):

   -72.0784 -72.0466 -72.0356 -71.9067 -71.8761 -71.8628 -71.8554 -71.8455
   -71.8429 -71.8308 -71.8197 -71.8174 -36.5175 -36.4313 -36.4290 -36.4147
   -36.3853 -36.3722 -36.3528 -36.2499 -36.2421 -36.2033 -36.1701 -36.1520
   -36.1213 -36.0817 -36.0017 -35.9925 -35.9489 -35.9426 -35.9279 -35.8793
   -35.8789 -35.8515 -35.8490 -35.7907 -35.7791 -35.7699 -35.7399 -35.7171
   -35.7079 -35.7076 -35.7009 -35.6829 -35.6283 -35.6151 -35.5936 -35.5061
   -15.8888  -4.9331  -3.3755  -3.1981  -2.6149  -2.4898  -2.4600  -2.2117
    -2.0418  -1.9981  -1.8352  -1.6126  -1.4686  -1.2728  -1.1201  -1.0401
    -0.9253  -0.6442  -0.3893   0.0079   0.0360   0.1313   0.3316   0.6334
     0.7246   0.7706   0.9589   1.0838   1.3851   1.4517   1.5224   1.6124
     1.6411   1.6712   1.8034   1.9768   2.1293   2.1693   2.2241   2.3841
     2.4340   2.5104   2.5361   2.6099   2.6572   3.1884   3.3345   3.4718
     3.9769

          k = 0.0000-0.1011 0.0000 ( 17668 PWs)   bands (ev):

   -72.0704 -72.0539 -72.0356 -71.8921 -71.8851 -71.8689 -71.8456 -71.8449
   -71.8430 -71.8413 -71.8198 -71.8173 -36.4623 -36.3957 -36.3850 -36.3829
   -36.3487 -36.3307 -36.2368 -36.2209 -36.2146 -36.1948 -36.1653 -36.1375
   -36.1306 -36.0822 -36.0270 -35.9714 -35.9669 -35.9577 -35.9347 -35.9203
   -35.8688 -35.8661 -35.8577 -35.8513 -35.8424 -35.8397 -35.8253 -35.7423
   -35.7121 -35.7115 -35.6829 -35.6768 -35.6762 -35.6466 -35.5518 -35.5483
   -15.8842  -4.0645  -3.9681  -2.8654  -2.6060  -2.2394  -2.1619  -1.9427
    -1.7274  -1.6579  -1.5822  -1.5141  -1.3177  -1.0728  -0.6822  -0.6636
    -0.4265  -0.4013  -0.3325  -0.1715   0.1196   0.1781   0.2279   0.2727
     0.4562   0.4915   0.8940   0.9897   1.1415   1.1821   1.1948   1.2633
     1.2772   1.3169   1.4450   1.5966   1.8079   1.8487   1.9302   1.9800
     2.0205   2.6286   2.6460   3.1405   3.1745   3.4374   3.4593   3.4599
     3.6779

          k = 0.0292-0.0168 0.0000 ( 17716 PWs)   bands (ev):

   -72.0879 -72.0389 -72.0349 -71.9199 -71.8750 -71.8635 -71.8501 -71.8457
   -71.8425 -71.8230 -71.8191 -71.8173 -36.5986 -36.5003 -36.4888 -36.4788
   -36.4620 -36.4546 -36.4483 -36.3114 -36.3063 -36.2903 -36.1744 -36.1322
   -36.1254 -36.0420 -35.9659 -35.9569 -35.9475 -35.9219 -35.9209 -35.8852
   -35.8207 -35.8172 -35.7653 -35.7568 -35.7487 -35.7462 -35.7203 -35.6814
   -35.6673 -35.6642 -35.6568 -35.6250 -35.6131 -35.5807 -35.5154 -35.4739
   -15.8981  -5.6248  -3.9085  -3.1399  -2.9817  -2.8199  -2.7055  -2.6290
    -2.5037  -2.4626  -2.0427  -1.9099  -1.8542  -1.5916  -1.5399  -1.5242
    -1.1714  -1.1182  -0.6894  -0.0431  -0.0255   0.1350   0.7712   1.0439
     1.0445   1.1973   1.3415   1.4214   1.5266   1.5617   1.7552   1.9315
     1.9393   2.0060   2.1115   2.1343   2.1677   2.2520   2.3453   2.5214
     2.7775   2.8545   2.9251   3.1661   3.4754   3.5457   3.7375   3.7864
     4.0595

          k = 0.0292 0.0168 0.0000 ( 17716 PWs)   bands (ev):

   -72.0880 -72.0384 -72.0354 -71.9199 -71.8750 -71.8635 -71.8502 -71.8454
   -71.8427 -71.8231 -71.8185 -71.8177 -36.5987 -36.5004 -36.4887 -36.4787
   -36.4621 -36.4545 -36.4484 -36.3116 -36.3061 -36.2903 -36.1744 -36.1318
   -36.1258 -36.0420 -35.9658 -35.9571 -35.9474 -35.9216 -35.9210 -35.8853
   -35.8207 -35.8172 -35.7654 -35.7569 -35.7488 -35.7461 -35.7203 -35.6815
   -35.6674 -35.6641 -35.6567 -35.6250 -35.6132 -35.5807 -35.5154 -35.4739
   -15.8981  -5.6248  -3.9085  -3.1400  -2.9817  -2.8199  -2.7054  -2.6290
    -2.5038  -2.4626  -2.0426  -1.9100  -1.8541  -1.5916  -1.5398  -1.5242
    -1.1715  -1.1181  -0.6894  -0.0430  -0.0256   0.1350   0.7712   1.0439
     1.0445   1.1973   1.3416   1.4215   1.5265   1.5618   1.7551   1.9316
     1.9393   2.0060   2.1115   2.1343   2.1675   2.2521   2.3454   2.5214
     2.7775   2.8544   2.9252   3.1662   3.4753   3.5457   3.7374   3.7864
     4.0596

          k = 0.0292 0.0505 0.0000 ( 17715 PWs)   bands (ev):

   -72.0813 -72.0437 -72.0360 -71.9109 -71.8750 -71.8588 -71.8559 -71.8520
   -71.8394 -71.8264 -71.8228 -71.8159 -36.5394 -36.4514 -36.4430 -36.4183
   -36.4048 -36.3994 -36.3925 -36.2731 -36.2420 -36.2298 -36.1724 -36.1412
   -36.1385 -36.0777 -36.0164 -35.9553 -35.9461 -35.9330 -35.9125 -35.8989
   -35.8913 -35.8193 -35.7918 -35.7872 -35.7711 -35.7526 -35.7324 -35.7248
   -35.7210 -35.6875 -35.6673 -35.6409 -35.6398 -35.6182 -35.5858 -35.5013
   -15.8911  -5.1498  -3.4913  -2.9409  -2.8493  -2.6724  -2.4612  -2.3871
    -2.2685  -2.0670  -1.9118  -1.6253  -1.5443  -1.3694  -1.2952  -1.1657
    -1.0020  -0.8474  -0.4796  -0.0192   0.0285   0.1439   0.4701   0.8645
     0.8679   0.9385   1.0183   1.0375   1.3235   1.4838   1.5895   1.6746
     1.7578   1.8374   1.9097   2.0426   2.2072   2.2822   2.3998   2.4509
     2.4792   2.5213   2.5915   2.6751   2.9192   3.0221   3.3999   3.6281
     3.8353

          k = 0.0292-0.1179 0.0000 ( 17692 PWs)   bands (ev):

   -72.0710 -72.0527 -72.0363 -71.8958 -71.8789 -71.8673 -71.8561 -71.8479
   -71.8367 -71.8350 -71.8257 -71.8146 -36.4577 -36.3929 -36.3833 -36.3713
   -36.3373 -36.3226 -36.2795 -36.2261 -36.2127 -36.1882 -36.1646 -36.1623
   -36.1079 -36.0926 -36.0374 -36.0044 -35.9908 -35.9407 -35.9230 -35.9168
   -35.9024 -35.8778 -35.8604 -35.8357 -35.8132 -35.8033 -35.7562 -35.7423
   -35.7363 -35.7195 -35.6861 -35.6694 -35.6630 -35.6457 -35.5976 -35.5474
   -15.8841  -4.3221  -3.4339  -2.8831  -2.6500  -2.4557  -2.1922  -2.0795
    -1.8062  -1.6226  -1.5447  -1.3055  -1.1593  -1.0700  -0.8248  -0.6573
    -0.5991  -0.4445  -0.2623  -0.0375  -0.0086   0.0985   0.2055   0.2542
     0.4906   0.5612   0.6710   0.8192   1.0067   1.0976   1.1588   1.2109
     1.2652   1.3361   1.4945   1.7161   1.8157   1.8863   2.0644   2.1970
     2.3007   2.5981   2.6366   2.7674   3.2682   3.3181   3.4351   3.4775
     3.7286

          k = 0.0292-0.0842 0.0000 ( 17692 PWs)   bands (ev):

   -72.0709 -72.0530 -72.0361 -71.8958 -71.8788 -71.8673 -71.8561 -71.8479
   -71.8368 -71.8349 -71.8258 -71.8145 -36.4576 -36.3928 -36.3831 -36.3716
   -36.3373 -36.3226 -36.2795 -36.2263 -36.2127 -36.1881 -36.1645 -36.1622
   -36.1080 -36.0931 -36.0373 -36.0040 -35.9908 -35.9407 -35.9227 -35.9169
   -35.9024 -35.8778 -35.8604 -35.8358 -35.8132 -35.8033 -35.7563 -35.7423
   -35.7363 -35.7196 -35.6861 -35.6691 -35.6632 -35.6457 -35.5976 -35.5474
   -15.8841  -4.3221  -3.4338  -2.8830  -2.6500  -2.4557  -2.1922  -2.0795
    -1.8062  -1.6226  -1.5447  -1.3056  -1.1593  -1.0701  -0.8248  -0.6573
    -0.5991  -0.4445  -0.2623  -0.0375  -0.0086   0.0986   0.2054   0.2541
     0.4906   0.5613   0.6710   0.8192   1.0067   1.0976   1.1589   1.2110
     1.2652   1.3362   1.4945   1.7160   1.8158   1.8863   2.0644   2.1970
     2.3006   2.5981   2.6366   2.7674   3.2683   3.3181   3.4350   3.4776
     3.7286

          k = 0.0292-0.0505 0.0000 ( 17715 PWs)   bands (ev):

   -72.0812 -72.0442 -72.0355 -71.9109 -71.8750 -71.8587 -71.8557 -71.8522
   -71.8394 -71.8261 -71.8232 -71.8158 -36.5393 -36.4511 -36.4431 -36.4185
   -36.4050 -36.3992 -36.3925 -36.2730 -36.2422 -36.2296 -36.1724 -36.1413
   -36.1383 -36.0777 -36.0167 -35.9552 -35.9462 -35.9332 -35.9123 -35.8986
   -35.8912 -35.8192 -35.7917 -35.7872 -35.7712 -35.7526 -35.7324 -35.7249
   -35.7210 -35.6874 -35.6674 -35.6410 -35.6397 -35.6182 -35.5858 -35.5013
   -15.8911  -5.1498  -3.4912  -2.9409  -2.8493  -2.6724  -2.4612  -2.3871
    -2.2685  -2.0670  -1.9118  -1.6253  -1.5444  -1.3693  -1.2951  -1.1657
    -1.0020  -0.8475  -0.4796  -0.0192   0.0285   0.1439   0.4702   0.8645
     0.8679   0.9385   1.0184   1.0375   1.3236   1.4839   1.5896   1.6746
     1.7578   1.8374   1.9097   2.0426   2.2073   2.2823   2.3998   2.4510
     2.4791   2.5214   2.5915   2.6751   2.9192   3.0221   3.3999   3.6282
     3.8353

          k = 0.0583-0.0337 0.0000 ( 17708 PWs)   bands (ev):

   -72.0782 -72.0475 -72.0350 -71.9067 -71.8761 -71.8627 -71.8554 -71.8457
   -71.8428 -71.8307 -71.8199 -71.8172 -36.5172 -36.4312 -36.4289 -36.4149
   -36.3856 -36.3722 -36.3527 -36.2498 -36.2423 -36.2033 -36.1703 -36.1517
   -36.1215 -36.0817 -36.0020 -35.9921 -35.9487 -35.9428 -35.9280 -35.8792
   -35.8790 -35.8514 -35.8486 -35.7907 -35.7792 -35.7699 -35.7398 -35.7170
   -35.7080 -35.7076 -35.7008 -35.6831 -35.6282 -35.6152 -35.5937 -35.5061
   -15.8888  -4.9331  -3.3754  -3.1982  -2.6148  -2.4898  -2.4600  -2.2118
    -2.0418  -1.9981  -1.8352  -1.6125  -1.4686  -1.2728  -1.1200  -1.0401
    -0.9253  -0.6443  -0.3892   0.0079   0.0358   0.1313   0.3316   0.6334
     0.7246   0.7706   0.9589   1.0839   1.3851   1.4517   1.5225   1.6124
     1.6411   1.6712   1.8035   1.9769   2.1294   2.1692   2.2241   2.3842
     2.4340   2.5103   2.5361   2.6099   2.6572   3.1885   3.3344   3.4720
     4.0960

          k = 0.0583-0.0000 0.0000 ( 17715 PWs)   bands (ev):

   -72.0812 -72.0444 -72.0354 -71.9109 -71.8750 -71.8587 -71.8558 -71.8521
   -71.8394 -71.8263 -71.8229 -71.8159 -36.5392 -36.4511 -36.4431 -36.4185
   -36.4050 -36.3992 -36.3925 -36.2731 -36.2421 -36.2296 -36.1724 -36.1413
   -36.1383 -36.0777 -36.0167 -35.9553 -35.9461 -35.9331 -35.9123 -35.8986
   -35.8912 -35.8192 -35.7917 -35.7872 -35.7711 -35.7526 -35.7324 -35.7248
   -35.7211 -35.6875 -35.6674 -35.6410 -35.6397 -35.6182 -35.5858 -35.5013
   -15.8911  -5.1498  -3.4912  -2.9409  -2.8493  -2.6724  -2.4612  -2.3871
    -2.2685  -2.0670  -1.9118  -1.6253  -1.5444  -1.3693  -1.2951  -1.1657
    -1.0020  -0.8475  -0.4796  -0.0193   0.0285   0.1439   0.4702   0.8645
     0.8679   0.9385   1.0184   1.0375   1.3235   1.4838   1.5896   1.6746
     1.7578   1.8374   1.9097   2.0426   2.2073   2.2823   2.3997   2.4509
     2.4791   2.5214   2.5915   2.6751   2.9192   3.0221   3.3999   3.6282
     3.8352

          k = 0.0583 0.0337 0.0000 ( 17708 PWs)   bands (ev):

   -72.0784 -72.0468 -72.0355 -71.9067 -71.8761 -71.8629 -71.8554 -71.8455
   -71.8430 -71.8308 -71.8194 -71.8176 -36.5174 -36.4313 -36.4291 -36.4147
   -36.3854 -36.3722 -36.3528 -36.2500 -36.2420 -36.2033 -36.1701 -36.1520
   -36.1213 -36.0818 -36.0017 -35.9924 -35.9490 -35.9426 -35.9279 -35.8793
   -35.8789 -35.8515 -35.8490 -35.7906 -35.7792 -35.7699 -35.7398 -35.7171
   -35.7079 -35.7076 -35.7009 -35.6830 -35.6283 -35.6151 -35.5936 -35.5062
   -15.8888  -4.9331  -3.3755  -3.1981  -2.6149  -2.4898  -2.4600  -2.2117
    -2.0418  -1.9981  -1.8352  -1.6126  -1.4685  -1.2728  -1.1201  -1.0401
    -0.9253  -0.6442  -0.3893   0.0079   0.0360   0.1312   0.3316   0.6334
     0.7246   0.7706   0.9589   1.0838   1.3851   1.4517   1.5224   1.6124
     1.6411   1.6711   1.8035   1.9767   2.1294   2.1693   2.2241   2.3841
     2.4340   2.5104   2.5361   2.6099   2.6572   3.1884   3.3345   3.4718
     3.9769

          k = 0.0583-0.1347 0.0000 ( 17692 PWs)   bands (ev):

   -72.0710 -72.0529 -72.0362 -71.8958 -71.8789 -71.8673 -71.8560 -71.8479
   -71.8368 -71.8351 -71.8257 -71.8146 -36.4577 -36.3929 -36.3833 -36.3713
   -36.3373 -36.3226 -36.2795 -36.2261 -36.2128 -36.1881 -36.1646 -36.1623
   -36.1079 -36.0926 -36.0374 -36.0045 -35.9908 -35.9407 -35.9229 -35.9168
   -35.9024 -35.8778 -35.8604 -35.8357 -35.8133 -35.8033 -35.7562 -35.7423
   -35.7363 -35.7196 -35.6862 -35.6693 -35.6631 -35.6457 -35.5977 -35.5474
   -15.8841  -4.3221  -3.4339  -2.8830  -2.6500  -2.4557  -2.1922  -2.0796
    -1.8062  -1.6226  -1.5447  -1.3056  -1.1593  -1.0700  -0.8248  -0.6573
    -0.5991  -0.4445  -0.2623  -0.0375  -0.0087   0.0985   0.2055   0.2542
     0.4906   0.5612   0.6710   0.8192   1.0067   1.0976   1.1588   1.2109
     1.2652   1.3361   1.4945   1.7161   1.8156   1.8863   2.0644   2.1970
     2.3007   2.5981   2.6366   2.7674   3.2682   3.3181   3.4350   3.4775
     3.7286

          k = 0.0583-0.1011 0.0000 ( 17592 PWs)   bands (ev):

   -72.0621 -72.0608 -72.0367 -71.8871 -71.8773 -71.8735 -71.8631 -71.8402
   -71.8357 -71.8348 -71.8331 -71.8132 -36.3968 -36.3750 -36.3507 -36.3420
   -36.3076 -36.2953 -36.2482 -36.2399 -36.2246 -36.1872 -36.1528 -36.1343
   -36.1044 -36.0945 -36.0659 -35.9977 -35.9947 -35.9903 -35.9548 -35.9200
   -35.9194 -35.9075 -35.8714 -35.8684 -35.7994 -35.7976 -35.7570 -35.7258
   -35.7243 -35.7121 -35.7019 -35.6949 -35.6855 -35.6136 -35.6117 -35.6086
   -15.8818  -3.5489  -3.4095  -3.4026  -2.4725  -2.3857  -2.3442  -1.7642
    -1.7221  -1.4527  -0.9990  -0.9545  -0.8439  -0.8168  -0.7353  -0.6003
    -0.3717  -0.3586  -0.3464  -0.1999  -0.1733  -0.0066  -0.0036   0.1413
     0.2232   0.3946   0.4411   0.6899   0.7121   0.7838   0.8173   0.9698
     1.0369   1.0754   1.5196   1.5358   1.8032   1.9926   2.1359   2.1378
     2.4575   2.5617   2.6312   2.9455   2.9744   3.0254   3.5977   3.6083
     3.7022

          k = 0.0583-0.0674 0.0000 ( 17692 PWs)   bands (ev):

   -72.0706 -72.0537 -72.0358 -71.8958 -71.8788 -71.8673 -71.8561 -71.8479
   -71.8368 -71.8349 -71.8258 -71.8145 -36.4574 -36.3928 -36.3833 -36.3714
   -36.3374 -36.3228 -36.2794 -36.2263 -36.2127 -36.1882 -36.1647 -36.1623
   -36.1079 -36.0927 -36.0373 -36.0042 -35.9907 -35.9408 -35.9228 -35.9168
   -35.9022 -35.8777 -35.8604 -35.8355 -35.8133 -35.8033 -35.7564 -35.7423
   -35.7363 -35.7195 -35.6861 -35.6693 -35.6630 -35.6459 -35.5977 -35.5474
   -15.8841  -4.3221  -3.4338  -2.8831  -2.6500  -2.4557  -2.1922  -2.0795
    -1.8062  -1.6226  -1.5447  -1.3056  -1.1594  -1.0700  -0.8248  -0.6573
    -0.5991  -0.4446  -0.2623  -0.0375  -0.0086   0.0986   0.2054   0.2542
     0.4906   0.5613   0.6710   0.8193   1.0066   1.0976   1.1589   1.2110
     1.2652   1.3362   1.4945   1.7160   1.8157   1.8863   2.0645   2.1970
     2.3007   2.5980   2.6366   2.7675   3.2682   3.3181   3.4350   3.4777
     3.7285

          k =-0.0875 0.0505 0.0000 ( 17668 PWs)   bands (ev):

   -72.0698 -72.0553 -72.0349 -71.8922 -71.8850 -71.8689 -71.8457 -71.8451
   -71.8428 -71.8411 -71.8199 -71.8172 -36.4617 -36.3963 -36.3847 -36.3827
   -36.3489 -36.3312 -36.2367 -36.2209 -36.2148 -36.1947 -36.1654 -36.1378
   -36.1312 -36.0817 -36.0265 -35.9712 -35.9668 -35.9581 -35.9347 -35.9204
   -35.8686 -35.8662 -35.8578 -35.8513 -35.8422 -35.8398 -35.8247 -35.7426
   -35.7121 -35.7116 -35.6827 -35.6766 -35.6763 -35.6470 -35.5520 -35.5482
   -15.8842  -4.0645  -3.9681  -2.8654  -2.6061  -2.2393  -2.1619  -1.9427
    -1.7276  -1.6579  -1.5823  -1.5140  -1.3176  -1.0728  -0.6824  -0.6636
    -0.4266  -0.4012  -0.3326  -0.1714   0.1195   0.1781   0.2278   0.2728
     0.4565   0.4914   0.8939   0.9898   1.1415   1.1821   1.1949   1.2633
     1.2771   1.3169   1.4450   1.5966   1.8079   1.8487   1.9303   1.9801
     2.0204   2.6284   2.6462   3.1405   3.1745   3.4376   3.4592   3.4598
     3.6782

          k =-0.0875 0.0842 0.0000 ( 17692 PWs)   bands (ev):

   -72.0706 -72.0537 -72.0357 -71.8958 -71.8788 -71.8673 -71.8561 -71.8479
   -71.8367 -71.8350 -71.8258 -71.8145 -36.4574 -36.3928 -36.3833 -36.3714
   -36.3374 -36.3229 -36.2794 -36.2263 -36.2127 -36.1882 -36.1647 -36.1624
   -36.1079 -36.0927 -36.0374 -36.0041 -35.9907 -35.9408 -35.9229 -35.9168
   -35.9022 -35.8777 -35.8604 -35.8356 -35.8133 -35.8033 -35.7564 -35.7423
   -35.7363 -35.7195 -35.6861 -35.6694 -35.6629 -35.6459 -35.5977 -35.5474
   -15.8841  -4.3221  -3.4338  -2.8831  -2.6500  -2.4557  -2.1922  -2.0795
    -1.8062  -1.6226  -1.5447  -1.3056  -1.1594  -1.0700  -0.8248  -0.6573
    -0.5991  -0.4446  -0.2623  -0.0375  -0.0086   0.0986   0.2054   0.2542
     0.4906   0.5613   0.6710   0.8192   1.0067   1.0976   1.1588   1.2110
     1.2652   1.3362   1.4945   1.7160   1.8157   1.8863   2.0645   2.1970
     2.3007   2.5980   2.6366   2.7675   3.2683   3.3181   3.4350   3.4776
     3.7285

          k =-0.0875 0.1179 0.0000 ( 17692 PWs)   bands (ev):

   -72.0708 -72.0532 -72.0360 -71.8958 -71.8789 -71.8674 -71.8560 -71.8479
   -71.8368 -71.8350 -71.8257 -71.8146 -36.4576 -36.3928 -36.3831 -36.3717
   -36.3373 -36.3226 -36.2795 -36.2263 -36.2128 -36.1881 -36.1645 -36.1622
   -36.1080 -36.0931 -36.0373 -36.0039 -35.9908 -35.9407 -35.9228 -35.9169
   -35.9023 -35.8778 -35.8603 -35.8357 -35.8132 -35.8033 -35.7562 -35.7423
   -35.7363 -35.7196 -35.6862 -35.6691 -35.6632 -35.6457 -35.5976 -35.5474
   -15.8841  -4.3221  -3.4339  -2.8830  -2.6500  -2.4557  -2.1922  -2.0795
    -1.8062  -1.6226  -1.5447  -1.3056  -1.1593  -1.0701  -0.8248  -0.6573
    -0.5991  -0.4445  -0.2623  -0.0375  -0.0086   0.0986   0.2054   0.2542
     0.4906   0.5612   0.6710   0.8192   1.0067   1.0976   1.1589   1.2110
     1.2652   1.3362   1.4945   1.7160   1.8157   1.8862   2.0644   2.1970
     2.3006   2.5981   2.6366   2.7674   3.2683   3.3182   3.4350   3.4776
     3.7297

          k =-0.0875-0.0505 0.0000 ( 17668 PWs)   bands (ev):

   -72.0703 -72.0542 -72.0355 -71.8921 -71.8852 -71.8689 -71.8455 -71.8448
   -71.8430 -71.8415 -71.8195 -71.8176 -36.4622 -36.3957 -36.3850 -36.3830
   -36.3487 -36.3307 -36.2369 -36.2209 -36.2146 -36.1949 -36.1652 -36.1377
   -36.1307 -36.0821 -36.0269 -35.9714 -35.9670 -35.9576 -35.9347 -35.9203
   -35.8690 -35.8661 -35.8576 -35.8513 -35.8426 -35.8394 -35.8252 -35.7422
   -35.7121 -35.7115 -35.6829 -35.6769 -35.6762 -35.6466 -35.5516 -35.5486
   -15.8842  -4.0644  -3.9682  -2.8654  -2.6061  -2.2394  -2.1619  -1.9427
    -1.7274  -1.6579  -1.5822  -1.5141  -1.3177  -1.0728  -0.6822  -0.6637
    -0.4265  -0.4013  -0.3325  -0.1715   0.1195   0.1781   0.2279   0.2727
     0.4562   0.4916   0.8940   0.9897   1.1415   1.1821   1.1949   1.2633
     1.2773   1.3169   1.4450   1.5966   1.8079   1.8488   1.9301   1.9800
     2.0205   2.6287   2.6459   3.1405   3.1745   3.4374   3.4593   3.4599
     3.6780

     the Fermi energy is     2.2898 ev

!    total energy              =   -1957.42124384 Ry
     Harris-Foulkes estimate   =   -1957.42124821 Ry
     estimated scf accuracy    <       0.00000430 Ry

     The total energy is the sum of the following terms:

     one-electron contribution =  -15144.89640989 Ry
     hartree contribution      =    7557.74795962 Ry
     xc contribution           =    -517.80847632 Ry
     ewald contribution        =    6147.63018624 Ry
     electric field correction =       0.00003957 Ry
     smearing contrib. (-TS)   =      -0.09454306 Ry

     convergence has been achieved in  16 iterations
 
 BEEF-vdW xc energy contributions
           1 :   -455.454789905389     
           2 :    421.130894101981     
           3 :   -360.762100294597     
           4 :    287.665180610555     
           5 :   -215.625705567987     
           6 :    154.912957070744     
           7 :   -110.122112811632     
           8 :    80.3127339301520     
           9 :   -61.0066121451621     
          10 :    46.9313556964867     
          11 :   -34.2812944685309     
          12 :    21.6929469371836     
          13 :   -9.86203501236554     
          14 :   0.342969428913023     
          15 :    5.71105165036005     
          16 :   -8.27883326179125     
          17 :    8.44786083174046     
          18 :   -7.80159623280298     
          19 :    7.62945403454256     
          20 :   -8.39055866792825     
          21 :    9.67289485791912     
          22 :   -10.6088598579063     
          23 :    10.4768283053964     
          24 :   -9.15167671950149     
          25 :    7.17456261186027     
          26 :   -5.43360117026015     
          27 :    4.66191075990997     
          28 :   -5.04434483668348     
          29 :    6.14149212208889     
          30 :   -7.15702846262081     
          31 :   -41.3242757004846     
          32 :   -30.9027567315338     

     Forces acting on atoms (Ry/au):


     negative rho (up, down):  7.926E-01 0.000E+00
     atom    1 type  1   force =    -0.00154752   -0.00087538   -0.00216167
     atom    2 type  1   force =     0.00155952   -0.00090093   -0.00210595
     atom    3 type  1   force =    -0.00001624    0.00178761   -0.00213847
     atom    4 type  1   force =     0.00002613   -0.00001663   -0.00215906
     atom    5 type  1   force =    -0.00000301   -0.00303358   -0.00435120
     atom    6 type  1   force =    -0.00000897    0.00004922    0.02240018
     atom    7 type  1   force =     0.00264167    0.00150190   -0.00435884
     atom    8 type  1   force =    -0.00264939    0.00150589   -0.00436732
     atom    9 type  1   force =    -0.00001757   -0.00000533   -0.03693653
     atom   10 type  1   force =     0.00002312   -0.00589844    0.05764136
     atom   11 type  1   force =    -0.00514365    0.00297356    0.05753234
     atom   12 type  1   force =     0.00511728    0.00293110    0.05762674
     atom   13 type  2   force =     0.00001862   -0.00001899   -0.13662157

     Total force =     0.173459     Total SCF correction =     0.007960


     entering subroutine stress ...


     negative rho (up, down):  7.926E-01 0.000E+00
          total   stress  (Ry/bohr**3)                   (kbar)     P=  -51.87
  -0.00045093   0.00000001  -0.00000001        -66.33      0.00     -0.00
   0.00000001  -0.00045094   0.00000001          0.00    -66.34      0.00
  -0.00000001   0.00000001  -0.00015597         -0.00      0.00    -22.94


     BFGS Geometry Optimization

     number of scf cycles    =   1
     number of bfgs steps    =   0

     energy   new            =   -1957.4212438445 Ry

     new trust radius        =       0.1366215684 bohr
     new conv_thr            =       0.0000099958 Ry


ATOMIC_POSITIONS (crystal)
W1       0.166666667   0.166666667   0.405441099    0   0   0
W1       0.666666667   0.166666667   0.405441099    0   0   0
W1       0.166666667   0.666666667   0.405441099    0   0   0
W1       0.666666667   0.666666667   0.405441099    0   0   0
W1       0.833333333   0.333333333   0.500000000    0   0   0
W1       0.333333333   0.333333333   0.500000000    0   0   0
W1       0.833333333   0.833333333   0.500000000    0   0   0
W1       0.333333333   0.833333333   0.500000000    0   0   0
W1      -0.000001343  -0.000000570   0.593766427
W1       0.500317590  -0.000630896   0.595795597
W1      -0.000635481   0.500318051   0.595793258
W1       0.500317258   0.500313510   0.595795284
O1       0.333336074   0.333331302   0.651714054



     Writing output data file calc.save
     Check: negative starting charge=   -0.760529
     NEW-OLD atomic charge density approx. for the potential
     Check: negative starting charge=   -0.761248

     negative rho (up, down):  7.943E-01 0.000E+00
 
     Adding external electric field

     Computed dipole along edir(3) : 
        Dipole               -0.1081 Ry au,         -0.2747 Debye
        Dipole field         -0.0003 Ry au
 
        Potential amp.        0.0262 Ry
        Total length         45.4439 bohr
 

     total cpu time spent up to now is      603.1 secs

     per-process dynamical memory:   159.6 Mb

     Self-consistent Calculation

     iteration #  1     ecut=    36.75 Ry     beta=0.30
     Davidson diagonalization with overlap
     ethr =  1.00E-06,  avg # of iterations =  7.4

     negative rho (up, down):  7.941E-01 0.000E+00
 
     Adding external electric field

     Computed dipole along edir(3) : 
        Dipole               -0.1517 Ry au,         -0.3857 Debye
        Dipole field         -0.0004 Ry au
 
        Potential amp.        0.0368 Ry
        Total length         45.4439 bohr
 

     total cpu time spent up to now is      643.1 secs

     total energy              =   -1957.44392979 Ry
     Harris-Foulkes estimate   =   -1957.44838472 Ry
     estimated scf accuracy    <       0.01022344 Ry

     iteration #  2     ecut=    36.75 Ry     beta=0.30
     Davidson diagonalization with overlap
     ethr =  5.88E-06,  avg # of iterations =  5.1

     negative rho (up, down):  7.940E-01 0.000E+00
 
     Adding external electric field

     Computed dipole along edir(3) : 
        Dipole                0.0062 Ry au,          0.0157 Debye
        Dipole field          0.0000 Ry au
 
        Potential amp.       -0.0015 Ry
        Total length         45.4439 bohr
 

     total cpu time spent up to now is      674.3 secs

     total energy              =   -1957.43250851 Ry
     Harris-Foulkes estimate   =   -1957.45841119 Ry
     estimated scf accuracy    <       0.48639351 Ry

     iteration #  3     ecut=    36.75 Ry     beta=0.30
     Davidson diagonalization with overlap
     ethr =  5.88E-06,  avg # of iterations =  4.7

     negative rho (up, down):  7.940E-01 0.000E+00
 
     Adding external electric field

     Computed dipole along edir(3) : 
        Dipole               -0.0835 Ry au,         -0.2121 Debye
        Dipole field         -0.0002 Ry au
 
        Potential amp.        0.0203 Ry
        Total length         45.4439 bohr
 

     total cpu time spent up to now is      705.3 secs

     total energy              =   -1957.43761132 Ry
     Harris-Foulkes estimate   =   -1957.45624633 Ry
     estimated scf accuracy    <       0.68204516 Ry

     iteration #  4     ecut=    36.75 Ry     beta=0.30
     Davidson diagonalization with overlap
     ethr =  5.88E-06,  avg # of iterations =  4.3

     negative rho (up, down):  7.940E-01 0.000E+00
 
     Adding external electric field

     Computed dipole along edir(3) : 
        Dipole               -0.0676 Ry au,         -0.1717 Debye
        Dipole field         -0.0002 Ry au
 
        Potential amp.        0.0164 Ry
        Total length         45.4439 bohr
 

     total cpu time spent up to now is      735.5 secs

     total energy              =   -1957.44695282 Ry
     Harris-Foulkes estimate   =   -1957.44730025 Ry
     estimated scf accuracy    <       0.00167867 Ry

     iteration #  5     ecut=    36.75 Ry     beta=0.30
     Davidson diagonalization with overlap
     ethr =  9.65E-07,  avg # of iterations =  3.2

     negative rho (up, down):  7.939E-01 0.000E+00
 
     Adding external electric field

     Computed dipole along edir(3) : 
        Dipole               -0.0606 Ry au,         -0.1539 Debye
        Dipole field         -0.0002 Ry au
 
        Potential amp.        0.0147 Ry
        Total length         45.4439 bohr
 

     total cpu time spent up to now is      763.1 secs

     total energy              =   -1957.44698664 Ry
     Harris-Foulkes estimate   =   -1957.44719783 Ry
     estimated scf accuracy    <       0.00095212 Ry

     iteration #  6     ecut=    36.75 Ry     beta=0.30
     Davidson diagonalization with overlap
     ethr =  5.47E-07,  avg # of iterations =  3.0

     negative rho (up, down):  7.939E-01 0.000E+00
 
     Adding external electric field

     Computed dipole along edir(3) : 
        Dipole               -0.0633 Ry au,         -0.1610 Debye
        Dipole field         -0.0002 Ry au
 
        Potential amp.        0.0154 Ry
        Total length         45.4439 bohr
 

     total cpu time spent up to now is      789.9 secs

     total energy              =   -1957.44708004 Ry
     Harris-Foulkes estimate   =   -1957.44708318 Ry
     estimated scf accuracy    <       0.00005629 Ry

     iteration #  7     ecut=    36.75 Ry     beta=0.30
     Davidson diagonalization with overlap
     ethr =  3.23E-08,  avg # of iterations =  4.4

     negative rho (up, down):  7.939E-01 0.000E+00
 
     Adding external electric field

     Computed dipole along edir(3) : 
        Dipole               -0.0637 Ry au,         -0.1618 Debye
        Dipole field         -0.0002 Ry au
 
        Potential amp.        0.0155 Ry
        Total length         45.4439 bohr
 

     total cpu time spent up to now is      819.4 secs

     total energy              =   -1957.44709210 Ry
     Harris-Foulkes estimate   =   -1957.44709340 Ry
     estimated scf accuracy    <       0.00002788 Ry

     iteration #  8     ecut=    36.75 Ry     beta=0.30
     Davidson diagonalization with overlap
     ethr =  1.60E-08,  avg # of iterations =  3.0

     negative rho (up, down):  7.939E-01 0.000E+00
 
     Adding external electric field

     Computed dipole along edir(3) : 
        Dipole               -0.0636 Ry au,         -0.1617 Debye
        Dipole field         -0.0002 Ry au
 
        Potential amp.        0.0154 Ry
        Total length         45.4439 bohr
 

     total cpu time spent up to now is      846.5 secs

     total energy              =   -1957.44709515 Ry
     Harris-Foulkes estimate   =   -1957.44709564 Ry
     estimated scf accuracy    <       0.00001158 Ry

     iteration #  9     ecut=    36.75 Ry     beta=0.30
     Davidson diagonalization with overlap
     ethr =  6.65E-09,  avg # of iterations =  3.1

     negative rho (up, down):  7.939E-01 0.000E+00

     negative rho (up, down):  7.939E-01 0.000E+00

     negative rho (up, down):  7.939E-01 0.000E+00

     negative rho (up, down):  7.939E-01 0.000E+00

     negative rho (up, down):  7.939E-01 0.000E+00

     negative rho (up, down):  7.939E-01 0.000E+00

     negative rho (up, down):  7.939E-01 0.000E+00

     negative rho (up, down):  7.939E-01 0.000E+00

     negative rho (up, down):  7.939E-01 0.000E+00

     negative rho (up, down):  7.939E-01 0.000E+00

     negative rho (up, down):  7.939E-01 0.000E+00

     negative rho (up, down):  7.939E-01 0.000E+00

     negative rho (up, down):  7.939E-01 0.000E+00

     negative rho (up, down):  7.939E-01 0.000E+00

     negative rho (up, down):  7.939E-01 0.000E+00

     negative rho (up, down):  7.939E-01 0.000E+00

     negative rho (up, down):  7.939E-01 0.000E+00

     negative rho (up, down):  7.939E-01 0.000E+00

     negative rho (up, down):  7.939E-01 0.000E+00

     negative rho (up, down):  7.939E-01 0.000E+00

     negative rho (up, down):  7.939E-01 0.000E+00

     negative rho (up, down):  7.939E-01 0.000E+00

     negative rho (up, down):  7.939E-01 0.000E+00

     negative rho (up, down):  7.939E-01 0.000E+00

     negative rho (up, down):  7.939E-01 0.000E+00

     negative rho (up, down):  7.939E-01 0.000E+00

     negative rho (up, down):  7.939E-01 0.000E+00

     negative rho (up, down):  7.939E-01 0.000E+00

     negative rho (up, down):  7.939E-01 0.000E+00

     negative rho (up, down):  7.939E-01 0.000E+00

     negative rho (up, down):  7.939E-01 0.000E+00

     negative rho (up, down):  7.939E-01 0.000E+00

     negative rho (up, down):  7.939E-01 0.000E+00

     negative rho (up, down):  7.939E-01 0.000E+00

     negative rho (up, down):  7.939E-01 0.000E+00
 
     Adding external electric field

     Computed dipole along edir(3) : 
        Dipole               -0.0678 Ry au,         -0.1724 Debye
        Dipole field         -0.0002 Ry au
 
        Potential amp.        0.0165 Ry
        Total length         45.4439 bohr
 

     total cpu time spent up to now is      921.5 secs

     End of self-consistent calculation

          k = 0.0000 0.0000 0.0000 ( 17753 PWs)   bands (ev):

   -72.0464 -71.9912 -71.9910 -71.8610 -71.8012 -71.7961 -71.7816 -71.7813
   -71.7810 -71.7435 -71.7402 -71.7399 -36.5951 -36.4624 -36.4624 -36.4311
   -36.4250 -36.4233 -36.4233 -36.2652 -36.2584 -36.2583 -36.1212 -36.0819
   -36.0818 -35.9364 -35.8944 -35.8866 -35.8865 -35.8426 -35.8425 -35.8379
   -35.7205 -35.7204 -35.7114 -35.7039 -35.6959 -35.6957 -35.6313 -35.5847
   -35.5847 -35.5633 -35.5589 -35.5589 -35.5055 -35.5055 -35.3844 -35.3844
   -16.3472  -5.7886  -4.0950  -3.3637  -3.1564  -3.1564  -2.8887  -2.6390
    -2.5958  -2.5957  -2.1104  -2.1103  -2.0605  -1.6235  -1.6144  -1.6144
    -1.2884  -1.2884  -0.7071  -0.0200  -0.0200   0.1925   1.0158   1.0182
     1.0182   1.2935   1.6338   1.7771   1.7771   1.9434   1.9435   2.0788
     2.1340   2.1340   2.2100   2.2116   2.2730   2.2731   2.4763   2.4764
     3.0783   3.2174   3.2174   3.6457   3.9696   4.0931   4.0932   4.2443
     4.2443

          k = 0.0000 0.0337 0.0000 ( 17716 PWs)   bands (ev):

   -72.0428 -71.9942 -71.9912 -71.8562 -71.8016 -71.7941 -71.7859 -71.7814
   -71.7801 -71.7455 -71.7416 -71.7400 -36.5598 -36.4333 -36.4220 -36.4073
   -36.3987 -36.3957 -36.3877 -36.2375 -36.2311 -36.2170 -36.1185 -36.0897
   -36.0862 -35.9643 -35.9012 -35.8901 -35.8758 -35.8634 -35.8600 -35.8292
   -35.7582 -35.7549 -35.7052 -35.6977 -35.6912 -35.6866 -35.6520 -35.6166
   -35.5967 -35.5889 -35.5889 -35.5505 -35.5503 -35.5177 -35.4377 -35.3961
   -16.3412  -5.5388  -3.8749  -3.1728  -3.1079  -3.0348  -2.7050  -2.5948
    -2.4251  -2.3955  -2.0601  -1.9516  -1.8510  -1.5153  -1.4529  -1.4371
    -1.1966  -1.1299  -0.6081   0.0126   0.0371   0.1781   0.8534   1.0916
     1.0993   1.2512   1.4213   1.5045   1.5883   1.6361   1.8305   2.0225
     2.0245   2.0848   2.1884   2.2131   2.2724   2.3431   2.4336   2.6083
     2.8436   2.9265   3.0007   3.2247   3.5341   3.5919   3.8101   3.8717
     4.1524

          k = 0.0000 0.0674 0.0000 ( 17708 PWs)   bands (ev):

   -72.0335 -72.0025 -71.9912 -71.8431 -71.8086 -71.7948 -71.7844 -71.7814
   -71.7786 -71.7546 -71.7421 -71.7399 -36.4775 -36.3619 -36.3619 -36.3498
   -36.3268 -36.3097 -36.2876 -36.1797 -36.1702 -36.1462 -36.1095 -36.1017
   -36.0615 -36.0073 -35.9474 -35.9397 -35.8891 -35.8800 -35.8537 -35.8151
   -35.8144 -35.7911 -35.7867 -35.7279 -35.7136 -35.7020 -35.6783 -35.6567
   -35.6417 -35.6371 -35.6299 -35.6173 -35.5560 -35.5519 -35.5175 -35.4289
   -16.3291  -4.8561  -3.4531  -3.1719  -2.7788  -2.7074  -2.5854  -2.1668
    -1.9784  -1.9310  -1.8053  -1.6202  -1.4575  -1.2393  -1.0280  -0.9699
    -0.8669  -0.5873  -0.2981   0.0800   0.0885   0.2002   0.4178   0.7212
     0.8001   0.8392   1.0255   1.1409   1.4509   1.5044   1.5820   1.6834
     1.6997   1.7445   1.8845   2.0478   2.1855   2.2397   2.3030   2.4691
     2.5165   2.5935   2.6323   2.6785   2.7525   3.2680   3.4007   3.5389
     4.0527

          k = 0.0000-0.1011 0.0000 ( 17668 PWs)   bands (ev):

   -72.0257 -72.0097 -71.9911 -71.8271 -71.8234 -71.7964 -71.7822 -71.7814
   -71.7691 -71.7665 -71.7422 -71.7399 -36.4224 -36.3341 -36.3182 -36.3162
   -36.2813 -36.2686 -36.1749 -36.1638 -36.1481 -36.1264 -36.0951 -36.0847
   -36.0638 -36.0327 -35.9765 -35.9183 -35.9073 -35.8996 -35.8635 -35.8398
   -35.8050 -35.8000 -35.7898 -35.7779 -35.7751 -35.7664 -35.7631 -35.6792
   -35.6502 -35.6462 -35.6202 -35.6180 -35.6052 -35.5804 -35.4745 -35.4723
   -16.3231  -4.0450  -3.8883  -3.0122  -2.7233  -2.6456  -2.2297  -1.9364
    -1.6504  -1.5805  -1.4992  -1.4445  -1.2979  -1.0693  -0.6018  -0.5851
    -0.3402  -0.3287  -0.2626  -0.0602   0.2204   0.2622   0.2973   0.3351
     0.5394   0.5613   0.9528   1.0341   1.1881   1.2509   1.2583   1.2930
     1.3473   1.3930   1.5408   1.6349   1.8923   1.9144   1.9745   2.0995
     2.1317   2.7072   2.7631   3.1774   3.2316   3.5125   3.5371   3.5373
     3.7599

          k = 0.0292-0.0168 0.0000 ( 17716 PWs)   bands (ev):

   -72.0428 -71.9943 -71.9910 -71.8562 -71.8016 -71.7941 -71.7858 -71.7816
   -71.7800 -71.7455 -71.7416 -71.7399 -36.5598 -36.4333 -36.4220 -36.4073
   -36.3986 -36.3957 -36.3877 -36.2374 -36.2311 -36.2170 -36.1185 -36.0898
   -36.0861 -35.9643 -35.9012 -35.8902 -35.8758 -35.8634 -35.8601 -35.8292
   -35.7581 -35.7549 -35.7052 -35.6976 -35.6912 -35.6867 -35.6520 -35.6166
   -35.5967 -35.5889 -35.5889 -35.5505 -35.5503 -35.5177 -35.4377 -35.3961
   -16.3412  -5.5388  -3.8749  -3.1728  -3.1079  -3.0348  -2.7050  -2.5948
    -2.4251  -2.3955  -2.0601  -1.9516  -1.8511  -1.5153  -1.4529  -1.4371
    -1.1965  -1.1300  -0.6081   0.0125   0.0371   0.1782   0.8534   1.0916
     1.0993   1.2512   1.4213   1.5045   1.5883   1.6360   1.8305   2.0225
     2.0245   2.0848   2.1884   2.2131   2.2725   2.3430   2.4336   2.6083
     2.8436   2.9266   3.0006   3.2247   3.5341   3.5919   3.8102   3.8717
     4.1524

          k = 0.0292 0.0168 0.0000 ( 17716 PWs)   bands (ev):

   -72.0428 -71.9942 -71.9911 -71.8562 -71.8016 -71.7941 -71.7859 -71.7813
   -71.7802 -71.7456 -71.7413 -71.7402 -36.5598 -36.4333 -36.4220 -36.4073
   -36.3987 -36.3957 -36.3877 -36.2375 -36.2310 -36.2170 -36.1185 -36.0897
   -36.0862 -35.9643 -35.9012 -35.8902 -35.8758 -35.8634 -35.8600 -35.8292
   -35.7582 -35.7548 -35.7052 -35.6977 -35.6912 -35.6866 -35.6520 -35.6166
   -35.5968 -35.5889 -35.5889 -35.5505 -35.5503 -35.5177 -35.4377 -35.3961
   -16.3412  -5.5388  -3.8749  -3.1728  -3.1079  -3.0348  -2.7050  -2.5948
    -2.4251  -2.3955  -2.0601  -1.9516  -1.8510  -1.5153  -1.4529  -1.4371
    -1.1966  -1.1299  -0.6081   0.0126   0.0371   0.1781   0.8534   1.0915
     1.0993   1.2512   1.4213   1.5045   1.5882   1.6361   1.8305   2.0225
     2.0245   2.0848   2.1884   2.2131   2.2724   2.3431   2.4336   2.6083
     2.8436   2.9265   3.0007   3.2247   3.5341   3.5919   3.8101   3.8717
     4.1524

          k = 0.0292 0.0505 0.0000 ( 17715 PWs)   bands (ev):

   -72.0363 -71.9997 -71.9914 -71.8473 -71.8043 -71.7944 -71.7880 -71.7821
   -71.7776 -71.7492 -71.7466 -71.7379 -36.4994 -36.3850 -36.3729 -36.3514
   -36.3431 -36.3417 -36.3278 -36.1990 -36.1765 -36.1614 -36.1133 -36.0910
   -36.0874 -36.0040 -35.9588 -35.8944 -35.8847 -35.8602 -35.8536 -35.8435
   -35.8247 -35.7568 -35.7294 -35.7253 -35.7071 -35.6908 -35.6653 -35.6611
   -35.6580 -35.6205 -35.6024 -35.5658 -35.5641 -35.5515 -35.5145 -35.4235
   -16.3321  -5.0691  -3.5157  -3.0651  -2.9649  -2.7383  -2.5233  -2.3969
    -2.2729  -1.9793  -1.9239  -1.6277  -1.5438  -1.2962  -1.2270  -1.0791
    -0.9691  -0.8042  -0.3901   0.0428   0.0969   0.1909   0.5577   0.9340
     0.9537   1.0092   1.0836   1.1019   1.3913   1.5276   1.6595   1.7604
     1.8301   1.8929   1.9896   2.1165   2.2885   2.3439   2.4846   2.5295
     2.5541   2.6090   2.6633   2.7697   2.9854   3.1063   3.4700   3.6920
     3.9147

          k = 0.0292-0.1179 0.0000 ( 17692 PWs)   bands (ev):

   -72.0262 -72.0087 -71.9917 -71.8319 -71.8144 -71.8007 -71.7875 -71.7763
   -71.7724 -71.7594 -71.7495 -71.7361 -36.4163 -36.3272 -36.3207 -36.3087
   -36.2710 -36.2585 -36.2148 -36.1661 -36.1478 -36.1306 -36.1046 -36.0956
   -36.0444 -36.0328 -35.9727 -35.9487 -35.9315 -35.8767 -35.8566 -35.8530
   -35.8416 -35.8051 -35.7888 -35.7749 -35.7471 -35.7362 -35.6955 -35.6806
   -35.6698 -35.6540 -35.6233 -35.6029 -35.5905 -35.5810 -35.5212 -35.4700
   -16.3231  -4.2613  -3.4454  -2.9829  -2.7855  -2.6545  -2.3129  -2.1432
    -1.7952  -1.5717  -1.4654  -1.2593  -1.1181  -1.0207  -0.7431  -0.5781
    -0.5134  -0.3807  -0.1736   0.0346   0.0839   0.1831   0.2893   0.3350
     0.5545   0.6362   0.7441   0.8732   1.0494   1.1508   1.2268   1.2686
     1.3433   1.4125   1.5680   1.7763   1.8757   1.9609   2.1182   2.2896
     2.3932   2.6857   2.7106   2.8649   3.3556   3.3653   3.5018   3.5509
     3.7994

          k = 0.0292-0.0842 0.0000 ( 17692 PWs)   bands (ev):

   -72.0262 -72.0087 -71.9917 -71.8319 -71.8144 -71.8006 -71.7874 -71.7764
   -71.7724 -71.7594 -71.7495 -71.7361 -36.4163 -36.3272 -36.3206 -36.3088
   -36.2711 -36.2585 -36.2148 -36.1662 -36.1478 -36.1305 -36.1046 -36.0955
   -36.0445 -36.0329 -35.9726 -35.9486 -35.9315 -35.8767 -35.8566 -35.8531
   -35.8416 -35.8051 -35.7887 -35.7750 -35.7471 -35.7362 -35.6955 -35.6806
   -35.6697 -35.6541 -35.6233 -35.6028 -35.5906 -35.5810 -35.5212 -35.4700
   -16.3231  -4.2613  -3.4454  -2.9829  -2.7855  -2.6545  -2.3129  -2.1432
    -1.7952  -1.5717  -1.4654  -1.2593  -1.1181  -1.0207  -0.7430  -0.5781
    -0.5134  -0.3807  -0.1736   0.0346   0.0839   0.1831   0.2892   0.3350
     0.5545   0.6363   0.7441   0.8732   1.0494   1.1508   1.2268   1.2686
     1.3433   1.4125   1.5679   1.7763   1.8757   1.9609   2.1182   2.2897
     2.3932   2.6857   2.7106   2.8649   3.3556   3.3653   3.5018   3.5510
     3.7994

          k = 0.0292-0.0505 0.0000 ( 17715 PWs)   bands (ev):

   -72.0363 -71.9998 -71.9913 -71.8473 -71.8044 -71.7944 -71.7878 -71.7823
   -71.7775 -71.7490 -71.7468 -71.7378 -36.4993 -36.3849 -36.3730 -36.3515
   -36.3432 -36.3416 -36.3278 -36.1989 -36.1767 -36.1613 -36.1133 -36.0909
   -36.0875 -36.0040 -35.9588 -35.8943 -35.8848 -35.8603 -35.8536 -35.8435
   -35.8247 -35.7567 -35.7294 -35.7253 -35.7072 -35.6908 -35.6653 -35.6611
   -35.6580 -35.6204 -35.6024 -35.5658 -35.5641 -35.5516 -35.5145 -35.4235
   -16.3321  -5.0691  -3.5157  -3.0651  -2.9649  -2.7383  -2.5233  -2.3969
    -2.2729  -1.9792  -1.9240  -1.6277  -1.5439  -1.2962  -1.2270  -1.0791
    -0.9691  -0.8043  -0.3901   0.0427   0.0969   0.1909   0.5578   0.9340
     0.9537   1.0092   1.0837   1.1018   1.3913   1.5276   1.6595   1.7604
     1.8301   1.8929   1.9896   2.1166   2.2885   2.3439   2.4846   2.5295
     2.5541   2.6090   2.6633   2.7697   2.9854   3.1063   3.4700   3.6921
     3.9147

          k = 0.0583-0.0337 0.0000 ( 17708 PWs)   bands (ev):

   -72.0334 -72.0027 -71.9910 -71.8431 -71.8086 -71.7948 -71.7843 -71.7816
   -71.7785 -71.7546 -71.7422 -71.7399 -36.4774 -36.3619 -36.3618 -36.3500
   -36.3269 -36.3097 -36.2875 -36.1797 -36.1702 -36.1462 -36.1096 -36.1016
   -36.0615 -36.0073 -35.9474 -35.9397 -35.8890 -35.8800 -35.8537 -35.8151
   -35.8143 -35.7911 -35.7866 -35.7279 -35.7137 -35.7020 -35.6784 -35.6566
   -35.6417 -35.6371 -35.6298 -35.6174 -35.5560 -35.5519 -35.5175 -35.4289
   -16.3291  -4.8561  -3.4531  -3.1719  -2.7788  -2.7073  -2.5854  -2.1669
    -1.9784  -1.9310  -1.8053  -1.6202  -1.4575  -1.2393  -1.0280  -0.9699
    -0.8669  -0.5874  -0.2981   0.0800   0.0885   0.2002   0.4178   0.7211
     0.8001   0.8392   1.0255   1.1409   1.4509   1.5044   1.5820   1.6834
     1.6997   1.7445   1.8845   2.0478   2.1855   2.2397   2.3030   2.4691
     2.5165   2.5935   2.6323   2.6785   2.7525   3.2680   3.4007   3.5390
     4.0527

          k = 0.0583-0.0000 0.0000 ( 17715 PWs)   bands (ev):

   -72.0363 -71.9998 -71.9913 -71.8473 -71.8044 -71.7944 -71.7879 -71.7822
   -71.7775 -71.7491 -71.7466 -71.7379 -36.4993 -36.3850 -36.3730 -36.3515
   -36.3432 -36.3416 -36.3278 -36.1990 -36.1766 -36.1613 -36.1133 -36.0909
   -36.0875 -36.0040 -35.9588 -35.8944 -35.8847 -35.8602 -35.8536 -35.8435
   -35.8247 -35.7567 -35.7294 -35.7253 -35.7072 -35.6908 -35.6653 -35.6611
   -35.6580 -35.6205 -35.6024 -35.5658 -35.5641 -35.5516 -35.5145 -35.4235
   -16.3321  -5.0691  -3.5157  -3.0651  -2.9649  -2.7383  -2.5233  -2.3969
    -2.2729  -1.9792  -1.9240  -1.6277  -1.5439  -1.2962  -1.2270  -1.0791
    -0.9691  -0.8043  -0.3901   0.0427   0.0969   0.1909   0.5578   0.9340
     0.9537   1.0092   1.0837   1.1018   1.3913   1.5276   1.6595   1.7604
     1.8301   1.8929   1.9896   2.1166   2.2885   2.3439   2.4846   2.5295
     2.5541   2.6090   2.6633   2.7697   2.9854   3.1063   3.4700   3.6921
     3.9147

          k = 0.0583 0.0337 0.0000 ( 17708 PWs)   bands (ev):

   -72.0335 -72.0025 -71.9911 -71.8431 -71.8086 -71.7948 -71.7845 -71.7813
   -71.7786 -71.7547 -71.7419 -71.7401 -36.4775 -36.3619 -36.3619 -36.3498
   -36.3268 -36.3097 -36.2876 -36.1798 -36.1701 -36.1462 -36.1095 -36.1017
   -36.0615 -36.0073 -35.9474 -35.9397 -35.8891 -35.8800 -35.8537 -35.8151
   -35.8144 -35.7911 -35.7867 -35.7279 -35.7136 -35.7020 -35.6783 -35.6567
   -35.6417 -35.6370 -35.6298 -35.6174 -35.5560 -35.5519 -35.5175 -35.4289
   -16.3291  -4.8561  -3.4531  -3.1719  -2.7788  -2.7074  -2.5854  -2.1668
    -1.9784  -1.9310  -1.8053  -1.6202  -1.4575  -1.2393  -1.0280  -0.9700
    -0.8669  -0.5873  -0.2981   0.0800   0.0886   0.2002   0.4178   0.7211
     0.8001   0.8392   1.0255   1.1409   1.4510   1.5044   1.5820   1.6834
     1.6997   1.7444   1.8845   2.0477   2.1855   2.2397   2.3030   2.4691
     2.5165   2.5935   2.6323   2.6785   2.7525   3.2680   3.4008   3.5389
     4.0527

          k = 0.0583-0.1347 0.0000 ( 17692 PWs)   bands (ev):

   -72.0262 -72.0087 -71.9917 -71.8319 -71.8144 -71.8007 -71.7875 -71.7763
   -71.7724 -71.7595 -71.7494 -71.7362 -36.4163 -36.3272 -36.3207 -36.3087
   -36.2710 -36.2585 -36.2148 -36.1662 -36.1479 -36.1306 -36.1046 -36.0956
   -36.0444 -36.0329 -35.9726 -35.9487 -35.9315 -35.8767 -35.8566 -35.8530
   -35.8416 -35.8051 -35.7887 -35.7749 -35.7471 -35.7362 -35.6955 -35.6806
   -35.6698 -35.6541 -35.6233 -35.6028 -35.5906 -35.5809 -35.5212 -35.4700
   -16.3231  -4.2613  -3.4454  -2.9829  -2.7855  -2.6545  -2.3129  -2.1432
    -1.7951  -1.5717  -1.4654  -1.2593  -1.1181  -1.0207  -0.7431  -0.5781
    -0.5134  -0.3807  -0.1736   0.0346   0.0839   0.1831   0.2893   0.3350
     0.5545   0.6362   0.7441   0.8732   1.0494   1.1508   1.2268   1.2686
     1.3433   1.4125   1.5680   1.7763   1.8757   1.9609   2.1182   2.2897
     2.3932   2.6857   2.7106   2.8649   3.3556   3.3654   3.5018   3.5509
     3.7994

          k = 0.0583-0.1011 0.0000 ( 17592 PWs)   bands (ev):

   -72.0171 -72.0169 -71.9922 -71.8196 -71.8175 -71.8109 -71.7887 -71.7737
   -71.7632 -71.7609 -71.7594 -71.7344 -36.3448 -36.3385 -36.2806 -36.2767
   -36.2442 -36.2264 -36.1815 -36.1705 -36.1583 -36.1331 -36.0941 -36.0854
   -36.0431 -36.0271 -36.0044 -35.9331 -35.9273 -35.9223 -35.8883 -35.8565
   -35.8545 -35.8434 -35.8009 -35.7954 -35.7426 -35.7383 -35.6953 -35.6656
   -35.6643 -35.6475 -35.6375 -35.6233 -35.6175 -35.5381 -35.5343 -35.5336
   -16.3201  -3.6018  -3.3482  -3.3418  -2.6516  -2.6461  -2.5697  -1.7885
    -1.7032  -1.4554  -0.9057  -0.8832  -0.7486  -0.7429  -0.6866  -0.5089
    -0.2948  -0.2784  -0.2517  -0.1235  -0.0904   0.0534   0.0878   0.2536
     0.2957   0.4638   0.4794   0.7462   0.7823   0.8643   0.8846   1.0069
     1.1080   1.1426   1.6001   1.6156   1.8124   2.1099   2.1741   2.2091
     2.5363   2.6575   2.7190   3.0337   3.0672   3.0677   3.6340   3.7070
     3.8024

          k = 0.0583-0.0674 0.0000 ( 17692 PWs)   bands (ev):

   -72.0261 -72.0089 -71.9916 -71.8319 -71.8144 -71.8006 -71.7874 -71.7764
   -71.7724 -71.7594 -71.7495 -71.7361 -36.4162 -36.3273 -36.3206 -36.3086
   -36.2711 -36.2586 -36.2148 -36.1662 -36.1478 -36.1305 -36.1047 -36.0955
   -36.0444 -36.0328 -35.9726 -35.9486 -35.9315 -35.8767 -35.8566 -35.8531
   -35.8415 -35.8050 -35.7888 -35.7749 -35.7471 -35.7362 -35.6956 -35.6806
   -35.6698 -35.6540 -35.6232 -35.6028 -35.5905 -35.5810 -35.5212 -35.4700
   -16.3231  -4.2613  -3.4453  -2.9830  -2.7855  -2.6545  -2.3129  -2.1432
    -1.7952  -1.5717  -1.4654  -1.2593  -1.1181  -1.0207  -0.7430  -0.5781
    -0.5134  -0.3807  -0.1735   0.0346   0.0839   0.1831   0.2892   0.3350
     0.5545   0.6363   0.7441   0.8732   1.0493   1.1508   1.2268   1.2685
     1.3433   1.4126   1.5679   1.7763   1.8757   1.9609   2.1182   2.2897
     2.3933   2.6857   2.7106   2.8649   3.3556   3.3653   3.5018   3.5510
     3.7994

          k =-0.0875 0.0505 0.0000 ( 17668 PWs)   bands (ev):

   -72.0256 -72.0100 -71.9910 -71.8270 -71.8234 -71.7964 -71.7821 -71.7816
   -71.7691 -71.7665 -71.7422 -71.7399 -36.4222 -36.3343 -36.3181 -36.3161
   -36.2814 -36.2687 -36.1749 -36.1638 -36.1481 -36.1263 -36.0952 -36.0849
   -36.0637 -36.0326 -35.9764 -35.9183 -35.9074 -35.8997 -35.8635 -35.8398
   -35.8048 -35.8001 -35.7898 -35.7779 -35.7749 -35.7663 -35.7632 -35.6793
   -35.6502 -35.6462 -35.6201 -35.6179 -35.6052 -35.5805 -35.4745 -35.4722
   -16.3231  -4.0450  -3.8883  -3.0122  -2.7233  -2.6456  -2.2297  -1.9364
    -1.6504  -1.5804  -1.4992  -1.4444  -1.2978  -1.0693  -0.6019  -0.5851
    -0.3401  -0.3287  -0.2627  -0.0601   0.2203   0.2623   0.2972   0.3351
     0.5395   0.5612   0.9527   1.0341   1.1880   1.2509   1.2583   1.2929
     1.3473   1.3930   1.5408   1.6348   1.8923   1.9144   1.9745   2.0997
     2.1317   2.7070   2.7632   3.1774   3.2316   3.5126   3.5370   3.5372
     3.7599

          k =-0.0875 0.0842 0.0000 ( 17692 PWs)   bands (ev):

   -72.0261 -72.0089 -71.9916 -71.8319 -71.8144 -71.8006 -71.7874 -71.7764
   -71.7724 -71.7594 -71.7495 -71.7361 -36.4162 -36.3273 -36.3206 -36.3086
   -36.2711 -36.2586 -36.2148 -36.1662 -36.1478 -36.1306 -36.1047 -36.0956
   -36.0444 -36.0328 -35.9726 -35.9486 -35.9315 -35.8767 -35.8566 -35.8531
   -35.8415 -35.8050 -35.7888 -35.7749 -35.7471 -35.7362 -35.6956 -35.6806
   -35.6698 -35.6540 -35.6232 -35.6029 -35.5905 -35.5810 -35.5212 -35.4700
   -16.3231  -4.2613  -3.4453  -2.9829  -2.7855  -2.6545  -2.3129  -2.1432
    -1.7952  -1.5717  -1.4654  -1.2593  -1.1181  -1.0207  -0.7430  -0.5781
    -0.5134  -0.3807  -0.1735   0.0346   0.0839   0.1831   0.2892   0.3350
     0.5545   0.6363   0.7441   0.8732   1.0493   1.1508   1.2268   1.2685
     1.3433   1.4126   1.5679   1.7763   1.8757   1.9609   2.1182   2.2896
     2.3933   2.6857   2.7106   2.8649   3.3556   3.3653   3.5018   3.5510
     3.7994

          k =-0.0875 0.1179 0.0000 ( 17692 PWs)   bands (ev):

   -72.0262 -72.0088 -71.9917 -71.8319 -71.8144 -71.8007 -71.7874 -71.7764
   -71.7724 -71.7595 -71.7494 -71.7362 -36.4163 -36.3272 -36.3206 -36.3088
   -36.2710 -36.2585 -36.2149 -36.1662 -36.1479 -36.1305 -36.1046 -36.0955
   -36.0445 -36.0329 -35.9726 -35.9486 -35.9315 -35.8767 -35.8566 -35.8530
   -35.8416 -35.8051 -35.7887 -35.7750 -35.7471 -35.7363 -35.6955 -35.6806
   -35.6697 -35.6541 -35.6233 -35.6028 -35.5906 -35.5809 -35.5212 -35.4700
   -16.3231  -4.2613  -3.4454  -2.9829  -2.7855  -2.6545  -2.3129  -2.1432
    -1.7951  -1.5717  -1.4654  -1.2593  -1.1181  -1.0207  -0.7430  -0.5781
    -0.5134  -0.3807  -0.1736   0.0346   0.0839   0.1831   0.2892   0.3350
     0.5545   0.6362   0.7441   0.8732   1.0494   1.1508   1.2268   1.2686
     1.3433   1.4126   1.5680   1.7763   1.8757   1.9609   2.1182   2.2897
     2.3932   2.6857   2.7106   2.8649   3.3556   3.3653   3.5018   3.5510
     3.7994

          k =-0.0875-0.0505 0.0000 ( 17668 PWs)   bands (ev):

   -72.0257 -72.0097 -71.9911 -71.8271 -71.8233 -71.7964 -71.7823 -71.7813
   -71.7690 -71.7667 -71.7420 -71.7401 -36.4224 -36.3341 -36.3182 -36.3162
   -36.2813 -36.2686 -36.1750 -36.1638 -36.1480 -36.1265 -36.0950 -36.0846
   -36.0639 -36.0327 -35.9765 -35.9184 -35.9073 -35.8996 -35.8635 -35.8397
   -35.8050 -35.8000 -35.7897 -35.7780 -35.7751 -35.7665 -35.7630 -35.6792
   -35.6501 -35.6462 -35.6203 -35.6180 -35.6052 -35.5803 -35.4743 -35.4724
   -16.3231  -4.0450  -3.8884  -3.0122  -2.7233  -2.6456  -2.2297  -1.9363
    -1.6503  -1.5805  -1.4991  -1.4445  -1.2979  -1.0693  -0.6018  -0.5852
    -0.3402  -0.3287  -0.2626  -0.0602   0.2203   0.2622   0.2973   0.3351
     0.5393   0.5614   0.9527   1.0341   1.1881   1.2509   1.2583   1.2930
     1.3474   1.3929   1.5408   1.6349   1.8923   1.9144   1.9745   2.0995
     2.1317   2.7072   2.7630   3.1774   3.2317   3.5125   3.5370   3.5373
     3.7599

     the Fermi energy is     2.3711 ev

!    total energy              =   -1957.44709630 Ry
     Harris-Foulkes estimate   =   -1957.44709515 Ry
     estimated scf accuracy    <       0.00000286 Ry

     The total energy is the sum of the following terms:

     one-electron contribution =  -15133.00349081 Ry
     hartree contribution      =    7551.97672043 Ry
     xc contribution           =    -517.82693092 Ry
     ewald contribution        =    6141.49995962 Ry
     electric field correction =       0.00001229 Ry
     smearing contrib. (-TS)   =      -0.09336690 Ry

     convergence has been achieved in   9 iterations
 
 BEEF-vdW xc energy contributions
           1 :   -455.475380401580     
           2 :    421.159769718556     
           3 :   -360.795209311220     
           4 :    287.690832309064     
           5 :   -215.635725234476     
           6 :    154.907046243992     
           7 :   -110.104529621868     
           8 :    80.2866389994026     
           9 :   -60.9714221339051     
          10 :    46.8851051681054     
          11 :   -34.2255040005622     
          12 :    21.6360847913180     
          13 :   -9.81820216256318     
          14 :   0.325174894620432     
          15 :    5.69898014354374     
          16 :   -8.24591965907246     
          17 :    8.41276262110125     
          18 :   -7.78414249348555     
          19 :    7.64108717941133     
          20 :   -8.42822923352162     
          21 :    9.72007446002448     
          22 :   -10.6436954673346     
          23 :    10.4829830018496     
          24 :   -9.12596656679938     
          25 :    7.12779736251900     
          26 :   -5.38478294456394     
          27 :    4.62885041992888     
          28 :   -5.03525719716004     
          29 :    6.15182331646577     
          30 :   -7.17317039719893     
          31 :   -41.3250982161652     
          32 :   -30.9051460490317     

     Forces acting on atoms (Ry/au):


     negative rho (up, down):  7.939E-01 0.000E+00
     atom    1 type  1   force =    -0.00145487   -0.00081392   -0.00351452
     atom    2 type  1   force =     0.00145827   -0.00084415   -0.00348010
     atom    3 type  1   force =    -0.00002429    0.00167041   -0.00350061
     atom    4 type  1   force =     0.00002658   -0.00001397   -0.00249578
     atom    5 type  1   force =    -0.00000884    0.00018136    0.00032377
     atom    6 type  1   force =     0.00000501    0.00002161    0.03569144
     atom    7 type  1   force =    -0.00013941   -0.00009797    0.00030138
     atom    8 type  1   force =     0.00013385   -0.00010194    0.00032767
     atom    9 type  1   force =    -0.00001704    0.00000110   -0.03680237
     atom   10 type  1   force =     0.00001776   -0.00884637    0.03692517
     atom   11 type  1   force =    -0.00767266    0.00443462    0.03690542
     atom   12 type  1   force =     0.00766763    0.00441251    0.03692822
     atom   13 type  2   force =     0.00000801   -0.00000329   -0.09760970

     Total force =     0.123314     Total SCF correction =     0.004670


     entering subroutine stress ...


     negative rho (up, down):  7.939E-01 0.000E+00
          total   stress  (Ry/bohr**3)                   (kbar)     P=  -50.75
  -0.00044464   0.00000001  -0.00000001        -65.41      0.00     -0.00
   0.00000001  -0.00044464   0.00000000          0.00    -65.41      0.00
  -0.00000001   0.00000000  -0.00014565         -0.00      0.00    -21.43


     number of scf cycles    =   2
     number of bfgs steps    =   1

     energy   old            =   -1957.4212438445 Ry
     energy   new            =   -1957.4470963022 Ry

     CASE: energy  _new < energy  _old

     new trust radius        =       0.2049323526 bohr
     new conv_thr            =       0.0000001000 Ry


ATOMIC_POSITIONS (crystal)
W1       0.166666667   0.166666667   0.405441099    0   0   0
[...]
    -0.8579  -0.7037  -0.1592   0.1587   0.2323   0.3084   0.7308   0.9250
     1.0812   1.1814   1.2126   1.2894   1.5188   1.6276   1.8295   1.8880
     1.9892   2.0251   2.0994   2.3229   2.3978   2.4626   2.5786   2.6990
     2.7236   2.8012   2.8483   2.9667   3.1957   3.3223   3.6277   3.8205
     4.0397

          k = 0.0583-0.0337 0.0000 ( 17708 PWs)   bands (ev):

   -71.8887 -71.8555 -71.8445 -71.7007 -71.6299 -71.6005 -71.5893 -71.5789
   -71.5738 -71.5583 -71.5482 -71.5215 -36.3936 -36.2231 -36.2165 -36.1974
   -36.1825 -36.1670 -36.1395 -36.0178 -35.9963 -35.9881 -35.9600 -35.9535
   -35.9125 -35.8485 -35.7970 -35.7941 -35.7285 -35.7212 -35.6658 -35.6634
   -35.6489 -35.6232 -35.6136 -35.5562 -35.5503 -35.5154 -35.5008 -35.4776
   -35.4755 -35.4293 -35.4120 -35.3684 -35.3589 -35.3143 -35.2835 -35.2518
   -17.1256  -4.7586  -3.8834  -3.5425  -3.3801  -2.8383  -2.5955  -2.0737
    -1.8598  -1.8310  -1.6856  -1.5463  -1.4129  -1.1284  -0.8845  -0.8691
    -0.7159  -0.5034  -0.0900   0.1602   0.2181   0.3551   0.5881   0.7546
     0.9377   0.9432   1.1601   1.3088   1.5275   1.5635   1.7096   1.8020
     1.8437   1.9612   2.0348   2.2700   2.3282   2.3539   2.5170   2.5439
     2.6780   2.7188   2.8268   2.9441   2.9633   3.4696   3.5782   3.6930
     4.1256

          k = 0.0583-0.0000 0.0000 ( 17715 PWs)   bands (ev):

   -71.8912 -71.8530 -71.8446 -71.7019 -71.6327 -71.5986 -71.5877 -71.5825
   -71.5707 -71.5568 -71.5483 -71.5219 -36.4165 -36.2494 -36.2170 -36.2104
   -36.2060 -36.1853 -36.1750 -36.0327 -36.0068 -35.9928 -35.9642 -35.9503
   -35.9387 -35.8499 -35.7924 -35.7362 -35.7339 -35.7172 -35.6957 -35.6634
   -35.6369 -35.6087 -35.5673 -35.5534 -35.5481 -35.5126 -35.4965 -35.4653
   -35.4269 -35.4053 -35.3956 -35.3840 -35.3500 -35.3161 -35.2807 -35.2478
   -17.1307  -4.9515  -3.8763  -3.6127  -3.4543  -2.8592  -2.4403  -2.3627
    -2.1648  -1.8733  -1.8497  -1.5579  -1.5046  -1.1661  -1.0545  -0.9623
    -0.8579  -0.7037  -0.1592   0.1587   0.2323   0.3084   0.7308   0.9250
     1.0812   1.1814   1.2126   1.2894   1.5188   1.6276   1.8294   1.8880
     1.9892   2.0251   2.0994   2.3229   2.3978   2.4626   2.5786   2.6990
     2.7236   2.8012   2.8483   2.9667   3.1957   3.3223   3.6277   3.8205
     4.0397

          k = 0.0583 0.0337 0.0000 ( 17708 PWs)   bands (ev):

   -71.8887 -71.8555 -71.8445 -71.7007 -71.6299 -71.6005 -71.5893 -71.5789
   -71.5738 -71.5583 -71.5482 -71.5215 -36.3936 -36.2231 -36.2165 -36.1973
   -36.1825 -36.1670 -36.1395 -36.0178 -35.9963 -35.9881 -35.9600 -35.9535
   -35.9125 -35.8485 -35.7970 -35.7941 -35.7285 -35.7212 -35.6658 -35.6634
   -35.6489 -35.6232 -35.6136 -35.5562 -35.5503 -35.5154 -35.5008 -35.4776
   -35.4755 -35.4293 -35.4120 -35.3684 -35.3589 -35.3143 -35.2835 -35.2518
   -17.1256  -4.7586  -3.8834  -3.5425  -3.3801  -2.8383  -2.5955  -2.0737
    -1.8598  -1.8310  -1.6856  -1.5463  -1.4129  -1.1284  -0.8845  -0.8691
    -0.7159  -0.5034  -0.0900   0.1602   0.2181   0.3551   0.5881   0.7546
     0.9377   0.9432   1.1601   1.3088   1.5275   1.5635   1.7096   1.8020
     1.8438   1.9613   2.0348   2.2700   2.3282   2.3539   2.5170   2.5439
     2.6779   2.7188   2.8268   2.9441   2.9633   3.4696   3.5782   3.6931
     4.1256

          k = 0.0583-0.1347 0.0000 ( 17692 PWs)   bands (ev):

   -71.8824 -71.8611 -71.8448 -71.6985 -71.6219 -71.6036 -71.5916 -71.5851
   -71.5695 -71.5623 -71.5482 -71.5208 -36.3293 -36.2050 -36.1715 -36.1582
   -36.1312 -36.1137 -36.0665 -36.0184 -35.9948 -35.9790 -35.9511 -35.9323
   -35.8951 -35.8670 -35.8197 -35.7910 -35.7705 -35.7134 -35.6989 -35.6895
   -35.6665 -35.6419 -35.6116 -35.5926 -35.5770 -35.5468 -35.5328 -35.5084
   -35.4818 -35.4535 -35.4297 -35.3783 -35.3567 -35.3328 -35.3002 -35.2732
   -17.1152  -4.2963  -3.7410  -3.5068  -3.2200  -2.9087  -2.2611  -2.0931
    -1.7240  -1.4546  -1.3277  -1.1901  -1.0485  -0.8748  -0.6315  -0.5171
    -0.3674  -0.3183   0.0030   0.0653   0.2574   0.3069   0.4061   0.4682
     0.6727   0.7252   0.8554   0.9778   1.0853   1.2642   1.3620   1.4461
     1.5167   1.5995   1.7203   1.8781   2.1015   2.1683   2.2380   2.5559
     2.5632   2.8783   2.9451   3.0306   3.4629   3.5584   3.6875   3.7339
     3.9740

          k = 0.0583-0.1011 0.0000 ( 17592 PWs)   bands (ev):

   -71.8775 -71.8654 -71.8451 -71.6974 -71.6137 -71.6052 -71.5998 -71.5847
   -71.5676 -71.5644 -71.5483 -71.5205 -36.2547 -36.2395 -36.1306 -36.1085
   -36.1018 -36.0988 -36.0273 -36.0225 -36.0089 -35.9866 -35.9440 -35.9430
   -35.8649 -35.8580 -35.8546 -35.7659 -35.7643 -35.7540 -35.7168 -35.7001
   -35.6805 -35.6754 -35.6332 -35.6223 -35.5842 -35.5563 -35.5244 -35.4919
   -35.4875 -35.4627 -35.3920 -35.3896 -35.3790 -35.3478 -35.3434 -35.2724
   -17.1101  -4.0613  -3.5585  -3.3544  -3.0902  -2.8406  -2.8225  -1.7018
    -1.6121  -1.3456  -0.8029  -0.7906  -0.7825  -0.6841  -0.5787  -0.3200
    -0.2627  -0.1304  -0.0800   0.0023   0.0370   0.1373   0.3032   0.3086
     0.3857   0.5399   0.6406   0.8381   0.8601   1.0424   1.0574   1.0844
     1.3497   1.4405   1.6106   1.7706   1.7876   2.2989   2.4128   2.4949
     2.6980   2.9396   2.9850   3.1182   3.2358   3.3211   3.8180   3.9764
     4.0401

          k = 0.0583-0.0674 0.0000 ( 17692 PWs)   bands (ev):

   -71.8824 -71.8611 -71.8448 -71.6985 -71.6219 -71.6036 -71.5916 -71.5851
   -71.5695 -71.5623 -71.5482 -71.5208 -36.3293 -36.2050 -36.1715 -36.1582
   -36.1312 -36.1137 -36.0665 -36.0184 -35.9948 -35.9790 -35.9511 -35.9323
   -35.8951 -35.8670 -35.8197 -35.7910 -35.7705 -35.7134 -35.6989 -35.6895
   -35.6665 -35.6419 -35.6116 -35.5926 -35.5770 -35.5468 -35.5328 -35.5084
   -35.4818 -35.4535 -35.4297 -35.3783 -35.3567 -35.3328 -35.3002 -35.2732
   -17.1152  -4.2963  -3.7410  -3.5068  -3.2200  -2.9087  -2.2611  -2.0931
    -1.7240  -1.4546  -1.3277  -1.1901  -1.0485  -0.8748  -0.6315  -0.5171
    -0.3674  -0.3183   0.0030   0.0653   0.2574   0.3069   0.4061   0.4682
     0.6727   0.7251   0.8554   0.9778   1.0853   1.2642   1.3619   1.4461
     1.5167   1.5995   1.7203   1.8781   2.1015   2.1683   2.2380   2.5559
     2.5632   2.8783   2.9451   3.0306   3.4629   3.5584   3.6875   3.7339
     3.9740

          k =-0.0875 0.0505 0.0000 ( 17668 PWs)   bands (ev):

   -71.8822 -71.8616 -71.8445 -71.6985 -71.6205 -71.6090 -71.5879 -71.5790
   -71.5761 -71.5616 -71.5482 -71.5208 -36.3368 -36.1936 -36.1796 -36.1607
   -36.1465 -36.1239 -36.0135 -36.0106 -35.9968 -35.9854 -35.9574 -35.9260
   -35.9035 -35.8860 -35.8327 -35.7553 -35.7542 -35.7310 -35.6945 -35.6513
   -35.6394 -35.6308 -35.6221 -35.6057 -35.6046 -35.5750 -35.5522 -35.5253
   -35.4953 -35.4576 -35.4349 -35.3749 -35.3491 -35.3057 -35.2845 -35.2811
   -17.1153  -4.2522  -3.7696  -3.4627  -3.3169  -3.1253  -2.1772  -1.8655
    -1.5234  -1.4361  -1.3651  -1.3221  -1.2204  -0.9946  -0.5303  -0.4824
    -0.3042  -0.2184  -0.1472   0.1432   0.2190   0.3903   0.4150   0.4916
     0.6990   0.7049   0.9753   1.0990   1.2381   1.3160   1.4196   1.4398
     1.4884   1.5776   1.7053   1.8592   2.0755   2.0782   2.1402   2.4045
     2.5846   2.6849   2.9853   3.2140   3.4759   3.5972   3.6537   3.8407
     3.9278

          k =-0.0875 0.0842 0.0000 ( 17692 PWs)   bands (ev):

   -71.8824 -71.8611 -71.8448 -71.6985 -71.6219 -71.6036 -71.5916 -71.5851
   -71.5695 -71.5623 -71.5482 -71.5208 -36.3293 -36.2050 -36.1715 -36.1582
   -36.1312 -36.1137 -36.0665 -36.0184 -35.9948 -35.9790 -35.9511 -35.9323
   -35.8951 -35.8670 -35.8197 -35.7910 -35.7705 -35.7134 -35.6989 -35.6895
   -35.6665 -35.6419 -35.6116 -35.5926 -35.5770 -35.5468 -35.5328 -35.5084
   -35.4818 -35.4535 -35.4297 -35.3783 -35.3567 -35.3328 -35.3002 -35.2732
   -17.1152  -4.2963  -3.7410  -3.5068  -3.2200  -2.9087  -2.2611  -2.0931
    -1.7240  -1.4546  -1.3277  -1.1901  -1.0485  -0.8748  -0.6315  -0.5171
    -0.3674  -0.3183   0.0030   0.0653   0.2574   0.3069   0.4061   0.4682
     0.6727   0.7252   0.8554   0.9778   1.0853   1.2642   1.3619   1.4461
     1.5167   1.5995   1.7203   1.8781   2.1015   2.1683   2.2380   2.5559
     2.5632   2.8783   2.9451   3.0306   3.4630   3.5584   3.6874   3.7339
     3.9740

          k =-0.0875 0.1179 0.0000 ( 17692 PWs)   bands (ev):

   -71.8824 -71.8611 -71.8448 -71.6985 -71.6219 -71.6036 -71.5916 -71.5851
   -71.5695 -71.5623 -71.5482 -71.5208 -36.3293 -36.2050 -36.1715 -36.1582
   -36.1312 -36.1137 -36.0665 -36.0184 -35.9948 -35.9790 -35.9511 -35.9323
   -35.8951 -35.8670 -35.8197 -35.7910 -35.7705 -35.7134 -35.6989 -35.6895
   -35.6665 -35.6419 -35.6116 -35.5926 -35.5770 -35.5468 -35.5328 -35.5084
   -35.4818 -35.4535 -35.4297 -35.3783 -35.3567 -35.3328 -35.3002 -35.2732
   -17.1152  -4.2963  -3.7410  -3.5068  -3.2200  -2.9087  -2.2611  -2.0931
    -1.7240  -1.4546  -1.3277  -1.1901  -1.0485  -0.8748  -0.6315  -0.5171
    -0.3674  -0.3183   0.0030   0.0653   0.2574   0.3069   0.4061   0.4682
     0.6727   0.7251   0.8554   0.9778   1.0853   1.2642   1.3619   1.4461
     1.5167   1.5995   1.7203   1.8781   2.1015   2.1683   2.2380   2.5559
     2.5632   2.8783   2.9451   3.0306   3.4629   3.5584   3.6874   3.7339
     3.9740

          k =-0.0875-0.0505 0.0000 ( 17668 PWs)   bands (ev):

   -71.8822 -71.8616 -71.8445 -71.6985 -71.6205 -71.6090 -71.5879 -71.5790
   -71.5761 -71.5616 -71.5482 -71.5208 -36.3368 -36.1936 -36.1796 -36.1607
   -36.1465 -36.1239 -36.0135 -36.0106 -35.9968 -35.9854 -35.9574 -35.9260
   -35.9035 -35.8860 -35.8327 -35.7553 -35.7542 -35.7310 -35.6945 -35.6513
   -35.6394 -35.6308 -35.6221 -35.6057 -35.6046 -35.5750 -35.5522 -35.5253
   -35.4953 -35.4576 -35.4349 -35.3749 -35.3491 -35.3057 -35.2845 -35.2811
   -17.1153  -4.2522  -3.7696  -3.4627  -3.3169  -3.1253  -2.1772  -1.8655
    -1.5234  -1.4361  -1.3651  -1.3221  -1.2204  -0.9946  -0.5303  -0.4824
    -0.3042  -0.2184  -0.1472   0.1432   0.2190   0.3903   0.4150   0.4916
     0.6990   0.7049   0.9753   1.0990   1.2381   1.3160   1.4196   1.4398
     1.4884   1.5776   1.7054   1.8592   2.0755   2.0782   2.1402   2.4045
     2.5846   2.6849   2.9853   3.2140   3.4759   3.5972   3.6536   3.8407
     3.9278

     the Fermi energy is     2.5452 ev

!    total energy              =   -1957.47541040 Ry
     Harris-Foulkes estimate   =   -1957.47541048 Ry
     estimated scf accuracy    <       0.00000007 Ry

     The total energy is the sum of the following terms:

     one-electron contribution =  -15264.50781554 Ry
     hartree contribution      =    7618.55030809 Ry
     xc contribution           =    -518.07688936 Ry
     ewald contribution        =    6206.64984457 Ry
     electric field correction =       0.00000987 Ry
     smearing contrib. (-TS)   =      -0.09086804 Ry

     convergence has been achieved in   9 iterations
 
 BEEF-vdW xc energy contributions
           1 :   -455.728379383790     
           2 :    421.477645760816     
           3 :   -361.182331365668     
           4 :    288.083979451859     
           5 :   -215.939388044642     
           6 :    155.040548786993     
           7 :   -110.041444944795     
           8 :    80.0703418306989     
           9 :   -60.6991420789062     
          10 :    46.6661416747460     
          11 :   -34.1323878855087     
          12 :    21.6738567494172     
          13 :   -9.92742099782231     
          14 :   0.415112873883345     
          15 :    5.70362889044532     
          16 :   -8.36724631541182     
          17 :    8.61082222003245     
          18 :   -7.98169150163221     
          19 :    7.76682204585637     
          20 :   -8.45418052875118     
          21 :    9.67359948973848     
          22 :   -10.5897769399362     
          23 :    10.4881312726338     
          24 :   -9.22255384010748     
          25 :    7.29730521144984     
          26 :   -5.56871430858087     
          27 :    4.75988089418524     
          28 :   -5.07211583754406     
          29 :    6.10086183841884     
          30 :   -7.08530635534771     
          31 :   -41.3400222213278     
          32 :   -30.9316466430736     

     Forces acting on atoms (Ry/au):


     negative rho (up, down):  7.914E-01 0.000E+00
     atom    1 type  1   force =    -0.00221431   -0.00127821   -0.00092293
     atom    2 type  1   force =     0.00221416   -0.00127823   -0.00092313
     atom    3 type  1   force =    -0.00000009    0.00255694   -0.00092294
     atom    4 type  1   force =     0.00000001    0.00000010    0.00477309
     atom    5 type  1   force =    -0.00000035    0.01230551   -0.01835530
     atom    6 type  1   force =    -0.00000034    0.00000039    0.05300601
     atom    7 type  1   force =    -0.01065710   -0.00615241   -0.01835532
     atom    8 type  1   force =     0.01065733   -0.00615295   -0.01835685
     atom    9 type  1   force =    -0.00000341    0.00000124    0.00084789
     atom   10 type  1   force =     0.00000357    0.00063191    0.00005670
     atom   11 type  1   force =     0.00054324   -0.00031269    0.00005435
     atom   12 type  1   force =    -0.00054667   -0.00031870    0.00005669
     atom   13 type  2   force =     0.00000397   -0.00000290   -0.00095826

     Total force =     0.001685     Total SCF correction =     0.000880
     SCF correction compared to forces is large: reduce conv_thr to get better values


     entering subroutine stress ...


     negative rho (up, down):  7.914E-01 0.000E+00
          total   stress  (Ry/bohr**3)                   (kbar)     P=  -39.69
  -0.00036196  -0.00000000   0.00000000        -53.25     -0.00      0.00
  -0.00000000  -0.00036196  -0.00000000         -0.00    -53.25     -0.00
   0.00000000  -0.00000000  -0.00008556          0.00     -0.00    -12.59


     bfgs converged in   9 scf cycles and   8 bfgs steps
     (criteria: energy <  1.0E+00, force <  1.9E-03)

     End of BFGS Geometry Optimization

     Final energy   =   -1957.4754103974 Ry
Begin final coordinates

ATOMIC_POSITIONS (crystal)
W1       0.166666667   0.166666667   0.405441099    0   0   0
W1       0.666666667   0.166666667   0.405441099    0   0   0
W1       0.166666667   0.666666667   0.405441099    0   0   0
W1       0.666666667   0.666666667   0.405441099    0   0   0
W1       0.833333333   0.333333333   0.500000000    0   0   0
W1       0.333333333   0.333333333   0.500000000    0   0   0
W1       0.833333333   0.833333333   0.500000000    0   0   0
W1       0.333333333   0.833333333   0.500000000    0   0   0
W1       0.000002176  -0.000001892   0.585309180
W1       0.503642422  -0.007286095   0.596587179
W1      -0.007283419   0.503640864   0.596587250
W1       0.503643034   0.503642329   0.596587184
O1       0.333331404   0.333333997   0.644062118
End final coordinates



     Writing output data file calc.save
 
     init_run     :     15.41s CPU     15.91s WALL (       1 calls)
     electrons    :   3452.36s CPU   3639.27s WALL (       9 calls)
     update_pot   :     21.75s CPU     23.14s WALL (       8 calls)
     forces       :    231.63s CPU    241.59s WALL (       9 calls)
     stress       :    741.93s CPU    766.41s WALL (       9 calls)

     Called by init_run:
     wfcinit      :      5.29s CPU      5.40s WALL (       1 calls)
     potinit      :      1.76s CPU      1.92s WALL (       1 calls)

     Called by electrons:
     c_bands      :   1200.92s CPU   1251.57s WALL (     104 calls)
     sum_band     :    801.10s CPU    841.81s WALL (     104 calls)
     v_of_rho     :    165.83s CPU    185.46s WALL (     112 calls)
     newd         :    888.00s CPU    899.41s WALL (     112 calls)
     mix_rho      :      6.04s CPU      6.16s WALL (     104 calls)
     vdW_energy   :     89.57s CPU     99.64s WALL (     436 calls)
     vdW_ffts     :    224.50s CPU    236.39s WALL (     890 calls)
     vdW_v        :     86.84s CPU     91.15s WALL (     436 calls)

     Called by c_bands:
     init_us_2    :      8.93s CPU      8.94s WALL (    1135 calls)
     cegterg      :   1073.56s CPU   1090.47s WALL (     520 calls)

     Called by *egterg:
     h_psi        :    708.59s CPU    722.06s WALL (    2446 calls)
     s_psi        :     80.87s CPU     81.02s WALL (    2446 calls)
     g_psi        :      3.76s CPU      3.82s WALL (    1921 calls)
     cdiaghg      :     92.32s CPU     92.92s WALL (    2396 calls)

     Called by h_psi:
     add_vuspsi   :     82.62s CPU     82.82s WALL (    2446 calls)

     General routines
     calbec       :    127.15s CPU    129.00s WALL (    3056 calls)
     fft          :    365.44s CPU    403.32s WALL (   26331 calls)
     ffts         :      0.37s CPU      0.41s WALL (     216 calls)
     fftw         :    408.61s CPU    419.79s WALL (  315880 calls)
     interpolate  :      3.72s CPU      3.82s WALL (     216 calls)
     davcio       :      0.00s CPU      0.03s WALL (       5 calls)
 
     Parallel routines
     fft_scatter  :    443.78s CPU    493.04s WALL (  342427 calls)
 
     PWSCF        :     1h15m CPU        1h19m WALL

 
   This run was terminated on:   6:39:27   3May2018            

=------------------------------------------------------------------------------=
   JOB DONE.
=------------------------------------------------------------------------------=
Job  /afs/slac/g/suncat/bin/suncat-tsmpirun -x LD_LIBRARY_PATH -wdir /scratch/qe628576_YKMqD pw.x -npool 4 -in pw.inp

TID   HOST_NAME   COMMAND_LINE            STATUS            TERMINATION_TIME
===== ========== ================  =======================  ===================
00000 suncat0018 pw.x -npool 4 -i  Done                     05/03/2018 06:39:27
00001 suncat0018 pw.x -npool 4 -i  Done                     05/03/2018 06:39:27
00002 suncat0018 pw.x -npool 4 -i  Done                     05/03/2018 06:39:27
00003 suncat0018 pw.x -npool 4 -i  Done                     05/03/2018 06:39:27
00004 suncat0018 pw.x -npool 4 -i  Done                     05/03/2018 06:39:27
00005 suncat0018 pw.x -npool 4 -i  Done                     05/03/2018 06:39:27
00006 suncat0018 pw.x -npool 4 -i  Done                     05/03/2018 06:39:27
00007 suncat0018 pw.x -npool 4 -i  Done                     05/03/2018 06:39:27
00008 suncat0017 pw.x -npool 4 -i  Done                     05/03/2018 06:39:27
00009 suncat0017 pw.x -npool 4 -i  Done                     05/03/2018 06:39:27
00010 suncat0017 pw.x -npool 4 -i  Done                     05/03/2018 06:39:27
00011 suncat0017 pw.x -npool 4 -i  Done                     05/03/2018 06:39:27
00012 suncat0017 pw.x -npool 4 -i  Done                     05/03/2018 06:39:27
00013 suncat0017 pw.x -npool 4 -i  Done                     05/03/2018 06:39:27
00014 suncat0017 pw.x -npool 4 -i  Done                     05/03/2018 06:39:27
00015 suncat0017 pw.x -npool 4 -i  Done                     05/03/2018 06:39:27
00016 suncat0005 pw.x -npool 4 -i  Done                     05/03/2018 06:39:27
00017 suncat0005 pw.x -npool 4 -i  Done                     05/03/2018 06:39:27
00018 suncat0005 pw.x -npool 4 -i  Done                     05/03/2018 06:39:27
00019 suncat0005 pw.x -npool 4 -i  Done                     05/03/2018 06:39:27
00020 suncat0005 pw.x -npool 4 -i  Done                     05/03/2018 06:39:27
00021 suncat0005 pw.x -npool 4 -i  Done                     05/03/2018 06:39:27
00022 suncat0005 pw.x -npool 4 -i  Done                     05/03/2018 06:39:27
00023 suncat0005 pw.x -npool 4 -i  Done                     05/03/2018 06:39:27
00024 suncat0004 pw.x -npool 4 -i  Done                     05/03/2018 06:39:27
00025 suncat0004 pw.x -npool 4 -i  Done                     05/03/2018 06:39:27
00026 suncat0004 pw.x -npool 4 -i  Done                     05/03/2018 06:39:27
00027 suncat0004 pw.x -npool 4 -i  Done                     05/03/2018 06:39:27
00028 suncat0004 pw.x -npool 4 -i  Done                     05/03/2018 06:39:27
00029 suncat0004 pw.x -npool 4 -i  Done                     05/03/2018 06:39:27
00030 suncat0004 pw.x -npool 4 -i  Done                     05/03/2018 06:39:27
00031 suncat0004 pw.x -npool 4 -i  Done                     05/03/2018 06:39:27
