  python dir          : /home/mamunm/src/espresso
  espresso dir        : /home/vossj/suncat/esdld/espresso-dynpy-beef/bin
  pseudo dir          : /home/mamunm/src/pseudo/gbrv1.5pbe
  ase-espresso py git : GITVERSION



     Program PWSCF v.5.1rc2 (svn rev. ) starts on 17Apr2018 at 23:17:24 

     This program is part of the open-source Quantum ESPRESSO suite
     for quantum simulation of materials; please cite
         "P. Giannozzi et al., J. Phys.:Condens. Matter 21 395502 (2009);
          URL http://www.quantum-espresso.org", 
     in publications or presentations arising from this work. More details at
     http://www.quantum-espresso.org/quote

     Parallel version (MPI), running on    16 processors
     R & G space division:  proc/nbgrp/npool/nimage =      16
     Reading input from pw.inp
     Message from routine read_cards :
     DEPRECATED: no units specified in CELL_PARAMETERS card

     Current dimensions of program PWSCF are:
     Max number of different atomic species (ntypx) = 10
     Max number of k-points (npk) =  40000
     Max angular momentum in pseudopotentials (lmaxx) =  3
     Presently stress not available with electric field


     **************************************************************************
     Initializing libbeef V0.1.1 with the BEEF-vdW functional.
     Citation: Wellendorff et al., PRB 85, 235149 (2012).
     **************************************************************************


     IMPORTANT: XC functional enforced from input :
     Exchange-correlation      = BEEF-VDW ( 1  4 27 13 2)
     Any further DFT definition will be discarded
     Please, verify this is what you really want


     Subspace diagonalization in iterative solution of the eigenvalue problem:
     a serial algorithm will be used

 
     Parallelization info
     --------------------
     sticks:   dense  smooth     PW     G-vecs:    dense   smooth      PW
     Min         208      84     23                40204    10170    1567
     Max         209      85     24                40221    10198    1586
     Sum        3343    1345    379               643481   162939   25279
 


     bravais-lattice index     =            0
     lattice parameter (alat)  =       1.8897  a.u.
     unit-cell volume          =    5409.9593 (a.u.)^3
     number of atoms/cell      =           14
     number of atomic types    =            3
     number of electrons       =       234.00
     number of Kohn-Sham states=          127
     kinetic-energy cutoff     =      36.7493  Ry
     charge density cutoff     =     367.4932  Ry
     convergence threshold     =      1.0E-05
     mixing beta               =       0.3000
     number of iterations used =           10  plain     mixing
     Exchange-correlation      = BEEF-VDW ( 1  4 27 13 2)
     nstep                     =           50


     celldm(1)=   1.889726  celldm(2)=   0.000000  celldm(3)=   0.000000
     celldm(4)=   0.000000  celldm(5)=   0.000000  celldm(6)=   0.000000

     crystal axes: (cart. coord. in units of alat)
               a(1) = (   6.088539   0.000000   0.000000 )  
               a(2) = (   3.044269   5.272829   0.000000 )  
               a(3) = (   0.000000   0.000000  24.971271 )  

     reciprocal axes: (cart. coord. in units 2 pi/alat)
               b(1) = (  0.164243 -0.094826  0.000000 )  
               b(2) = (  0.000000  0.189652  0.000000 )  
               b(3) = (  0.000000  0.000000  0.040046 )  


     PseudoPot. # 1 for Ga read from file:
     /home/mamunm/src/pseudo/gbrv1.5pbe/Ga.UPF
     MD5 check sum: ccd671392a58a050fbb373893b4fcd66
     Pseudo is Ultrasoft + core correction, Zval = 19.0
     Generated by new atomic code, or converted to UPF format
     Using radial grid of  871 points,  6 beta functions with: 
                l(1) =   0
                l(2) =   0
                l(3) =   1
                l(4) =   1
                l(5) =   2
                l(6) =   2
     Q(r) pseudized with  8 coefficients,  rinner =    1.250   1.250   1.250
                                                       1.250   1.250

     PseudoPot. # 2 for N  read from file:
     /home/mamunm/src/pseudo/gbrv1.5pbe/N.UPF
     MD5 check sum: 95339753478d7afb44899504a8723017
     Pseudo is Ultrasoft + core correction, Zval =  5.0
     Generated by new atomic code, or converted to UPF format
     Using radial grid of  729 points,  4 beta functions with: 
                l(1) =   0
                l(2) =   0
                l(3) =   1
                l(4) =   1
     Q(r) pseudized with  8 coefficients,  rinner =    0.900   0.900   0.900


     PseudoPot. # 3 for H  read from file:
     /home/mamunm/src/pseudo/gbrv1.5pbe/H.UPF
     MD5 check sum: 761ae9a214b05c3daf00ab9f6b793d6f
     Pseudo is Ultrasoft, Zval =  1.0
     Generated by new atomic code, or converted to UPF format
     Using radial grid of  615 points,  2 beta functions with: 
                l(1) =   0
                l(2) =   0
     Q(r) pseudized with  8 coefficients,  rinner =    0.700

     vdW kernel table read from file vdW_kernel_table
     MD5 check sum: 095c7af220d748ca6e76c0b4c6cfb241

     atomic species   valence    mass     pseudopotential
        Ga1           19.00    69.72300     Ga( 1.00)
        N1             5.00    14.00700     N ( 1.00)
        H1             1.00     1.00800     H ( 1.00)

     No symmetry found



   Cartesian axes

     site n.     atom                  positions (alat units)
         1           Ga1 tau(   1) = (   1.5221346   0.8788048  10.0000000  )
         2           Ga1 tau(   2) = (   4.5664039   0.8788048  10.0000000  )
         3           Ga1 tau(   3) = (   3.0442693   3.5152194  10.0000000  )
         4           Ga1 tau(   4) = (   6.0885386   3.5152194  10.0000000  )
         5           Ga1 tau(   5) = (   6.0885386   1.7576097  12.4856355  )
         6           Ga1 tau(   6) = (   3.0442693   1.7576097  12.4856355  )
         7           Ga1 tau(   7) = (   7.6106732   4.3940242  12.4856355  )
         8           Ga1 tau(   8) = (   4.5664039   4.3940242  12.4856355  )
         9           Ga1 tau(   9) = (   0.0000000   0.0000000  14.9712709  )
        10           Ga1 tau(  10) = (   3.0442693   0.0000000  14.9712709  )
        11           Ga1 tau(  11) = (   1.5221346   2.6364145  14.9712709  )
        12           Ga1 tau(  12) = (   4.5664039   2.6364145  14.9712709  )
        13           N1  tau(  13) = (   3.0442693   1.7576097  16.2257709  )
        14           H1  tau(  14) = (   3.0442693   1.7576097  17.2757709  )

     number of k points=    20  Fermi-Dirac smearing, width (Ry)=  0.0110
                       cart. coord. in units 2pi/alat
        k(    1) = (   0.0000000   0.0000000   0.0000000), wk =   0.0555556
        k(    2) = (   0.0000000   0.0316086   0.0000000), wk =   0.1111111
        k(    3) = (   0.0000000   0.0632172   0.0000000), wk =   0.1111111
        k(    4) = (   0.0000000  -0.0948258   0.0000000), wk =   0.0555556
        k(    5) = (   0.0273738  -0.0158043   0.0000000), wk =   0.1111111
        k(    6) = (   0.0273738   0.0158043   0.0000000), wk =   0.1111111
        k(    7) = (   0.0273738   0.0474129   0.0000000), wk =   0.1111111
        k(    8) = (   0.0273738  -0.1106300   0.0000000), wk =   0.1111111
        k(    9) = (   0.0273738  -0.0790215   0.0000000), wk =   0.1111111
        k(   10) = (   0.0273738  -0.0474129   0.0000000), wk =   0.1111111
        k(   11) = (   0.0547477  -0.0316086   0.0000000), wk =   0.1111111
        k(   12) = (   0.0547477   0.0000000   0.0000000), wk =   0.1111111
        k(   13) = (   0.0547477   0.0316086   0.0000000), wk =   0.1111111
        k(   14) = (   0.0547477  -0.1264343   0.0000000), wk =   0.1111111
        k(   15) = (   0.0547477  -0.0948258   0.0000000), wk =   0.1111111
        k(   16) = (   0.0547477  -0.0632172   0.0000000), wk =   0.1111111
        k(   17) = (  -0.0821215   0.0474129   0.0000000), wk =   0.0555556
        k(   18) = (  -0.0821215   0.0790215   0.0000000), wk =   0.1111111
        k(   19) = (  -0.0821215   0.1106300   0.0000000), wk =   0.1111111
        k(   20) = (  -0.0821215  -0.0474129   0.0000000), wk =   0.0555556

     Dense  grid:   643481 G-vectors     FFT dimensions: (  72,  72, 288)

     Smooth grid:   162939 G-vectors     FFT dimensions: (  45,  45, 192)

     Largest allocated arrays     est. size (Mb)     dimensions
        Kohn-Sham Wavefunctions         2.52 Mb     (    1300,  127)
        NL pseudopotentials             4.48 Mb     (    1300,  226)
        Each V/rho on FFT grid          1.42 Mb     (   93312)
        Each G-vector array             0.31 Mb     (   40221)
        G-vector shells                 0.12 Mb     (   15526)
     Largest temporary arrays     est. size (Mb)     dimensions
        Auxiliary wavefunctions        10.08 Mb     (    1300,  508)
        Each subspace H/S matrix        3.94 Mb     (     508,  508)
        Each <psi_i|beta_j> matrix      0.44 Mb     (     226,  127)
        Arrays for rho mixing          14.24 Mb     (   93312,   10)

     Initial potential from superposition of free atoms
     Check: negative starting charge=   -0.001134

     starting charge  221.99997, renormalised to  234.00000

     negative rho (up, down):  1.195E-03 0.000E+00


     ************************************************************************
     *
     * You are using vdW-DF for exchange-correlation in this calculation.
     * Please cite the following three references that made this development
     * possible:
     *
     *   M. Dion, H. Rydberg, E. Schroder, D. C. Langreth, and
     *   B. I. Lundqvist, Phys. Rev. Lett. 92, 246401 (2004).
     *
     *   T. Thonhauser, V. R. Cooper, S. Li, A. Puzder, P. Hyldgaard, and
     *   D. C. Langreth, Phys. Rev. B 76, 125112 (2007).
     *
     *   G. Roman-Perez and J. M. Soler, Phys. Rev. Lett. 103, 096102 (2009).
     *
     *
     * If you are using vdW-DF2, please also cite:
     *
     *   K. Lee, E. D. Murray, L. Kong, B. I. Lundqvist, and
     *   D. C. Langreth, Phys. Rev. B 82, 081101(R) (2010).
     *
     *
     * If you are calculating the stress with vdW-DF, please also cite:
     *
     *   R. Sabatini, E. Kucukbenli, B. Kolb, T. Thonhauser, and
     *   S. de Gironcoli, J. Phys.: Condens. Matter 24, 424209 (2012).
     *
     ************************************************************************

     Carrying out vdW-DF run using the following parameters:

     Nqs =      20    Nr_points =    1024   r_max =   100.000
     q_mesh =
               0.00001000     0.04494208     0.09755937     0.15916263
               0.23128650     0.31572767     0.41458969     0.53033537
               0.66584808     0.82450364     1.01025438     1.22772762
               1.48234092     1.78043706     2.12944203     2.53805004
               3.01644009     3.57652955     4.23227104     5.00000000

     Gradients computed in reciprocal space

     ************************************************************************


 
     Adding external electric field

     Computed dipole along edir(3) : 
        Dipole               -2.3994 Ry au,         -6.0986 Debye
        Dipole field         -0.0056 Ry au
 
        Potential amp.        0.5128 Ry
        Total length         46.0091 bohr
 
     Starting wfc are  149 randomized atomic wfcs

     total cpu time spent up to now is        9.7 secs

     Self-consistent Calculation

     iteration #  1     ecut=    36.75 Ry     beta=0.30
     Davidson diagonalization with overlap
     ethr =  1.00E-02,  avg # of iterations =  7.0

     negative rho (up, down):  3.615E-06 0.000E+00
 
     Adding external electric field

     Computed dipole along edir(3) : 
        Dipole               76.1774 Ry au,        193.6235 Debye
        Dipole field          0.1769 Ry au
 
        Potential amp.      -16.2823 Ry
        Total length         46.0091 bohr
 

     total cpu time spent up to now is       49.5 secs

     total energy              =   -4742.81431953 Ry
     Harris-Foulkes estimate   =   -5032.10855757 Ry
     estimated scf accuracy    <     610.04480175 Ry

     iteration #  2     ecut=    36.75 Ry     beta=0.30
     Davidson diagonalization with overlap
     c_bands:  1 eigenvalues not converged
     c_bands:  1 eigenvalues not converged
     c_bands:  2 eigenvalues not converged
     ethr =  1.00E-02,  avg # of iterations = 19.1
 
     Adding external electric field

     Computed dipole along edir(3) : 
        Dipole               18.6595 Ry au,         47.4276 Debye
        Dipole field          0.0433 Ry au
 
        Potential amp.       -3.9883 Ry
        Total length         46.0091 bohr
 

     total cpu time spent up to now is      141.4 secs

     total energy              =   -4589.53034215 Ry
     Harris-Foulkes estimate   =   -5741.06058108 Ry
     estimated scf accuracy    <   20610.09499420 Ry

     iteration #  3     ecut=    36.75 Ry     beta=0.30
     Davidson diagonalization with overlap
     ethr =  1.00E-02,  avg # of iterations =  9.2
 
     Adding external electric field

     Computed dipole along edir(3) : 
        Dipole               22.2754 Ry au,         56.6185 Debye
        Dipole field          0.0517 Ry au
 
        Potential amp.       -4.7612 Ry
        Total length         46.0091 bohr
 

     total cpu time spent up to now is      191.7 secs

     total energy              =   -4895.30900695 Ry
     Harris-Foulkes estimate   =   -5140.76615965 Ry
     estimated scf accuracy    <    2621.37384906 Ry

     iteration #  4     ecut=    36.75 Ry     beta=0.30
     Davidson diagonalization with overlap
     ethr =  1.00E-02,  avg # of iterations =  6.0
 
     Adding external electric field

     Computed dipole along edir(3) : 
        Dipole               16.9306 Ry au,         43.0333 Debye
        Dipole field          0.0393 Ry au
 
        Potential amp.       -3.6188 Ry
        Total length         46.0091 bohr
 

     total cpu time spent up to now is      229.1 secs

     total energy              =   -5026.50160497 Ry
     Harris-Foulkes estimate   =   -5039.89031822 Ry
     estimated scf accuracy    <      37.44347323 Ry

     iteration #  5     ecut=    36.75 Ry     beta=0.30
     Davidson diagonalization with overlap
     ethr =  1.00E-02,  avg # of iterations =  2.0
 
     Adding external electric field

     Computed dipole along edir(3) : 
        Dipole               11.2908 Ry au,         28.6983 Debye
        Dipole field          0.0262 Ry au
 
        Potential amp.       -2.4133 Ry
        Total length         46.0091 bohr
 

     total cpu time spent up to now is      248.2 secs

     total energy              =   -5021.96178072 Ry
     Harris-Foulkes estimate   =   -5028.48087919 Ry
     estimated scf accuracy    <      19.92766390 Ry

     iteration #  6     ecut=    36.75 Ry     beta=0.30
     Davidson diagonalization with overlap
     ethr =  8.52E-03,  avg # of iterations =  2.0
 
     Adding external electric field

     Computed dipole along edir(3) : 
        Dipole                8.0543 Ry au,         20.4720 Debye
        Dipole field          0.0187 Ry au
 
        Potential amp.       -1.7215 Ry
        Total length         46.0091 bohr
 

     total cpu time spent up to now is      267.5 secs

     total energy              =   -5021.33587787 Ry
     Harris-Foulkes estimate   =   -5022.99570209 Ry
     estimated scf accuracy    <       6.88898479 Ry

     iteration #  7     ecut=    36.75 Ry     beta=0.30
     Davidson diagonalization with overlap
     ethr =  2.94E-03,  avg # of iterations =  2.4

     negative rho (up, down):  1.851E-02 0.000E+00
 
     Adding external electric field

     Computed dipole along edir(3) : 
        Dipole                6.9879 Ry au,         17.7615 Debye
        Dipole field          0.0162 Ry au
 
        Potential amp.       -1.4936 Ry
        Total length         46.0091 bohr
 

     total cpu time spent up to now is      286.8 secs

     total energy              =   -5021.18562670 Ry
     Harris-Foulkes estimate   =   -5021.58415527 Ry
     estimated scf accuracy    <       3.15467299 Ry

     iteration #  8     ecut=    36.75 Ry     beta=0.30
     Davidson diagonalization with overlap
     ethr =  1.35E-03,  avg # of iterations =  3.4

     negative rho (up, down):  5.899E-02 0.000E+00
 
     Adding external electric field

     Computed dipole along edir(3) : 
        Dipole                2.8687 Ry au,          7.2916 Debye
        Dipole field          0.0067 Ry au
 
        Potential amp.       -0.6132 Ry
        Total length         46.0091 bohr
 

     total cpu time spent up to now is      306.5 secs

     total energy              =   -5020.54576243 Ry
     Harris-Foulkes estimate   =   -5021.34379118 Ry
     estimated scf accuracy    <       2.20301635 Ry

     iteration #  9     ecut=    36.75 Ry     beta=0.30
     Davidson diagonalization with overlap
     ethr =  9.41E-04,  avg # of iterations =  6.4

     negative rho (up, down):  9.152E-02 0.000E+00
 
     Adding external electric field

     Computed dipole along edir(3) : 
        Dipole                0.7607 Ry au,          1.9335 Debye
        Dipole field          0.0018 Ry au
 
        Potential amp.       -0.1626 Ry
        Total length         46.0091 bohr
 

     total cpu time spent up to now is      331.0 secs

     total energy              =   -5020.47974608 Ry
     Harris-Foulkes estimate   =   -5020.65910998 Ry
     estimated scf accuracy    <       0.46690303 Ry

     iteration # 10     ecut=    36.75 Ry     beta=0.30
     Davidson diagonalization with overlap
     ethr =  2.00E-04,  avg # of iterations =  7.3

     negative rho (up, down):  7.335E-02 0.000E+00
 
     Adding external electric field

     Computed dipole along edir(3) : 
        Dipole                1.2456 Ry au,          3.1660 Debye
        Dipole field          0.0029 Ry au
 
        Potential amp.       -0.2662 Ry
        Total length         46.0091 bohr
 

     total cpu time spent up to now is      362.6 secs

     total energy              =   -5020.55824397 Ry
     Harris-Foulkes estimate   =   -5020.63745896 Ry
     estimated scf accuracy    <       0.84373548 Ry

     iteration # 11     ecut=    36.75 Ry     beta=0.30
     Davidson diagonalization with overlap
     ethr =  2.00E-04,  avg # of iterations =  5.2

     negative rho (up, down):  1.269E-01 0.000E+00
 
     Adding external electric field

     Computed dipole along edir(3) : 
        Dipole                0.3678 Ry au,          0.9349 Debye
        Dipole field          0.0009 Ry au
 
        Potential amp.       -0.0786 Ry
        Total length         46.0091 bohr
 

     total cpu time spent up to now is      385.3 secs

     total energy              =   -5020.54311208 Ry
     Harris-Foulkes estimate   =   -5020.59031178 Ry
     estimated scf accuracy    <       0.18585399 Ry

     iteration # 12     ecut=    36.75 Ry     beta=0.30
     Davidson diagonalization with overlap
     ethr =  7.94E-05,  avg # of iterations =  5.6

     negative rho (up, down):  5.981E-02 0.000E+00
 
     Adding external electric field

     Computed dipole along edir(3) : 
        Dipole                0.7159 Ry au,          1.8197 Debye
        Dipole field          0.0017 Ry au
 
        Potential amp.       -0.1530 Ry
        Total length         46.0091 bohr
 

     total cpu time spent up to now is      411.5 secs

     total energy              =   -5020.55430108 Ry
     Harris-Foulkes estimate   =   -5020.56916174 Ry
     estimated scf accuracy    <       0.04600444 Ry

     iteration # 13     ecut=    36.75 Ry     beta=0.30
     Davidson diagonalization with overlap
     ethr =  1.97E-05,  avg # of iterations =  8.0

     negative rho (up, down):  5.989E-02 0.000E+00
 
     Adding external electric field

     Computed dipole along edir(3) : 
        Dipole                0.5420 Ry au,          1.3776 Debye
        Dipole field          0.0013 Ry au
 
        Potential amp.       -0.1158 Ry
        Total length         46.0091 bohr
 

     total cpu time spent up to now is      438.7 secs

     total energy              =   -5020.55631355 Ry
     Harris-Foulkes estimate   =   -5020.56019593 Ry
     estimated scf accuracy    <       0.01992683 Ry

     iteration # 14     ecut=    36.75 Ry     beta=0.30
     Davidson diagonalization with overlap
     ethr =  8.52E-06,  avg # of iterations =  6.4

     negative rho (up, down):  3.779E-02 0.000E+00
 
     Adding external electric field

     Computed dipole along edir(3) : 
        Dipole                0.4324 Ry au,          1.0990 Debye
        Dipole field          0.0010 Ry au
 
        Potential amp.       -0.0924 Ry
        Total length         46.0091 bohr
 

     total cpu time spent up to now is      463.2 secs

     total energy              =   -5020.55422224 Ry
     Harris-Foulkes estimate   =   -5020.55768155 Ry
     estimated scf accuracy    <       0.00593176 Ry

     iteration # 15     ecut=    36.75 Ry     beta=0.30
     Davidson diagonalization with overlap
     ethr =  2.53E-06,  avg # of iterations =  8.3

     negative rho (up, down):  2.381E-02 0.000E+00
 
     Adding external electric field

     Computed dipole along edir(3) : 
        Dipole                0.2761 Ry au,          0.7017 Debye
        Dipole field          0.0006 Ry au
 
        Potential amp.       -0.0590 Ry
        Total length         46.0091 bohr
 

     total cpu time spent up to now is      492.0 secs

     total energy              =   -5020.55355492 Ry
     Harris-Foulkes estimate   =   -5020.55506966 Ry
     estimated scf accuracy    <       0.00408886 Ry

     iteration # 16     ecut=    36.75 Ry     beta=0.30
     Davidson diagonalization with overlap
     ethr =  1.75E-06,  avg # of iterations =  9.3

     negative rho (up, down):  8.815E-03 0.000E+00
 
     Adding external electric field

     Computed dipole along edir(3) : 
        Dipole                0.1521 Ry au,          0.3866 Debye
        Dipole field          0.0004 Ry au
 
        Potential amp.       -0.0325 Ry
        Total length         46.0091 bohr
 

     total cpu time spent up to now is      518.5 secs

     total energy              =   -5020.55268061 Ry
     Harris-Foulkes estimate   =   -5020.55377390 Ry
     estimated scf accuracy    <       0.00228926 Ry

     iteration # 17     ecut=    36.75 Ry     beta=0.30
     Davidson diagonalization with overlap
     ethr =  9.78E-07,  avg # of iterations =  8.1

     negative rho (up, down):  3.434E-03 0.000E+00
 
     Adding external electric field

     Computed dipole along edir(3) : 
        Dipole                0.1205 Ry au,          0.3064 Debye
        Dipole field          0.0003 Ry au
 
        Potential amp.       -0.0258 Ry
        Total length         46.0091 bohr
 

     total cpu time spent up to now is      543.8 secs

     total energy              =   -5020.55263237 Ry
     Harris-Foulkes estimate   =   -5020.55282815 Ry
     estimated scf accuracy    <       0.00012893 Ry

     iteration # 18     ecut=    36.75 Ry     beta=0.30
     Davidson diagonalization with overlap
     ethr =  5.51E-08,  avg # of iterations =  6.0

     negative rho (up, down):  1.358E-03 0.000E+00
 
     Adding external electric field

     Computed dipole along edir(3) : 
        Dipole                0.0918 Ry au,          0.2333 Debye
        Dipole field          0.0002 Ry au
 
        Potential amp.       -0.0196 Ry
        Total length         46.0091 bohr
 

     total cpu time spent up to now is      569.0 secs

     total energy              =   -5020.55262264 Ry
     Harris-Foulkes estimate   =   -5020.55266555 Ry
     estimated scf accuracy    <       0.00002712 Ry

     iteration # 19     ecut=    36.75 Ry     beta=0.30
     Davidson diagonalization with overlap
     ethr =  1.16E-08,  avg # of iterations =  4.3

     negative rho (up, down):  1.152E-03 0.000E+00

     negative rho (up, down):  1.152E-03 0.000E+00

     negative rho (up, down):  1.152E-03 0.000E+00

     negative rho (up, down):  1.152E-03 0.000E+00

     negative rho (up, down):  1.152E-03 0.000E+00

     negative rho (up, down):  1.152E-03 0.000E+00

     negative rho (up, down):  1.152E-03 0.000E+00

     negative rho (up, down):  1.152E-03 0.000E+00

     negative rho (up, down):  1.152E-03 0.000E+00

     negative rho (up, down):  1.152E-03 0.000E+00

     negative rho (up, down):  1.152E-03 0.000E+00

     negative rho (up, down):  1.152E-03 0.000E+00

     negative rho (up, down):  1.152E-03 0.000E+00

     negative rho (up, down):  1.152E-03 0.000E+00

     negative rho (up, down):  1.152E-03 0.000E+00

     negative rho (up, down):  1.152E-03 0.000E+00

     negative rho (up, down):  1.152E-03 0.000E+00

     negative rho (up, down):  1.152E-03 0.000E+00

     negative rho (up, down):  1.152E-03 0.000E+00

     negative rho (up, down):  1.152E-03 0.000E+00

     negative rho (up, down):  1.152E-03 0.000E+00

     negative rho (up, down):  1.152E-03 0.000E+00

     negative rho (up, down):  1.152E-03 0.000E+00

     negative rho (up, down):  1.152E-03 0.000E+00

     negative rho (up, down):  1.152E-03 0.000E+00

     negative rho (up, down):  1.152E-03 0.000E+00

     negative rho (up, down):  1.152E-03 0.000E+00

     negative rho (up, down):  1.152E-03 0.000E+00

     negative rho (up, down):  1.152E-03 0.000E+00

     negative rho (up, down):  1.152E-03 0.000E+00

     negative rho (up, down):  1.152E-03 0.000E+00

     negative rho (up, down):  1.152E-03 0.000E+00

     negative rho (up, down):  1.152E-03 0.000E+00

     negative rho (up, down):  1.152E-03 0.000E+00

     negative rho (up, down):  1.152E-03 0.000E+00
 
     Adding external electric field

     Computed dipole along edir(3) : 
        Dipole                0.0748 Ry au,          0.1902 Debye
        Dipole field          0.0002 Ry au
 
        Potential amp.       -0.0160 Ry
        Total length         46.0091 bohr
 

     total cpu time spent up to now is      608.5 secs

     End of self-consistent calculation

          k = 0.0000 0.0000 0.0000 ( 20347 PWs)   bands (ev):

   -94.4560 -94.4263 -94.4263 -94.4239 -94.4232 -94.4229 -94.4148 -94.4145
   -94.4140 -94.4079 -94.4079 -94.3945 -94.3914 -94.3912 -94.3911 -94.3861
   -94.3852 -94.3852 -94.3832 -94.3832 -94.3827 -94.3767 -94.3761 -94.3761
   -94.3714 -94.3705 -94.3705 -94.3696 -94.3696 -94.3696 -94.3599 -94.3566
   -94.3558 -94.3555 -94.3435 -94.3435 -15.5723 -14.9025 -14.8995 -14.8995
   -14.8631 -14.8611 -14.8610 -14.8505 -14.8505 -14.8367 -14.8299 -14.8298
   -14.8255 -14.8173 -14.8069 -14.7989 -14.7989 -14.7917 -14.7862 -14.7861
   -14.7782 -14.7782 -14.7759 -14.7751 -14.7751 -14.7567 -14.7561 -14.7561
   -14.7508 -14.7508 -14.6999 -14.6998 -14.6956 -14.6813 -14.6813 -14.6708
   -14.6671 -14.6671 -14.6563 -14.6563 -14.6523 -14.6312 -14.6312 -14.6298
   -14.6199 -14.6199 -14.6147 -14.6147 -14.6042 -14.6005 -14.6005 -14.5985
   -14.5955 -14.5955 -14.5853 -14.5826 -14.5825 -14.5791 -14.5790 -14.5676
   -14.1727  -9.7611  -8.3560  -6.5663  -5.3716  -4.7780  -4.7780  -4.4956
    -4.4955  -4.3427  -3.9642  -3.5811  -3.5811  -2.9060  -2.4175  -2.4175
    -2.1150  -1.7011  -1.7011  -1.4903  -0.6413  -0.4796  -0.4795   0.6589
     0.6589   0.9341   1.5869   3.0952   3.3489   3.3489   3.3564

          k = 0.0000 0.0316 0.0000 ( 20271 PWs)   bands (ev):

   -94.4560 -94.4263 -94.4263 -94.4238 -94.4232 -94.4228 -94.4148 -94.4145
   -94.4140 -94.4078 -94.4078 -94.3945 -94.3913 -94.3912 -94.3911 -94.3860
   -94.3853 -94.3852 -94.3832 -94.3832 -94.3827 -94.3767 -94.3761 -94.3760
   -94.3713 -94.3705 -94.3704 -94.3697 -94.3696 -94.3695 -94.3599 -94.3565
   -94.3558 -94.3555 -94.3435 -94.3435 -15.5666 -14.8949 -14.8885 -14.8860
   -14.8586 -14.8529 -14.8505 -14.8418 -14.8389 -14.8301 -14.8246 -14.8193
   -14.8180 -14.8083 -14.8063 -14.7964 -14.7952 -14.7877 -14.7828 -14.7822
   -14.7772 -14.7758 -14.7718 -14.7712 -14.7662 -14.7573 -14.7565 -14.7509
   -14.7466 -14.7453 -14.7055 -14.7001 -14.6973 -14.6879 -14.6846 -14.6763
   -14.6732 -14.6686 -14.6643 -14.6616 -14.6533 -14.6388 -14.6355 -14.6325
   -14.6284 -14.6223 -14.6214 -14.6168 -14.6116 -14.6083 -14.6077 -14.6072
   -14.6053 -14.6026 -14.5950 -14.5930 -14.5892 -14.5873 -14.5871 -14.5769
   -14.1639  -9.6141  -8.2279  -6.5800  -6.0071  -5.4423  -5.2310  -4.9341
    -4.4560  -4.4085  -3.7543  -3.3248  -3.2938  -2.8568  -2.1686  -1.9114
    -1.8095  -1.5262  -1.5195  -1.2476  -0.3073  -0.2947   0.0237   0.8569
     0.9362   1.3233   2.1165   2.4037   3.0810   3.1513   3.4114

          k = 0.0000 0.0632 0.0000 ( 20353 PWs)   bands (ev):

   -94.4560 -94.4263 -94.4263 -94.4237 -94.4233 -94.4229 -94.4147 -94.4145
   -94.4140 -94.4078 -94.4078 -94.3945 -94.3913 -94.3912 -94.3911 -94.3859
   -94.3854 -94.3852 -94.3832 -94.3831 -94.3828 -94.3766 -94.3762 -94.3760
   -94.3711 -94.3705 -94.3703 -94.3699 -94.3698 -94.3695 -94.3599 -94.3564
   -94.3560 -94.3555 -94.3435 -94.3435 -15.5549 -14.8779 -14.8594 -14.8545
   -14.8464 -14.8358 -14.8311 -14.8262 -14.8192 -14.8150 -14.8139 -14.8085
   -14.8022 -14.7997 -14.7931 -14.7862 -14.7818 -14.7804 -14.7770 -14.7731
   -14.7695 -14.7685 -14.7609 -14.7577 -14.7541 -14.7495 -14.7399 -14.7397
   -14.7331 -14.7181 -14.7169 -14.7070 -14.7031 -14.6971 -14.6948 -14.6915
   -14.6908 -14.6826 -14.6794 -14.6656 -14.6603 -14.6566 -14.6524 -14.6503
   -14.6477 -14.6427 -14.6419 -14.6357 -14.6343 -14.6315 -14.6260 -14.6246
   -14.6234 -14.6184 -14.6111 -14.6090 -14.6041 -14.6026 -14.5916 -14.5826
   -14.1472  -9.1724  -7.8605  -7.4072  -6.5081  -5.8283  -5.6349  -5.5249
    -4.7819  -4.6222  -4.0463  -3.3113  -3.0674  -2.6204  -1.5944  -1.3897
    -1.2926  -0.9967  -0.7105   0.1267   0.2180   0.3752   0.9234   1.5243
     1.6006   1.7001   2.0670   2.3614   2.4502   3.2107   3.2291

          k = 0.0000-0.0948 0.0000 ( 20384 PWs)   bands (ev):

   -94.4560 -94.4263 -94.4263 -94.4235 -94.4235 -94.4229 -94.4147 -94.4146
   -94.4141 -94.4078 -94.4078 -94.3945 -94.3913 -94.3912 -94.3911 -94.3858
   -94.3855 -94.3852 -94.3832 -94.3831 -94.3828 -94.3765 -94.3763 -94.3761
   -94.3710 -94.3704 -94.3701 -94.3700 -94.3699 -94.3695 -94.3599 -94.3562
   -94.3562 -94.3555 -94.3435 -94.3435 -15.5489 -14.8595 -14.8498 -14.8411
   -14.8320 -14.8315 -14.8271 -14.8246 -14.8174 -14.8039 -14.8038 -14.7996
   -14.7918 -14.7905 -14.7872 -14.7811 -14.7747 -14.7697 -14.7667 -14.7629
   -14.7606 -14.7598 -14.7542 -14.7490 -14.7486 -14.7360 -14.7291 -14.7274
   -14.7261 -14.7241 -14.7153 -14.7138 -14.7108 -14.7036 -14.6945 -14.6914
   -14.6913 -14.6818 -14.6754 -14.6740 -14.6708 -14.6708 -14.6674 -14.6669
   -14.6630 -14.6601 -14.6596 -14.6569 -14.6531 -14.6526 -14.6473 -14.6430
   -14.6352 -14.6208 -14.6148 -14.6107 -14.6070 -14.6051 -14.5918 -14.5828
   -14.1393  -8.4671  -8.4098  -7.3629  -7.0258  -5.9806  -5.7760  -5.4220
    -4.9995  -4.7248  -4.4521  -3.1307  -3.0654  -2.5447  -1.7568  -0.8811
    -0.3975  -0.2896  -0.1417   0.2177   0.2219   0.6943   1.3431   1.4109
     1.8327   2.0320   2.3564   2.5288   2.5471   2.8508   2.9919

          k = 0.0274-0.0158 0.0000 ( 20271 PWs)   bands (ev):

   -94.4560 -94.4263 -94.4263 -94.4238 -94.4231 -94.4229 -94.4148 -94.4145
   -94.4140 -94.4078 -94.4078 -94.3945 -94.3913 -94.3912 -94.3911 -94.3860
   -94.3852 -94.3852 -94.3832 -94.3831 -94.3827 -94.3767 -94.3761 -94.3761
   -94.3713 -94.3705 -94.3704 -94.3697 -94.3696 -94.3695 -94.3599 -94.3565
   -94.3558 -94.3556 -94.3435 -94.3435 -15.5666 -14.8949 -14.8886 -14.8860
   -14.8587 -14.8528 -14.8506 -14.8418 -14.8389 -14.8301 -14.8246 -14.8192
   -14.8180 -14.8083 -14.8063 -14.7964 -14.7952 -14.7877 -14.7828 -14.7822
   -14.7772 -14.7758 -14.7718 -14.7712 -14.7663 -14.7573 -14.7565 -14.7509
   -14.7466 -14.7453 -14.7054 -14.7001 -14.6973 -14.6879 -14.6846 -14.6763
   -14.6732 -14.6686 -14.6643 -14.6616 -14.6533 -14.6388 -14.6355 -14.6324
   -14.6284 -14.6223 -14.6214 -14.6168 -14.6116 -14.6084 -14.6076 -14.6073
   -14.6053 -14.6026 -14.5950 -14.5930 -14.5892 -14.5872 -14.5872 -14.5769
   -14.1639  -9.6141  -8.2279  -6.5800  -6.0071  -5.4423  -5.2310  -4.9341
    -4.4560  -4.4085  -3.7543  -3.3248  -3.2938  -2.8568  -2.1686  -1.9114
    -1.8095  -1.5262  -1.5195  -1.2476  -0.3073  -0.2947   0.0237   0.8570
     0.9362   1.3233   2.1165   2.4037   3.0810   3.1513   3.4114

          k = 0.0274 0.0158 0.0000 ( 20271 PWs)   bands (ev):

   -94.4560 -94.4263 -94.4263 -94.4238 -94.4232 -94.4229 -94.4148 -94.4145
   -94.4140 -94.4078 -94.4078 -94.3945 -94.3913 -94.3912 -94.3911 -94.3860
   -94.3852 -94.3852 -94.3832 -94.3831 -94.3827 -94.3767 -94.3761 -94.3761
   -94.3713 -94.3705 -94.3704 -94.3696 -94.3696 -94.3696 -94.3599 -94.3565
   -94.3558 -94.3555 -94.3435 -94.3435 -15.5666 -14.8949 -14.8886 -14.8860
   -14.8586 -14.8528 -14.8506 -14.8418 -14.8389 -14.8301 -14.8246 -14.8193
   -14.8180 -14.8083 -14.8063 -14.7964 -14.7952 -14.7877 -14.7828 -14.7822
   -14.7772 -14.7758 -14.7718 -14.7712 -14.7662 -14.7573 -14.7565 -14.7509
   -14.7466 -14.7452 -14.7055 -14.7001 -14.6973 -14.6879 -14.6846 -14.6763
   -14.6732 -14.6686 -14.6643 -14.6616 -14.6533 -14.6388 -14.6355 -14.6324
   -14.6284 -14.6223 -14.6214 -14.6168 -14.6116 -14.6084 -14.6077 -14.6072
   -14.6053 -14.6026 -14.5950 -14.5930 -14.5892 -14.5872 -14.5871 -14.5769
   -14.1639  -9.6141  -8.2279  -6.5800  -6.0071  -5.4423  -5.2310  -4.9341
    -4.4560  -4.4085  -3.7543  -3.3248  -3.2938  -2.8568  -2.1686  -1.9114
    -1.8095  -1.5262  -1.5195  -1.2476  -0.3073  -0.2947   0.0237   0.8569
     0.9362   1.3233   2.1165   2.4037   3.0810   3.1513   3.4114

          k = 0.0274 0.0474 0.0000 ( 20341 PWs)   bands (ev):

   -94.4560 -94.4263 -94.4263 -94.4237 -94.4233 -94.4229 -94.4147 -94.4145
   -94.4140 -94.4078 -94.4078 -94.3945 -94.3913 -94.3912 -94.3911 -94.3859
   -94.3853 -94.3852 -94.3832 -94.3831 -94.3828 -94.3766 -94.3762 -94.3761
   -94.3712 -94.3705 -94.3703 -94.3698 -94.3697 -94.3696 -94.3599 -94.3564
   -94.3559 -94.3555 -94.3435 -94.3435 -15.5578 -14.8781 -14.8748 -14.8618
   -14.8470 -14.8407 -14.8360 -14.8273 -14.8205 -14.8177 -14.8151 -14.8099
   -14.8092 -14.8040 -14.7960 -14.7918 -14.7877 -14.7825 -14.7804 -14.7772
   -14.7740 -14.7667 -14.7646 -14.7600 -14.7585 -14.7529 -14.7498 -14.7439
   -14.7373 -14.7257 -14.7128 -14.7048 -14.6998 -14.6960 -14.6937 -14.6865
   -14.6844 -14.6810 -14.6710 -14.6681 -14.6588 -14.6517 -14.6488 -14.6427
   -14.6421 -14.6367 -14.6359 -14.6276 -14.6246 -14.6231 -14.6197 -14.6168
   -14.6135 -14.6131 -14.6087 -14.6073 -14.6013 -14.5975 -14.5935 -14.5891
   -14.1513  -9.3197  -7.9771  -6.8781  -6.5847  -6.1741  -5.5721  -5.3086
    -4.4760  -4.0815  -3.9458  -3.5666  -3.2430  -2.8311  -1.7993  -1.4167
    -1.3710  -1.1976  -0.7520  -0.5577   0.1572   0.3337   0.7659   1.0023
     1.4878   1.5982   2.1065   2.2805   2.7631   2.9630   3.5132

          k = 0.0274-0.1106 0.0000 ( 20377 PWs)   bands (ev):

   -94.4560 -94.4263 -94.4263 -94.4236 -94.4234 -94.4229 -94.4147 -94.4145
   -94.4141 -94.4078 -94.4078 -94.3945 -94.3913 -94.3912 -94.3911 -94.3858
   -94.3855 -94.3852 -94.3832 -94.3830 -94.3828 -94.3765 -94.3763 -94.3761
   -94.3709 -94.3705 -94.3701 -94.3700 -94.3698 -94.3696 -94.3599 -94.3562
   -94.3561 -94.3556 -94.3435 -94.3435 -15.5489 -14.8574 -14.8448 -14.8378
   -14.8343 -14.8326 -14.8243 -14.8172 -14.8133 -14.8111 -14.8045 -14.7999
   -14.7967 -14.7932 -14.7874 -14.7804 -14.7757 -14.7720 -14.7686 -14.7661
   -14.7603 -14.7576 -14.7537 -14.7519 -14.7474 -14.7384 -14.7336 -14.7311
   -14.7291 -14.7225 -14.7181 -14.7121 -14.7109 -14.7067 -14.6981 -14.6971
   -14.6924 -14.6835 -14.6822 -14.6808 -14.6734 -14.6700 -14.6656 -14.6637
   -14.6577 -14.6563 -14.6529 -14.6499 -14.6452 -14.6413 -14.6375 -14.6319
   -14.6268 -14.6216 -14.6178 -14.6156 -14.6112 -14.6068 -14.5997 -14.5921
   -14.1393  -8.7320  -7.8735  -7.4748  -6.9774  -6.6334  -5.8856  -5.4025
    -4.7461  -4.3223  -3.9431  -3.5751  -2.8348  -2.5184  -1.9414  -1.3824
    -0.9402  -0.3580   0.0301   0.2717   0.6299   0.7994   1.1376   1.4709
     1.5741   1.9376   2.1599   2.4391   2.7759   3.0216   3.3044

          k = 0.0274-0.0790 0.0000 ( 20377 PWs)   bands (ev):

   -94.4560 -94.4263 -94.4263 -94.4236 -94.4234 -94.4229 -94.4147 -94.4145
   -94.4141 -94.4078 -94.4078 -94.3945 -94.3913 -94.3912 -94.3911 -94.3858
   -94.3855 -94.3851 -94.3832 -94.3830 -94.3828 -94.3765 -94.3763 -94.3761
   -94.3709 -94.3705 -94.3701 -94.3701 -94.3698 -94.3696 -94.3599 -94.3563
   -94.3560 -94.3556 -94.3435 -94.3435 -15.5489 -14.8574 -14.8448 -14.8378
   -14.8343 -14.8326 -14.8243 -14.8172 -14.8133 -14.8111 -14.8045 -14.7999
   -14.7967 -14.7932 -14.7874 -14.7804 -14.7757 -14.7720 -14.7686 -14.7661
   -14.7603 -14.7576 -14.7537 -14.7519 -14.7475 -14.7384 -14.7336 -14.7311
   -14.7291 -14.7225 -14.7181 -14.7121 -14.7109 -14.7067 -14.6981 -14.6971
   -14.6924 -14.6835 -14.6822 -14.6807 -14.6734 -14.6699 -14.6656 -14.6637
   -14.6577 -14.6563 -14.6529 -14.6499 -14.6452 -14.6413 -14.6375 -14.6319
   -14.6268 -14.6216 -14.6178 -14.6156 -14.6112 -14.6068 -14.5997 -14.5921
   -14.1393  -8.7320  -7.8735  -7.4748  -6.9774  -6.6335  -5.8856  -5.4025
    -4.7461  -4.3223  -3.9431  -3.5751  -2.8348  -2.5184  -1.9414  -1.3824
    -0.9402  -0.3580   0.0301   0.2717   0.6299   0.7994   1.1376   1.4709
     1.5741   1.9376   2.1599   2.4391   2.7759   3.0216   3.3044

          k = 0.0274-0.0474 0.0000 ( 20341 PWs)   bands (ev):

   -94.4560 -94.4263 -94.4263 -94.4237 -94.4232 -94.4229 -94.4148 -94.4145
   -94.4140 -94.4078 -94.4078 -94.3945 -94.3913 -94.3912 -94.3911 -94.3859
   -94.3853 -94.3852 -94.3832 -94.3831 -94.3828 -94.3766 -94.3762 -94.3761
   -94.3712 -94.3705 -94.3703 -94.3699 -94.3696 -94.3696 -94.3599 -94.3564
   -94.3559 -94.3556 -94.3435 -94.3435 -15.5578 -14.8781 -14.8748 -14.8619
   -14.8470 -14.8407 -14.8360 -14.8273 -14.8205 -14.8177 -14.8151 -14.8099
   -14.8092 -14.8040 -14.7960 -14.7918 -14.7877 -14.7825 -14.7804 -14.7772
   -14.7740 -14.7667 -14.7646 -14.7600 -14.7585 -14.7529 -14.7499 -14.7440
   -14.7373 -14.7257 -14.7127 -14.7048 -14.6998 -14.6960 -14.6937 -14.6865
   -14.6844 -14.6810 -14.6710 -14.6681 -14.6588 -14.6517 -14.6488 -14.6427
   -14.6421 -14.6367 -14.6359 -14.6276 -14.6246 -14.6231 -14.6197 -14.6168
   -14.6135 -14.6131 -14.6087 -14.6073 -14.6013 -14.5975 -14.5935 -14.5892
   -14.1513  -9.3197  -7.9771  -6.8781  -6.5847  -6.1741  -5.5721  -5.3086
    -4.4760  -4.0815  -3.9458  -3.5666  -3.2430  -2.8311  -1.7993  -1.4167
    -1.3710  -1.1976  -0.7520  -0.5577   0.1572   0.3337   0.7659   1.0023
     1.4878   1.5982   2.1065   2.2804   2.7631   2.9630   3.5131

          k = 0.0547-0.0316 0.0000 ( 20353 PWs)   bands (ev):

   -94.4560 -94.4263 -94.4263 -94.4237 -94.4231 -94.4230 -94.4148 -94.4144
   -94.4141 -94.4078 -94.4078 -94.3945 -94.3913 -94.3912 -94.3911 -94.3859
   -94.3854 -94.3852 -94.3832 -94.3831 -94.3828 -94.3766 -94.3762 -94.3761
   -94.3711 -94.3704 -94.3703 -94.3699 -94.3698 -94.3696 -94.3599 -94.3564
   -94.3558 -94.3557 -94.3435 -94.3435 -15.5549 -14.8779 -14.8594 -14.8545
   -14.8465 -14.8358 -14.8310 -14.8262 -14.8193 -14.8150 -14.8138 -14.8086
   -14.8022 -14.7997 -14.7931 -14.7862 -14.7818 -14.7803 -14.7770 -14.7731
   -14.7695 -14.7685 -14.7609 -14.7577 -14.7541 -14.7496 -14.7400 -14.7398
   -14.7331 -14.7181 -14.7169 -14.7071 -14.7031 -14.6972 -14.6947 -14.6916
   -14.6908 -14.6827 -14.6794 -14.6655 -14.6603 -14.6566 -14.6525 -14.6503
   -14.6476 -14.6427 -14.6420 -14.6357 -14.6343 -14.6315 -14.6260 -14.6246
   -14.6234 -14.6185 -14.6111 -14.6089 -14.6042 -14.6026 -14.5916 -14.5827
   -14.1472  -9.1724  -7.8605  -7.4072  -6.5081  -5.8283  -5.6349  -5.5249
    -4.7819  -4.6222  -4.0463  -3.3113  -3.0674  -2.6204  -1.5944  -1.3897
    -1.2926  -0.9967  -0.7105   0.1267   0.2179   0.3752   0.9234   1.5243
     1.6006   1.7001   2.0670   2.3614   2.4502   3.2107   3.2291

          k = 0.0547 0.0000 0.0000 ( 20341 PWs)   bands (ev):

   -94.4560 -94.4263 -94.4263 -94.4237 -94.4232 -94.4229 -94.4148 -94.4144
   -94.4141 -94.4078 -94.4078 -94.3945 -94.3913 -94.3912 -94.3911 -94.3859
   -94.3853 -94.3852 -94.3832 -94.3831 -94.3828 -94.3766 -94.3762 -94.3761
   -94.3712 -94.3705 -94.3703 -94.3698 -94.3696 -94.3696 -94.3599 -94.3564
   -94.3558 -94.3556 -94.3435 -94.3435 -15.5578 -14.8781 -14.8748 -14.8619
   -14.8470 -14.8406 -14.8360 -14.8272 -14.8205 -14.8177 -14.8151 -14.8099
   -14.8092 -14.8040 -14.7960 -14.7917 -14.7877 -14.7825 -14.7804 -14.7772
   -14.7740 -14.7667 -14.7646 -14.7600 -14.7585 -14.7529 -14.7499 -14.7440
   -14.7373 -14.7257 -14.7127 -14.7048 -14.6998 -14.6960 -14.6937 -14.6865
   -14.6844 -14.6810 -14.6710 -14.6681 -14.6588 -14.6517 -14.6488 -14.6427
   -14.6421 -14.6367 -14.6359 -14.6276 -14.6246 -14.6231 -14.6197 -14.6168
   -14.6135 -14.6131 -14.6087 -14.6073 -14.6013 -14.5975 -14.5935 -14.5892
   -14.1513  -9.3197  -7.9771  -6.8781  -6.5847  -6.1741  -5.5721  -5.3086
    -4.4760  -4.0815  -3.9458  -3.5666  -3.2430  -2.8311  -1.7993  -1.4167
    -1.3711  -1.1976  -0.7520  -0.5577   0.1572   0.3337   0.7659   1.0023
     1.4878   1.5982   2.1065   2.2804   2.7631   2.9630   3.5131

          k = 0.0547 0.0316 0.0000 ( 20353 PWs)   bands (ev):

   -94.4560 -94.4263 -94.4263 -94.4237 -94.4232 -94.4229 -94.4147 -94.4145
   -94.4141 -94.4078 -94.4078 -94.3945 -94.3913 -94.3912 -94.3911 -94.3859
   -94.3854 -94.3852 -94.3832 -94.3831 -94.3828 -94.3766 -94.3762 -94.3761
   -94.3711 -94.3704 -94.3702 -94.3699 -94.3698 -94.3696 -94.3599 -94.3564
   -94.3559 -94.3556 -94.3435 -94.3435 -15.5549 -14.8779 -14.8594 -14.8545
   -14.8464 -14.8358 -14.8310 -14.8262 -14.8192 -14.8150 -14.8139 -14.8086
   -14.8022 -14.7997 -14.7931 -14.7862 -14.7818 -14.7804 -14.7770 -14.7731
   -14.7695 -14.7685 -14.7609 -14.7577 -14.7541 -14.7496 -14.7399 -14.7397
   -14.7331 -14.7181 -14.7169 -14.7070 -14.7031 -14.6971 -14.6947 -14.6916
   -14.6908 -14.6826 -14.6794 -14.6656 -14.6603 -14.6566 -14.6524 -14.6503
   -14.6477 -14.6427 -14.6419 -14.6357 -14.6343 -14.6315 -14.6260 -14.6246
   -14.6234 -14.6184 -14.6111 -14.6089 -14.6042 -14.6026 -14.5916 -14.5827
   -14.1472  -9.1724  -7.8605  -7.4072  -6.5081  -5.8283  -5.6349  -5.5249
    -4.7819  -4.6222  -4.0463  -3.3113  -3.0674  -2.6204  -1.5944  -1.3897
    -1.2926  -0.9967  -0.7105   0.1267   0.2180   0.3752   0.9234   1.5243
     1.6006   1.7001   2.0670   2.3614   2.4502   3.2107   3.2292

          k = 0.0547-0.1264 0.0000 ( 20377 PWs)   bands (ev):

   -94.4560 -94.4263 -94.4263 -94.4236 -94.4233 -94.4229 -94.4147 -94.4145
   -94.4141 -94.4078 -94.4078 -94.3945 -94.3913 -94.3912 -94.3911 -94.3858
   -94.3855 -94.3852 -94.3833 -94.3830 -94.3828 -94.3765 -94.3763 -94.3761
   -94.3710 -94.3705 -94.3701 -94.3700 -94.3698 -94.3696 -94.3599 -94.3563
   -94.3560 -94.3556 -94.3435 -94.3435 -15.5489 -14.8574 -14.8448 -14.8378
   -14.8342 -14.8326 -14.8243 -14.8172 -14.8133 -14.8111 -14.8045 -14.7999
   -14.7967 -14.7932 -14.7874 -14.7804 -14.7757 -14.7720 -14.7686 -14.7660
   -14.7603 -14.7576 -14.7537 -14.7519 -14.7474 -14.7384 -14.7336 -14.7312
   -14.7291 -14.7225 -14.7181 -14.7121 -14.7109 -14.7067 -14.6980 -14.6971
   -14.6924 -14.6835 -14.6822 -14.6808 -14.6734 -14.6700 -14.6656 -14.6637
   -14.6577 -14.6563 -14.6529 -14.6499 -14.6452 -14.6413 -14.6375 -14.6319
   -14.6268 -14.6216 -14.6178 -14.6156 -14.6112 -14.6067 -14.5997 -14.5921
   -14.1393  -8.7320  -7.8735  -7.4748  -6.9774  -6.6335  -5.8856  -5.4025
    -4.7461  -4.3223  -3.9431  -3.5751  -2.8348  -2.5184  -1.9414  -1.3824
    -0.9402  -0.3580   0.0301   0.2717   0.6299   0.7994   1.1376   1.4709
     1.5741   1.9376   2.1599   2.4391   2.7759   3.0216   3.3044

          k = 0.0547-0.0948 0.0000 ( 20397 PWs)   bands (ev):

   -94.4560 -94.4263 -94.4263 -94.4236 -94.4233 -94.4229 -94.4147 -94.4144
   -94.4141 -94.4078 -94.4078 -94.3945 -94.3913 -94.3912 -94.3911 -94.3856
   -94.3856 -94.3852 -94.3833 -94.3830 -94.3829 -94.3764 -94.3764 -94.3761
   -94.3707 -94.3707 -94.3701 -94.3699 -94.3698 -94.3698 -94.3599 -94.3563
   -94.3560 -94.3556 -94.3435 -94.3435 -15.5458 -14.8356 -14.8313 -14.8289
   -14.8269 -14.8254 -14.8217 -14.8179 -14.8118 -14.8115 -14.8107 -14.8029
   -14.7980 -14.7859 -14.7771 -14.7704 -14.7700 -14.7686 -14.7609 -14.7578
   -14.7557 -14.7517 -14.7507 -14.7486 -14.7425 -14.7364 -14.7347 -14.7308
   -14.7298 -14.7296 -14.7207 -14.7167 -14.7106 -14.7090 -14.7061 -14.7009
   -14.6994 -14.6942 -14.6909 -14.6892 -14.6827 -14.6772 -14.6727 -14.6631
   -14.6603 -14.6534 -14.6516 -14.6496 -14.6435 -14.6369 -14.6357 -14.6322
   -14.6309 -14.6297 -14.6243 -14.6201 -14.6183 -14.6101 -14.6083 -14.6063
   -14.1354  -8.1017  -7.9549  -7.9477  -7.0911  -6.5905  -6.5756  -5.2435
    -4.6399  -4.5906  -3.4221  -3.1801  -2.7275  -2.5800  -2.3261  -1.5185
    -0.4359  -0.3834  -0.3798   0.3433   0.3765   0.5549   1.7618   1.7941
     2.0215   2.5434   2.5796   2.9813   3.1471   3.1515   3.2257

          k = 0.0547-0.0632 0.0000 ( 20377 PWs)   bands (ev):

   -94.4560 -94.4263 -94.4263 -94.4237 -94.4232 -94.4230 -94.4148 -94.4144
   -94.4141 -94.4078 -94.4078 -94.3945 -94.3913 -94.3912 -94.3911 -94.3858
   -94.3855 -94.3852 -94.3833 -94.3830 -94.3828 -94.3765 -94.3763 -94.3761
   -94.3709 -94.3705 -94.3701 -94.3701 -94.3698 -94.3696 -94.3599 -94.3564
   -94.3559 -94.3556 -94.3435 -94.3435 -15.5489 -14.8574 -14.8449 -14.8378
   -14.8342 -14.8326 -14.8244 -14.8172 -14.8133 -14.8111 -14.8045 -14.7999
   -14.7967 -14.7932 -14.7874 -14.7804 -14.7757 -14.7720 -14.7685 -14.7660
   -14.7603 -14.7575 -14.7537 -14.7519 -14.7475 -14.7384 -14.7336 -14.7312
   -14.7291 -14.7225 -14.7181 -14.7121 -14.7109 -14.7067 -14.6981 -14.6971
   -14.6924 -14.6835 -14.6822 -14.6808 -14.6734 -14.6700 -14.6656 -14.6637
   -14.6577 -14.6563 -14.6529 -14.6499 -14.6452 -14.6413 -14.6375 -14.6319
   -14.6268 -14.6217 -14.6178 -14.6156 -14.6112 -14.6067 -14.5997 -14.5921
   -14.1393  -8.7320  -7.8735  -7.4748  -6.9774  -6.6335  -5.8856  -5.4025
    -4.7461  -4.3223  -3.9431  -3.5751  -2.8348  -2.5184  -1.9414  -1.3824
    -0.9402  -0.3580   0.0301   0.2717   0.6299   0.7994   1.1376   1.4709
     1.5741   1.9376   2.1599   2.4391   2.7759   3.0216   3.3044

          k =-0.0821 0.0474 0.0000 ( 20384 PWs)   bands (ev):

   -94.4560 -94.4263 -94.4263 -94.4237 -94.4231 -94.4230 -94.4148 -94.4143
   -94.4142 -94.4078 -94.4078 -94.3945 -94.3913 -94.3913 -94.3911 -94.3858
   -94.3854 -94.3852 -94.3832 -94.3830 -94.3828 -94.3765 -94.3763 -94.3761
   -94.3710 -94.3704 -94.3701 -94.3700 -94.3699 -94.3696 -94.3599 -94.3564
   -94.3558 -94.3557 -94.3435 -94.3435 -15.5489 -14.8596 -14.8497 -14.8412
   -14.8320 -14.8316 -14.8271 -14.8246 -14.8173 -14.8039 -14.8038 -14.7996
   -14.7919 -14.7904 -14.7872 -14.7811 -14.7747 -14.7697 -14.7667 -14.7627
   -14.7605 -14.7598 -14.7542 -14.7491 -14.7486 -14.7360 -14.7292 -14.7275
   -14.7262 -14.7241 -14.7152 -14.7137 -14.7109 -14.7037 -14.6945 -14.6914
   -14.6913 -14.6818 -14.6754 -14.6740 -14.6708 -14.6708 -14.6674 -14.6669
   -14.6630 -14.6601 -14.6596 -14.6570 -14.6531 -14.6526 -14.6472 -14.6430
   -14.6352 -14.6208 -14.6148 -14.6107 -14.6070 -14.6051 -14.5918 -14.5828
   -14.1393  -8.4671  -8.4098  -7.3629  -7.0258  -5.9805  -5.7760  -5.4220
    -4.9995  -4.7248  -4.4521  -3.1307  -3.0654  -2.5447  -1.7568  -0.8811
    -0.3975  -0.2896  -0.1417   0.2177   0.2219   0.6943   1.3431   1.4109
     1.8327   2.0319   2.3564   2.5288   2.5471   2.8508   2.9919

          k =-0.0821 0.0790 0.0000 ( 20377 PWs)   bands (ev):

   -94.4560 -94.4263 -94.4263 -94.4237 -94.4232 -94.4230 -94.4148 -94.4144
   -94.4141 -94.4078 -94.4078 -94.3945 -94.3913 -94.3913 -94.3911 -94.3858
   -94.3855 -94.3852 -94.3833 -94.3830 -94.3829 -94.3765 -94.3763 -94.3761
   -94.3710 -94.3705 -94.3701 -94.3701 -94.3698 -94.3696 -94.3599 -94.3564
   -94.3559 -94.3557 -94.3435 -94.3435 -15.5489 -14.8574 -14.8448 -14.8378
   -14.8342 -14.8326 -14.8243 -14.8172 -14.8133 -14.8111 -14.8045 -14.7999
   -14.7967 -14.7932 -14.7874 -14.7804 -14.7757 -14.7720 -14.7685 -14.7661
   -14.7603 -14.7575 -14.7537 -14.7519 -14.7475 -14.7384 -14.7336 -14.7312
   -14.7291 -14.7225 -14.7181 -14.7121 -14.7109 -14.7067 -14.6981 -14.6971
   -14.6925 -14.6835 -14.6822 -14.6808 -14.6734 -14.6700 -14.6656 -14.6637
   -14.6577 -14.6563 -14.6529 -14.6499 -14.6452 -14.6413 -14.6375 -14.6319
   -14.6268 -14.6217 -14.6178 -14.6156 -14.6112 -14.6067 -14.5997 -14.5921
   -14.1393  -8.7320  -7.8735  -7.4748  -6.9774  -6.6335  -5.8856  -5.4025
    -4.7461  -4.3223  -3.9431  -3.5751  -2.8348  -2.5184  -1.9414  -1.3824
    -0.9402  -0.3580   0.0301   0.2717   0.6299   0.7994   1.1376   1.4709
     1.5741   1.9376   2.1599   2.4391   2.7759   3.0216   3.3044

          k =-0.0821 0.1106 0.0000 ( 20377 PWs)   bands (ev):

   -94.4560 -94.4263 -94.4263 -94.4236 -94.4233 -94.4229 -94.4147 -94.4144
   -94.4141 -94.4078 -94.4078 -94.3945 -94.3913 -94.3912 -94.3911 -94.3858
   -94.3855 -94.3852 -94.3833 -94.3830 -94.3829 -94.3765 -94.3763 -94.3761
   -94.3710 -94.3705 -94.3701 -94.3701 -94.3698 -94.3696 -94.3599 -94.3563
   -94.3560 -94.3556 -94.3435 -94.3435 -15.5489 -14.8574 -14.8448 -14.8378
   -14.8342 -14.8326 -14.8243 -14.8172 -14.8133 -14.8111 -14.8045 -14.7999
   -14.7967 -14.7932 -14.7874 -14.7804 -14.7757 -14.7720 -14.7686 -14.7661
   -14.7603 -14.7576 -14.7537 -14.7519 -14.7475 -14.7384 -14.7336 -14.7311
   -14.7291 -14.7225 -14.7181 -14.7121 -14.7109 -14.7067 -14.6981 -14.6971
   -14.6925 -14.6835 -14.6822 -14.6807 -14.6734 -14.6699 -14.6656 -14.6637
   -14.6577 -14.6563 -14.6529 -14.6499 -14.6452 -14.6413 -14.6375 -14.6319
   -14.6268 -14.6216 -14.6178 -14.6156 -14.6112 -14.6068 -14.5997 -14.5921
   -14.1393  -8.7320  -7.8735  -7.4748  -6.9774  -6.6335  -5.8856  -5.4025
    -4.7461  -4.3223  -3.9431  -3.5751  -2.8348  -2.5184  -1.9414  -1.3824
    -0.9402  -0.3580   0.0301   0.2717   0.6299   0.7994   1.1376   1.4709
     1.5741   1.9376   2.1599   2.4391   2.7759   3.0216   3.3044

          k =-0.0821-0.0474 0.0000 ( 20384 PWs)   bands (ev):

   -94.4560 -94.4263 -94.4263 -94.4236 -94.4233 -94.4229 -94.4147 -94.4145
   -94.4141 -94.4078 -94.4078 -94.3945 -94.3913 -94.3912 -94.3911 -94.3858
   -94.3854 -94.3852 -94.3832 -94.3830 -94.3828 -94.3765 -94.3763 -94.3761
   -94.3710 -94.3704 -94.3701 -94.3700 -94.3699 -94.3696 -94.3599 -94.3563
   -94.3560 -94.3556 -94.3435 -94.3435 -15.5489 -14.8596 -14.8498 -14.8412
   -14.8320 -14.8315 -14.8272 -14.8246 -14.8174 -14.8038 -14.8038 -14.7996
   -14.7919 -14.7904 -14.7872 -14.7811 -14.7747 -14.7697 -14.7667 -14.7628
   -14.7606 -14.7598 -14.7542 -14.7490 -14.7486 -14.7360 -14.7291 -14.7274
   -14.7262 -14.7241 -14.7152 -14.7138 -14.7108 -14.7036 -14.6945 -14.6914
   -14.6913 -14.6818 -14.6754 -14.6740 -14.6708 -14.6708 -14.6674 -14.6669
   -14.6630 -14.6601 -14.6596 -14.6570 -14.6531 -14.6526 -14.6473 -14.6430
   -14.6352 -14.6208 -14.6148 -14.6107 -14.6070 -14.6051 -14.5918 -14.5828
   -14.1393  -8.4671  -8.4098  -7.3629  -7.0258  -5.9805  -5.7760  -5.4220
    -4.9995  -4.7248  -4.4521  -3.1307  -3.0654  -2.5447  -1.7568  -0.8811
    -0.3975  -0.2896  -0.1417   0.2177   0.2219   0.6943   1.3431   1.4109
     1.8327   2.0319   2.3564   2.5288   2.5471   2.8508   2.9919

     the Fermi energy is     0.3755 ev

!    total energy              =   -5020.55262382 Ry
     Harris-Foulkes estimate   =   -5020.55263081 Ry
     estimated scf accuracy    <       0.00000170 Ry

     The total energy is the sum of the following terms:

     one-electron contribution =  -27655.02248397 Ry
     hartree contribution      =   13835.29224581 Ry
     xc contribution           =    -602.79885143 Ry
     ewald contribution        =    9402.01003415 Ry
     electric field correction =       0.00001301 Ry
     smearing contrib. (-TS)   =      -0.03358138 Ry

     convergence has been achieved in  19 iterations
 
 BEEF-vdW xc energy contributions
           1 :   -538.711277815133     
           2 :    488.963952119267     
           3 :   -405.565747734718     
           4 :    312.755713280814     
           5 :   -231.979579109309     
           6 :    173.857210668705     
           7 :   -136.674515689920     
           8 :    111.155717456481     
           9 :   -87.9122459582509     
          10 :    62.9416336072848     
          11 :   -38.4058798926397     
          12 :    19.2072862256075     
          13 :   -8.42529015767082     
          14 :    4.89185914300265     
          15 :   -4.22141331771127     
          16 :    2.04527957758273     
          17 :    3.14010357881216     
          18 :   -9.49966356953439     
          19 :    13.8171579070777     
          20 :   -14.1926803695794     
          21 :    11.4402554842798     
          22 :   -8.30869401842642     
          23 :    7.31927892181193     
          24 :   -8.95506638149936     
          25 :    11.5186077378160     
          26 :   -12.6321035257013     
          27 :    11.1315203647034     
          28 :   -7.90728980215886     
          29 :    5.13336831472691     
          30 :   -4.57090690013047     
          31 :   -39.9440019144658     
          32 :   -27.1300580827719     

     Forces acting on atoms (Ry/au):


     negative rho (up, down):  1.152E-03 0.000E+00
     atom    1 type  1   force =     0.00119653    0.00067673   -0.00055322
     atom    2 type  1   force =    -0.00121573    0.00064040   -0.00109856
     atom    3 type  1   force =     0.00001707   -0.00135880   -0.00024457
     atom    4 type  1   force =    -0.00001383    0.00002840    0.00179878
     atom    5 type  1   force =    -0.00004142   -0.00354797    0.00153991
     atom    6 type  1   force =     0.00004905   -0.00003660    0.00936752
     atom    7 type  1   force =     0.00304041    0.00181807    0.00156372
     atom    8 type  1   force =    -0.00303360    0.00177081    0.00152670
     atom    9 type  1   force =     0.00000377   -0.00000208   -0.00645297
     atom   10 type  1   force =     0.00000850   -0.00066407    0.01792020
     atom   11 type  1   force =    -0.00057372    0.00034171    0.01788070
     atom   12 type  1   force =     0.00055258    0.00033045    0.01790515
     atom   13 type  2   force =     0.00000563    0.00000122   -0.02956772
     atom   14 type  3   force =     0.00000476    0.00000174   -0.03158565

     Total force =     0.053631     Total SCF correction =     0.002268


     entering subroutine stress ...


     negative rho (up, down):  1.152E-03 0.000E+00
          total   stress  (Ry/bohr**3)                   (kbar)     P=  -10.31
  -0.00006662  -0.00000000  -0.00000000         -9.80     -0.00     -0.00
  -0.00000000  -0.00006662   0.00000000         -0.00     -9.80      0.00
  -0.00000000   0.00000000  -0.00007697         -0.00      0.00    -11.32


     BFGS Geometry Optimization

     number of scf cycles    =   1
     number of bfgs steps    =   0

     energy   new            =   -5020.5526238206 Ry

     new trust radius        =       0.0315856466 bohr
     new conv_thr            =       0.0000099958 Ry


ATOMIC_POSITIONS (crystal)
Ga1      0.166666667   0.166666667   0.400460194    0   0   0
Ga1      0.666666667   0.166666667   0.400460194    0   0   0
Ga1      0.166666667   0.666666667   0.400460194    0   0   0
Ga1      0.666666667   0.666666667   0.400460194    0   0   0
Ga1      0.833333333   0.333333333   0.500000000    0   0   0
Ga1      0.333333333   0.333333333   0.500000000    0   0   0
Ga1      0.833333333   0.833333333   0.500000000    0   0   0
Ga1      0.333333333   0.833333333   0.500000000    0   0   0
Ga1      0.000000432  -0.000000209   0.599403058
Ga1      0.500034062  -0.000066646   0.599919561
Ga1     -0.000067011   0.500034294   0.599918724
Ga1      0.500031445   0.500033164   0.599919242
N1       0.333333761   0.333333455   0.649150955
H1       0.333333660   0.333333508   0.691156512



     Writing output data file calc.save
     Check: negative starting charge=   -0.001134
     NEW-OLD atomic charge density approx. for the potential
     Check: negative starting charge=   -0.001128

     negative rho (up, down):  1.172E-03 0.000E+00
 
     Adding external electric field

     Computed dipole along edir(3) : 
        Dipole                0.1221 Ry au,          0.3103 Debye
        Dipole field          0.0003 Ry au
 
        Potential amp.       -0.0261 Ry
        Total length         46.0091 bohr
 

     total cpu time spent up to now is      633.4 secs

     Self-consistent Calculation

     iteration #  1     ecut=    36.75 Ry     beta=0.30
     Davidson diagonalization with overlap
     ethr =  1.00E-06,  avg # of iterations =  5.5

     negative rho (up, down):  1.153E-03 0.000E+00
 
     Adding external electric field

     Computed dipole along edir(3) : 
        Dipole               -0.0819 Ry au,         -0.2081 Debye
        Dipole field         -0.0002 Ry au
 
        Potential amp.        0.0175 Ry
        Total length         46.0091 bohr
 

     total cpu time spent up to now is      673.3 secs

     total energy              =   -5020.55319768 Ry
     Harris-Foulkes estimate   =   -5020.55569226 Ry
     estimated scf accuracy    <       0.00504567 Ry

     iteration #  2     ecut=    36.75 Ry     beta=0.30
     Davidson diagonalization with overlap
     ethr =  2.16E-06,  avg # of iterations =  6.3

     negative rho (up, down):  1.142E-03 0.000E+00
 
     Adding external electric field

     Computed dipole along edir(3) : 
        Dipole                0.1085 Ry au,          0.2757 Debye
        Dipole field          0.0003 Ry au
 
        Potential amp.       -0.0232 Ry
        Total length         46.0091 bohr
 

     total cpu time spent up to now is      698.6 secs

     total energy              =   -5020.54700619 Ry
     Harris-Foulkes estimate   =   -5020.56360179 Ry
     estimated scf accuracy    <       0.23675376 Ry

     iteration #  3     ecut=    36.75 Ry     beta=0.30
     Davidson diagonalization with overlap
     ethr =  2.16E-06,  avg # of iterations =  6.7

     negative rho (up, down):  1.141E-03 0.000E+00
 
     Adding external electric field

     Computed dipole along edir(3) : 
        Dipole                0.0991 Ry au,          0.2518 Debye
        Dipole field          0.0002 Ry au
 
        Potential amp.       -0.0212 Ry
        Total length         46.0091 bohr
 

     total cpu time spent up to now is      724.0 secs

     total energy              =   -5020.55528289 Ry
     Harris-Foulkes estimate   =   -5020.55551881 Ry
     estimated scf accuracy    <       0.00134746 Ry

     iteration #  4     ecut=    36.75 Ry     beta=0.30
     Davidson diagonalization with overlap
     ethr =  5.76E-07,  avg # of iterations =  2.0

     negative rho (up, down):  1.139E-03 0.000E+00
 
     Adding external electric field

     Computed dipole along edir(3) : 
        Dipole                0.0989 Ry au,          0.2513 Debye
        Dipole field          0.0002 Ry au
 
        Potential amp.       -0.0211 Ry
        Total length         46.0091 bohr
 

     total cpu time spent up to now is      743.0 secs

     total energy              =   -5020.55539445 Ry
     Harris-Foulkes estimate   =   -5020.55539807 Ry
     estimated scf accuracy    <       0.00002954 Ry

     iteration #  5     ecut=    36.75 Ry     beta=0.30
     Davidson diagonalization with overlap
     ethr =  1.26E-08,  avg # of iterations =  3.0

     negative rho (up, down):  1.142E-03 0.000E+00

     negative rho (up, down):  1.142E-03 0.000E+00

     negative rho (up, down):  1.142E-03 0.000E+00

     negative rho (up, down):  1.142E-03 0.000E+00

     negative rho (up, down):  1.142E-03 0.000E+00

     negative rho (up, down):  1.142E-03 0.000E+00

     negative rho (up, down):  1.142E-03 0.000E+00

     negative rho (up, down):  1.142E-03 0.000E+00

     negative rho (up, down):  1.142E-03 0.000E+00

     negative rho (up, down):  1.142E-03 0.000E+00

     negative rho (up, down):  1.142E-03 0.000E+00

     negative rho (up, down):  1.142E-03 0.000E+00

     negative rho (up, down):  1.142E-03 0.000E+00

     negative rho (up, down):  1.142E-03 0.000E+00

     negative rho (up, down):  1.142E-03 0.000E+00

     negative rho (up, down):  1.142E-03 0.000E+00

     negative rho (up, down):  1.142E-03 0.000E+00

     negative rho (up, down):  1.142E-03 0.000E+00

     negative rho (up, down):  1.142E-03 0.000E+00

     negative rho (up, down):  1.142E-03 0.000E+00

     negative rho (up, down):  1.142E-03 0.000E+00

     negative rho (up, down):  1.142E-03 0.000E+00

     negative rho (up, down):  1.142E-03 0.000E+00

     negative rho (up, down):  1.142E-03 0.000E+00

     negative rho (up, down):  1.142E-03 0.000E+00

     negative rho (up, down):  1.142E-03 0.000E+00

     negative rho (up, down):  1.142E-03 0.000E+00

     negative rho (up, down):  1.142E-03 0.000E+00

     negative rho (up, down):  1.142E-03 0.000E+00

     negative rho (up, down):  1.142E-03 0.000E+00

     negative rho (up, down):  1.142E-03 0.000E+00

     negative rho (up, down):  1.142E-03 0.000E+00

     negative rho (up, down):  1.142E-03 0.000E+00

     negative rho (up, down):  1.142E-03 0.000E+00

     negative rho (up, down):  1.142E-03 0.000E+00
 
     Adding external electric field

     Computed dipole along edir(3) : 
        Dipole                0.0995 Ry au,          0.2530 Debye
        Dipole field          0.0002 Ry au
 
        Potential amp.       -0.0213 Ry
        Total length         46.0091 bohr
 

     total cpu time spent up to now is      782.0 secs

     End of self-consistent calculation

          k = 0.0000 0.0000 0.0000 ( 20347 PWs)   bands (ev):

   -94.4401 -94.4101 -94.4101 -94.4096 -94.4088 -94.4088 -94.4001 -94.4001
   -94.3996 -94.3878 -94.3878 -94.3750 -94.3746 -94.3746 -94.3741 -94.3668
   -94.3659 -94.3659 -94.3639 -94.3639 -94.3634 -94.3573 -94.3566 -94.3566
   -94.3545 -94.3536 -94.3536 -94.3527 -94.3527 -94.3527 -94.3419 -94.3407
   -94.3399 -94.3399 -94.3259 -94.3259 -15.6335 -14.8849 -14.8813 -14.8813
   -14.8470 -14.8446 -14.8446 -14.8332 -14.8332 -14.8189 -14.8122 -14.8122
   -14.8079 -14.7995 -14.7903 -14.7825 -14.7825 -14.7745 -14.7689 -14.7689
   -14.7609 -14.7609 -14.7584 -14.7578 -14.7578 -14.7394 -14.7394 -14.7391
   -14.7330 -14.7330 -14.6844 -14.6844 -14.6804 -14.6636 -14.6636 -14.6539
   -14.6515 -14.6515 -14.6404 -14.6404 -14.6340 -14.6140 -14.6140 -14.6128
   -14.6027 -14.6027 -14.5967 -14.5967 -14.5863 -14.5826 -14.5826 -14.5823
   -14.5772 -14.5772 -14.5668 -14.5655 -14.5655 -14.5622 -14.5622 -14.5504
   -14.1709  -9.7365  -8.3429  -6.5771  -5.3743  -4.7986  -4.7986  -4.4815
    -4.4815  -4.3237  -3.9455  -3.5815  -3.5815  -2.8862  -2.3993  -2.3993
    -2.0893  -1.6893  -1.6893  -1.4759  -0.6260  -0.4698  -0.4698   0.6796
     0.6796   0.9703   1.6032   3.0904   3.3587   3.3587   3.3672

          k = 0.0000 0.0316 0.0000 ( 20271 PWs)   bands (ev):

   -94.4401 -94.4100 -94.4100 -94.4095 -94.4088 -94.4088 -94.4001 -94.4001
   -94.3996 -94.3878 -94.3878 -94.3750 -94.3746 -94.3746 -94.3741 -94.3667
   -94.3659 -94.3658 -94.3639 -94.3638 -94.3634 -94.3572 -94.3567 -94.3566
   -94.3545 -94.3536 -94.3536 -94.3528 -94.3528 -94.3527 -94.3418 -94.3407
   -94.3399 -94.3399 -94.3259 -94.3259 -15.6280 -14.8771 -14.8706 -14.8677
   -14.8422 -14.8358 -14.8345 -14.8246 -14.8223 -14.8124 -14.8070 -14.8017
   -14.8005 -14.7903 -14.7892 -14.7800 -14.7785 -14.7705 -14.7654 -14.7652
   -14.7605 -14.7588 -14.7551 -14.7532 -14.7482 -14.7399 -14.7395 -14.7335
   -14.7291 -14.7283 -14.6899 -14.6846 -14.6821 -14.6706 -14.6671 -14.6594
   -14.6572 -14.6529 -14.6481 -14.6453 -14.6353 -14.6218 -14.6183 -14.6154
   -14.6111 -14.6049 -14.6032 -14.5992 -14.5936 -14.5911 -14.5900 -14.5896
   -14.5875 -14.5851 -14.5768 -14.5758 -14.5723 -14.5700 -14.5698 -14.5597
   -14.1619  -9.5897  -8.2164  -6.5934  -5.9914  -5.4374  -5.2262  -4.9226
    -4.4596  -4.4282  -3.7593  -3.3144  -3.2836  -2.8362  -2.1580  -1.8915
    -1.7922  -1.5181  -1.5039  -1.2357  -0.2838  -0.2810   0.0511   0.8764
     0.9529   1.3322   2.1358   2.4192   3.0810   3.1658   3.4247

          k = 0.0000 0.0632 0.0000 ( 20353 PWs)   bands (ev):

   -94.4401 -94.4100 -94.4100 -94.4094 -94.4089 -94.4088 -94.4001 -94.4000
   -94.3997 -94.3878 -94.3878 -94.3749 -94.3746 -94.3746 -94.3741 -94.3666
   -94.3660 -94.3658 -94.3639 -94.3638 -94.3635 -94.3571 -94.3568 -94.3566
   -94.3543 -94.3536 -94.3534 -94.3530 -94.3529 -94.3527 -94.3418 -94.3406
   -94.3401 -94.3399 -94.3259 -94.3259 -15.6168 -14.8601 -14.8418 -14.8361
   -14.8302 -14.8189 -14.8135 -14.8089 -14.8021 -14.7981 -14.7966 -14.7912
   -14.7852 -14.7821 -14.7756 -14.7689 -14.7650 -14.7631 -14.7599 -14.7558
   -14.7529 -14.7511 -14.7437 -14.7410 -14.7366 -14.7327 -14.7229 -14.7229
   -14.7155 -14.7012 -14.7012 -14.6914 -14.6861 -14.6818 -14.6782 -14.6745
   -14.6740 -14.6663 -14.6626 -14.6490 -14.6427 -14.6398 -14.6353 -14.6329
   -14.6306 -14.6247 -14.6240 -14.6175 -14.6169 -14.6137 -14.6085 -14.6071
   -14.6058 -14.6015 -14.5939 -14.5919 -14.5872 -14.5849 -14.5737 -14.5651
   -14.1447  -9.1490  -7.8551  -7.3895  -6.5159  -5.8224  -5.6242  -5.5052
    -4.7739  -4.6411  -4.0427  -3.3129  -3.0704  -2.6185  -1.5858  -1.3687
    -1.2778  -0.9910  -0.6972   0.1488   0.2405   0.4039   0.9358   1.5372
     1.6160   1.7122   2.0830   2.3808   2.4735   3.2282   3.2404

          k = 0.0000-0.0948 0.0000 ( 20384 PWs)   bands (ev):

   -94.4401 -94.4100 -94.4100 -94.4093 -94.4090 -94.4088 -94.4001 -94.3999
   -94.3997 -94.3878 -94.3878 -94.3749 -94.3747 -94.3746 -94.3741 -94.3665
   -94.3661 -94.3658 -94.3640 -94.3638 -94.3636 -94.3571 -94.3569 -94.3566
   -94.3541 -94.3536 -94.3533 -94.3532 -94.3531 -94.3527 -94.3418 -94.3405
   -94.3402 -94.3399 -94.3259 -94.3259 -15.6110 -14.8418 -14.8320 -14.8248
   -14.8151 -14.8133 -14.8091 -14.8072 -14.8005 -14.7868 -14.7859 -14.7824
   -14.7746 -14.7733 -14.7697 -14.7637 -14.7572 -14.7521 -14.7494 -14.7472
   -14.7440 -14.7422 -14.7372 -14.7330 -14.7314 -14.7193 -14.7119 -14.7110
   -14.7097 -14.7076 -14.6987 -14.6981 -14.6948 -14.6876 -14.6774 -14.6741
   -14.6740 -14.6643 -14.6588 -14.6567 -14.6540 -14.6536 -14.6505 -14.6494
   -14.6453 -14.6430 -14.6424 -14.6396 -14.6359 -14.6343 -14.6296 -14.6250
   -14.6175 -14.6037 -14.5978 -14.5936 -14.5902 -14.5872 -14.5739 -14.5652
   -14.1365  -8.4472  -8.3875  -7.3690  -7.0157  -5.9724  -5.7641  -5.4049
    -5.0037  -4.7422  -4.4380  -3.1082  -3.0710  -2.5808  -1.7384  -0.8784
    -0.3856  -0.2807  -0.1174   0.2368   0.2406   0.7210   1.3609   1.4264
     1.8592   2.0583   2.3653   2.5365   2.5631   2.8737   3.0042

          k = 0.0274-0.0158 0.0000 ( 20271 PWs)   bands (ev):

   -94.4401 -94.4100 -94.4100 -94.4095 -94.4088 -94.4088 -94.4001 -94.4001
   -94.3996 -94.3878 -94.3878 -94.3750 -94.3746 -94.3746 -94.3741 -94.3667
   -94.3659 -94.3658 -94.3639 -94.3638 -94.3634 -94.3572 -94.3567 -94.3566
   -94.3545 -94.3536 -94.3536 -94.3528 -94.3528 -94.3527 -94.3418 -94.3407
   -94.3399 -94.3399 -94.3259 -94.3259 -15.6280 -14.8771 -14.8706 -14.8677
   -14.8422 -14.8358 -14.8345 -14.8246 -14.8223 -14.8124 -14.8070 -14.8017
   -14.8005 -14.7903 -14.7892 -14.7800 -14.7785 -14.7705 -14.7654 -14.7652
   -14.7605 -14.7588 -14.7551 -14.7532 -14.7482 -14.7399 -14.7395 -14.7335
   -14.7291 -14.7283 -14.6899 -14.6846 -14.6821 -14.6706 -14.6671 -14.6594
   -14.6572 -14.6529 -14.6481 -14.6453 -14.6353 -14.6218 -14.6183 -14.6154
   -14.6112 -14.6049 -14.6032 -14.5992 -14.5936 -14.5911 -14.5900 -14.5896
   -14.5875 -14.5851 -14.5768 -14.5758 -14.5723 -14.5700 -14.5698 -14.5597
   -14.1619  -9.5897  -8.2164  -6.5934  -5.9914  -5.4374  -5.2262  -4.9226
    -4.4596  -4.4282  -3.7593  -3.3144  -3.2836  -2.8362  -2.1580  -1.8915
    -1.7923  -1.5181  -1.5039  -1.2357  -0.2838  -0.2810   0.0511   0.8764
     0.9529   1.3322   2.1357   2.4192   3.0810   3.1658   3.4247

          k = 0.0274 0.0158 0.0000 ( 20271 PWs)   bands (ev):

   -94.4401 -94.4100 -94.4100 -94.4095 -94.4088 -94.4088 -94.4001 -94.4001
   -94.3996 -94.3878 -94.3878 -94.3750 -94.3746 -94.3746 -94.3741 -94.3667
   -94.3659 -94.3658 -94.3639 -94.3638 -94.3634 -94.3572 -94.3567 -94.3566
   -94.3545 -94.3536 -94.3536 -94.3528 -94.3528 -94.3527 -94.3418 -94.3407
   -94.3399 -94.3399 -94.3259 -94.3259 -15.6280 -14.8771 -14.8706 -14.8677
   -14.8422 -14.8358 -14.8345 -14.8246 -14.8223 -14.8124 -14.8070 -14.8017
   -14.8005 -14.7903 -14.7892 -14.7800 -14.7785 -14.7705 -14.7654 -14.7652
   -14.7605 -14.7588 -14.7551 -14.7532 -14.7482 -14.7399 -14.7395 -14.7335
   -14.7291 -14.7283 -14.6899 -14.6846 -14.6821 -14.6706 -14.6671 -14.6594
   -14.6572 -14.6529 -14.6481 -14.6453 -14.6353 -14.6218 -14.6183 -14.6154
   -14.6112 -14.6049 -14.6032 -14.5992 -14.5936 -14.5911 -14.5900 -14.5896
   -14.5875 -14.5851 -14.5768 -14.5758 -14.5723 -14.5700 -14.5698 -14.5597
   -14.1619  -9.5897  -8.2164  -6.5934  -5.9914  -5.4374  -5.2262  -4.9226
    -4.4596  -4.4282  -3.7593  -3.3144  -3.2836  -2.8362  -2.1580  -1.8915
    -1.7923  -1.5181  -1.5039  -1.2357  -0.2838  -0.2810   0.0511   0.8764
     0.9529   1.3322   2.1357   2.4192   3.0810   3.1658   3.4247

          k = 0.0274 0.0474 0.0000 ( 20341 PWs)   bands (ev):

   -94.4401 -94.4100 -94.4100 -94.4094 -94.4089 -94.4088 -94.4001 -94.4000
   -94.3997 -94.3878 -94.3878 -94.3749 -94.3746 -94.3746 -94.3741 -94.3666
   -94.3660 -94.3658 -94.3639 -94.3638 -94.3635 -94.3572 -94.3567 -94.3566
   -94.3543 -94.3536 -94.3534 -94.3530 -94.3528 -94.3528 -94.3418 -94.3406
   -94.3400 -94.3399 -94.3259 -94.3259 -15.6196 -14.8605 -14.8566 -14.8437
   -14.8304 -14.8243 -14.8191 -14.8100 -14.8031 -14.8013 -14.7975 -14.7925
   -14.7916 -14.7858 -14.7787 -14.7753 -14.7709 -14.7654 -14.7632 -14.7597
   -14.7572 -14.7496 -14.7474 -14.7430 -14.7413 -14.7360 -14.7325 -14.7270
   -14.7196 -14.7089 -14.6973 -14.6891 -14.6840 -14.6786 -14.6774 -14.6695
   -14.6684 -14.6646 -14.6548 -14.6510 -14.6413 -14.6348 -14.6317 -14.6250
   -14.6244 -14.6189 -14.6181 -14.6101 -14.6074 -14.6058 -14.6026 -14.5993
   -14.5960 -14.5954 -14.5910 -14.5899 -14.5841 -14.5796 -14.5761 -14.5718
   -14.1489  -9.2959  -7.9692  -6.8779  -6.5641  -6.1681  -5.5735  -5.3091
    -4.4739  -4.0876  -3.9264  -3.5832  -3.2409  -2.8197  -1.7817  -1.4126
    -1.3618  -1.1833  -0.7312  -0.5356   0.1731   0.3536   0.7864   1.0294
     1.4958   1.6069   2.1252   2.2982   2.7776   2.9777   3.5167

          k = 0.0274-0.1106 0.0000 ( 20377 PWs)   bands (ev):

   -94.4401 -94.4100 -94.4100 -94.4093 -94.4090 -94.4088 -94.4001 -94.3999
   -94.3997 -94.3878 -94.3878 -94.3749 -94.3747 -94.3746 -94.3741 -94.3665
   -94.3661 -94.3658 -94.3640 -94.3637 -94.3636 -94.3571 -94.3569 -94.3566
   -94.3541 -94.3537 -94.3532 -94.3532 -94.3530 -94.3528 -94.3418 -94.3405
   -94.3402 -94.3399 -94.3259 -94.3259 -15.6110 -14.8397 -14.8272 -14.8198
   -14.8172 -14.8158 -14.8071 -14.7996 -14.7959 -14.7937 -14.7872 -14.7824
   -14.7792 -14.7759 -14.7701 -14.7635 -14.7588 -14.7554 -14.7514 -14.7486
   -14.7439 -14.7405 -14.7367 -14.7351 -14.7306 -14.7213 -14.7168 -14.7147
   -14.7126 -14.7055 -14.7017 -14.6953 -14.6938 -14.6902 -14.6824 -14.6798
   -14.6758 -14.6663 -14.6656 -14.6635 -14.6563 -14.6527 -14.6485 -14.6462
   -14.6408 -14.6385 -14.6352 -14.6328 -14.6280 -14.6239 -14.6199 -14.6139
   -14.6095 -14.6048 -14.6003 -14.5982 -14.5941 -14.5890 -14.5817 -14.5746
   -14.1366  -8.7098  -7.8581  -7.4711  -6.9629  -6.6275  -5.8818  -5.4003
    -4.7483  -4.3131  -3.9474  -3.5746  -2.8439  -2.5049  -1.9437  -1.3724
    -0.9208  -0.3462   0.0451   0.2915   0.6514   0.8117   1.1578   1.4859
     1.5963   1.9576   2.1825   2.4486   2.7936   3.0324   3.3193

          k = 0.0274-0.0790 0.0000 ( 20377 PWs)   bands (ev):

   -94.4401 -94.4100 -94.4100 -94.4093 -94.4090 -94.4088 -94.4001 -94.3999
   -94.3997 -94.3878 -94.3878 -94.3749 -94.3747 -94.3746 -94.3741 -94.3665
   -94.3661 -94.3658 -94.3640 -94.3637 -94.3636 -94.3571 -94.3569 -94.3566
   -94.3541 -94.3537 -94.3532 -94.3532 -94.3530 -94.3528 -94.3418 -94.3405
   -94.3402 -94.3399 -94.3259 -94.3259 -15.6110 -14.8397 -14.8272 -14.8198
   -14.8172 -14.8158 -14.8071 -14.7996 -14.7959 -14.7937 -14.7872 -14.7824
   -14.7792 -14.7759 -14.7701 -14.7635 -14.7588 -14.7554 -14.7514 -14.7486
   -14.7439 -14.7405 -14.7367 -14.7351 -14.7306 -14.7213 -14.7168 -14.7147
   -14.7126 -14.7055 -14.7017 -14.6953 -14.6938 -14.6902 -14.6824 -14.6798
   -14.6758 -14.6663 -14.6656 -14.6635 -14.6563 -14.6527 -14.6485 -14.6462
   -14.6408 -14.6385 -14.6352 -14.6328 -14.6280 -14.6239 -14.6199 -14.6139
   -14.6095 -14.6048 -14.6003 -14.5982 -14.5941 -14.5890 -14.5817 -14.5746
   -14.1366  -8.7098  -7.8581  -7.4711  -6.9629  -6.6275  -5.8818  -5.4003
    -4.7483  -4.3131  -3.9474  -3.5746  -2.8439  -2.5049  -1.9437  -1.3724
    -0.9208  -0.3462   0.0451   0.2915   0.6514   0.8117   1.1578   1.4859
     1.5963   1.9576   2.1825   2.4486   2.7936   3.0324   3.3193

          k = 0.0274-0.0474 0.0000 ( 20341 PWs)   bands (ev):

   -94.4401 -94.4100 -94.4100 -94.4094 -94.4089 -94.4088 -94.4001 -94.4000
   -94.3997 -94.3878 -94.3878 -94.3749 -94.3746 -94.3746 -94.3741 -94.3666
   -94.3660 -94.3658 -94.3639 -94.3638 -94.3635 -94.3572 -94.3567 -94.3566
   -94.3543 -94.3536 -94.3534 -94.3530 -94.3528 -94.3528 -94.3418 -94.3406
   -94.3400 -94.3399 -94.3259 -94.3259 -15.6196 -14.8605 -14.8566 -14.8437
   -14.8304 -14.8243 -14.8191 -14.8100 -14.8031 -14.8013 -14.7975 -14.7925
   -14.7916 -14.7858 -14.7787 -14.7753 -14.7709 -14.7654 -14.7632 -14.7597
   -14.7572 -14.7496 -14.7474 -14.7430 -14.7413 -14.7360 -14.7325 -14.7270
   -14.7196 -14.7089 -14.6973 -14.6891 -14.6840 -14.6786 -14.6774 -14.6695
   -14.6684 -14.6646 -14.6548 -14.6510 -14.6413 -14.6348 -14.6317 -14.6250
   -14.6244 -14.6189 -14.6181 -14.6101 -14.6074 -14.6058 -14.6026 -14.5993
   -14.5960 -14.5954 -14.5910 -14.5899 -14.5841 -14.5796 -14.5761 -14.5718
   -14.1489  -9.2959  -7.9692  -6.8779  -6.5641  -6.1681  -5.5735  -5.3091
    -4.4739  -4.0877  -3.9264  -3.5832  -3.2409  -2.8197  -1.7817  -1.4126
    -1.3618  -1.1833  -0.7312  -0.5356   0.1731   0.3536   0.7864   1.0294
     1.4958   1.6069   2.1252   2.2982   2.7776   2.9777   3.5167

          k = 0.0547-0.0316 0.0000 ( 20353 PWs)   bands (ev):

   -94.4401 -94.4100 -94.4100 -94.4094 -94.4089 -94.4088 -94.4001 -94.4000
   -94.3997 -94.3878 -94.3878 -94.3749 -94.3747 -94.3746 -94.3741 -94.3666
   -94.3660 -94.3658 -94.3639 -94.3638 -94.3635 -94.3571 -94.3568 -94.3566
   -94.3543 -94.3536 -94.3534 -94.3530 -94.3529 -94.3527 -94.3418 -94.3405
   -94.3401 -94.3399 -94.3259 -94.3259 -15.6168 -14.8601 -14.8418 -14.8361
   -14.8302 -14.8189 -14.8135 -14.8089 -14.8021 -14.7981 -14.7966 -14.7912
   -14.7852 -14.7821 -14.7756 -14.7689 -14.7650 -14.7631 -14.7599 -14.7558
   -14.7529 -14.7511 -14.7437 -14.7410 -14.7366 -14.7327 -14.7229 -14.7229
   -14.7155 -14.7012 -14.7012 -14.6914 -14.6861 -14.6818 -14.6782 -14.6745
   -14.6740 -14.6663 -14.6626 -14.6490 -14.6427 -14.6398 -14.6353 -14.6329
   -14.6306 -14.6247 -14.6240 -14.6175 -14.6169 -14.6137 -14.6085 -14.6071
   -14.6058 -14.6015 -14.5939 -14.5919 -14.5872 -14.5849 -14.5737 -14.5651
   -14.1447  -9.1490  -7.8551  -7.3895  -6.5159  -5.8224  -5.6242  -5.5052
    -4.7739  -4.6411  -4.0427  -3.3129  -3.0704  -2.6185  -1.5858  -1.3687
    -1.2778  -0.9910  -0.6972   0.1488   0.2405   0.4039   0.9358   1.5372
     1.6160   1.7122   2.0830   2.3808   2.4735   3.2282   3.2404

          k = 0.0547 0.0000 0.0000 ( 20341 PWs)   bands (ev):

   -94.4401 -94.4101 -94.4100 -94.4094 -94.4089 -94.4088 -94.4001 -94.4000
   -94.3997 -94.3878 -94.3878 -94.3749 -94.3746 -94.3746 -94.3741 -94.3666
   -94.3660 -94.3658 -94.3639 -94.3638 -94.3635 -94.3572 -94.3567 -94.3566
   -94.3543 -94.3536 -94.3534 -94.3530 -94.3528 -94.3528 -94.3418 -94.3406
   -94.3400 -94.3399 -94.3259 -94.3259 -15.6196 -14.8605 -14.8566 -14.8437
   -14.8304 -14.8243 -14.8191 -14.8100 -14.8031 -14.8013 -14.7975 -14.7925
   -14.7916 -14.7858 -14.7787 -14.7753 -14.7709 -14.7654 -14.7632 -14.7597
   -14.7572 -14.7496 -14.7474 -14.7430 -14.7413 -14.7360 -14.7325 -14.7270
   -14.7196 -14.7089 -14.6973 -14.6891 -14.6840 -14.6786 -14.6774 -14.6695
   -14.6684 -14.6646 -14.6548 -14.6510 -14.6413 -14.6348 -14.6317 -14.6250
   -14.6244 -14.6189 -14.6181 -14.6101 -14.6074 -14.6058 -14.6026 -14.5993
   -14.5960 -14.5954 -14.5910 -14.5899 -14.5841 -14.5796 -14.5761 -14.5718
   -14.1489  -9.2959  -7.9692  -6.8779  -6.5641  -6.1681  -5.5735  -5.3091
    -4.4739  -4.0877  -3.9264  -3.5832  -3.2409  -2.8197  -1.7817  -1.4126
    -1.3618  -1.1833  -0.7312  -0.5356   0.1731   0.3536   0.7864   1.0294
     1.4958   1.6069   2.1252   2.2982   2.7776   2.9777   3.5167

          k = 0.0547 0.0316 0.0000 ( 20353 PWs)   bands (ev):

   -94.4401 -94.4100 -94.4100 -94.4094 -94.4089 -94.4088 -94.4001 -94.4000
   -94.3997 -94.3878 -94.3878 -94.3749 -94.3746 -94.3746 -94.3741 -94.3666
   -94.3660 -94.3658 -94.3639 -94.3638 -94.3635 -94.3571 -94.3568 -94.3566
   -94.3543 -94.3536 -94.3534 -94.3530 -94.3529 -94.3527 -94.3418 -94.3405
   -94.3401 -94.3399 -94.3259 -94.3259 -15.6168 -14.8601 -14.8418 -14.8361
   -14.8302 -14.8189 -14.8135 -14.8089 -14.8021 -14.7981 -14.7966 -14.7912
   -14.7852 -14.7821 -14.7756 -14.7689 -14.7650 -14.7631 -14.7599 -14.7558
   -14.7529 -14.7511 -14.7437 -14.7410 -14.7366 -14.7327 -14.7229 -14.7229
   -14.7155 -14.7012 -14.7012 -14.6914 -14.6861 -14.6818 -14.6782 -14.6745
   -14.6740 -14.6663 -14.6626 -14.6490 -14.6427 -14.6398 -14.6353 -14.6329
   -14.6306 -14.6247 -14.6240 -14.6175 -14.6169 -14.6137 -14.6085 -14.6071
   -14.6058 -14.6015 -14.5939 -14.5919 -14.5872 -14.5849 -14.5737 -14.5651
   -14.1447  -9.1490  -7.8551  -7.3895  -6.5159  -5.8224  -5.6242  -5.5052
    -4.7739  -4.6411  -4.0427  -3.3129  -3.0704  -2.6185  -1.5858  -1.3687
    -1.2778  -0.9910  -0.6972   0.1488   0.2405   0.4039   0.9358   1.5372
     1.6160   1.7122   2.0830   2.3808   2.4735   3.2282   3.2404

          k = 0.0547-0.1264 0.0000 ( 20377 PWs)   bands (ev):

   -94.4401 -94.4100 -94.4100 -94.4093 -94.4090 -94.4088 -94.4001 -94.3999
   -94.3997 -94.3878 -94.3878 -94.3749 -94.3747 -94.3746 -94.3741 -94.3665
   -94.3661 -94.3658 -94.3640 -94.3637 -94.3636 -94.3571 -94.3569 -94.3566
   -94.3541 -94.3537 -94.3532 -94.3532 -94.3530 -94.3528 -94.3418 -94.3404
   -94.3402 -94.3399 -94.3259 -94.3259 -15.6110 -14.8397 -14.8272 -14.8198
   -14.8172 -14.8158 -14.8071 -14.7996 -14.7959 -14.7937 -14.7872 -14.7824
   -14.7792 -14.7759 -14.7701 -14.7635 -14.7588 -14.7554 -14.7514 -14.7486
   -14.7439 -14.7405 -14.7367 -14.7351 -14.7306 -14.7213 -14.7168 -14.7147
   -14.7126 -14.7055 -14.7017 -14.6953 -14.6938 -14.6902 -14.6824 -14.6798
   -14.6758 -14.6663 -14.6656 -14.6635 -14.6563 -14.6527 -14.6485 -14.6462
   -14.6408 -14.6385 -14.6352 -14.6328 -14.6280 -14.6239 -14.6199 -14.6139
   -14.6095 -14.6048 -14.6003 -14.5982 -14.5941 -14.5890 -14.5817 -14.5746
   -14.1366  -8.7098  -7.8581  -7.4711  -6.9629  -6.6275  -5.8818  -5.4003
    -4.7483  -4.3131  -3.9474  -3.5747  -2.8439  -2.5049  -1.9437  -1.3724
    -0.9208  -0.3462   0.0451   0.2915   0.6514   0.8117   1.1578   1.4859
     1.5963   1.9576   2.1825   2.4486   2.7936   3.0324   3.3193

          k = 0.0547-0.0948 0.0000 ( 20397 PWs)   bands (ev):

   -94.4401 -94.4100 -94.4100 -94.4092 -94.4092 -94.4088 -94.4001 -94.3998
   -94.3998 -94.3878 -94.3878 -94.3749 -94.3747 -94.3746 -94.3741 -94.3663
   -94.3663 -94.3658 -94.3640 -94.3637 -94.3637 -94.3570 -94.3570 -94.3566
   -94.3539 -94.3539 -94.3533 -94.3531 -94.3529 -94.3529 -94.3418 -94.3403
   -94.3403 -94.3399 -94.3259 -94.3259 -15.6081 -14.8178 -14.8142 -14.8116
   -14.8097 -14.8071 -14.8050 -14.7997 -14.7942 -14.7939 -14.7928 -14.7854
   -14.7807 -14.7688 -14.7604 -14.7551 -14.7535 -14.7523 -14.7438 -14.7420
   -14.7390 -14.7340 -14.7338 -14.7315 -14.7259 -14.7207 -14.7168 -14.7133
   -14.7127 -14.7118 -14.7033 -14.7000 -14.6944 -14.6922 -14.6897 -14.6827
   -14.6818 -14.6776 -14.6741 -14.6721 -14.6660 -14.6609 -14.6549 -14.6460
[...]
    -4.7076  -4.3579  -3.7914  -3.7159  -3.2656  -2.8030  -1.7803  -1.3391
    -1.3072  -1.1022  -0.7137  -0.3842   0.2330   0.5310   1.0193   1.3603
     1.4348   1.8306   2.1981   2.3978   2.8970   3.1556   3.5776

          k = 0.0547-0.0316 0.0000 ( 20353 PWs)   bands (ev):

   -94.4080 -94.4075 -94.4075 -94.4001 -94.4000 -94.3993 -94.3377 -94.3362
   -94.3360 -94.2875 -94.2653 -94.2653 -94.2632 -94.2600 -94.2600 -94.2460
   -94.2459 -94.2459 -94.2297 -94.2290 -94.2287 -94.2274 -94.2273 -94.2270
   -94.2247 -94.2240 -94.2237 -94.2233 -94.2232 -94.2230 -94.2182 -94.2179
   -94.2179 -94.2154 -94.2148 -94.2148 -16.2681 -14.8435 -14.8241 -14.8050
   -14.7983 -14.7912 -14.7853 -14.7755 -14.7410 -14.7400 -14.7346 -14.7182
   -14.7041 -14.7035 -14.6873 -14.6812 -14.6737 -14.6705 -14.6633 -14.6587
   -14.6530 -14.6436 -14.6361 -14.6309 -14.6291 -14.6255 -14.6204 -14.6171
   -14.6087 -14.6064 -14.6049 -14.5931 -14.5913 -14.5756 -14.5718 -14.5686
   -14.5652 -14.5548 -14.5546 -14.5464 -14.5388 -14.5270 -14.5217 -14.5214
   -14.5118 -14.5068 -14.4981 -14.4952 -14.4916 -14.4889 -14.4838 -14.4811
   -14.4773 -14.4756 -14.4676 -14.4676 -14.4611 -14.4477 -14.4440 -14.4347
   -14.2149  -9.1591  -7.7765  -7.5024  -6.5106  -5.9402  -5.8900  -5.4815
    -4.7993  -4.7089  -4.1037  -3.4849  -3.1746  -2.5766  -1.5643  -1.2606
    -1.1783  -1.0369  -0.6032   0.1563   0.5016   0.6060   0.9696   1.6414
     1.6639   1.9094   2.2250   2.4140   2.6273   3.2926   3.3986

          k = 0.0547 0.0000 0.0000 ( 20341 PWs)   bands (ev):

   -94.4081 -94.4075 -94.4075 -94.4001 -94.4000 -94.3993 -94.3377 -94.3362
   -94.3360 -94.2875 -94.2653 -94.2653 -94.2632 -94.2600 -94.2600 -94.2460
   -94.2459 -94.2459 -94.2298 -94.2290 -94.2288 -94.2274 -94.2273 -94.2270
   -94.2247 -94.2240 -94.2238 -94.2233 -94.2231 -94.2230 -94.2182 -94.2179
   -94.2178 -94.2154 -94.2148 -94.2148 -16.2720 -14.8385 -14.8371 -14.8147
   -14.7989 -14.7945 -14.7876 -14.7752 -14.7413 -14.7386 -14.7316 -14.7140
   -14.7066 -14.7040 -14.6953 -14.6890 -14.6756 -14.6698 -14.6660 -14.6621
   -14.6550 -14.6476 -14.6436 -14.6368 -14.6295 -14.6242 -14.6210 -14.6157
   -14.6121 -14.6096 -14.6035 -14.5976 -14.5944 -14.5810 -14.5757 -14.5696
   -14.5624 -14.5560 -14.5478 -14.5451 -14.5374 -14.5257 -14.5176 -14.5163
   -14.5028 -14.5013 -14.4934 -14.4894 -14.4862 -14.4841 -14.4804 -14.4776
   -14.4717 -14.4653 -14.4630 -14.4598 -14.4545 -14.4454 -14.4441 -14.4418
   -14.2229  -9.3003  -7.8945  -7.0269  -6.7013  -6.0169  -5.6643  -5.4735
    -4.7076  -4.3579  -3.7914  -3.7159  -3.2656  -2.8030  -1.7803  -1.3391
    -1.3072  -1.1022  -0.7137  -0.3842   0.2330   0.5310   1.0193   1.3603
     1.4348   1.8306   2.1981   2.3978   2.8970   3.1556   3.5776

          k = 0.0547 0.0316 0.0000 ( 20353 PWs)   bands (ev):

   -94.4080 -94.4075 -94.4075 -94.4001 -94.4000 -94.3993 -94.3377 -94.3362
   -94.3360 -94.2875 -94.2653 -94.2653 -94.2632 -94.2600 -94.2600 -94.2460
   -94.2459 -94.2459 -94.2297 -94.2290 -94.2287 -94.2274 -94.2273 -94.2270
   -94.2247 -94.2240 -94.2237 -94.2233 -94.2232 -94.2230 -94.2182 -94.2179
   -94.2178 -94.2154 -94.2148 -94.2148 -16.2681 -14.8435 -14.8241 -14.8050
   -14.7983 -14.7912 -14.7853 -14.7755 -14.7410 -14.7400 -14.7346 -14.7182
   -14.7041 -14.7035 -14.6873 -14.6812 -14.6737 -14.6705 -14.6633 -14.6587
   -14.6530 -14.6436 -14.6361 -14.6309 -14.6291 -14.6255 -14.6204 -14.6171
   -14.6087 -14.6064 -14.6049 -14.5931 -14.5913 -14.5756 -14.5718 -14.5686
   -14.5652 -14.5548 -14.5546 -14.5464 -14.5388 -14.5270 -14.5217 -14.5214
   -14.5118 -14.5068 -14.4981 -14.4952 -14.4916 -14.4889 -14.4838 -14.4811
   -14.4773 -14.4756 -14.4676 -14.4676 -14.4611 -14.4477 -14.4440 -14.4347
   -14.2149  -9.1591  -7.7765  -7.5024  -6.5106  -5.9403  -5.8899  -5.4815
    -4.7993  -4.7089  -4.1037  -3.4848  -3.1746  -2.5766  -1.5642  -1.2606
    -1.1783  -1.0369  -0.6032   0.1563   0.5015   0.6060   0.9696   1.6413
     1.6639   1.9094   2.2250   2.4140   2.6273   3.2926   3.3986

          k = 0.0547-0.1264 0.0000 ( 20377 PWs)   bands (ev):

   -94.4080 -94.4076 -94.4075 -94.4001 -94.3999 -94.3993 -94.3376 -94.3363
   -94.3360 -94.2875 -94.2653 -94.2653 -94.2632 -94.2600 -94.2600 -94.2460
   -94.2460 -94.2459 -94.2296 -94.2291 -94.2287 -94.2274 -94.2272 -94.2270
   -94.2245 -94.2241 -94.2236 -94.2234 -94.2232 -94.2230 -94.2182 -94.2180
   -94.2178 -94.2154 -94.2148 -94.2148 -16.2601 -14.8347 -14.8156 -14.8013
   -14.7891 -14.7835 -14.7774 -14.7710 -14.7513 -14.7431 -14.7327 -14.7212
   -14.7075 -14.6883 -14.6840 -14.6743 -14.6663 -14.6564 -14.6519 -14.6460
   -14.6436 -14.6375 -14.6351 -14.6331 -14.6256 -14.6197 -14.6174 -14.6118
   -14.6092 -14.6020 -14.5940 -14.5892 -14.5853 -14.5740 -14.5729 -14.5711
   -14.5659 -14.5615 -14.5574 -14.5494 -14.5419 -14.5374 -14.5338 -14.5237
   -14.5224 -14.5157 -14.5105 -14.5082 -14.5044 -14.4996 -14.4947 -14.4905
   -14.4848 -14.4811 -14.4737 -14.4726 -14.4664 -14.4559 -14.4481 -14.4435
   -14.2001  -8.7372  -7.9001  -7.4190  -7.1038  -6.6461  -5.8971  -5.4478
    -4.9056  -4.3675  -4.0152  -3.5298  -3.1526  -2.4704  -1.8738  -1.2730
    -0.8203  -0.3506   0.0934   0.3948   0.6795   0.8932   1.2981   1.5833
     1.6419   2.2220   2.3999   2.4902   2.8261   3.1540   3.5178

          k = 0.0547-0.0948 0.0000 ( 20397 PWs)   bands (ev):

   -94.4080 -94.4076 -94.4075 -94.4001 -94.3999 -94.3994 -94.3375 -94.3364
   -94.3360 -94.2875 -94.2653 -94.2653 -94.2632 -94.2600 -94.2600 -94.2460
   -94.2460 -94.2459 -94.2294 -94.2293 -94.2287 -94.2275 -94.2271 -94.2271
   -94.2243 -94.2243 -94.2235 -94.2235 -94.2231 -94.2231 -94.2181 -94.2180
   -94.2179 -94.2154 -94.2148 -94.2148 -16.2561 -14.8273 -14.8081 -14.8068
   -14.7852 -14.7783 -14.7732 -14.7731 -14.7460 -14.7452 -14.7448 -14.7115
   -14.7102 -14.6857 -14.6700 -14.6669 -14.6613 -14.6485 -14.6451 -14.6422
   -14.6421 -14.6408 -14.6375 -14.6335 -14.6202 -14.6185 -14.6144 -14.6085
   -14.6063 -14.6013 -14.5947 -14.5868 -14.5805 -14.5762 -14.5756 -14.5671
   -14.5650 -14.5631 -14.5610 -14.5546 -14.5509 -14.5467 -14.5399 -14.5378
   -14.5228 -14.5191 -14.5148 -14.5117 -14.4979 -14.4979 -14.4960 -14.4888
   -14.4877 -14.4870 -14.4770 -14.4731 -14.4709 -14.4636 -14.4616 -14.4489
   -14.1932  -8.1186  -8.0031  -7.9879  -6.9553  -6.7747  -6.5793  -5.0435
    -4.8138  -4.7527  -3.5823  -3.2407  -3.0353  -2.5118  -2.2122  -1.4359
    -0.4384  -0.1762  -0.0811   0.3079   0.4376   0.6194   1.9668   2.1006
     2.2076   2.5386   2.5479   3.0851   3.1897   3.2009   3.4147

          k = 0.0547-0.0632 0.0000 ( 20377 PWs)   bands (ev):

   -94.4080 -94.4076 -94.4075 -94.4001 -94.3999 -94.3993 -94.3376 -94.3363
   -94.3360 -94.2875 -94.2653 -94.2653 -94.2632 -94.2600 -94.2600 -94.2460
   -94.2460 -94.2459 -94.2296 -94.2291 -94.2287 -94.2275 -94.2272 -94.2270
   -94.2245 -94.2241 -94.2236 -94.2234 -94.2232 -94.2230 -94.2182 -94.2180
   -94.2179 -94.2154 -94.2148 -94.2148 -16.2601 -14.8347 -14.8156 -14.8013
   -14.7891 -14.7835 -14.7774 -14.7710 -14.7513 -14.7431 -14.7327 -14.7213
   -14.7075 -14.6883 -14.6840 -14.6743 -14.6663 -14.6564 -14.6519 -14.6460
   -14.6436 -14.6375 -14.6351 -14.6331 -14.6256 -14.6197 -14.6174 -14.6118
   -14.6092 -14.6020 -14.5940 -14.5892 -14.5853 -14.5740 -14.5729 -14.5711
   -14.5659 -14.5615 -14.5574 -14.5494 -14.5419 -14.5374 -14.5338 -14.5237
   -14.5224 -14.5157 -14.5105 -14.5082 -14.5044 -14.4996 -14.4947 -14.4905
   -14.4848 -14.4811 -14.4737 -14.4726 -14.4664 -14.4559 -14.4481 -14.4435
   -14.2001  -8.7373  -7.9001  -7.4190  -7.1038  -6.6461  -5.8971  -5.4477
    -4.9056  -4.3675  -4.0153  -3.5298  -3.1526  -2.4704  -1.8739  -1.2730
    -0.8203  -0.3506   0.0934   0.3948   0.6795   0.8932   1.2981   1.5833
     1.6419   2.2220   2.3999   2.4902   2.8261   3.1540   3.5178

          k =-0.0821 0.0474 0.0000 ( 20384 PWs)   bands (ev):

   -94.4080 -94.4076 -94.4075 -94.4001 -94.4000 -94.3993 -94.3376 -94.3363
   -94.3360 -94.2875 -94.2653 -94.2653 -94.2632 -94.2600 -94.2600 -94.2460
   -94.2460 -94.2459 -94.2296 -94.2291 -94.2287 -94.2274 -94.2273 -94.2270
   -94.2246 -94.2240 -94.2236 -94.2234 -94.2233 -94.2230 -94.2182 -94.2180
   -94.2179 -94.2154 -94.2148 -94.2148 -16.2601 -14.8422 -14.8110 -14.7999
   -14.7876 -14.7803 -14.7738 -14.7701 -14.7495 -14.7463 -14.7317 -14.7283
   -14.7067 -14.6926 -14.6836 -14.6824 -14.6624 -14.6589 -14.6495 -14.6481
   -14.6463 -14.6389 -14.6330 -14.6325 -14.6237 -14.6198 -14.6152 -14.6128
   -14.6036 -14.5977 -14.5926 -14.5865 -14.5836 -14.5782 -14.5728 -14.5658
   -14.5583 -14.5570 -14.5545 -14.5526 -14.5367 -14.5337 -14.5314 -14.5278
   -14.5232 -14.5164 -14.5159 -14.5142 -14.5100 -14.5067 -14.5021 -14.4936
   -14.4919 -14.4873 -14.4753 -14.4699 -14.4651 -14.4493 -14.4449 -14.4346
   -14.1999  -8.5212  -8.3842  -7.2319  -7.1253  -6.1336  -6.0116  -5.2219
    -5.0719  -4.8971  -4.3863  -3.1635  -3.0491  -2.8231  -1.5944  -0.8118
    -0.4794  -0.2617  -0.0893   0.2918   0.3455   0.9009   1.4444   1.5661
     2.1252   2.2842   2.3565   2.5220   2.5419   2.9964   3.1169

          k =-0.0821 0.0790 0.0000 ( 20377 PWs)   bands (ev):

   -94.4080 -94.4076 -94.4075 -94.4001 -94.3999 -94.3993 -94.3376 -94.3363
   -94.3360 -94.2875 -94.2653 -94.2653 -94.2632 -94.2600 -94.2600 -94.2460
   -94.2460 -94.2459 -94.2296 -94.2291 -94.2287 -94.2275 -94.2272 -94.2270
   -94.2245 -94.2241 -94.2236 -94.2234 -94.2232 -94.2230 -94.2182 -94.2180
   -94.2179 -94.2154 -94.2148 -94.2148 -16.2601 -14.8347 -14.8156 -14.8013
   -14.7891 -14.7835 -14.7774 -14.7710 -14.7513 -14.7431 -14.7327 -14.7213
   -14.7075 -14.6883 -14.6840 -14.6743 -14.6663 -14.6564 -14.6519 -14.6460
   -14.6436 -14.6375 -14.6351 -14.6331 -14.6256 -14.6197 -14.6174 -14.6118
   -14.6092 -14.6020 -14.5940 -14.5892 -14.5853 -14.5740 -14.5729 -14.5711
   -14.5659 -14.5615 -14.5574 -14.5494 -14.5419 -14.5374 -14.5338 -14.5237
   -14.5224 -14.5157 -14.5105 -14.5082 -14.5044 -14.4996 -14.4947 -14.4905
   -14.4848 -14.4811 -14.4737 -14.4726 -14.4664 -14.4559 -14.4481 -14.4435
   -14.2001  -8.7373  -7.9001  -7.4189  -7.1038  -6.6461  -5.8971  -5.4478
    -4.9055  -4.3676  -4.0152  -3.5298  -3.1526  -2.4704  -1.8739  -1.2730
    -0.8203  -0.3506   0.0934   0.3948   0.6795   0.8932   1.2981   1.5833
     1.6419   2.2220   2.3999   2.4902   2.8261   3.1540   3.5178

          k =-0.0821 0.1106 0.0000 ( 20377 PWs)   bands (ev):

   -94.4080 -94.4076 -94.4075 -94.4001 -94.3999 -94.3993 -94.3376 -94.3363
   -94.3360 -94.2875 -94.2653 -94.2653 -94.2632 -94.2600 -94.2600 -94.2460
   -94.2460 -94.2459 -94.2296 -94.2291 -94.2287 -94.2274 -94.2272 -94.2270
   -94.2245 -94.2241 -94.2236 -94.2234 -94.2232 -94.2230 -94.2182 -94.2180
   -94.2178 -94.2154 -94.2148 -94.2148 -16.2601 -14.8347 -14.8156 -14.8013
   -14.7891 -14.7835 -14.7774 -14.7710 -14.7513 -14.7431 -14.7327 -14.7213
   -14.7075 -14.6883 -14.6840 -14.6743 -14.6663 -14.6564 -14.6519 -14.6460
   -14.6436 -14.6375 -14.6351 -14.6331 -14.6256 -14.6197 -14.6174 -14.6118
   -14.6092 -14.6020 -14.5940 -14.5892 -14.5853 -14.5740 -14.5729 -14.5711
   -14.5659 -14.5615 -14.5574 -14.5494 -14.5419 -14.5374 -14.5338 -14.5237
   -14.5224 -14.5157 -14.5105 -14.5082 -14.5045 -14.4996 -14.4947 -14.4905
   -14.4848 -14.4811 -14.4737 -14.4726 -14.4664 -14.4559 -14.4481 -14.4435
   -14.2001  -8.7372  -7.9001  -7.4189  -7.1038  -6.6461  -5.8971  -5.4477
    -4.9056  -4.3675  -4.0152  -3.5298  -3.1526  -2.4704  -1.8738  -1.2730
    -0.8203  -0.3506   0.0934   0.3948   0.6795   0.8932   1.2981   1.5833
     1.6419   2.2221   2.3999   2.4902   2.8261   3.1540   3.5178

          k =-0.0821-0.0474 0.0000 ( 20384 PWs)   bands (ev):

   -94.4080 -94.4076 -94.4075 -94.4001 -94.4000 -94.3993 -94.3376 -94.3363
   -94.3360 -94.2875 -94.2653 -94.2653 -94.2632 -94.2600 -94.2600 -94.2460
   -94.2460 -94.2459 -94.2296 -94.2291 -94.2287 -94.2274 -94.2273 -94.2270
   -94.2246 -94.2240 -94.2236 -94.2234 -94.2233 -94.2230 -94.2182 -94.2180
   -94.2179 -94.2154 -94.2148 -94.2148 -16.2601 -14.8422 -14.8110 -14.7999
   -14.7876 -14.7803 -14.7738 -14.7701 -14.7495 -14.7462 -14.7317 -14.7283
   -14.7067 -14.6926 -14.6836 -14.6824 -14.6624 -14.6589 -14.6495 -14.6481
   -14.6463 -14.6389 -14.6330 -14.6325 -14.6237 -14.6198 -14.6152 -14.6128
   -14.6036 -14.5977 -14.5926 -14.5865 -14.5836 -14.5782 -14.5728 -14.5658
   -14.5583 -14.5570 -14.5545 -14.5526 -14.5367 -14.5337 -14.5314 -14.5278
   -14.5232 -14.5164 -14.5159 -14.5142 -14.5100 -14.5067 -14.5021 -14.4936
   -14.4919 -14.4873 -14.4753 -14.4699 -14.4651 -14.4493 -14.4449 -14.4346
   -14.1999  -8.5211  -8.3842  -7.2319  -7.1253  -6.1337  -6.0116  -5.2219
    -5.0719  -4.8971  -4.3863  -3.1635  -3.0490  -2.8231  -1.5944  -0.8118
    -0.4793  -0.2617  -0.0894   0.2918   0.3455   0.9009   1.4444   1.5661
     2.1252   2.2842   2.3565   2.5220   2.5419   2.9964   3.1169

     the Fermi energy is     0.5248 ev

!    total energy              =   -5020.57857158 Ry
     Harris-Foulkes estimate   =   -5020.57857169 Ry
     estimated scf accuracy    <       0.00000004 Ry

     The total energy is the sum of the following terms:

     one-electron contribution =  -28038.35326650 Ry
     hartree contribution      =   14027.68430687 Ry
     xc contribution           =    -602.98105500 Ry
     ewald contribution        =    9593.10427046 Ry
     electric field correction =       0.00008005 Ry
     smearing contrib. (-TS)   =      -0.03290746 Ry

     convergence has been achieved in   7 iterations
 
 BEEF-vdW xc energy contributions
           1 :   -538.899176232726     
           2 :    489.223804351745     
           3 :   -405.895339495927     
           4 :    313.081469440689     
           5 :   -232.213870539082     
           6 :    173.955241790170     
           7 :   -136.658449492537     
           8 :    111.095420830631     
           9 :   -87.8781507478636     
          10 :    62.9620567527764     
          11 :   -38.4566072777420     
          12 :    19.2386679124106     
          13 :   -8.40515307156056     
          14 :    4.83114254184102     
          15 :   -4.16520959896366     
          16 :    2.03844094459077     
          17 :    3.08721521848042     
          18 :   -9.41861789636243     
          19 :    13.7561734011076     
          20 :   -14.1808495230523     
          21 :    11.4702073954015     
          22 :   -8.34918927351475     
          23 :    7.34489717091446     
          24 :   -8.96645843098258     
          25 :    11.5356807262513     
          26 :   -12.6658235179067     
          27 :    11.1593127640497     
          28 :   -7.87705586953041     
          29 :    4.99787722824158     
          30 :   -4.32882850550436     
          31 :   -39.9580157001386     
          32 :   -27.1596870975150     

     Forces acting on atoms (Ry/au):


     negative rho (up, down):  1.165E-03 0.000E+00
     atom    1 type  1   force =     0.00147646    0.00085216    0.00011350
     atom    2 type  1   force =    -0.00147694    0.00085259    0.00011279
     atom    3 type  1   force =     0.00000010   -0.00170467    0.00011554
     atom    4 type  1   force =    -0.00000015    0.00000002    0.00336589
     atom    5 type  1   force =    -0.00000177    0.00035624   -0.00057773
     atom    6 type  1   force =     0.00000131   -0.00000185   -0.00058929
     atom    7 type  1   force =    -0.00030982   -0.00017697   -0.00057802
     atom    8 type  1   force =     0.00030958   -0.00017813   -0.00057580
     atom    9 type  1   force =     0.00000082    0.00000090    0.00180567
     atom   10 type  1   force =    -0.00000021   -0.00008276   -0.00182451
     atom   11 type  1   force =    -0.00007467    0.00004297   -0.00182129
     atom   12 type  1   force =     0.00008049    0.00004723   -0.00182770
     atom   13 type  2   force =    -0.00000659   -0.00000936    0.00102266
     atom   14 type  3   force =     0.00000140    0.00000163    0.00125830

     Total force =     0.003987     Total SCF correction =     0.000804
     SCF correction compared to forces is large: reduce conv_thr to get better values


     entering subroutine stress ...


     negative rho (up, down):  1.165E-03 0.000E+00
          total   stress  (Ry/bohr**3)                   (kbar)     P=   -3.67
  -0.00003259   0.00000000  -0.00000000         -4.79      0.00     -0.00
   0.00000000  -0.00003259  -0.00000000          0.00     -4.79     -0.00
  -0.00000000  -0.00000000  -0.00000976         -0.00     -0.00     -1.44


     bfgs converged in  21 scf cycles and  20 bfgs steps
     (criteria: energy <  1.0E+00, force <  1.9E-03)

     End of BFGS Geometry Optimization

     Final energy   =   -5020.5785715806 Ry
Begin final coordinates

ATOMIC_POSITIONS (crystal)
Ga1      0.166666667   0.166666667   0.400460194    0   0   0
Ga1      0.666666667   0.166666667   0.400460194    0   0   0
Ga1      0.166666667   0.666666667   0.400460194    0   0   0
Ga1      0.666666667   0.666666667   0.400460194    0   0   0
Ga1      0.833333333   0.333333333   0.500000000    0   0   0
Ga1      0.333333333   0.333333333   0.500000000    0   0   0
Ga1      0.833333333   0.833333333   0.500000000    0   0   0
Ga1      0.333333333   0.833333333   0.500000000    0   0   0
Ga1     -0.000002020   0.000000526   0.593481630
Ga1      0.510837656  -0.021653635   0.597801018
Ga1     -0.021644600   0.510818060   0.597796597
Ga1      0.510820323   0.510829832   0.597800510
N1       0.333331484   0.333341735   0.632238453
H1       0.333321906   0.333342798   0.673436379
End final coordinates



     Writing output data file calc.save
 
     init_run     :      6.91s CPU      9.26s WALL (       1 calls)
     electrons    :   3689.49s CPU   4801.88s WALL (      21 calls)
     update_pot   :     28.01s CPU     32.12s WALL (      20 calls)
     forces       :     99.23s CPU    105.31s WALL (      21 calls)
     stress       :    333.35s CPU    351.31s WALL (      21 calls)

     Called by init_run:
     wfcinit      :      4.75s CPU      6.73s WALL (       1 calls)
     potinit      :      0.72s CPU      0.92s WALL (       1 calls)

     Called by electrons:
     c_bands      :   2800.81s CPU   3621.36s WALL (     176 calls)
     sum_band     :    408.02s CPU    546.86s WALL (     176 calls)
     v_of_rho     :     85.65s CPU    115.78s WALL (     197 calls)
     newd         :    135.14s CPU    157.18s WALL (     197 calls)
     mix_rho      :      2.42s CPU      3.41s WALL (     176 calls)
     vdW_energy   :     86.46s CPU    110.34s WALL (     953 calls)
     vdW_ffts     :    123.34s CPU    174.60s WALL (    1948 calls)
     vdW_v        :     52.50s CPU     62.98s WALL (     953 calls)

     Called by c_bands:
     init_us_2    :     13.03s CPU     15.39s WALL (    7900 calls)
     cegterg      :   2706.01s CPU   3521.97s WALL (    3520 calls)

     Called by *egterg:
     h_psi        :   1313.00s CPU   1971.25s WALL (   20328 calls)
     s_psi        :     95.86s CPU    101.19s WALL (   20328 calls)
     g_psi        :     12.28s CPU     12.65s WALL (   16788 calls)
     cdiaghg      :    789.21s CPU    805.68s WALL (   19908 calls)

     Called by h_psi:
     add_vuspsi   :     95.06s CPU     99.94s WALL (   20328 calls)

     General routines
     calbec       :    155.39s CPU    158.97s WALL (   24688 calls)
     fft          :    194.80s CPU    270.90s WALL (   57185 calls)
     ffts         :      0.28s CPU      0.42s WALL (     373 calls)
     fftw         :   1105.80s CPU   1886.45s WALL ( 2731994 calls)
     interpolate  :      1.50s CPU      2.67s WALL (     373 calls)
     davcio       :      0.00s CPU      0.07s WALL (      20 calls)
 
     Parallel routines
     fft_scatter  :    718.01s CPU   1180.18s WALL ( 2789552 calls)
 
     PWSCF        :     1h 9m CPU        1h28m WALL

 
   This run was terminated on:   0:46:15  18Apr2018            

=------------------------------------------------------------------------------=
   JOB DONE.
=------------------------------------------------------------------------------=
