  python dir          : /u/if/mamunm/src/espresso
  espresso dir        : /nfs/slac/g/suncatfs/sw/espv18/espresso-dynpy-beef/bin
  pseudo dir          : /u/if/mamunm/psp/gbrv1.5pbe
  ase-espresso py git : GITVERSION



     Program PWSCF v.5.1rc2 (svn rev. 11289) starts on  2May2018 at 13: 7:12 

     This program is part of the open-source Quantum ESPRESSO suite
     for quantum simulation of materials; please cite
         "P. Giannozzi et al., J. Phys.:Condens. Matter 21 395502 (2009);
          URL http://www.quantum-espresso.org", 
     in publications or presentations arising from this work. More details at
     http://www.quantum-espresso.org/quote

     Parallel version (MPI), running on    32 processors
     K-points division:     npool     =       4
     R & G space division:  proc/nbgrp/npool/nimage =       8
     Reading input from pw.inp
     Message from routine read_cards :
     DEPRECATED: no units specified in CELL_PARAMETERS card

     Current dimensions of program PWSCF are:
     Max number of different atomic species (ntypx) = 10
     Max number of k-points (npk) =  40000
     Max angular momentum in pseudopotentials (lmaxx) =  3
     Presently stress not available with electric field


     **************************************************************************
     Initializing libbeef V0.1.1 with the BEEF-vdW functional.
     Citation: Wellendorff et al., PRB 85, 235149 (2012).
     **************************************************************************


     IMPORTANT: XC functional enforced from input :
     Exchange-correlation      = BEEF-VDW ( 1  4 27 13 2)
     Any further DFT definition will be discarded
     Please, verify this is what you really want


     Subspace diagonalization in iterative solution of the eigenvalue problem:
     a serial algorithm will be used

 
     Parallelization info
     --------------------
     sticks:   dense  smooth     PW     G-vecs:    dense   smooth      PW
     Min         297     119     35                55393    13999    2259
     Max         298     120     36                55416    14060    2272
     Sum        2383     955    283               443253   112179   18115
 


     bravais-lattice index     =            0
     lattice parameter (alat)  =       1.8897  a.u.
     unit-cell volume          =    3724.3394 (a.u.)^3
     number of atoms/cell      =           13
     number of atomic types    =            2
     number of electrons       =       172.00
     number of Kohn-Sham states=           96
     kinetic-energy cutoff     =      36.7493  Ry
     charge density cutoff     =     367.4932  Ry
     convergence threshold     =      1.0E-05
     mixing beta               =       0.3000
     number of iterations used =           10  plain     mixing
     Exchange-correlation      = BEEF-VDW ( 1  4 27 13 2)
     nstep                     =           50


     celldm(1)=   1.889726  celldm(2)=   0.000000  celldm(3)=   0.000000
     celldm(4)=   0.000000  celldm(5)=   0.000000  celldm(6)=   0.000000

     crystal axes: (cart. coord. in units of alat)
               a(1) = (   5.132588   0.000000   0.000000 )  
               a(2) = (   2.566294   4.444952   0.000000 )  
               a(3) = (   0.000000   0.000000  24.190741 )  

     reciprocal axes: (cart. coord. in units 2 pi/alat)
               b(1) = (  0.194833 -0.112487  0.000000 )  
               b(2) = (  0.000000  0.224974  0.000000 )  
               b(3) = (  0.000000  0.000000  0.041338 )  


     PseudoPot. # 1 for Cr read from file:
     /u/if/mamunm/psp/gbrv1.5pbe/Cr.UPF
     MD5 check sum: 0d52af634a40206e4dee301ad30da4bf
     Pseudo is Ultrasoft + core correction, Zval = 14.0
     Generated by new atomic code, or converted to UPF format
     Using radial grid of  857 points,  6 beta functions with: 
                l(1) =   0
                l(2) =   0
                l(3) =   1
                l(4) =   1
                l(5) =   2
                l(6) =   2
     Q(r) pseudized with  8 coefficients,  rinner =    0.950   0.950   0.950
                                                       0.950   0.950

     PseudoPot. # 2 for C  read from file:
     /u/if/mamunm/psp/gbrv1.5pbe/C.UPF
     MD5 check sum: d1aef80898a10debaa0f26306b886e00
     Pseudo is Ultrasoft + core correction, Zval =  4.0
     Generated by new atomic code, or converted to UPF format
     Using radial grid of  721 points,  4 beta functions with: 
                l(1) =   0
                l(2) =   0
                l(3) =   1
                l(4) =   1
     Q(r) pseudized with  8 coefficients,  rinner =    1.100   1.100   1.100


     vdW kernel table read from file vdW_kernel_table
     MD5 check sum: 095c7af220d748ca6e76c0b4c6cfb241

     atomic species   valence    mass     pseudopotential
        Cr1           14.00    51.99610     Cr( 1.00)
        C1             4.00    12.01100     C ( 1.00)

     No symmetry found



   Cartesian axes

     site n.     atom                  positions (alat units)
         1           Cr1 tau(   1) = (   1.2831471   0.7408253  10.0000000  )
         2           Cr1 tau(   2) = (   3.8494412   0.7408253  10.0000000  )
         3           Cr1 tau(   3) = (   2.5662941   2.9633012  10.0000000  )
         4           Cr1 tau(   4) = (   5.1325882   2.9633012  10.0000000  )
         5           Cr1 tau(   5) = (   5.1325882   1.4816506  12.0953704  )
         6           Cr1 tau(   6) = (   2.5662941   1.4816506  12.0953704  )
         7           Cr1 tau(   7) = (   6.4157353   3.7041265  12.0953704  )
         8           Cr1 tau(   8) = (   3.8494412   3.7041265  12.0953704  )
         9           Cr1 tau(   9) = (   0.0000000   0.0000000  14.1907408  )
        10           Cr1 tau(  10) = (   2.5662941   0.0000000  14.1907408  )
        11           Cr1 tau(  11) = (   1.2831471   2.2224759  14.1907408  )
        12           Cr1 tau(  12) = (   3.8494412   2.2224759  14.1907408  )
        13           C1  tau(  13) = (   2.5662941   1.4816506  15.5882408  )

     number of k points=    20  Fermi-Dirac smearing, width (Ry)=  0.0110
                       cart. coord. in units 2pi/alat
        k(    1) = (   0.0000000   0.0000000   0.0000000), wk =   0.0555556
        k(    2) = (   0.0000000   0.0374957   0.0000000), wk =   0.1111111
        k(    3) = (   0.0000000   0.0749914   0.0000000), wk =   0.1111111
        k(    4) = (   0.0000000  -0.1124872   0.0000000), wk =   0.0555556
        k(    5) = (   0.0324722  -0.0187479   0.0000000), wk =   0.1111111
        k(    6) = (   0.0324722   0.0187479   0.0000000), wk =   0.1111111
        k(    7) = (   0.0324722   0.0562436   0.0000000), wk =   0.1111111
        k(    8) = (   0.0324722  -0.1312350   0.0000000), wk =   0.1111111
        k(    9) = (   0.0324722  -0.0937393   0.0000000), wk =   0.1111111
        k(   10) = (   0.0324722  -0.0562436   0.0000000), wk =   0.1111111
        k(   11) = (   0.0649445  -0.0374957   0.0000000), wk =   0.1111111
        k(   12) = (   0.0649445   0.0000000   0.0000000), wk =   0.1111111
        k(   13) = (   0.0649445   0.0374957   0.0000000), wk =   0.1111111
        k(   14) = (   0.0649445  -0.1499829   0.0000000), wk =   0.1111111
        k(   15) = (   0.0649445  -0.1124872   0.0000000), wk =   0.1111111
        k(   16) = (   0.0649445  -0.0749914   0.0000000), wk =   0.1111111
        k(   17) = (  -0.0974167   0.0562436   0.0000000), wk =   0.0555556
        k(   18) = (  -0.0974167   0.0937393   0.0000000), wk =   0.1111111
        k(   19) = (  -0.0974167   0.1312350   0.0000000), wk =   0.1111111
        k(   20) = (  -0.0974167  -0.0562436   0.0000000), wk =   0.0555556

     Dense  grid:   443253 G-vectors     FFT dimensions: (  60,  60, 288)

     Smooth grid:   112179 G-vectors     FFT dimensions: (  40,  40, 180)

     Largest allocated arrays     est. size (Mb)     dimensions
        Kohn-Sham Wavefunctions         2.62 Mb     (    1792,   96)
        NL pseudopotentials             6.12 Mb     (    1792,  224)
        Each V/rho on FFT grid          1.98 Mb     (  129600)
        Each G-vector array             0.42 Mb     (   55406)
        G-vector shells                 0.11 Mb     (   14836)
     Largest temporary arrays     est. size (Mb)     dimensions
        Auxiliary wavefunctions        10.50 Mb     (    1792,  384)
        Each subspace H/S matrix        2.25 Mb     (     384,  384)
        Each <psi_i|beta_j> matrix      0.33 Mb     (     224,   96)
        Arrays for rho mixing          19.78 Mb     (  129600,   10)

     Check: negative/imaginary core charge=   -0.000004    0.000000

     Initial potential from superposition of free atoms
     Check: negative starting charge=   -0.014935

     starting charge  159.99977, renormalised to  172.00000

     negative rho (up, down):  1.606E-02 0.000E+00


     ************************************************************************
     *
     * You are using vdW-DF for exchange-correlation in this calculation.
     * Please cite the following three references that made this development
     * possible:
     *
     *   M. Dion, H. Rydberg, E. Schroder, D. C. Langreth, and
     *   B. I. Lundqvist, Phys. Rev. Lett. 92, 246401 (2004).
     *
     *   T. Thonhauser, V. R. Cooper, S. Li, A. Puzder, P. Hyldgaard, and
     *   D. C. Langreth, Phys. Rev. B 76, 125112 (2007).
     *
     *   G. Roman-Perez and J. M. Soler, Phys. Rev. Lett. 103, 096102 (2009).
     *
     *
     * If you are using vdW-DF2, please also cite:
     *
     *   K. Lee, E. D. Murray, L. Kong, B. I. Lundqvist, and
     *   D. C. Langreth, Phys. Rev. B 82, 081101(R) (2010).
     *
     *
     * If you are calculating the stress with vdW-DF, please also cite:
     *
     *   R. Sabatini, E. Kucukbenli, B. Kolb, T. Thonhauser, and
     *   S. de Gironcoli, J. Phys.: Condens. Matter 24, 424209 (2012).
     *
     ************************************************************************

     Carrying out vdW-DF run using the following parameters:

     Nqs =      20    Nr_points =    1024   r_max =   100.000
     q_mesh =
               0.00001000     0.04494208     0.09755937     0.15916263
               0.23128650     0.31572767     0.41458969     0.53033537
               0.66584808     0.82450364     1.01025438     1.22772762
               1.48234092     1.78043706     2.12944203     2.53805004
               3.01644009     3.57652955     4.23227104     5.00000000

     Gradients computed in reciprocal space

     ************************************************************************


 
     Adding external electric field

     Computed dipole along edir(3) : 
        Dipole               -1.9799 Ry au,         -5.0325 Debye
        Dipole field         -0.0067 Ry au
 
        Potential amp.        0.5955 Ry
        Total length         44.5710 bohr
 
     Starting wfc are  124 randomized atomic wfcs

     total cpu time spent up to now is        8.0 secs

     per-process dynamical memory:    63.8 Mb

     Self-consistent Calculation

     iteration #  1     ecut=    36.75 Ry     beta=0.30
     Davidson diagonalization with overlap
     ethr =  1.00E-02,  avg # of iterations =  6.2

     negative rho (up, down):  1.790E-02 0.000E+00
 
     Adding external electric field

     Computed dipole along edir(3) : 
        Dipole               34.2758 Ry au,         87.1203 Debye
        Dipole field          0.1157 Ry au
 
        Potential amp.      -10.3093 Ry
        Total length         44.5710 bohr
 

     total cpu time spent up to now is       27.2 secs

     total energy              =   -2029.44572008 Ry
     Harris-Foulkes estimate   =   -2131.96510282 Ry
     estimated scf accuracy    <     213.63933345 Ry

     iteration #  2     ecut=    36.75 Ry     beta=0.30
     Davidson diagonalization with overlap
     ethr =  1.00E-02,  avg # of iterations = 15.8

     negative rho (up, down):  1.674E-02 0.000E+00
 
     Adding external electric field

     Computed dipole along edir(3) : 
        Dipole               -1.0083 Ry au,         -2.5628 Debye
        Dipole field         -0.0034 Ry au
 
        Potential amp.        0.3033 Ry
        Total length         44.5710 bohr
 

     total cpu time spent up to now is       60.7 secs

     total energy              =   -1948.89524385 Ry
     Harris-Foulkes estimate   =   -2544.69189288 Ry
     estimated scf accuracy    <    9321.34077594 Ry

     iteration #  3     ecut=    36.75 Ry     beta=0.30
     Davidson diagonalization with overlap
     ethr =  1.00E-02,  avg # of iterations =  8.0

     negative rho (up, down):  1.595E-02 0.000E+00
 
     Adding external electric field

     Computed dipole along edir(3) : 
        Dipole                2.5138 Ry au,          6.3895 Debye
        Dipole field          0.0085 Ry au
 
        Potential amp.       -0.7561 Ry
        Total length         44.5710 bohr
 

     total cpu time spent up to now is       85.3 secs

     total energy              =   -2123.34084747 Ry
     Harris-Foulkes estimate   =   -2188.73786285 Ry
     estimated scf accuracy    <     761.72074175 Ry

     iteration #  4     ecut=    36.75 Ry     beta=0.30
     Davidson diagonalization with overlap
     ethr =  1.00E-02,  avg # of iterations =  4.2

     negative rho (up, down):  1.619E-02 0.000E+00
 
     Adding external electric field

     Computed dipole along edir(3) : 
        Dipole                2.1693 Ry au,          5.5139 Debye
        Dipole field          0.0073 Ry au
 
        Potential amp.       -0.6525 Ry
        Total length         44.5710 bohr
 

     total cpu time spent up to now is      100.4 secs

     total energy              =   -2124.05077246 Ry
     Harris-Foulkes estimate   =   -2131.53912922 Ry
     estimated scf accuracy    <     254.99708442 Ry

     iteration #  5     ecut=    36.75 Ry     beta=0.30
     Davidson diagonalization with overlap
     ethr =  1.00E-02,  avg # of iterations =  7.3

     negative rho (up, down):  1.593E-02 0.000E+00
 
     Adding external electric field

     Computed dipole along edir(3) : 
        Dipole                1.8080 Ry au,          4.5954 Debye
        Dipole field          0.0061 Ry au
 
        Potential amp.       -0.5438 Ry
        Total length         44.5710 bohr
 

     total cpu time spent up to now is      117.8 secs

     total energy              =   -2124.82869907 Ry
     Harris-Foulkes estimate   =   -2129.03547266 Ry
     estimated scf accuracy    <      38.36658096 Ry

     iteration #  6     ecut=    36.75 Ry     beta=0.30
     Davidson diagonalization with overlap
     ethr =  1.00E-02,  avg # of iterations =  5.2

     negative rho (up, down):  1.511E-02 0.000E+00
 
     Adding external electric field

     Computed dipole along edir(3) : 
        Dipole                0.2466 Ry au,          0.6268 Debye
        Dipole field          0.0008 Ry au
 
        Potential amp.       -0.0742 Ry
        Total length         44.5710 bohr
 

     total cpu time spent up to now is      132.0 secs

     total energy              =   -2122.75831467 Ry
     Harris-Foulkes estimate   =   -2127.90575862 Ry
     estimated scf accuracy    <     100.74940611 Ry

     iteration #  7     ecut=    36.75 Ry     beta=0.30
     Davidson diagonalization with overlap
     ethr =  1.00E-02,  avg # of iterations =  6.3

     negative rho (up, down):  1.435E-02 0.000E+00
 
     Adding external electric field

     Computed dipole along edir(3) : 
        Dipole               -0.5804 Ry au,         -1.4752 Debye
        Dipole field         -0.0020 Ry au
 
        Potential amp.        0.1746 Ry
        Total length         44.5710 bohr
 

     total cpu time spent up to now is      147.9 secs

     total energy              =   -2127.15723665 Ry
     Harris-Foulkes estimate   =   -2130.91608762 Ry
     estimated scf accuracy    <     300.81220621 Ry

     iteration #  8     ecut=    36.75 Ry     beta=0.30
     Davidson diagonalization with overlap
     ethr =  1.00E-02,  avg # of iterations =  1.0

     negative rho (up, down):  1.399E-02 0.000E+00
 
     Adding external electric field

     Computed dipole along edir(3) : 
        Dipole               -1.0663 Ry au,         -2.7103 Debye
        Dipole field         -0.0036 Ry au
 
        Potential amp.        0.3207 Ry
        Total length         44.5710 bohr
 

     total cpu time spent up to now is      159.3 secs

     total energy              =   -2125.05703256 Ry
     Harris-Foulkes estimate   =   -2127.92669252 Ry
     estimated scf accuracy    <     177.44198057 Ry

     iteration #  9     ecut=    36.75 Ry     beta=0.30
     Davidson diagonalization with overlap
     ethr =  1.00E-02,  avg # of iterations =  2.8

     negative rho (up, down):  1.392E-02 0.000E+00
 
     Adding external electric field

     Computed dipole along edir(3) : 
        Dipole               -1.2603 Ry au,         -3.2034 Debye
        Dipole field         -0.0043 Ry au
 
        Potential amp.        0.3791 Ry
        Total length         44.5710 bohr
 

     total cpu time spent up to now is      171.6 secs

     total energy              =   -2125.18948231 Ry
     Harris-Foulkes estimate   =   -2125.83226808 Ry
     estimated scf accuracy    <      66.07025868 Ry

     iteration # 10     ecut=    36.75 Ry     beta=0.30
     Davidson diagonalization with overlap
     ethr =  1.00E-02,  avg # of iterations =  1.2

     negative rho (up, down):  1.397E-02 0.000E+00
 
     Adding external electric field

     Computed dipole along edir(3) : 
        Dipole               -1.2703 Ry au,         -3.2288 Debye
        Dipole field         -0.0043 Ry au
 
        Potential amp.        0.3821 Ry
        Total length         44.5710 bohr
 

     total cpu time spent up to now is      183.0 secs

     total energy              =   -2124.94882558 Ry
     Harris-Foulkes estimate   =   -2125.41825345 Ry
     estimated scf accuracy    <      52.72608490 Ry

     iteration # 11     ecut=    36.75 Ry     beta=0.30
     Davidson diagonalization with overlap
     ethr =  1.00E-02,  avg # of iterations =  3.6

     negative rho (up, down):  1.425E-02 0.000E+00
 
     Adding external electric field

     Computed dipole along edir(3) : 
        Dipole               -0.8169 Ry au,         -2.0763 Debye
        Dipole field         -0.0028 Ry au
 
        Potential amp.        0.2457 Ry
        Total length         44.5710 bohr
 

     total cpu time spent up to now is      197.2 secs

     total energy              =   -2126.02017107 Ry
     Harris-Foulkes estimate   =   -2126.28318202 Ry
     estimated scf accuracy    <       1.90395515 Ry

     iteration # 12     ecut=    36.75 Ry     beta=0.30
     Davidson diagonalization with overlap
     ethr =  1.11E-03,  avg # of iterations =  6.2

     negative rho (up, down):  1.440E-02 0.000E+00
 
     Adding external electric field

     Computed dipole along edir(3) : 
        Dipole               -0.6011 Ry au,         -1.5279 Debye
        Dipole field         -0.0020 Ry au
 
        Potential amp.        0.1808 Ry
        Total length         44.5710 bohr
 

     total cpu time spent up to now is      214.1 secs

     total energy              =   -2126.32713440 Ry
     Harris-Foulkes estimate   =   -2126.67644226 Ry
     estimated scf accuracy    <      20.32031891 Ry

     iteration # 13     ecut=    36.75 Ry     beta=0.30
     Davidson diagonalization with overlap
     ethr =  1.11E-03,  avg # of iterations =  3.2

     negative rho (up, down):  1.441E-02 0.000E+00
 
     Adding external electric field

     Computed dipole along edir(3) : 
        Dipole               -0.5731 Ry au,         -1.4566 Debye
        Dipole field         -0.0019 Ry au
 
        Potential amp.        0.1724 Ry
        Total length         44.5710 bohr
 

     total cpu time spent up to now is      226.8 secs

     total energy              =   -2126.59666374 Ry
     Harris-Foulkes estimate   =   -2126.44574741 Ry
     estimated scf accuracy    <       2.15423852 Ry

     iteration # 14     ecut=    36.75 Ry     beta=0.30
     Davidson diagonalization with overlap
     ethr =  1.11E-03,  avg # of iterations =  2.8

     negative rho (up, down):  1.442E-02 0.000E+00
 
     Adding external electric field

     Computed dipole along edir(3) : 
        Dipole               -0.5057 Ry au,         -1.2853 Debye
        Dipole field         -0.0017 Ry au
 
        Potential amp.        0.1521 Ry
        Total length         44.5710 bohr
 

     total cpu time spent up to now is      239.4 secs

     total energy              =   -2126.58991165 Ry
     Harris-Foulkes estimate   =   -2126.79980956 Ry
     estimated scf accuracy    <      31.30777545 Ry

     iteration # 15     ecut=    36.75 Ry     beta=0.30
     Davidson diagonalization with overlap
     ethr =  1.11E-03,  avg # of iterations =  1.0

     negative rho (up, down):  1.450E-02 0.000E+00
 
     Adding external electric field

     Computed dipole along edir(3) : 
        Dipole               -0.4628 Ry au,         -1.1763 Debye
        Dipole field         -0.0016 Ry au
 
        Potential amp.        0.1392 Ry
        Total length         44.5710 bohr
 

     total cpu time spent up to now is      251.0 secs

     total energy              =   -2126.40053644 Ry
     Harris-Foulkes estimate   =   -2126.65285016 Ry
     estimated scf accuracy    <      12.00539787 Ry

     iteration # 16     ecut=    36.75 Ry     beta=0.30
     Davidson diagonalization with overlap
     ethr =  1.11E-03,  avg # of iterations =  1.8

     negative rho (up, down):  1.432E-02 0.000E+00
 
     Adding external electric field

     Computed dipole along edir(3) : 
        Dipole               -0.7033 Ry au,         -1.7876 Debye
        Dipole field         -0.0024 Ry au
 
        Potential amp.        0.2115 Ry
        Total length         44.5710 bohr
 

     total cpu time spent up to now is      263.0 secs

     total energy              =   -2126.40344204 Ry
     Harris-Foulkes estimate   =   -2126.47999032 Ry
     estimated scf accuracy    <       7.82610750 Ry

     iteration # 17     ecut=    36.75 Ry     beta=0.30
     Davidson diagonalization with overlap
     ethr =  1.11E-03,  avg # of iterations =  1.0

     negative rho (up, down):  1.405E-02 0.000E+00
 
     Adding external electric field

     Computed dipole along edir(3) : 
        Dipole               -0.8375 Ry au,         -2.1288 Debye
        Dipole field         -0.0028 Ry au
 
        Potential amp.        0.2519 Ry
        Total length         44.5710 bohr
 

     total cpu time spent up to now is      274.5 secs

     total energy              =   -2126.49225724 Ry
     Harris-Foulkes estimate   =   -2126.44128709 Ry
     estimated scf accuracy    <       5.69712520 Ry

     iteration # 18     ecut=    36.75 Ry     beta=0.30
     Davidson diagonalization with overlap
     ethr =  1.11E-03,  avg # of iterations =  1.0

     negative rho (up, down):  1.394E-02 0.000E+00
 
     Adding external electric field

     Computed dipole along edir(3) : 
        Dipole               -0.7822 Ry au,         -1.9881 Debye
        Dipole field         -0.0026 Ry au
 
        Potential amp.        0.2353 Ry
        Total length         44.5710 bohr
 

     total cpu time spent up to now is      286.0 secs

     total energy              =   -2126.49661585 Ry
     Harris-Foulkes estimate   =   -2126.53279473 Ry
     estimated scf accuracy    <      12.90997586 Ry

     iteration # 19     ecut=    36.75 Ry     beta=0.30
     Davidson diagonalization with overlap
     ethr =  1.11E-03,  avg # of iterations =  1.0

     negative rho (up, down):  1.391E-02 0.000E+00
 
     Adding external electric field

     Computed dipole along edir(3) : 
        Dipole               -0.7120 Ry au,         -1.8097 Debye
        Dipole field         -0.0024 Ry au
 
        Potential amp.        0.2141 Ry
        Total length         44.5710 bohr
 

     total cpu time spent up to now is      297.4 secs

     total energy              =   -2126.46585391 Ry
     Harris-Foulkes estimate   =   -2126.51044276 Ry
     estimated scf accuracy    <      10.11763539 Ry

     iteration # 20     ecut=    36.75 Ry     beta=0.30
     Davidson diagonalization with overlap
     ethr =  1.11E-03,  avg # of iterations =  1.0

     negative rho (up, down):  1.395E-02 0.000E+00
 
     Adding external electric field

     Computed dipole along edir(3) : 
        Dipole               -0.7102 Ry au,         -1.8052 Debye
        Dipole field         -0.0024 Ry au
 
        Potential amp.        0.2136 Ry
        Total length         44.5710 bohr
 

     total cpu time spent up to now is      308.8 secs

     total energy              =   -2126.46275116 Ry
     Harris-Foulkes estimate   =   -2126.47381274 Ry
     estimated scf accuracy    <       6.82004348 Ry

     iteration # 21     ecut=    36.75 Ry     beta=0.30
     Davidson diagonalization with overlap
     ethr =  1.11E-03,  avg # of iterations =  1.0

     negative rho (up, down):  1.394E-02 0.000E+00
 
     Adding external electric field

     Computed dipole along edir(3) : 
        Dipole               -0.4843 Ry au,         -1.2310 Debye
        Dipole field         -0.0016 Ry au
 
        Potential amp.        0.1457 Ry
        Total length         44.5710 bohr
 

     total cpu time spent up to now is      320.4 secs

     total energy              =   -2126.27114585 Ry
     Harris-Foulkes estimate   =   -2126.46749654 Ry
     estimated scf accuracy    <       6.90804817 Ry

     iteration # 22     ecut=    36.75 Ry     beta=0.30
     Davidson diagonalization with overlap
     ethr =  1.11E-03,  avg # of iterations =  4.3

     negative rho (up, down):  1.390E-02 0.000E+00
 
     Adding external electric field

     Computed dipole along edir(3) : 
        Dipole               -0.4244 Ry au,         -1.0786 Debye
        Dipole field         -0.0014 Ry au
 
        Potential amp.        0.1276 Ry
        Total length         44.5710 bohr
 

     total cpu time spent up to now is      333.9 secs

     total energy              =   -2126.37580607 Ry
     Harris-Foulkes estimate   =   -2126.39694573 Ry
     estimated scf accuracy    <       0.33421793 Ry

     iteration # 23     ecut=    36.75 Ry     beta=0.30
     Davidson diagonalization with overlap
     ethr =  1.94E-04,  avg # of iterations =  7.3

     negative rho (up, down):  1.395E-02 0.000E+00
 
     Adding external electric field

     Computed dipole along edir(3) : 
        Dipole               -0.4241 Ry au,         -1.0781 Debye
        Dipole field         -0.0014 Ry au
 
        Potential amp.        0.1276 Ry
        Total length         44.5710 bohr
 

     total cpu time spent up to now is      348.8 secs

     total energy              =   -2126.39091288 Ry
     Harris-Foulkes estimate   =   -2126.40117055 Ry
     estimated scf accuracy    <       0.31273903 Ry

     iteration # 24     ecut=    36.75 Ry     beta=0.30
     Davidson diagonalization with overlap
     ethr =  1.82E-04,  avg # of iterations =  1.4

     negative rho (up, down):  1.392E-02 0.000E+00
 
     Adding external electric field

     Computed dipole along edir(3) : 
        Dipole               -0.4142 Ry au,         -1.0527 Debye
        Dipole field         -0.0014 Ry au
 
        Potential amp.        0.1246 Ry
        Total length         44.5710 bohr
 

     total cpu time spent up to now is      361.0 secs

     total energy              =   -2126.39117608 Ry
     Harris-Foulkes estimate   =   -2126.39761329 Ry
     estimated scf accuracy    <       0.17069375 Ry

     iteration # 25     ecut=    36.75 Ry     beta=0.30
     Davidson diagonalization with overlap
     ethr =  9.92E-05,  avg # of iterations =  2.0

     negative rho (up, down):  1.394E-02 0.000E+00
 
     Adding external electric field

     Computed dipole along edir(3) : 
        Dipole               -0.3561 Ry au,         -0.9052 Debye
        Dipole field         -0.0012 Ry au
 
        Potential amp.        0.1071 Ry
        Total length         44.5710 bohr
 

     total cpu time spent up to now is      373.3 secs

     total energy              =   -2126.39189338 Ry
     Harris-Foulkes estimate   =   -2126.39476306 Ry
     estimated scf accuracy    <       0.06797030 Ry

     iteration # 26     ecut=    36.75 Ry     beta=0.30
     Davidson diagonalization with overlap
     ethr =  3.95E-05,  avg # of iterations =  5.3

     negative rho (up, down):  1.392E-02 0.000E+00
 
     Adding external electric field

     Computed dipole along edir(3) : 
        Dipole               -0.3554 Ry au,         -0.9033 Debye
        Dipole field         -0.0012 Ry au
 
        Potential amp.        0.1069 Ry
        Total length         44.5710 bohr
 

     total cpu time spent up to now is      387.2 secs

     total energy              =   -2126.39491087 Ry
     Harris-Foulkes estimate   =   -2126.39621988 Ry
     estimated scf accuracy    <       0.02586418 Ry

     iteration # 27     ecut=    36.75 Ry     beta=0.30
     Davidson diagonalization with overlap
     ethr =  1.50E-05,  avg # of iterations =  5.1

     negative rho (up, down):  1.395E-02 0.000E+00
 
     Adding external electric field

     Computed dipole along edir(3) : 
        Dipole               -0.3389 Ry au,         -0.8613 Debye
        Dipole field         -0.0011 Ry au
 
        Potential amp.        0.1019 Ry
        Total length         44.5710 bohr
 

     total cpu time spent up to now is      401.1 secs

     total energy              =   -2126.39525203 Ry
     Harris-Foulkes estimate   =   -2126.39609889 Ry
     estimated scf accuracy    <       0.01653553 Ry

     iteration # 28     ecut=    36.75 Ry     beta=0.30
     Davidson diagonalization with overlap
     ethr =  9.61E-06,  avg # of iterations =  3.9

     negative rho (up, down):  1.395E-02 0.000E+00
 
     Adding external electric field

     Computed dipole along edir(3) : 
        Dipole               -0.3151 Ry au,         -0.8008 Debye
        Dipole field         -0.0011 Ry au
 
        Potential amp.        0.0948 Ry
        Total length         44.5710 bohr
 

     total cpu time spent up to now is      414.0 secs

     total energy              =   -2126.39543679 Ry
     Harris-Foulkes estimate   =   -2126.39582215 Ry
     estimated scf accuracy    <       0.00360038 Ry

     iteration # 29     ecut=    36.75 Ry     beta=0.30
     Davidson diagonalization with overlap
     ethr =  2.09E-06,  avg # of iterations =  6.4

     negative rho (up, down):  1.398E-02 0.000E+00
 
     Adding external electric field

     Computed dipole along edir(3) : 
        Dipole               -0.2859 Ry au,         -0.7268 Debye
        Dipole field         -0.0010 Ry au
 
        Potential amp.        0.0860 Ry
        Total length         44.5710 bohr
 

     total cpu time spent up to now is      430.0 secs

     total energy              =   -2126.39585444 Ry
     Harris-Foulkes estimate   =   -2126.39622151 Ry
     estimated scf accuracy    <       0.00714761 Ry

     iteration # 30     ecut=    36.75 Ry     beta=0.30
     Davidson diagonalization with overlap
     ethr =  2.09E-06,  avg # of iterations =  1.0

     negative rho (up, down):  1.410E-02 0.000E+00
 
     Adding external electric field

     Computed dipole along edir(3) : 
        Dipole               -0.2415 Ry au,         -0.6138 Debye
        Dipole field         -0.0008 Ry au
 
        Potential amp.        0.0726 Ry
        Total length         44.5710 bohr
 

     total cpu time spent up to now is      441.6 secs

     total energy              =   -2126.39600302 Ry
     Harris-Foulkes estimate   =   -2126.39610374 Ry
     estimated scf accuracy    <       0.00443348 Ry

     iteration # 31     ecut=    36.75 Ry     beta=0.30
     Davidson diagonalization with overlap
     ethr =  2.09E-06,  avg # of iterations =  1.1

     negative rho (up, down):  1.426E-02 0.000E+00
 
     Adding external electric field

     Computed dipole along edir(3) : 
        Dipole               -0.2362 Ry au,         -0.6003 Debye
        Dipole field         -0.0008 Ry au
 
        Potential amp.        0.0710 Ry
        Total length         44.5710 bohr
 

     total cpu time spent up to now is      453.3 secs

     total energy              =   -2126.39586167 Ry
     Harris-Foulkes estimate   =   -2126.39611378 Ry
     estimated scf accuracy    <       0.00394433 Ry

     iteration # 32     ecut=    36.75 Ry     beta=0.30
     Davidson diagonalization with overlap
     ethr =  2.09E-06,  avg # of iterations =  1.9

     negative rho (up, down):  1.414E-02 0.000E+00
 
     Adding external electric field

     Computed dipole along edir(3) : 
        Dipole               -0.2468 Ry au,         -0.6272 Debye
        Dipole field         -0.0008 Ry au
 
        Potential amp.        0.0742 Ry
        Total length         44.5710 bohr
 

     total cpu time spent up to now is      465.5 secs

     total energy              =   -2126.39592106 Ry
     Harris-Foulkes estimate   =   -2126.39597759 Ry
     estimated scf accuracy    <       0.00047742 Ry

     iteration # 33     ecut=    36.75 Ry     beta=0.30
     Davidson diagonalization with overlap
     ethr =  2.78E-07,  avg # of iterations =  5.1

     negative rho (up, down):  1.432E-02 0.000E+00
 
     Adding external electric field

     Computed dipole along edir(3) : 
        Dipole               -0.2337 Ry au,         -0.5940 Debye
        Dipole field         -0.0008 Ry au
 
        Potential amp.        0.0703 Ry
        Total length         44.5710 bohr
 

     total cpu time spent up to now is      481.7 secs

     total energy              =   -2126.39602889 Ry
     Harris-Foulkes estimate   =   -2126.39615493 Ry
     estimated scf accuracy    <       0.00365585 Ry

     iteration # 34     ecut=    36.75 Ry     beta=0.30
     Davidson diagonalization with overlap
     ethr =  2.78E-07,  avg # of iterations =  1.0

     negative rho (up, down):  1.443E-02 0.000E+00
 
     Adding external electric field

     Computed dipole along edir(3) : 
        Dipole               -0.2283 Ry au,         -0.5802 Debye
        Dipole field         -0.0008 Ry au
 
        Potential amp.        0.0687 Ry
        Total length         44.5710 bohr
 

     total cpu time spent up to now is      493.3 secs

     total energy              =   -2126.39600524 Ry
     Harris-Foulkes estimate   =   -2126.39606804 Ry
     estimated scf accuracy    <       0.00147299 Ry

     iteration # 35     ecut=    36.75 Ry     beta=0.30
     Davidson diagonalization with overlap
     ethr =  2.78E-07,  avg # of iterations =  4.4

     negative rho (up, down):  1.453E-02 0.000E+00
 
     Adding external electric field

     Computed dipole along edir(3) : 
        Dipole               -0.2265 Ry au,         -0.5756 Debye
        Dipole field         -0.0008 Ry au
 
        Potential amp.        0.0681 Ry
        Total length         44.5710 bohr
 

     total cpu time spent up to now is      507.1 secs

     total energy              =   -2126.39603582 Ry
     Harris-Foulkes estimate   =   -2126.39605310 Ry
     estimated scf accuracy    <       0.00018378 Ry

     iteration # 36     ecut=    36.75 Ry     beta=0.30
     Davidson diagonalization with overlap
     ethr =  1.07E-07,  avg # of iterations =  2.9

     negative rho (up, down):  1.447E-02 0.000E+00
 
     Adding external electric field

     Computed dipole along edir(3) : 
        Dipole               -0.2288 Ry au,         -0.5815 Debye
        Dipole field         -0.0008 Ry au
 
        Potential amp.        0.0688 Ry
        Total length         44.5710 bohr
 

     total cpu time spent up to now is      519.9 secs

     total energy              =   -2126.39604193 Ry
     Harris-Foulkes estimate   =   -2126.39604166 Ry
     estimated scf accuracy    <       0.00004716 Ry

     iteration # 37     ecut=    36.75 Ry     beta=0.30
     Davidson diagonalization with overlap
     ethr =  2.74E-08,  avg # of iterations =  5.2

     negative rho (up, down):  1.441E-02 0.000E+00
 
     Adding external electric field

     Computed dipole along edir(3) : 
        Dipole               -0.2298 Ry au,         -0.5842 Debye
        Dipole field         -0.0008 Ry au
 
        Potential amp.        0.0691 Ry
        Total length         44.5710 bohr
 

     total cpu time spent up to now is      535.5 secs

     total energy              =   -2126.39604212 Ry
     Harris-Foulkes estimate   =   -2126.39605033 Ry
     estimated scf accuracy    <       0.00028800 Ry

     iteration # 38     ecut=    36.75 Ry     beta=0.30
     Davidson diagonalization with overlap
     ethr =  2.74E-08,  avg # of iterations =  5.2

     negative rho (up, down):  1.452E-02 0.000E+00
 
     Adding external electric field

     Computed dipole along edir(3) : 
        Dipole               -0.2266 Ry au,         -0.5759 Debye
        Dipole field         -0.0008 Ry au
 
        Potential amp.        0.0681 Ry
        Total length         44.5710 bohr
 

     total cpu time spent up to now is      549.7 secs

     total energy              =   -2126.39604297 Ry
     Harris-Foulkes estimate   =   -2126.39605615 Ry
     estimated scf accuracy    <       0.00009976 Ry

     iteration # 39     ecut=    36.75 Ry     beta=0.30
     Davidson diagonalization with overlap
     ethr =  2.74E-08,  avg # of iterations =  4.7

     negative rho (up, down):  1.467E-02 0.000E+00
 
     Adding external electric field

     Computed dipole along edir(3) : 
        Dipole               -0.2239 Ry au,         -0.5690 Debye
        Dipole field         -0.0008 Ry au
 
        Potential amp.        0.0673 Ry
        Total length         44.5710 bohr
 

     total cpu time spent up to now is      563.0 secs

     total energy              =   -2126.39604431 Ry
     Harris-Foulkes estimate   =   -2126.39605121 Ry
     estimated scf accuracy    <       0.00007016 Ry

     iteration # 40     ecut=    36.75 Ry     beta=0.30
     Davidson diagonalization with overlap
     ethr =  2.74E-08,  avg # of iterations =  1.1

     negative rho (up, down):  1.458E-02 0.000E+00
 
     Adding external electric field

     Computed dipole along edir(3) : 
        Dipole               -0.2260 Ry au,         -0.5745 Debye
        Dipole field         -0.0008 Ry au
 
        Potential amp.        0.0680 Ry
        Total length         44.5710 bohr
 

     total cpu time spent up to now is      575.1 secs

     total energy              =   -2126.39604565 Ry
     Harris-Foulkes estimate   =   -2126.39604251 Ry
     estimated scf accuracy    <       0.00001580 Ry

     iteration # 41     ecut=    36.75 Ry     beta=0.30
     Davidson diagonalization with overlap
     ethr =  9.18E-09,  avg # of iterations =  4.6

     negative rho (up, down):  1.465E-02 0.000E+00
 
     Adding external electric field

     Computed dipole along edir(3) : 
        Dipole               -0.2243 Ry au,         -0.5702 Debye
        Dipole field         -0.0008 Ry au
 
        Potential amp.        0.0675 Ry
        Total length         44.5710 bohr
 

     total cpu time spent up to now is      588.2 secs

     total energy              =   -2126.39604597 Ry
     Harris-Foulkes estimate   =   -2126.39604956 Ry
     estimated scf accuracy    <       0.00001023 Ry

     iteration # 42     ecut=    36.75 Ry     beta=0.30
     Davidson diagonalization with overlap
     ethr =  5.95E-09,  avg # of iterations =  3.6

     negative rho (up, down):  1.469E-02 0.000E+00

     negative rho (up, down):  1.469E-02 0.000E+00

     negative rho (up, down):  1.469E-02 0.000E+00

     negative rho (up, down):  1.469E-02 0.000E+00

     negative rho (up, down):  1.469E-02 0.000E+00

     negative rho (up, down):  1.469E-02 0.000E+00

     negative rho (up, down):  1.469E-02 0.000E+00

     negative rho (up, down):  1.469E-02 0.000E+00

     negative rho (up, down):  1.469E-02 0.000E+00

     negative rho (up, down):  1.469E-02 0.000E+00

     negative rho (up, down):  1.469E-02 0.000E+00

     negative rho (up, down):  1.469E-02 0.000E+00

     negative rho (up, down):  1.469E-02 0.000E+00

     negative rho (up, down):  1.469E-02 0.000E+00

     negative rho (up, down):  1.469E-02 0.000E+00

     negative rho (up, down):  1.469E-02 0.000E+00

     negative rho (up, down):  1.469E-02 0.000E+00

     negative rho (up, down):  1.469E-02 0.000E+00

     negative rho (up, down):  1.469E-02 0.000E+00

     negative rho (up, down):  1.469E-02 0.000E+00

     negative rho (up, down):  1.469E-02 0.000E+00

     negative rho (up, down):  1.469E-02 0.000E+00

     negative rho (up, down):  1.469E-02 0.000E+00

     negative rho (up, down):  1.469E-02 0.000E+00

     negative rho (up, down):  1.469E-02 0.000E+00

     negative rho (up, down):  1.469E-02 0.000E+00

     negative rho (up, down):  1.469E-02 0.000E+00

     negative rho (up, down):  1.469E-02 0.000E+00

     negative rho (up, down):  1.469E-02 0.000E+00

     negative rho (up, down):  1.469E-02 0.000E+00

     negative rho (up, down):  1.469E-02 0.000E+00

     negative rho (up, down):  1.469E-02 0.000E+00

     negative rho (up, down):  1.469E-02 0.000E+00

     negative rho (up, down):  1.469E-02 0.000E+00

     negative rho (up, down):  1.469E-02 0.000E+00
 
     Adding external electric field

     Computed dipole along edir(3) : 
        Dipole               -0.2274 Ry au,         -0.5779 Debye
        Dipole field         -0.0008 Ry au
 
        Potential amp.        0.0684 Ry
        Total length         44.5710 bohr
 

     total cpu time spent up to now is      634.7 secs

     End of self-consistent calculation

          k = 0.0000 0.0000 0.0000 ( 14081 PWs)   bands (ev):

   -70.8657 -70.7840 -70.7232 -70.7228 -70.7206 -70.7022 -70.6918 -70.6862
   -70.6861 -70.6069 -70.6067 -70.6032 -42.4616 -42.4553 -42.4551 -42.3957
   -42.3871 -42.3870 -42.3729 -42.2693 -42.2684 -42.2684 -42.1170 -42.0541
   -42.0322 -42.0321 -41.9993 -41.9991 -41.9957 -41.9552 -41.9469 -41.9467
   -41.8673 -41.8670 -41.8670 -41.8519 -41.8475 -41.8475 -41.8161 -41.7838
   -41.7838 -41.7510 -41.7503 -41.7502 -41.7143 -41.7143 -41.6168 -41.6167
    -8.6809  -5.6753  -3.8244  -2.9822  -2.7935  -2.7934  -2.7381  -2.6704
    -2.6704  -2.5298  -2.1407  -2.1270  -2.1270  -1.9752  -1.9752  -1.9661
    -1.2595  -1.2595  -1.0604  -0.4854  -0.4854  -0.4119  -0.0318   0.0399
     0.0399   0.1562   0.4476   0.4476   0.6185   0.6185   0.6307   0.6985
     0.6986   0.7024   0.7831   0.7831   0.9342   1.1565   1.1682   1.1682
     1.5823   1.5824   1.7798   1.9804   1.9805   2.1618   2.1619   2.2537

          k = 0.0000 0.0375 0.0000 ( 14040 PWs)   bands (ev):

   -70.8568 -70.7774 -70.7335 -70.7232 -70.7206 -70.6985 -70.6930 -70.6876
   -70.6862 -70.6124 -70.6067 -70.6041 -42.4373 -42.4320 -42.4179 -42.3814
   -42.3664 -42.3608 -42.3469 -42.2478 -42.2475 -42.2333 -42.1167 -42.0732
   -42.0558 -42.0512 -41.9965 -41.9947 -41.9836 -41.9596 -41.9551 -41.9383
   -41.8935 -41.8932 -41.8562 -41.8501 -41.8481 -41.8400 -41.8311 -41.8170
   -41.7951 -41.7717 -41.7713 -41.7483 -41.7417 -41.7227 -41.6557 -41.6258
    -8.6370  -5.4583  -3.6379  -2.8328  -2.7942  -2.6704  -2.6669  -2.5707
    -2.5329  -2.4243  -2.0628  -1.9885  -1.9872  -1.8680  -1.8305  -1.8078
    -1.2379  -1.2340  -0.9905  -0.5644  -0.4881  -0.3605  -0.1177   0.0504
     0.0618   0.1333   0.2586   0.3976   0.5067   0.5314   0.5835   0.6073
     0.7121   0.7242   0.7437   0.7762   0.8712   0.9086   0.9895   1.0343
     1.4449   1.4968   1.7128   1.7284   1.7799   1.9026   1.9954   1.9984

          k = 0.0000 0.0750 0.0000 ( 14026 PWs)   bands (ev):

   -70.8322 -70.7631 -70.7575 -70.7234 -70.7215 -70.7090 -70.6904 -70.6861
   -70.6769 -70.6297 -70.6067 -70.6044 -42.3809 -42.3742 -42.3439 -42.3184
   -42.3163 -42.3095 -42.2863 -42.1991 -42.1980 -42.1519 -42.1266 -42.1010
   -42.1007 -42.0716 -41.9965 -41.9900 -41.9752 -41.9645 -41.9625 -41.9476
   -41.9456 -41.9227 -41.9096 -41.8852 -41.8690 -41.8652 -41.8301 -41.8271
   -41.8190 -41.8154 -41.8107 -41.8101 -41.7464 -41.7463 -41.7171 -41.6504
    -8.5492  -4.8463  -3.2491  -3.1041  -2.5322  -2.3439  -2.3335  -2.2720
    -2.1949  -2.1109  -1.8432  -1.6813  -1.6465  -1.5662  -1.5278  -1.3887
    -1.1714  -1.1506  -0.8108  -0.6437  -0.5757  -0.5533  -0.3140  -0.2115
    -0.0828   0.0047   0.0077   0.0922   0.2742   0.3184   0.3375   0.4550
     0.4725   0.4964   0.5932   0.7649   0.8328   0.9256   0.9470   0.9522
     0.9835   1.0072   1.1757   1.2230   1.3845   1.4183   1.6634   1.6824

          k = 0.0000-0.1125 0.0000 ( 14010 PWs)   bands (ev):

   -70.8017 -70.7932 -70.7410 -70.7296 -70.7235 -70.7177 -70.6907 -70.6860
   -70.6542 -70.6527 -70.6067 -70.6044 -42.3415 -42.3322 -42.2995 -42.2967
   -42.2906 -42.2783 -42.1950 -42.1882 -42.1703 -42.1652 -42.1370 -42.1326
   -42.0541 -42.0413 -42.0012 -41.9933 -41.9889 -41.9816 -41.9740 -41.9698
   -41.9541 -41.9513 -41.9271 -41.9233 -41.9022 -41.8990 -41.8751 -41.8613
   -41.8222 -41.8213 -41.8006 -41.7995 -41.7923 -41.7699 -41.6846 -41.6832
    -8.5053  -4.0453  -3.9239  -2.7923  -2.5026  -2.1176  -2.0302  -1.9855
    -1.9816  -1.7980  -1.7886  -1.6367  -1.3254  -1.2880  -1.2384  -1.2150
    -1.0574  -1.0136  -0.9847  -0.7075  -0.6025  -0.5536  -0.5396  -0.4095
    -0.3150  -0.2708  -0.0985  -0.0346   0.0880   0.1161   0.2362   0.2705
     0.2856   0.3309   0.3929   0.4888   0.5460   0.6033   0.7083   0.8564
     1.0197   1.0685   1.0750   1.4895   1.5260   1.5286   1.5404   1.6410

          k = 0.0325-0.0187 0.0000 ( 14040 PWs)   bands (ev):

   -70.8568 -70.7774 -70.7336 -70.7229 -70.7207 -70.6985 -70.6930 -70.6876
   -70.6862 -70.6124 -70.6068 -70.6041 -42.4372 -42.4322 -42.4179 -42.3815
   -42.3663 -42.3609 -42.3469 -42.2479 -42.2475 -42.2333 -42.1167 -42.0733
   -42.0557 -42.0512 -41.9966 -41.9946 -41.9836 -41.9595 -41.9552 -41.9383
   -41.8934 -41.8933 -41.8562 -41.8501 -41.8481 -41.8400 -41.8312 -41.8170
   -41.7951 -41.7717 -41.7713 -41.7483 -41.7417 -41.7228 -41.6557 -41.6258
    -8.6370  -5.4583  -3.6379  -2.8328  -2.7942  -2.6703  -2.6670  -2.5706
    -2.5329  -2.4243  -2.0628  -1.9885  -1.9872  -1.8679  -1.8305  -1.8078
    -1.2379  -1.2340  -0.9905  -0.5644  -0.4881  -0.3605  -0.1177   0.0503
     0.0618   0.1333   0.2586   0.3976   0.5067   0.5314   0.5835   0.6073
     0.7121   0.7242   0.7436   0.7762   0.8713   0.9086   0.9896   1.0343
     1.4448   1.4968   1.7128   1.7284   1.7799   1.9026   1.9954   1.9984

          k = 0.0325 0.0187 0.0000 ( 14040 PWs)   bands (ev):

   -70.8568 -70.7774 -70.7335 -70.7231 -70.7206 -70.6985 -70.6930 -70.6877
   -70.6861 -70.6124 -70.6069 -70.6040 -42.4373 -42.4321 -42.4179 -42.3815
   -42.3664 -42.3608 -42.3469 -42.2479 -42.2475 -42.2333 -42.1167 -42.0732
   -42.0558 -42.0511 -41.9964 -41.9947 -41.9836 -41.9596 -41.9551 -41.9383
   -41.8934 -41.8932 -41.8562 -41.8501 -41.8481 -41.8401 -41.8312 -41.8170
   -41.7951 -41.7718 -41.7712 -41.7483 -41.7418 -41.7227 -41.6557 -41.6258
    -8.6370  -5.4583  -3.6379  -2.8328  -2.7942  -2.6704  -2.6669  -2.5706
    -2.5329  -2.4243  -2.0628  -1.9885  -1.9872  -1.8679  -1.8305  -1.8078
    -1.2379  -1.2340  -0.9905  -0.5644  -0.4880  -0.3605  -0.1177   0.0503
     0.0618   0.1333   0.2586   0.3976   0.5067   0.5314   0.5835   0.6073
     0.7121   0.7242   0.7437   0.7762   0.8712   0.9086   0.9895   1.0343
     1.4449   1.4968   1.7128   1.7284   1.7799   1.9025   1.9953   1.9984

          k = 0.0325 0.0562 0.0000 ( 14027 PWs)   bands (ev):

   -70.8400 -70.7655 -70.7446 -70.7389 -70.7135 -70.7016 -70.6945 -70.6847
   -70.6819 -70.6187 -70.6167 -70.5999 -42.4049 -42.3666 -42.3635 -42.3554
   -42.3331 -42.3141 -42.3051 -42.2210 -42.1900 -42.1870 -42.1210 -42.0944
   -42.0877 -42.0816 -42.0103 -41.9807 -41.9739 -41.9658 -41.9570 -41.9433
   -41.9379 -41.8850 -41.8781 -41.8752 -41.8704 -41.8672 -41.8320 -41.8301
   -41.8247 -41.8127 -41.7979 -41.7525 -41.7521 -41.7421 -41.7179 -41.6454
    -8.5713  -5.0415  -3.3035  -2.8403  -2.7723  -2.4834  -2.4561  -2.3774
    -2.3274  -2.1173  -1.8888  -1.7790  -1.7346  -1.6834  -1.5895  -1.4974
    -1.2236  -1.1699  -0.8810  -0.6268  -0.5885  -0.3812  -0.2334  -0.0888
    -0.0045   0.0229   0.0769   0.0915   0.2714   0.3968   0.4496   0.5134
     0.5200   0.5749   0.6804   0.7197   0.8452   0.8743   0.9576   1.0759
     1.1584   1.1857   1.2419   1.3055   1.4026   1.4782   1.6799   1.7692

          k = 0.0325-0.1312 0.0000 ( 13990 PWs)   bands (ev):

   -70.8108 -70.7748 -70.7482 -70.7430 -70.7194 -70.7060 -70.6981 -70.6831
   -70.6621 -70.6384 -70.6208 -70.5967 -42.3450 -42.3125 -42.3073 -42.2840
   -42.2794 -42.2694 -42.2501 -42.1912 -42.1582 -42.1522 -42.1471 -42.1112
   -42.0903 -42.0598 -42.0336 -41.9948 -41.9925 -41.9727 -41.9654 -41.9624
   -41.9496 -41.9414 -41.9252 -41.9032 -41.8986 -41.8905 -41.8513 -41.8472
   -41.8396 -41.8337 -41.8054 -41.7868 -41.7764 -41.7712 -41.7189 -41.6800
    -8.5058  -4.2888  -3.4148  -2.8047  -2.6603  -2.3946  -2.1585  -1.9652
    -1.8749  -1.7417  -1.6549  -1.5422  -1.4240  -1.3355  -1.3047  -1.1783
    -1.0998  -0.9961  -0.8536  -0.7508  -0.6972  -0.5541  -0.5139  -0.3884
    -0.2817  -0.2628  -0.1801  -0.1096   0.0424   0.0881   0.1450   0.2350
     0.2720   0.3149   0.4018   0.4929   0.5644   0.6831   0.7846   0.9053
     0.9772   1.1044   1.1347   1.2579   1.4856   1.5341   1.6048   1.6326

          k = 0.0325-0.0937 0.0000 ( 13990 PWs)   bands (ev):

   -70.8108 -70.7748 -70.7481 -70.7430 -70.7194 -70.7060 -70.6981 -70.6831
   -70.6621 -70.6384 -70.6208 -70.5967 -42.3450 -42.3125 -42.3073 -42.2839
   -42.2795 -42.2694 -42.2500 -42.1912 -42.1582 -42.1522 -42.1471 -42.1112
   -42.0903 -42.0598 -42.0336 -41.9948 -41.9925 -41.9728 -41.9653 -41.9624
   -41.9495 -41.9414 -41.9252 -41.9032 -41.8986 -41.8906 -41.8513 -41.8472
   -41.8397 -41.8336 -41.8054 -41.7868 -41.7764 -41.7712 -41.7189 -41.6800
    -8.5058  -4.2888  -3.4148  -2.8047  -2.6603  -2.3946  -2.1585  -1.9652
    -1.8749  -1.7417  -1.6549  -1.5422  -1.4240  -1.3355  -1.3047  -1.1783
    -1.0998  -0.9961  -0.8536  -0.7508  -0.6972  -0.5541  -0.5139  -0.3884
    -0.2817  -0.2629  -0.1801  -0.1096   0.0424   0.0881   0.1450   0.2350
     0.2720   0.3149   0.4018   0.4929   0.5644   0.6831   0.7846   0.9052
     0.9772   1.1044   1.1347   1.2579   1.4856   1.5341   1.6048   1.6326

          k = 0.0325-0.0562 0.0000 ( 14027 PWs)   bands (ev):

   -70.8400 -70.7654 -70.7449 -70.7387 -70.7135 -70.7018 -70.6944 -70.6848
   -70.6819 -70.6188 -70.6165 -70.5999 -42.4049 -42.3666 -42.3634 -42.3554
   -42.3330 -42.3142 -42.3050 -42.2210 -42.1900 -42.1870 -42.1211 -42.0944
   -42.0878 -42.0816 -42.0104 -41.9808 -41.9738 -41.9658 -41.9571 -41.9434
   -41.9378 -41.8850 -41.8781 -41.8752 -41.8704 -41.8673 -41.8319 -41.8301
   -41.8247 -41.8127 -41.7979 -41.7526 -41.7521 -41.7422 -41.7179 -41.6454
    -8.5713  -5.0415  -3.3035  -2.8403  -2.7723  -2.4834  -2.4561  -2.3775
    -2.3274  -2.1173  -1.8888  -1.7790  -1.7346  -1.6834  -1.5895  -1.4974
    -1.2236  -1.1699  -0.8810  -0.6268  -0.5885  -0.3812  -0.2335  -0.0888
    -0.0044   0.0228   0.0769   0.0914   0.2714   0.3967   0.4496   0.5135
     0.5200   0.5749   0.6804   0.7197   0.8452   0.8743   0.9576   1.0759
     1.1584   1.1857   1.2419   1.3055   1.4026   1.4782   1.6799   1.7692

          k = 0.0649-0.0375 0.0000 ( 14026 PWs)   bands (ev):

   -70.8322 -70.7632 -70.7575 -70.7230 -70.7217 -70.7090 -70.6904 -70.6861
   -70.6769 -70.6297 -70.6068 -70.6043 -42.3807 -42.3745 -42.3439 -42.3184
   -42.3163 -42.3096 -42.2863 -42.1991 -42.1981 -42.1519 -42.1266 -42.1011
   -42.1006 -42.0716 -41.9966 -41.9898 -41.9751 -41.9646 -41.9625 -41.9477
   -41.9456 -41.9226 -41.9096 -41.8851 -41.8689 -41.8653 -41.8300 -41.8271
   -41.8190 -41.8153 -41.8107 -41.8102 -41.7464 -41.7464 -41.7171 -41.6504
    -8.5492  -4.8463  -3.2491  -3.1041  -2.5322  -2.3438  -2.3336  -2.2720
    -2.1949  -2.1109  -1.8432  -1.6813  -1.6465  -1.5661  -1.5278  -1.3887
    -1.1714  -1.1505  -0.8108  -0.6436  -0.5757  -0.5533  -0.3141  -0.2115
    -0.0829   0.0048   0.0077   0.0922   0.2741   0.3184   0.3375   0.4551
     0.4725   0.4963   0.5932   0.7649   0.8328   0.9256   0.9470   0.9522
     0.9835   1.0072   1.1757   1.2229   1.3844   1.4183   1.6634   1.6824

          k = 0.0649 0.0000 0.0000 ( 14027 PWs)   bands (ev):

   -70.8400 -70.7655 -70.7449 -70.7386 -70.7135 -70.7018 -70.6944 -70.6848
   -70.6819 -70.6186 -70.6167 -70.5998 -42.4049 -42.3667 -42.3634 -42.3554
   -42.3330 -42.3142 -42.3050 -42.2210 -42.1900 -42.1870 -42.1211 -42.0944
   -42.0878 -42.0816 -42.0103 -41.9808 -41.9739 -41.9658 -41.9571 -41.9434
   -41.9377 -41.8850 -41.8782 -41.8751 -41.8705 -41.8673 -41.8319 -41.8301
   -41.8247 -41.8127 -41.7979 -41.7525 -41.7521 -41.7422 -41.7179 -41.6453
    -8.5713  -5.0415  -3.3035  -2.8403  -2.7723  -2.4834  -2.4561  -2.3775
    -2.3274  -2.1173  -1.8888  -1.7790  -1.7347  -1.6834  -1.5895  -1.4974
    -1.2236  -1.1699  -0.8810  -0.6268  -0.5885  -0.3812  -0.2335  -0.0888
    -0.0044   0.0228   0.0769   0.0914   0.2714   0.3967   0.4496   0.5134
     0.5200   0.5749   0.6804   0.7197   0.8452   0.8743   0.9576   1.0759
     1.1584   1.1857   1.2419   1.3055   1.4026   1.4782   1.6799   1.7693

          k = 0.0649 0.0375 0.0000 ( 14026 PWs)   bands (ev):

   -70.8322 -70.7632 -70.7575 -70.7233 -70.7216 -70.7090 -70.6905 -70.6860
   -70.6769 -70.6296 -70.6069 -70.6042 -42.3808 -42.3743 -42.3439 -42.3185
   -42.3163 -42.3094 -42.2863 -42.1990 -42.1981 -42.1519 -42.1266 -42.1011
   -42.1007 -42.0716 -41.9966 -41.9899 -41.9751 -41.9646 -41.9625 -41.9476
   -41.9456 -41.9227 -41.9096 -41.8851 -41.8690 -41.8653 -41.8301 -41.8271
   -41.8190 -41.8154 -41.8108 -41.8101 -41.7464 -41.7463 -41.7171 -41.6504
    -8.5492  -4.8463  -3.2491  -3.1041  -2.5322  -2.3439  -2.3336  -2.2720
    -2.1949  -2.1109  -1.8432  -1.6813  -1.6465  -1.5662  -1.5278  -1.3887
    -1.1715  -1.1505  -0.8108  -0.6437  -0.5757  -0.5533  -0.3140  -0.2115
    -0.0829   0.0047   0.0077   0.0922   0.2742   0.3184   0.3375   0.4550
     0.4725   0.4963   0.5932   0.7649   0.8328   0.9256   0.9470   0.9522
     0.9835   1.0072   1.1757   1.2230   1.3845   1.4183   1.6634   1.6824

          k = 0.0649-0.1500 0.0000 ( 13990 PWs)   bands (ev):

   -70.8108 -70.7748 -70.7482 -70.7430 -70.7194 -70.7060 -70.6982 -70.6831
   -70.6621 -70.6383 -70.6208 -70.5967 -42.3450 -42.3125 -42.3073 -42.2840
   -42.2794 -42.2694 -42.2500 -42.1911 -42.1583 -42.1522 -42.1471 -42.1112
   -42.0903 -42.0598 -42.0336 -41.9948 -41.9925 -41.9727 -41.9654 -41.9624
   -41.9496 -41.9413 -41.9252 -41.9032 -41.8986 -41.8906 -41.8513 -41.8472
   -41.8396 -41.8337 -41.8054 -41.7868 -41.7764 -41.7712 -41.7189 -41.6800
    -8.5058  -4.2888  -3.4148  -2.8047  -2.6603  -2.3946  -2.1585  -1.9652
    -1.8749  -1.7417  -1.6549  -1.5422  -1.4240  -1.3355  -1.3047  -1.1783
    -1.0998  -0.9961  -0.8536  -0.7508  -0.6972  -0.5541  -0.5139  -0.3884
    -0.2817  -0.2629  -0.1801  -0.1096   0.0424   0.0881   0.1450   0.2350
     0.2720   0.3149   0.4018   0.4929   0.5644   0.6831   0.7846   0.9053
     0.9772   1.1044   1.1347   1.2580   1.4856   1.5341   1.6048   1.6327

          k = 0.0649-0.1125 0.0000 ( 13962 PWs)   bands (ev):

   -70.7864 -70.7799 -70.7721 -70.7324 -70.7180 -70.7164 -70.6958 -70.6825
   -70.6429 -70.6418 -70.6398 -70.5935 -42.2798 -42.2773 -42.2735 -42.2731
   -42.2725 -42.2388 -42.2251 -42.2197 -42.2146 -42.1362 -42.1030 -42.0950
   -42.0937 -42.0796 -42.0479 -42.0078 -42.0065 -42.0034 -41.9741 -41.9669
   -41.9623 -41.9599 -41.9283 -41.8973 -41.8912 -41.8844 -41.8686 -41.8479
   -41.8419 -41.8324 -41.8087 -41.8054 -41.8002 -41.7298 -41.7289 -41.7285
    -8.4846  -3.5461  -3.4691  -3.4050  -2.4436  -2.3479  -2.1696  -1.6617
    -1.6351  -1.5431  -1.5259  -1.3711  -1.2910  -1.2867  -1.1017  -0.9963
    -0.9677  -0.9508  -0.8974  -0.8853  -0.8713  -0.6949  -0.6777  -0.4436
    -0.4256  -0.3438  -0.2828  -0.2005  -0.1886  -0.1884  -0.1663  -0.0251
     0.0501   0.2325   0.2828   0.4374   0.7364   0.7381   0.7483   0.7764
     0.9548   1.0671   1.1272   1.3042   1.3968   1.4013   1.7110   1.7756

          k = 0.0649-0.0750 0.0000 ( 13990 PWs)   bands (ev):

   -70.8107 -70.7749 -70.7481 -70.7430 -70.7195 -70.7057 -70.6983 -70.6831
   -70.6621 -70.6384 -70.6208 -70.5967 -42.3449 -42.3125 -42.3074 -42.2840
   -42.2794 -42.2694 -42.2500 -42.1912 -42.1583 -42.1522 -42.1471 -42.1112
   -42.0903 -42.0598 -42.0336 -41.9948 -41.9925 -41.9728 -41.9654 -41.9623
   -41.9496 -41.9413 -41.9252 -41.9032 -41.8985 -41.8906 -41.8513 -41.8472
   -41.8397 -41.8336 -41.8053 -41.7868 -41.7764 -41.7713 -41.7189 -41.6800
    -8.5058  -4.2888  -3.4148  -2.8047  -2.6603  -2.3946  -2.1585  -1.9653
    -1.8749  -1.7417  -1.6549  -1.5422  -1.4240  -1.3355  -1.3047  -1.1783
    -1.0998  -0.9961  -0.8536  -0.7508  -0.6972  -0.5541  -0.5139  -0.3885
    -0.2816  -0.2629  -0.1801  -0.1096   0.0424   0.0881   0.1451   0.2350
     0.2720   0.3149   0.4018   0.4929   0.5644   0.6831   0.7846   0.9053
     0.9772   1.1044   1.1346   1.2579   1.4856   1.5341   1.6048   1.6327

          k =-0.0974 0.0562 0.0000 ( 14010 PWs)   bands (ev):

   -70.8014 -70.7935 -70.7408 -70.7299 -70.7231 -70.7177 -70.6908 -70.6861
   -70.6542 -70.6526 -70.6068 -70.6044 -42.3412 -42.3325 -42.2995 -42.2967
   -42.2905 -42.2784 -42.1947 -42.1885 -42.1701 -42.1653 -42.1368 -42.1327
   -42.0541 -42.0414 -42.0011 -41.9934 -41.9890 -41.9815 -41.9739 -41.9697
   -41.9539 -41.9515 -41.9270 -41.9234 -41.9023 -41.8989 -41.8748 -41.8616
   -41.8221 -41.8215 -41.8005 -41.7996 -41.7922 -41.7700 -41.6847 -41.6831
    -8.5053  -4.0452  -3.9239  -2.7924  -2.5026  -2.1176  -2.0302  -1.9856
    -1.9815  -1.7981  -1.7886  -1.6367  -1.3254  -1.2878  -1.2385  -1.2150
    -1.0574  -1.0136  -0.9847  -0.7076  -0.6024  -0.5535  -0.5395  -0.4097
    -0.3150  -0.2707  -0.0985  -0.0345   0.0880   0.1161   0.2362   0.2705
     0.2856   0.3309   0.3929   0.4888   0.5460   0.6034   0.7083   0.8564
     1.0199   1.0683   1.0750   1.4896   1.5262   1.5283   1.5403   1.6410

          k =-0.0974 0.0937 0.0000 ( 13990 PWs)   bands (ev):

   -70.8107 -70.7749 -70.7481 -70.7430 -70.7195 -70.7057 -70.6983 -70.6831
   -70.6621 -70.6383 -70.6208 -70.5967 -42.3449 -42.3125 -42.3074 -42.2839
   -42.2794 -42.2694 -42.2500 -42.1912 -42.1583 -42.1522 -42.1471 -42.1112
   -42.0903 -42.0598 -42.0336 -41.9948 -41.9925 -41.9727 -41.9654 -41.9624
   -41.9496 -41.9413 -41.9252 -41.9032 -41.8985 -41.8906 -41.8513 -41.8472
   -41.8397 -41.8336 -41.8053 -41.7868 -41.7764 -41.7713 -41.7189 -41.6800
    -8.5058  -4.2888  -3.4148  -2.8047  -2.6603  -2.3946  -2.1585  -1.9653
    -1.8749  -1.7417  -1.6549  -1.5422  -1.4240  -1.3355  -1.3047  -1.1783
    -1.0998  -0.9961  -0.8536  -0.7508  -0.6972  -0.5541  -0.5139  -0.3885
    -0.2816  -0.2629  -0.1801  -0.1096   0.0424   0.0881   0.1450   0.2350
     0.2720   0.3149   0.4019   0.4929   0.5644   0.6831   0.7846   0.9052
     0.9773   1.1044   1.1346   1.2579   1.4857   1.5341   1.6048   1.6326

          k =-0.0974 0.1312 0.0000 ( 13990 PWs)   bands (ev):

   -70.8107 -70.7748 -70.7481 -70.7431 -70.7194 -70.7060 -70.6982 -70.6831
   -70.6621 -70.6383 -70.6208 -70.5967 -42.3450 -42.3125 -42.3073 -42.2839
   -42.2795 -42.2694 -42.2500 -42.1912 -42.1582 -42.1522 -42.1471 -42.1112
   -42.0903 -42.0598 -42.0336 -41.9948 -41.9925 -41.9727 -41.9653 -41.9624
   -41.9495 -41.9414 -41.9252 -41.9032 -41.8986 -41.8906 -41.8513 -41.8472
   -41.8397 -41.8336 -41.8054 -41.7868 -41.7764 -41.7712 -41.7189 -41.6800
    -8.5058  -4.2888  -3.4148  -2.8047  -2.6603  -2.3946  -2.1585  -1.9653
    -1.8749  -1.7417  -1.6549  -1.5422  -1.4240  -1.3355  -1.3047  -1.1783
    -1.0998  -0.9961  -0.8536  -0.7508  -0.6972  -0.5541  -0.5139  -0.3884
    -0.2816  -0.2629  -0.1801  -0.1096   0.0424   0.0881   0.1450   0.2350
     0.2720   0.3149   0.4018   0.4929   0.5644   0.6831   0.7846   0.9052
     0.9772   1.1044   1.1347   1.2579   1.4857   1.5341   1.6048   1.6326

          k =-0.0974-0.0562 0.0000 ( 14010 PWs)   bands (ev):

   -70.8017 -70.7933 -70.7410 -70.7296 -70.7234 -70.7177 -70.6908 -70.6859
   -70.6543 -70.6525 -70.6069 -70.6042 -42.3414 -42.3323 -42.2995 -42.2967
   -42.2907 -42.2783 -42.1949 -42.1882 -42.1702 -42.1653 -42.1369 -42.1327
   -42.0541 -42.0413 -42.0013 -41.9932 -41.9889 -41.9816 -41.9739 -41.9698
   -41.9541 -41.9513 -41.9271 -41.9233 -41.9024 -41.8988 -41.8751 -41.8613
   -41.8223 -41.8213 -41.8005 -41.7995 -41.7924 -41.7698 -41.6848 -41.6830
    -8.5053  -4.0453  -3.9239  -2.7924  -2.5026  -2.1176  -2.0302  -1.9855
    -1.9816  -1.7980  -1.7886  -1.6367  -1.3254  -1.2879  -1.2385  -1.2150
    -1.0574  -1.0136  -0.9847  -0.7075  -0.6025  -0.5536  -0.5395  -0.4096
    -0.3150  -0.2708  -0.0985  -0.0346   0.0880   0.1161   0.2363   0.2705
     0.2855   0.3309   0.3929   0.4888   0.5459   0.6033   0.7083   0.8564
     1.0197   1.0684   1.0750   1.4895   1.5260   1.5285   1.5404   1.6410

     the Fermi energy is     0.8687 ev

!    total energy              =   -2126.39604106 Ry
     Harris-Foulkes estimate   =   -2126.39604199 Ry
     estimated scf accuracy    <       0.00000556 Ry

     The total energy is the sum of the following terms:

     one-electron contribution =  -19866.45275449 Ry
     hartree contribution      =    9923.88924844 Ry
     xc contribution           =    -282.62190664 Ry
     ewald contribution        =    8098.92216631 Ry
     electric field correction =       0.00017442 Ry
     smearing contrib. (-TS)   =      -0.13296910 Ry

     convergence has been achieved in  42 iterations
 
 BEEF-vdW xc energy contributions
           1 :   -244.639902745043     
           2 :    220.321921927945     
           3 :   -179.696742025198     
           4 :    134.961111049635     
           5 :   -97.2180464566575     
           6 :    72.4321999625241     
           7 :   -60.3033851880007     
           8 :    56.0971190423257     
           9 :   -54.0273088216383     
          10 :    50.2492967661569     
          11 :   -44.0910272012495     
          12 :    37.3126854796762     
          13 :   -32.2509936689660     
          14 :    30.1095101052978     
          15 :   -30.3236192954956     
          16 :    31.1452970896333     
          17 :   -30.8758329724019     
          18 :    28.8945762381853     
          19 :   -25.8817264781436     
          20 :    23.1974837752101     
          21 :   -21.9071352355232     
          22 :    22.1069071360097     
          23 :   -22.9493107784948     
          24 :    23.2789638669936     
          25 :   -22.4092999482516     
          26 :    20.5239644884367     
          27 :   -18.4794946025827     
          28 :    17.1902418775081     
          29 :   -17.0289271801578     
          30 :    17.6256731549460     
          31 :   -24.2731262582188     
          32 :   -17.4760289199251     

     Forces acting on atoms (Ry/au):


     negative rho (up, down):  1.469E-02 0.000E+00
     atom    1 type  1   force =    -0.00158943   -0.00091413    0.00103461
     atom    2 type  1   force =     0.00158519   -0.00091571    0.00107403
     atom    3 type  1   force =    -0.00000126    0.00182815    0.00105217
     atom    4 type  1   force =     0.00000721   -0.00000402   -0.00142424
     atom    5 type  1   force =     0.00000383   -0.00228650   -0.00383930
     atom    6 type  1   force =    -0.00001115   -0.00000470    0.00968934
     atom    7 type  1   force =     0.00197623    0.00113993   -0.00383024
     atom    8 type  1   force =    -0.00197651    0.00115542   -0.00384323
     atom    9 type  1   force =    -0.00001218    0.00001238   -0.01964214
     atom   10 type  1   force =     0.00002508    0.01527197    0.05648808
     atom   11 type  1   force =     0.01322463   -0.00763564    0.05647770
     atom   12 type  1   force =    -0.01323393   -0.00765038    0.05648583
     atom   13 type  2   force =     0.00000230    0.00000323   -0.14972258

     Total force =     0.181863     Total SCF correction =     0.002863


     entering subroutine stress ...


     negative rho (up, down):  1.469E-02 0.000E+00
          total   stress  (Ry/bohr**3)                   (kbar)     P=  -27.54
  -0.00022703   0.00000000   0.00000002        -33.40      0.00      0.00
   0.00000000  -0.00022706   0.00000001          0.00    -33.40      0.00
   0.00000002   0.00000001  -0.00010751          0.00      0.00    -15.82


     BFGS Geometry Optimization

     number of scf cycles    =   1
     number of bfgs steps    =   0

     energy   new            =   -2126.3960410592 Ry

     new trust radius        =       0.1497225843 bohr
     new conv_thr            =       0.0000099958 Ry


ATOMIC_POSITIONS (crystal)
Cr1      0.166666667   0.166666667   0.413381306    0   0   0
Cr1      0.666666667   0.166666667   0.413381306    0   0   0
Cr1      0.166666667   0.666666667   0.413381306    0   0   0
Cr1      0.666666667   0.666666667   0.413381306    0   0   0
Cr1      0.833333333   0.333333333   0.500000000    0   0   0
Cr1      0.333333333   0.333333333   0.500000000    0   0   0
Cr1      0.833333333   0.833333333   0.500000000    0   0   0
Cr1      0.333333333   0.833333333   0.500000000    0   0   0
Cr1     -0.000001993   0.000001474   0.586189019
Cr1      0.499093512   0.001818148   0.587854382
Cr1      0.001817995   0.499090967   0.587854155
Cr1      0.499090957   0.499089212   0.587854333
C1       0.333333378   0.333333717   0.641113521



     Writing output data file calc.save
     Check: negative starting charge=   -0.014935
     NEW-OLD atomic charge density approx. for the potential

     Check: negative/imaginary core charge=   -0.000004    0.000000
     Check: negative starting charge=   -0.014557

     negative rho (up, down):  1.434E-02 0.000E+00
 
     Adding external electric field

     Computed dipole along edir(3) : 
        Dipole               -0.0776 Ry au,         -0.1971 Debye
        Dipole field         -0.0003 Ry au
 
        Potential amp.        0.0233 Ry
        Total length         44.5710 bohr
 

     total cpu time spent up to now is      682.5 secs

     per-process dynamical memory:   110.3 Mb

     Self-consistent Calculation

     iteration #  1     ecut=    36.75 Ry     beta=0.30
     Davidson diagonalization with overlap
     ethr =  1.00E-06,  avg # of iterations = 16.6

     negative rho (up, down):  1.422E-02 0.000E+00
 
     Adding external electric field

     Computed dipole along edir(3) : 
        Dipole               -4.1872 Ry au,        -10.6428 Debye
        Dipole field         -0.0141 Ry au
 
        Potential amp.        1.2594 Ry
        Total length         44.5710 bohr
 

     total cpu time spent up to now is      713.8 secs

     total energy              =   -2124.84253298 Ry
     Harris-Foulkes estimate   =   -2126.40088007 Ry
     estimated scf accuracy    <       3.20178151 Ry

     iteration #  2     ecut=    36.75 Ry     beta=0.30
     Davidson diagonalization with overlap
     ethr =  1.86E-03,  avg # of iterations =  7.9

     negative rho (up, down):  1.470E-02 0.000E+00
 
     Adding external electric field

     Computed dipole along edir(3) : 
        Dipole               -0.1499 Ry au,         -0.3810 Debye
        Dipole field         -0.0005 Ry au
 
        Potential amp.        0.0451 Ry
        Total length         44.5710 bohr
 

     total cpu time spent up to now is      734.9 secs

     total energy              =   -2118.34736557 Ry
     Harris-Foulkes estimate   =   -2146.60842472 Ry
     estimated scf accuracy    <     880.20975953 Ry

     iteration #  3     ecut=    36.75 Ry     beta=0.30
     Davidson diagonalization with overlap
     ethr =  1.86E-03,  avg # of iterations =  6.2

     negative rho (up, down):  1.533E-02 0.000E+00
 
     Adding external electric field

     Computed dipole along edir(3) : 
        Dipole               -0.2027 Ry au,         -0.5152 Debye
        Dipole field         -0.0007 Ry au
 
        Potential amp.        0.0610 Ry
        Total length         44.5710 bohr
 

     total cpu time spent up to now is      754.8 secs

     total energy              =   -2125.68033111 Ry
     Harris-Foulkes estimate   =   -2127.31873299 Ry
     estimated scf accuracy    <      34.91291536 Ry

     iteration #  4     ecut=    36.75 Ry     beta=0.30
     Davidson diagonalization with overlap
     ethr =  1.86E-03,  avg # of iterations =  5.3

     negative rho (up, down):  1.491E-02 0.000E+00
 
     Adding external electric field

     Computed dipole along edir(3) : 
        Dipole               -0.2036 Ry au,         -0.5176 Debye
        Dipole field         -0.0007 Ry au
 
        Potential amp.        0.0613 Ry
        Total length         44.5710 bohr
 

     total cpu time spent up to now is      769.3 secs

     total energy              =   -2126.32878987 Ry
     Harris-Foulkes estimate   =   -2126.37211323 Ry
     estimated scf accuracy    <       3.98147920 Ry

     iteration #  5     ecut=    36.75 Ry     beta=0.30
     Davidson diagonalization with overlap
     ethr =  1.86E-03,  avg # of iterations =  1.7

     negative rho (up, down):  1.487E-02 0.000E+00
 
     Adding external electric field

     Computed dipole along edir(3) : 
        Dipole               -0.1893 Ry au,         -0.4812 Debye
        Dipole field         -0.0006 Ry au
 
        Potential amp.        0.0569 Ry
        Total length         44.5710 bohr
 

     total cpu time spent up to now is      781.5 secs

     total energy              =   -2126.34578608 Ry
     Harris-Foulkes estimate   =   -2126.37658805 Ry
     estimated scf accuracy    <       1.81490884 Ry

     iteration #  6     ecut=    36.75 Ry     beta=0.30
     Davidson diagonalization with overlap
     ethr =  1.06E-03,  avg # of iterations =  2.6

     negative rho (up, down):  1.468E-02 0.000E+00
 
     Adding external electric field

     Computed dipole along edir(3) : 
        Dipole               -0.1608 Ry au,         -0.4088 Debye
        Dipole field         -0.0005 Ry au
 
        Potential amp.        0.0484 Ry
        Total length         44.5710 bohr
 

     total cpu time spent up to now is      794.7 secs

     total energy              =   -2126.37843191 Ry
     Harris-Foulkes estimate   =   -2126.38128204 Ry
     estimated scf accuracy    <       0.21672484 Ry

     iteration #  7     ecut=    36.75 Ry     beta=0.30
     Davidson diagonalization with overlap
     ethr =  1.26E-04,  avg # of iterations =  6.1

     negative rho (up, down):  1.449E-02 0.000E+00
 
     Adding external electric field

     Computed dipole along edir(3) : 
        Dipole               -0.1646 Ry au,         -0.4185 Debye
        Dipole field         -0.0006 Ry au
 
        Potential amp.        0.0495 Ry
        Total length         44.5710 bohr
 

     total cpu time spent up to now is      811.6 secs

     total energy              =   -2126.42432702 Ry
     Harris-Foulkes estimate   =   -2126.42869555 Ry
     estimated scf accuracy    <       0.15343033 Ry

     iteration #  8     ecut=    36.75 Ry     beta=0.30
     Davidson diagonalization with overlap
     ethr =  8.92E-05,  avg # of iterations =  1.0

     negative rho (up, down):  1.437E-02 0.000E+00
 
     Adding external electric field

     Computed dipole along edir(3) : 
        Dipole               -0.1728 Ry au,         -0.4393 Debye
        Dipole field         -0.0006 Ry au
 
        Potential amp.        0.0520 Ry
        Total length         44.5710 bohr
 

     total cpu time spent up to now is      823.6 secs

     total energy              =   -2126.42294959 Ry
     Harris-Foulkes estimate   =   -2126.42543351 Ry
     estimated scf accuracy    <       0.08686069 Ry

     iteration #  9     ecut=    36.75 Ry     beta=0.30
     Davidson diagonalization with overlap
     ethr =  5.05E-05,  avg # of iterations =  1.0

     negative rho (up, down):  1.432E-02 0.000E+00
 
     Adding external electric field

     Computed dipole along edir(3) : 
        Dipole               -0.1740 Ry au,         -0.4423 Debye
        Dipole field         -0.0006 Ry au
 
        Potential amp.        0.0523 Ry
        Total length         44.5710 bohr
 

     total cpu time spent up to now is      835.5 secs

     total energy              =   -2126.42313169 Ry
     Harris-Foulkes estimate   =   -2126.42393076 Ry
     estimated scf accuracy    <       0.03802140 Ry

     iteration # 10     ecut=    36.75 Ry     beta=0.30
     Davidson diagonalization with overlap
     ethr =  2.21E-05,  avg # of iterations =  2.1

     negative rho (up, down):  1.429E-02 0.000E+00
 
     Adding external electric field

     Computed dipole along edir(3) : 
        Dipole               -0.1751 Ry au,         -0.4451 Debye
        Dipole field         -0.0006 Ry au
 
        Potential amp.        0.0527 Ry
        Total length         44.5710 bohr
 

     total cpu time spent up to now is      848.3 secs

     total energy              =   -2126.42325431 Ry
     Harris-Foulkes estimate   =   -2126.42369897 Ry
     estimated scf accuracy    <       0.02058074 Ry

     iteration # 11     ecut=    36.75 Ry     beta=0.30
     Davidson diagonalization with overlap
     ethr =  1.20E-05,  avg # of iterations =  5.0

     negative rho (up, down):  1.422E-02 0.000E+00
 
     Adding external electric field

     Computed dipole along edir(3) : 
        Dipole               -0.1832 Ry au,         -0.4656 Debye
        Dipole field         -0.0006 Ry au
 
        Potential amp.        0.0551 Ry
        Total length         44.5710 bohr
 

     total cpu time spent up to now is      862.0 secs

     total energy              =   -2126.42371822 Ry
     Harris-Foulkes estimate   =   -2126.42413656 Ry
     estimated scf accuracy    <       0.00511879 Ry

     iteration # 12     ecut=    36.75 Ry     beta=0.30
     Davidson diagonalization with overlap
     ethr =  2.98E-06,  avg # of iterations =  5.8

     negative rho (up, down):  1.424E-02 0.000E+00
 
     Adding external electric field

     Computed dipole along edir(3) : 
        Dipole               -0.1845 Ry au,         -0.4690 Debye
        Dipole field         -0.0006 Ry au
 
        Potential amp.        0.0555 Ry
        Total length         44.5710 bohr
 

     total cpu time spent up to now is      877.3 secs

     total energy              =   -2126.42439048 Ry
     Harris-Foulkes estimate   =   -2126.42453682 Ry
     estimated scf accuracy    <       0.01040828 Ry

     iteration # 13     ecut=    36.75 Ry     beta=0.30
     Davidson diagonalization with overlap
     ethr =  2.98E-06,  avg # of iterations =  1.0

     negative rho (up, down):  1.427E-02 0.000E+00
 
     Adding external electric field

     Computed dipole along edir(3) : 
        Dipole               -0.1862 Ry au,         -0.4732 Debye
        Dipole field         -0.0006 Ry au
 
        Potential amp.        0.0560 Ry
        Total length         44.5710 bohr
 

     total cpu time spent up to now is      889.3 secs

     total energy              =   -2126.42428162 Ry
     Harris-Foulkes estimate   =   -2126.42444932 Ry
     estimated scf accuracy    <       0.00467725 Ry

     iteration # 14     ecut=    36.75 Ry     beta=0.30
     Davidson diagonalization with overlap
     ethr =  2.72E-06,  avg # of iterations =  1.1

     negative rho (up, down):  1.428E-02 0.000E+00
 
     Adding external electric field

     Computed dipole along edir(3) : 
        Dipole               -0.1873 Ry au,         -0.4760 Debye
        Dipole field         -0.0006 Ry au
 
        Potential amp.        0.0563 Ry
        Total length         44.5710 bohr
 

     total cpu time spent up to now is      901.3 secs

     total energy              =   -2126.42431672 Ry
     Harris-Foulkes estimate   =   -2126.42435437 Ry
     estimated scf accuracy    <       0.00061881 Ry

     iteration # 15     ecut=    36.75 Ry     beta=0.30
     Davidson diagonalization with overlap
     ethr =  3.60E-07,  avg # of iterations =  6.5

     negative rho (up, down):  1.430E-02 0.000E+00
 
     Adding external electric field

     Computed dipole along edir(3) : 
        Dipole               -0.1882 Ry au,         -0.4782 Debye
        Dipole field         -0.0006 Ry au
 
        Potential amp.        0.0566 Ry
        Total length         44.5710 bohr
 

     total cpu time spent up to now is      917.0 secs

     total energy              =   -2126.42438276 Ry
     Harris-Foulkes estimate   =   -2126.42441136 Ry
     estimated scf accuracy    <       0.00081646 Ry

     iteration # 16     ecut=    36.75 Ry     beta=0.30
     Davidson diagonalization with overlap
     ethr =  3.60E-07,  avg # of iterations =  1.0

     negative rho (up, down):  1.432E-02 0.000E+00
 
     Adding external electric field

     Computed dipole along edir(3) : 
        Dipole               -0.1894 Ry au,         -0.4815 Debye
        Dipole field         -0.0006 Ry au
 
        Potential amp.        0.0570 Ry
        Total length         44.5710 bohr
 

     total cpu time spent up to now is      929.0 secs

     total energy              =   -2126.42436694 Ry
     Harris-Foulkes estimate   =   -2126.42439170 Ry
     estimated scf accuracy    <       0.00040282 Ry

     iteration # 17     ecut=    36.75 Ry     beta=0.30
     Davidson diagonalization with overlap
     ethr =  2.34E-07,  avg # of iterations =  4.0

     negative rho (up, down):  1.432E-02 0.000E+00
 
     Adding external electric field

     Computed dipole along edir(3) : 
        Dipole               -0.1885 Ry au,         -0.4790 Debye
        Dipole field         -0.0006 Ry au
 
        Potential amp.        0.0567 Ry
        Total length         44.5710 bohr
 

     total cpu time spent up to now is      942.2 secs

     total energy              =   -2126.42437931 Ry
     Harris-Foulkes estimate   =   -2126.42438831 Ry
     estimated scf accuracy    <       0.00008366 Ry

     iteration # 18     ecut=    36.75 Ry     beta=0.30
     Davidson diagonalization with overlap
     ethr =  4.86E-08,  avg # of iterations =  5.2

     negative rho (up, down):  1.435E-02 0.000E+00
 
     Adding external electric field

     Computed dipole along edir(3) : 
        Dipole               -0.1906 Ry au,         -0.4844 Debye
        Dipole field         -0.0006 Ry au
 
        Potential amp.        0.0573 Ry
        Total length         44.5710 bohr
 

     total cpu time spent up to now is      957.7 secs

     total energy              =   -2126.42438650 Ry
     Harris-Foulkes estimate   =   -2126.42438957 Ry
     estimated scf accuracy    <       0.00012219 Ry

     iteration # 19     ecut=    36.75 Ry     beta=0.30
     Davidson diagonalization with overlap
     ethr =  4.86E-08,  avg # of iterations =  1.0

     negative rho (up, down):  1.436E-02 0.000E+00
 
     Adding external electric field

     Computed dipole along edir(3) : 
        Dipole               -0.1911 Ry au,         -0.4858 Debye
        Dipole field         -0.0006 Ry au
 
        Potential amp.        0.0575 Ry
        Total length         44.5710 bohr
 

     total cpu time spent up to now is      969.9 secs

     total energy              =   -2126.42438775 Ry
     Harris-Foulkes estimate   =   -2126.42438846 Ry
     estimated scf accuracy    <       0.00003660 Ry

     iteration # 20     ecut=    36.75 Ry     beta=0.30
     Davidson diagonalization with overlap
     ethr =  2.13E-08,  avg # of iterations =  1.8

     negative rho (up, down):  1.436E-02 0.000E+00
 
     Adding external electric field

     Computed dipole along edir(3) : 
        Dipole               -0.1908 Ry au,         -0.4850 Debye
        Dipole field         -0.0006 Ry au
 
        Potential amp.        0.0574 Ry
        Total length         44.5710 bohr
 

     total cpu time spent up to now is      982.7 secs

     total energy              =   -2126.42438758 Ry
[...]
    -2.2578  -2.2002  -2.0162  -1.8392  -1.7292  -1.6207  -1.5549  -1.4570
    -1.2720  -1.2295  -0.8544  -0.6174  -0.5560  -0.4774  -0.3732  -0.0638
     0.0162   0.0396   0.0849   0.1708   0.2608   0.3170   0.3984   0.4448
     0.5892   0.6538   0.7578   0.8089   0.8650   0.9521   1.0589   1.1346
     1.1593   1.2469   1.3126   1.3710   1.4989   1.6936   1.7388   1.8449

          k = 0.0649-0.0375 0.0000 ( 14026 PWs)   bands (ev):

   -70.8041 -70.7457 -70.6925 -70.6756 -70.6527 -70.6368 -70.6281 -70.6192
   -70.5927 -70.5714 -70.5495 -70.5493 -42.4774 -42.3518 -42.3335 -42.2937
   -42.2805 -42.2631 -42.2461 -42.1636 -42.1242 -42.0958 -42.0755 -42.0478
   -42.0198 -42.0057 -41.9553 -41.9505 -41.9344 -41.9196 -41.9163 -41.8909
   -41.8702 -41.8654 -41.8596 -41.8286 -41.8199 -41.8034 -41.7884 -41.7730
   -41.7589 -41.7367 -41.7229 -41.6945 -41.6708 -41.6467 -41.6221 -41.5928
    -8.9203  -4.7760  -3.2644  -3.0569  -2.6603  -2.3808  -2.3569  -2.3067
    -2.2851  -2.0782  -1.9457  -1.7203  -1.6977  -1.5517  -1.4989  -1.3796
    -1.1990  -1.1935  -0.8491  -0.6256  -0.5964  -0.5409  -0.4375  -0.1699
    -0.0425  -0.0128   0.0146   0.1386   0.1787   0.2675   0.4007   0.4269
     0.4565   0.6214   0.7108   0.7361   0.8334   0.9258   0.9586   1.0276
     1.1000   1.1020   1.2892   1.3133   1.5223   1.6427   1.6957   1.8449

          k = 0.0649 0.0000 0.0000 ( 14027 PWs)   bands (ev):

   -70.8113 -70.7415 -70.6930 -70.6769 -70.6511 -70.6339 -70.6316 -70.6198
   -70.5925 -70.5619 -70.5601 -70.5439 -42.4907 -42.3661 -42.3485 -42.3026
   -42.2979 -42.2803 -42.2602 -42.1752 -42.1318 -42.1164 -42.0736 -42.0429
   -42.0129 -42.0100 -41.9607 -41.9463 -41.9290 -41.9199 -41.9153 -41.8829
   -41.8795 -41.8427 -41.8401 -41.8320 -41.8076 -41.7949 -41.7791 -41.7637
   -41.7508 -41.7130 -41.7008 -41.6902 -41.6757 -41.6517 -41.6206 -41.5875
    -8.9489  -4.9680  -3.2396  -2.9245  -2.7608  -2.6084  -2.5001  -2.4013
    -2.2578  -2.2002  -2.0162  -1.8392  -1.7292  -1.6207  -1.5549  -1.4570
    -1.2720  -1.2295  -0.8544  -0.6174  -0.5560  -0.4774  -0.3732  -0.0638
     0.0161   0.0396   0.0849   0.1708   0.2608   0.3170   0.3984   0.4448
     0.5892   0.6538   0.7579   0.8088   0.8650   0.9521   1.0588   1.1346
     1.1593   1.2470   1.3126   1.3710   1.4989   1.6936   1.7388   1.8449

          k = 0.0649 0.0375 0.0000 ( 14026 PWs)   bands (ev):

   -70.8041 -70.7457 -70.6925 -70.6756 -70.6526 -70.6367 -70.6281 -70.6192
   -70.5927 -70.5714 -70.5495 -70.5493 -42.4774 -42.3518 -42.3335 -42.2937
   -42.2805 -42.2631 -42.2462 -42.1636 -42.1241 -42.0958 -42.0755 -42.0478
   -42.0198 -42.0057 -41.9553 -41.9505 -41.9343 -41.9196 -41.9164 -41.8909
   -41.8702 -41.8654 -41.8596 -41.8286 -41.8199 -41.8034 -41.7884 -41.7730
   -41.7589 -41.7367 -41.7229 -41.6945 -41.6708 -41.6467 -41.6221 -41.5928
    -8.9203  -4.7760  -3.2644  -3.0569  -2.6603  -2.3808  -2.3569  -2.3067
    -2.2851  -2.0782  -1.9457  -1.7203  -1.6977  -1.5517  -1.4989  -1.3796
    -1.1990  -1.1935  -0.8491  -0.6256  -0.5964  -0.5409  -0.4375  -0.1699
    -0.0425  -0.0128   0.0146   0.1386   0.1786   0.2675   0.4007   0.4269
     0.4565   0.6214   0.7108   0.7361   0.8334   0.9257   0.9586   1.0276
     1.1000   1.1020   1.2892   1.3133   1.5223   1.6428   1.6957   1.8449

          k = 0.0649-0.1500 0.0000 ( 13990 PWs)   bands (ev):

   -70.7856 -70.7544 -70.6996 -70.6733 -70.6515 -70.6418 -70.6225 -70.6142
   -70.5931 -70.5777 -70.5636 -70.5406 -42.4446 -42.3196 -42.3056 -42.2684
   -42.2350 -42.2211 -42.2038 -42.1542 -42.1100 -42.0921 -42.0699 -42.0590
   -42.0275 -41.9909 -41.9754 -41.9581 -41.9360 -41.9242 -41.9175 -41.9040
   -41.8921 -41.8732 -41.8561 -41.8540 -41.8422 -41.8303 -41.8172 -41.7861
   -41.7812 -41.7551 -41.7358 -41.6971 -41.6754 -41.6578 -41.6304 -41.6113
    -8.8628  -4.2339  -3.4049  -2.9009  -2.6353  -2.4486  -2.2382  -2.0119
    -1.9479  -1.9259  -1.7568  -1.6121  -1.4246  -1.3239  -1.3087  -1.2098
    -1.1434  -1.0076  -0.8839  -0.7520  -0.6183  -0.6048  -0.4708  -0.3957
    -0.3179  -0.2497  -0.2054  -0.0535  -0.0047   0.0737   0.1556   0.2345
     0.3168   0.3790   0.4497   0.6024   0.6338   0.7226   0.8423   0.9147
     1.0816   1.2128   1.2732   1.4080   1.5579   1.6553   1.6770   1.7194

          k = 0.0649-0.1125 0.0000 ( 13962 PWs)   bands (ev):

   -70.7667 -70.7650 -70.7100 -70.6660 -70.6563 -70.6402 -70.6249 -70.6057
   -70.5872 -70.5851 -70.5737 -70.5374 -42.4214 -42.3210 -42.2828 -42.2250
   -42.2014 -42.1941 -42.1784 -42.1661 -42.1360 -42.1025 -42.0720 -42.0370
   -42.0202 -42.0014 -41.9856 -41.9546 -41.9474 -41.9388 -41.9190 -41.9185
   -41.9063 -41.8735 -41.8701 -41.8519 -41.8454 -41.8237 -41.8189 -41.8115
   -41.7887 -41.7762 -41.6956 -41.6931 -41.6910 -41.6711 -41.6665 -41.6116
    -8.8339  -3.5984  -3.3989  -3.3332  -2.6744  -2.3472  -2.2200  -1.9238
    -1.7571  -1.7471  -1.5023  -1.4855  -1.3747  -1.1973  -1.1310  -1.0237
    -0.9910  -0.9542  -0.8465  -0.8023  -0.7931  -0.6973  -0.6668  -0.5116
    -0.4376  -0.3748  -0.2970  -0.2638  -0.1819  -0.1342  -0.0783   0.0315
     0.2386   0.2902   0.3275   0.4959   0.5064   0.7843   0.8551   0.9539
     1.1205   1.1892   1.2822   1.3709   1.4993   1.5078   1.8545   1.8851

          k = 0.0649-0.0750 0.0000 ( 13990 PWs)   bands (ev):

   -70.7856 -70.7544 -70.6996 -70.6733 -70.6516 -70.6418 -70.6225 -70.6142
   -70.5931 -70.5776 -70.5636 -70.5406 -42.4446 -42.3196 -42.3056 -42.2684
   -42.2350 -42.2211 -42.2037 -42.1542 -42.1100 -42.0921 -42.0699 -42.0590
   -42.0275 -41.9909 -41.9754 -41.9581 -41.9360 -41.9243 -41.9175 -41.9040
   -41.8921 -41.8732 -41.8561 -41.8540 -41.8422 -41.8303 -41.8172 -41.7861
   -41.7812 -41.7551 -41.7358 -41.6971 -41.6755 -41.6578 -41.6304 -41.6113
    -8.8628  -4.2339  -3.4049  -2.9009  -2.6353  -2.4486  -2.2382  -2.0119
    -1.9479  -1.9259  -1.7567  -1.6121  -1.4246  -1.3239  -1.3087  -1.2098
    -1.1434  -1.0076  -0.8840  -0.7520  -0.6183  -0.6048  -0.4709  -0.3957
    -0.3179  -0.2497  -0.2054  -0.0535  -0.0047   0.0737   0.1556   0.2345
     0.3168   0.3790   0.4497   0.6024   0.6338   0.7226   0.8423   0.9147
     1.0816   1.2128   1.2732   1.4079   1.5579   1.6553   1.6770   1.7195

          k =-0.0974 0.0562 0.0000 ( 14010 PWs)   bands (ev):

   -70.7813 -70.7621 -70.6949 -70.6699 -70.6527 -70.6475 -70.6192 -70.6123
   -70.5982 -70.5811 -70.5495 -70.5492 -42.4460 -42.3140 -42.3086 -42.2810
   -42.2451 -42.2250 -42.1891 -42.1308 -42.1203 -42.0874 -42.0811 -42.0593
   -42.0241 -41.9862 -41.9509 -41.9392 -41.9371 -41.9223 -41.9194 -41.9056
   -41.8856 -41.8806 -41.8687 -41.8617 -41.8343 -41.8282 -41.8280 -41.8235
   -41.7826 -41.7693 -41.7344 -41.7032 -41.6685 -41.6283 -41.6218 -41.6212
    -8.8624  -4.0302  -3.8466  -2.9306  -2.5031  -2.1936  -2.1046  -1.9901
    -1.9615  -1.8646  -1.8301  -1.8231  -1.4595  -1.3467  -1.2969  -1.2061
    -1.1076  -1.0523  -0.8816  -0.7684  -0.6861  -0.4743  -0.4739  -0.4286
    -0.2539  -0.2283  -0.1086  -0.0579   0.0597   0.0958   0.1886   0.2033
     0.2900   0.3890   0.4925   0.6142   0.6248   0.6994   0.7790   0.8360
     1.0215   1.2555   1.3563   1.5035   1.5118   1.5739   1.7939   1.8075

          k =-0.0974 0.0937 0.0000 ( 13990 PWs)   bands (ev):

   -70.7856 -70.7544 -70.6996 -70.6733 -70.6516 -70.6418 -70.6225 -70.6142
   -70.5931 -70.5777 -70.5636 -70.5406 -42.4446 -42.3196 -42.3056 -42.2684
   -42.2350 -42.2212 -42.2037 -42.1542 -42.1100 -42.0921 -42.0699 -42.0590
   -42.0275 -41.9909 -41.9754 -41.9581 -41.9360 -41.9243 -41.9175 -41.9040
   -41.8921 -41.8732 -41.8561 -41.8540 -41.8422 -41.8303 -41.8172 -41.7861
   -41.7812 -41.7551 -41.7358 -41.6971 -41.6754 -41.6578 -41.6304 -41.6113
    -8.8628  -4.2339  -3.4049  -2.9009  -2.6353  -2.4486  -2.2382  -2.0119
    -1.9478  -1.9259  -1.7567  -1.6121  -1.4246  -1.3239  -1.3087  -1.2098
    -1.1434  -1.0076  -0.8840  -0.7520  -0.6183  -0.6048  -0.4709  -0.3957
    -0.3179  -0.2497  -0.2054  -0.0535  -0.0047   0.0737   0.1556   0.2345
     0.3168   0.3790   0.4497   0.6024   0.6338   0.7226   0.8423   0.9147
     1.0816   1.2128   1.2732   1.4079   1.5579   1.6553   1.6770   1.7194

          k =-0.0974 0.1312 0.0000 ( 13990 PWs)   bands (ev):

   -70.7856 -70.7544 -70.6996 -70.6733 -70.6516 -70.6417 -70.6225 -70.6142
   -70.5931 -70.5777 -70.5636 -70.5406 -42.4446 -42.3196 -42.3056 -42.2684
   -42.2350 -42.2211 -42.2038 -42.1542 -42.1100 -42.0921 -42.0699 -42.0590
   -42.0275 -41.9909 -41.9754 -41.9581 -41.9360 -41.9242 -41.9175 -41.9040
   -41.8921 -41.8732 -41.8561 -41.8540 -41.8422 -41.8303 -41.8172 -41.7861
   -41.7812 -41.7551 -41.7358 -41.6971 -41.6754 -41.6578 -41.6304 -41.6113
    -8.8628  -4.2339  -3.4049  -2.9009  -2.6353  -2.4486  -2.2382  -2.0119
    -1.9479  -1.9259  -1.7567  -1.6121  -1.4246  -1.3239  -1.3087  -1.2098
    -1.1434  -1.0076  -0.8839  -0.7520  -0.6183  -0.6048  -0.4708  -0.3957
    -0.3179  -0.2497  -0.2054  -0.0535  -0.0047   0.0737   0.1556   0.2345
     0.3168   0.3790   0.4497   0.6024   0.6338   0.7226   0.8423   0.9147
     1.0816   1.2128   1.2732   1.4080   1.5579   1.6553   1.6770   1.7194

          k =-0.0974-0.0562 0.0000 ( 14010 PWs)   bands (ev):

   -70.7813 -70.7621 -70.6949 -70.6699 -70.6527 -70.6475 -70.6192 -70.6123
   -70.5981 -70.5811 -70.5494 -70.5493 -42.4460 -42.3140 -42.3086 -42.2810
   -42.2451 -42.2250 -42.1891 -42.1308 -42.1204 -42.0874 -42.0811 -42.0593
   -42.0241 -41.9862 -41.9509 -41.9392 -41.9371 -41.9223 -41.9194 -41.9056
   -41.8856 -41.8806 -41.8686 -41.8618 -41.8343 -41.8281 -41.8280 -41.8235
   -41.7825 -41.7693 -41.7344 -41.7032 -41.6685 -41.6284 -41.6218 -41.6211
    -8.8624  -4.0302  -3.8466  -2.9306  -2.5031  -2.1936  -2.1046  -1.9901
    -1.9615  -1.8646  -1.8301  -1.8231  -1.4595  -1.3467  -1.2969  -1.2061
    -1.1076  -1.0523  -0.8815  -0.7684  -0.6861  -0.4743  -0.4739  -0.4286
    -0.2539  -0.2283  -0.1086  -0.0579   0.0597   0.0958   0.1886   0.2033
     0.2900   0.3890   0.4925   0.6142   0.6248   0.6994   0.7790   0.8360
     1.0215   1.2555   1.3563   1.5035   1.5119   1.5739   1.7940   1.8075

     the Fermi energy is     0.9353 ev

!    total energy              =   -2126.46106123 Ry
     Harris-Foulkes estimate   =   -2126.46106136 Ry
     estimated scf accuracy    <       0.00000007 Ry

     The total energy is the sum of the following terms:

     one-electron contribution =  -19970.31397867 Ry
     hartree contribution      =    9976.06829737 Ry
     xc contribution           =    -282.90353967 Ry
     ewald contribution        =    8150.80917666 Ry
     electric field correction =       0.00010819 Ry
     smearing contrib. (-TS)   =      -0.12112512 Ry

     convergence has been achieved in  22 iterations
 
 BEEF-vdW xc energy contributions
           1 :   -244.924254414643     
           2 :    220.667047506134     
           3 :   -180.097193229082     
           4 :    135.337381959688     
           5 :   -97.4617705596955     
           6 :    72.4646507093932     
           7 :   -60.1146064897468     
           8 :    55.7504612493399     
           9 :   -53.6323494265183     
          10 :    49.9146653229442     
          11 :   -43.8735950147020     
          12 :    37.1870727351291     
          13 :   -32.1219925358828     
          14 :    29.8695956017287     
          15 :   -29.9248993529221     
          16 :    30.6385334868850     
          17 :   -30.3878952846756     
          18 :    28.5554053742236     
          19 :   -25.7466803207523     
          20 :    23.2147620849639     
          21 :   -21.9498094280377     
          22 :    22.0482726053604     
          23 :   -22.7356073855439     
          24 :    22.9572856002524     
          25 :   -22.0952770536685     
          26 :    20.3286794534458     
          27 :   -18.4394807281287     
          28 :    17.2437127174453     
          29 :   -17.0539971250535     
          30 :    17.5175791877568     
          31 :   -24.2909143273392     
          32 :   -17.5027259006014     

     Forces acting on atoms (Ry/au):


     negative rho (up, down):  1.512E-02 0.000E+00
     atom    1 type  1   force =    -0.00126817   -0.00073259   -0.00000313
     atom    2 type  1   force =     0.00126904   -0.00073128   -0.00000049
     atom    3 type  1   force =     0.00000071    0.00146506   -0.00000209
     atom    4 type  1   force =    -0.00000029   -0.00000020    0.00489987
     atom    5 type  1   force =     0.00000249    0.01722938   -0.01733412
     atom    6 type  1   force =    -0.00000324   -0.00000008    0.04325455
     atom    7 type  1   force =    -0.01492003   -0.00861672   -0.01733491
     atom    8 type  1   force =     0.01492006   -0.00861293   -0.01733824
     atom    9 type  1   force =    -0.00000112    0.00000185   -0.00054435
     atom   10 type  1   force =    -0.00000001    0.00086560    0.00150075
     atom   11 type  1   force =     0.00075042   -0.00043395    0.00149883
     atom   12 type  1   force =    -0.00075078   -0.00043659    0.00150407
     atom   13 type  2   force =     0.00000093    0.00000243   -0.00010076

     Total force =     0.003053     Total SCF correction =     0.000672
     SCF correction compared to forces is large: reduce conv_thr to get better values


     entering subroutine stress ...


     negative rho (up, down):  1.512E-02 0.000E+00
          total   stress  (Ry/bohr**3)                   (kbar)     P=  -14.42
  -0.00014109  -0.00000000  -0.00000000        -20.75     -0.00     -0.00
  -0.00000000  -0.00014107  -0.00000000         -0.00    -20.75     -0.00
  -0.00000000  -0.00000000  -0.00001192         -0.00     -0.00     -1.75


     bfgs converged in  12 scf cycles and  11 bfgs steps
     (criteria: energy <  1.0E+00, force <  1.9E-03)

     End of BFGS Geometry Optimization

     Final energy   =   -2126.4610612328 Ry
Begin final coordinates

ATOMIC_POSITIONS (crystal)
Cr1      0.166666667   0.166666667   0.413381306    0   0   0
Cr1      0.666666667   0.166666667   0.413381306    0   0   0
Cr1      0.166666667   0.666666667   0.413381306    0   0   0
Cr1      0.666666667   0.666666667   0.413381306    0   0   0
Cr1      0.833333333   0.333333333   0.500000000    0   0   0
Cr1      0.333333333   0.333333333   0.500000000    0   0   0
Cr1      0.833333333   0.833333333   0.500000000    0   0   0
Cr1      0.333333333   0.833333333   0.500000000    0   0   0
Cr1      0.000002912  -0.000000335   0.572569738
Cr1      0.504539938  -0.009075915   0.590268586
Cr1     -0.009077896   0.504539511   0.590268368
Cr1      0.504537691   0.504540616   0.590268438
C1       0.333330956   0.333334485   0.634036751
End final coordinates



     Writing output data file calc.save
 
     init_run     :      7.10s CPU      7.38s WALL (       1 calls)
     electrons    :   5501.06s CPU   5787.33s WALL (      12 calls)
     update_pot   :     22.28s CPU     23.55s WALL (      11 calls)
     forces       :    127.58s CPU    134.01s WALL (      12 calls)
     stress       :    414.70s CPU    430.31s WALL (      12 calls)

     Called by init_run:
     wfcinit      :      2.67s CPU      2.71s WALL (       1 calls)
     potinit      :      1.28s CPU      1.42s WALL (       1 calls)

     Called by electrons:
     c_bands      :   2629.98s CPU   2733.50s WALL (     351 calls)
     sum_band     :   1097.42s CPU   1150.22s WALL (     351 calls)
     v_of_rho     :    379.07s CPU    417.59s WALL (     363 calls)
     newd         :    925.85s CPU    938.62s WALL (     363 calls)
     mix_rho      :     16.49s CPU     16.90s WALL (     351 calls)
     vdW_energy   :    117.86s CPU    130.42s WALL (     795 calls)
     vdW_ffts     :    272.68s CPU    290.71s WALL (    1614 calls)
     vdW_v        :    112.15s CPU    116.57s WALL (     795 calls)

     Called by c_bands:
     init_us_2    :     16.41s CPU     16.52s WALL (    3635 calls)
     cegterg      :   2414.38s CPU   2459.59s WALL (    1755 calls)

     Called by *egterg:
     h_psi        :   1455.96s CPU   1490.78s WALL (    8629 calls)
     s_psi        :    142.41s CPU    142.67s WALL (    8629 calls)
     g_psi        :      9.07s CPU      9.09s WALL (    6869 calls)
     cdiaghg      :    331.19s CPU    333.27s WALL (    8569 calls)

     Called by h_psi:
     add_vuspsi   :    147.75s CPU    148.11s WALL (    8629 calls)

     General routines
     calbec       :    225.13s CPU    228.52s WALL (   10504 calls)
     fft          :    447.40s CPU    492.16s WALL (   49205 calls)
     ffts         :      0.93s CPU      1.02s WALL (     714 calls)
     fftw         :    881.99s CPU    921.51s WALL (  995836 calls)
     interpolate  :      8.50s CPU      8.73s WALL (     714 calls)
     davcio       :      0.00s CPU      0.02s WALL (       5 calls)
 
     Parallel routines
     fft_scatter  :    745.01s CPU    823.55s WALL ( 1045755 calls)
 
     PWSCF        :     1h41m CPU        1h47m WALL

 
   This run was terminated on:  14:54:15   2May2018            

=------------------------------------------------------------------------------=
   JOB DONE.
=------------------------------------------------------------------------------=
Job  /afs/slac/g/suncat/bin/suncat-tsmpirun -x LD_LIBRARY_PATH -wdir /scratch/qe642481_hEwr2 pw.x -npool 4 -in pw.inp

TID   HOST_NAME   COMMAND_LINE            STATUS            TERMINATION_TIME
===== ========== ================  =======================  ===================
00000 suncat0151 pw.x -npool 4 -i  Done                     05/02/2018 14:54:15
00001 suncat0151 pw.x -npool 4 -i  Done                     05/02/2018 14:54:15
00002 suncat0151 pw.x -npool 4 -i  Done                     05/02/2018 14:54:15
00003 suncat0151 pw.x -npool 4 -i  Done                     05/02/2018 14:54:15
00004 suncat0151 pw.x -npool 4 -i  Done                     05/02/2018 14:54:15
00005 suncat0151 pw.x -npool 4 -i  Done                     05/02/2018 14:54:15
00006 suncat0151 pw.x -npool 4 -i  Done                     05/02/2018 14:54:15
00007 suncat0151 pw.x -npool 4 -i  Done                     05/02/2018 14:54:15
00008 suncat0279 pw.x -npool 4 -i  Done                     05/02/2018 14:54:15
00009 suncat0279 pw.x -npool 4 -i  Done                     05/02/2018 14:54:15
00010 suncat0279 pw.x -npool 4 -i  Done                     05/02/2018 14:54:15
00011 suncat0279 pw.x -npool 4 -i  Done                     05/02/2018 14:54:15
00012 suncat0279 pw.x -npool 4 -i  Done                     05/02/2018 14:54:15
00013 suncat0279 pw.x -npool 4 -i  Done                     05/02/2018 14:54:15
00014 suncat0279 pw.x -npool 4 -i  Done                     05/02/2018 14:54:15
00015 suncat0279 pw.x -npool 4 -i  Done                     05/02/2018 14:54:15
00016 suncat0251 pw.x -npool 4 -i  Done                     05/02/2018 14:54:15
00017 suncat0251 pw.x -npool 4 -i  Done                     05/02/2018 14:54:15
00018 suncat0251 pw.x -npool 4 -i  Done                     05/02/2018 14:54:15
00019 suncat0251 pw.x -npool 4 -i  Done                     05/02/2018 14:54:15
00020 suncat0251 pw.x -npool 4 -i  Done                     05/02/2018 14:54:15
00021 suncat0251 pw.x -npool 4 -i  Done                     05/02/2018 14:54:15
00022 suncat0251 pw.x -npool 4 -i  Done                     05/02/2018 14:54:15
00023 suncat0251 pw.x -npool 4 -i  Done                     05/02/2018 14:54:15
00024 suncat0205 pw.x -npool 4 -i  Done                     05/02/2018 14:54:15
00025 suncat0205 pw.x -npool 4 -i  Done                     05/02/2018 14:54:15
00026 suncat0205 pw.x -npool 4 -i  Done                     05/02/2018 14:54:15
00027 suncat0205 pw.x -npool 4 -i  Done                     05/02/2018 14:54:15
00028 suncat0205 pw.x -npool 4 -i  Done                     05/02/2018 14:54:15
00029 suncat0205 pw.x -npool 4 -i  Done                     05/02/2018 14:54:15
00030 suncat0205 pw.x -npool 4 -i  Done                     05/02/2018 14:54:15
00031 suncat0205 pw.x -npool 4 -i  Done                     05/02/2018 14:54:15
