  python dir          : /nfs/slac/g/suncatfs/sw/espv20/lib/python2.7/site-packages/espresso
  espresso dir        : /nfs/slac/g/suncatfs/sw/espv18/espresso-dynpy-beef/bin
  pseudo dir          : /afs/slac.stanford.edu/u/if/mamunm/psp/gbrv1.5pbe
  ase-espresso py git : ffa2778-git



     Program PWSCF v.5.1rc2 (svn rev. 11289) starts on 20Jan2018 at  4:34:12 

     This program is part of the open-source Quantum ESPRESSO suite
     for quantum simulation of materials; please cite
         "P. Giannozzi et al., J. Phys.:Condens. Matter 21 395502 (2009);
          URL http://www.quantum-espresso.org", 
     in publications or presentations arising from this work. More details at
     http://www.quantum-espresso.org/quote

     Parallel version (MPI), running on    32 processors
     R & G space division:  proc/nbgrp/npool/nimage =      32
     Reading input from pw.inp
     Message from routine read_cards :
     DEPRECATED: no units specified in CELL_PARAMETERS card

     Current dimensions of program PWSCF are:
     Max number of different atomic species (ntypx) = 10
     Max number of k-points (npk) =  40000
     Max angular momentum in pseudopotentials (lmaxx) =  3
     Presently stress not available with electric field


     **************************************************************************
     Initializing libbeef V0.1.1 with the BEEF-vdW functional.
     Citation: Wellendorff et al., PRB 85, 235149 (2012).
     **************************************************************************


     IMPORTANT: XC functional enforced from input :
     Exchange-correlation      = BEEF-VDW ( 1  4 27 13 2)
     Any further DFT definition will be discarded
     Please, verify this is what you really want


     Subspace diagonalization in iterative solution of the eigenvalue problem:
     a serial algorithm will be used

 
     Parallelization info
     --------------------
     sticks:   dense  smooth     PW     G-vecs:    dense   smooth      PW
     Min         123      49     14                24159     6095     922
     Max         124      50     15                24174     6130     942
     Sum        3949    1585    451               773273   195593   29841
 


     bravais-lattice index     =            0
     lattice parameter (alat)  =       1.8897  a.u.
     unit-cell volume          =    6501.5726 (a.u.)^3
     number of atoms/cell      =           13
     number of atomic types    =            2
     number of electrons       =       162.00
     number of Kohn-Sham states=           91
     kinetic-energy cutoff     =      36.7493  Ry
     charge density cutoff     =     367.4932  Ry
     convergence threshold     =      1.0E-05
     mixing beta               =       0.3000
     number of iterations used =           10  plain     mixing
     Exchange-correlation      = BEEF-VDW ( 1  4 27 13 2)
     nstep                     =           50


     celldm(1)=   1.889726  celldm(2)=   0.000000  celldm(3)=   0.000000
     celldm(4)=   0.000000  celldm(5)=   0.000000  celldm(6)=   0.000000

     crystal axes: (cart. coord. in units of alat)
               a(1) = (   6.617606   0.000000   0.000000 )  
               a(2) = (   3.308803   5.731015   0.000000 )  
               a(3) = (   0.000000   0.000000  25.403253 )  

     reciprocal axes: (cart. coord. in units 2 pi/alat)
               b(1) = (  0.151112 -0.087245  0.000000 )  
               b(2) = (  0.000000  0.174489  0.000000 )  
               b(3) = (  0.000000  0.000000  0.039365 )  


     PseudoPot. # 1 for In read from file:
     /afs/slac.stanford.edu/u/if/mamunm/psp/gbrv1.5pbe/In.UPF
     MD5 check sum: 90777abd96fbb83f2e67db2a40c566b9
     Pseudo is Ultrasoft + core correction, Zval = 13.0
     Generated by new atomic code, or converted to UPF format
     Using radial grid of  889 points,  6 beta functions with: 
                l(1) =   0
                l(2) =   0
                l(3) =   1
                l(4) =   1
                l(5) =   2
                l(6) =   2
     Q(r) pseudized with  6 coefficients,  rinner =    1.400   1.400   1.400
                                                       1.400   1.400

     PseudoPot. # 2 for S  read from file:
     /afs/slac.stanford.edu/u/if/mamunm/psp/gbrv1.5pbe/S.UPF
     MD5 check sum: 88d86576ff6df21479756cfb9bdac1df
     Pseudo is Ultrasoft + core correction, Zval =  6.0
     Generated by new atomic code, or converted to UPF format
     Using radial grid of  907 points,  6 beta functions with: 
                l(1) =   0
                l(2) =   0
                l(3) =   1
                l(4) =   1
                l(5) =   2
                l(6) =   2
     Q(r) pseudized with  8 coefficients,  rinner =    1.300   1.300   1.300
                                                       1.300   1.300

     vdW kernel table read from file vdW_kernel_table
     MD5 check sum: 095c7af220d748ca6e76c0b4c6cfb241

     atomic species   valence    mass     pseudopotential
        In1           13.00   114.81800     In( 1.00)
        S1             6.00    32.06000     S ( 1.00)

     No symmetry found



   Cartesian axes

     site n.     atom                  positions (alat units)
         1           In1 tau(   1) = (   1.6544016   0.9551692  10.0000000  )
         2           In1 tau(   2) = (   4.9632047   0.9551692  10.0000000  )
         3           In1 tau(   3) = (   3.3088031   3.8206768  10.0000000  )
         4           In1 tau(   4) = (   6.6176063   3.8206768  10.0000000  )
         5           In1 tau(   5) = (   6.6176063   1.9103384  12.7016265  )
         6           In1 tau(   6) = (   3.3088031   1.9103384  12.7016265  )
         7           In1 tau(   7) = (   8.2720078   4.7758460  12.7016265  )
         8           In1 tau(   8) = (   4.9632047   4.7758460  12.7016265  )
         9           In1 tau(   9) = (   0.0000000   0.0000000  15.4032529  )
        10           In1 tau(  10) = (   3.3088031   0.0000000  15.4032529  )
        11           In1 tau(  11) = (   1.6544016   2.8655076  15.4032529  )
        12           In1 tau(  12) = (   4.9632047   2.8655076  15.4032529  )
        13           S1  tau(  13) = (   1.6544016   0.9551692  17.8732529  )

     number of k points=    20  Fermi-Dirac smearing, width (Ry)=  0.0110
                       cart. coord. in units 2pi/alat
        k(    1) = (   0.0000000   0.0000000   0.0000000), wk =   0.0555556
        k(    2) = (   0.0000000   0.0290815   0.0000000), wk =   0.1111111
        k(    3) = (   0.0000000   0.0581631   0.0000000), wk =   0.1111111
        k(    4) = (   0.0000000  -0.0872446   0.0000000), wk =   0.0555556
        k(    5) = (   0.0251853  -0.0145408   0.0000000), wk =   0.1111111
        k(    6) = (   0.0251853   0.0145408   0.0000000), wk =   0.1111111
        k(    7) = (   0.0251853   0.0436223   0.0000000), wk =   0.1111111
        k(    8) = (   0.0251853  -0.1017853   0.0000000), wk =   0.1111111
        k(    9) = (   0.0251853  -0.0727038   0.0000000), wk =   0.1111111
        k(   10) = (   0.0251853  -0.0436223   0.0000000), wk =   0.1111111
        k(   11) = (   0.0503707  -0.0290815   0.0000000), wk =   0.1111111
        k(   12) = (   0.0503707   0.0000000   0.0000000), wk =   0.1111111
        k(   13) = (   0.0503707   0.0290815   0.0000000), wk =   0.1111111
        k(   14) = (   0.0503707  -0.1163261   0.0000000), wk =   0.1111111
        k(   15) = (   0.0503707  -0.0872446   0.0000000), wk =   0.1111111
        k(   16) = (   0.0503707  -0.0581631   0.0000000), wk =   0.1111111
        k(   17) = (  -0.0755560   0.0436223   0.0000000), wk =   0.0555556
        k(   18) = (  -0.0755560   0.0727038   0.0000000), wk =   0.1111111
        k(   19) = (  -0.0755560   0.1017853   0.0000000), wk =   0.1111111
        k(   20) = (  -0.0755560  -0.0436223   0.0000000), wk =   0.0555556

     Dense  grid:   773273 G-vectors     FFT dimensions: (  80,  80, 300)

     Smooth grid:   195593 G-vectors     FFT dimensions: (  50,  50, 192)

     Largest allocated arrays     est. size (Mb)     dimensions
        Kohn-Sham Wavefunctions         1.13 Mb     (     813,   91)
        NL pseudopotentials             2.90 Mb     (     813,  234)
        Each V/rho on FFT grid          0.98 Mb     (   64000)
        Each G-vector array             0.18 Mb     (   24161)
        G-vector shells                 0.08 Mb     (   10769)
     Largest temporary arrays     est. size (Mb)     dimensions
        Auxiliary wavefunctions         4.52 Mb     (     813,  364)
        Each subspace H/S matrix        2.02 Mb     (     364,  364)
        Each <psi_i|beta_j> matrix      0.32 Mb     (     234,   91)
        Arrays for rho mixing           9.77 Mb     (   64000,   10)

     Initial potential from superposition of free atoms
     Check: negative starting charge=   -0.000151

     starting charge  143.99996, renormalised to  162.00000

     negative rho (up, down):  1.701E-04 0.000E+00


     ************************************************************************
     *
     * You are using vdW-DF for exchange-correlation in this calculation.
     * Please cite the following three references that made this development
     * possible:
     *
     *   M. Dion, H. Rydberg, E. Schroder, D. C. Langreth, and
     *   B. I. Lundqvist, Phys. Rev. Lett. 92, 246401 (2004).
     *
     *   T. Thonhauser, V. R. Cooper, S. Li, A. Puzder, P. Hyldgaard, and
     *   D. C. Langreth, Phys. Rev. B 76, 125112 (2007).
     *
     *   G. Roman-Perez and J. M. Soler, Phys. Rev. Lett. 103, 096102 (2009).
     *
     *
     * If you are using vdW-DF2, please also cite:
     *
     *   K. Lee, E. D. Murray, L. Kong, B. I. Lundqvist, and
     *   D. C. Langreth, Phys. Rev. B 82, 081101(R) (2010).
     *
     *
     * If you are calculating the stress with vdW-DF, please also cite:
     *
     *   R. Sabatini, E. Kucukbenli, B. Kolb, T. Thonhauser, and
     *   S. de Gironcoli, J. Phys.: Condens. Matter 24, 424209 (2012).
     *
     ************************************************************************

     Carrying out vdW-DF run using the following parameters:

     Nqs =      20    Nr_points =    1024   r_max =   100.000
     q_mesh =
               0.00001000     0.04494208     0.09755937     0.15916263
               0.23128650     0.31572767     0.41458969     0.53033537
               0.66584808     0.82450364     1.01025438     1.22772762
               1.48234092     1.78043706     2.12944203     2.53805004
               3.01644009     3.57652955     4.23227104     5.00000000

     Gradients computed in reciprocal space

     ************************************************************************


 
     Adding external electric field

     Computed dipole along edir(3) : 
        Dipole               -7.3293 Ry au,        -18.6293 Debye
        Dipole field         -0.0142 Ry au
 
        Potential amp.        1.3261 Ry
        Total length         46.8051 bohr
 
     Starting wfc are  112 randomized atomic wfcs

     total cpu time spent up to now is       21.2 secs

     per-process dynamical memory:    57.9 Mb

     Self-consistent Calculation

     iteration #  1     ecut=    36.75 Ry     beta=0.30
     Davidson diagonalization with overlap
     ethr =  1.00E-02,  avg # of iterations =  8.0

     negative rho (up, down):  3.466E-06 0.000E+00
 
     Adding external electric field

     Computed dipole along edir(3) : 
        Dipole              133.5603 Ry au,        339.4763 Debye
        Dipole field          0.2581 Ry au
 
        Potential amp.      -24.1653 Ry
        Total length         46.8051 bohr
 

     total cpu time spent up to now is       99.3 secs

     total energy              =   -1145.55611657 Ry
     Harris-Foulkes estimate   =   -1632.07645256 Ry
     estimated scf accuracy    <    1040.38347072 Ry

     iteration #  2     ecut=    36.75 Ry     beta=0.30
     Davidson diagonalization with overlap
     ethr =  1.00E-02,  avg # of iterations = 22.3
 
     Adding external electric field

     Computed dipole along edir(3) : 
        Dipole               33.0863 Ry au,         84.0970 Debye
        Dipole field          0.0639 Ry au
 
        Potential amp.       -5.9864 Ry
        Total length         46.8051 bohr
 

     total cpu time spent up to now is      375.0 secs

     total energy              =   -1369.50407069 Ry
     Harris-Foulkes estimate   =   -2889.34535902 Ry
     estimated scf accuracy    <   15824.09315284 Ry

     iteration #  3     ecut=    36.75 Ry     beta=0.30
     Davidson diagonalization with overlap
     ethr =  1.00E-02,  avg # of iterations = 13.8
 
     Adding external electric field

     Computed dipole along edir(3) : 
        Dipole               29.6482 Ry au,         75.3581 Debye
        Dipole field          0.0573 Ry au
 
        Potential amp.       -5.3643 Ry
        Total length         46.8051 bohr
 

     total cpu time spent up to now is      539.5 secs

     total energy              =   -1596.91251470 Ry
     Harris-Foulkes estimate   =   -1953.46192504 Ry
     estimated scf accuracy    <    2982.76773800 Ry

     iteration #  4     ecut=    36.75 Ry     beta=0.30
     Davidson diagonalization with overlap
     ethr =  1.00E-02,  avg # of iterations = 17.9
 
     Adding external electric field

     Computed dipole along edir(3) : 
        Dipole               21.8204 Ry au,         55.4618 Debye
        Dipole field          0.0422 Ry au
 
        Potential amp.       -3.9480 Ry
        Total length         46.8051 bohr
 

     total cpu time spent up to now is      680.3 secs

     total energy              =   -1653.82935282 Ry
     Harris-Foulkes estimate   =   -1671.96778886 Ry
     estimated scf accuracy    <     106.17909860 Ry

     iteration #  5     ecut=    36.75 Ry     beta=0.30
     Davidson diagonalization with overlap
     ethr =  1.00E-02,  avg # of iterations =  2.4
 
     Adding external electric field

     Computed dipole along edir(3) : 
        Dipole               14.8234 Ry au,         37.6772 Debye
        Dipole field          0.0287 Ry au
 
        Potential amp.       -2.6820 Ry
        Total length         46.8051 bohr
 

     total cpu time spent up to now is      722.4 secs

     total energy              =   -1645.11158878 Ry
     Harris-Foulkes estimate   =   -1656.15582859 Ry
     estimated scf accuracy    <      62.79110511 Ry

     iteration #  6     ecut=    36.75 Ry     beta=0.30
     Davidson diagonalization with overlap
     ethr =  1.00E-02,  avg # of iterations =  3.0
 
     Adding external electric field

     Computed dipole along edir(3) : 
        Dipole               11.3894 Ry au,         28.9489 Debye
        Dipole field          0.0220 Ry au
 
        Potential amp.       -2.0607 Ry
        Total length         46.8051 bohr
 

     total cpu time spent up to now is      764.5 secs

     total energy              =   -1644.39757903 Ry
     Harris-Foulkes estimate   =   -1646.58641309 Ry
     estimated scf accuracy    <      15.22073536 Ry

     iteration #  7     ecut=    36.75 Ry     beta=0.30
     Davidson diagonalization with overlap
     ethr =  9.40E-03,  avg # of iterations =  1.1
 
     Adding external electric field

     Computed dipole along edir(3) : 
        Dipole                8.3187 Ry au,         21.1439 Debye
        Dipole field          0.0161 Ry au
 
        Potential amp.       -1.5051 Ry
        Total length         46.8051 bohr
 

     total cpu time spent up to now is      802.7 secs

     total energy              =   -1642.67332072 Ry
     Harris-Foulkes estimate   =   -1644.69482132 Ry
     estimated scf accuracy    <      13.84358780 Ry

     iteration #  8     ecut=    36.75 Ry     beta=0.30
     Davidson diagonalization with overlap
     ethr =  8.55E-03,  avg # of iterations =  1.4
 
     Adding external electric field

     Computed dipole along edir(3) : 
        Dipole                4.7111 Ry au,         11.9744 Debye
        Dipole field          0.0091 Ry au
 
        Potential amp.       -0.8524 Ry
        Total length         46.8051 bohr
 

     total cpu time spent up to now is      840.4 secs

     total energy              =   -1641.94621270 Ry
     Harris-Foulkes estimate   =   -1643.09244164 Ry
     estimated scf accuracy    <       3.21009651 Ry

     iteration #  9     ecut=    36.75 Ry     beta=0.30
     Davidson diagonalization with overlap
     ethr =  1.98E-03,  avg # of iterations =  2.6

     negative rho (up, down):  4.306E-02 0.000E+00
 
     Adding external electric field

     Computed dipole along edir(3) : 
        Dipole                0.4619 Ry au,          1.1740 Debye
        Dipole field          0.0009 Ry au
 
        Potential amp.       -0.0836 Ry
        Total length         46.8051 bohr
 

     total cpu time spent up to now is      880.6 secs

     total energy              =   -1641.42556365 Ry
     Harris-Foulkes estimate   =   -1642.21381238 Ry
     estimated scf accuracy    <       3.31980319 Ry

     iteration # 10     ecut=    36.75 Ry     beta=0.30
     Davidson diagonalization with overlap
     ethr =  1.98E-03,  avg # of iterations =  3.0

     negative rho (up, down):  8.939E-02 0.000E+00
 
     Adding external electric field

     Computed dipole along edir(3) : 
        Dipole               -0.4112 Ry au,         -1.0451 Debye
        Dipole field         -0.0008 Ry au
 
        Potential amp.        0.0744 Ry
        Total length         46.8051 bohr
 

     total cpu time spent up to now is      925.3 secs

     total energy              =   -1642.15051670 Ry
     Harris-Foulkes estimate   =   -1641.85776784 Ry
     estimated scf accuracy    <       3.85254809 Ry

     iteration # 11     ecut=    36.75 Ry     beta=0.30
     Davidson diagonalization with overlap
     ethr =  1.98E-03,  avg # of iterations =  3.0

     negative rho (up, down):  1.000E-01 0.000E+00
 
     Adding external electric field

     Computed dipole along edir(3) : 
        Dipole               -1.3010 Ry au,         -3.3067 Debye
        Dipole field         -0.0025 Ry au
 
        Potential amp.        0.2354 Ry
        Total length         46.8051 bohr
 

     total cpu time spent up to now is      966.9 secs

     total energy              =   -1642.12378704 Ry
     Harris-Foulkes estimate   =   -1642.32786489 Ry
     estimated scf accuracy    <      20.80768066 Ry

     iteration # 12     ecut=    36.75 Ry     beta=0.30
     Davidson diagonalization with overlap
     ethr =  1.98E-03,  avg # of iterations =  2.9
 
     Adding external electric field

     Computed dipole along edir(3) : 
        Dipole                2.1258 Ry au,          5.4032 Debye
        Dipole field          0.0041 Ry au
 
        Potential amp.       -0.3846 Ry
        Total length         46.8051 bohr
 

     total cpu time spent up to now is     1006.8 secs

     total energy              =   -1640.75932609 Ry
     Harris-Foulkes estimate   =   -1642.16779690 Ry
     estimated scf accuracy    <      20.43787528 Ry

     iteration # 13     ecut=    36.75 Ry     beta=0.30
     Davidson diagonalization with overlap
     ethr =  1.98E-03,  avg # of iterations =  4.5

     negative rho (up, down):  3.813E-03 0.000E+00
 
     Adding external electric field

     Computed dipole along edir(3) : 
        Dipole                1.1853 Ry au,          3.0128 Debye
        Dipole field          0.0023 Ry au
 
        Potential amp.       -0.2145 Ry
        Total length         46.8051 bohr
 

     total cpu time spent up to now is     1051.1 secs

     total energy              =   -1641.68996313 Ry
     Harris-Foulkes estimate   =   -1641.80162183 Ry
     estimated scf accuracy    <       0.21551645 Ry

     iteration # 14     ecut=    36.75 Ry     beta=0.30
     Davidson diagonalization with overlap
     ethr =  1.33E-04,  avg # of iterations =  5.6

     negative rho (up, down):  5.101E-03 0.000E+00
 
     Adding external electric field

     Computed dipole along edir(3) : 
        Dipole                0.7922 Ry au,          2.0136 Debye
        Dipole field          0.0015 Ry au
 
        Potential amp.       -0.1433 Ry
        Total length         46.8051 bohr
 

     total cpu time spent up to now is     1100.0 secs

     total energy              =   -1641.69252038 Ry
     Harris-Foulkes estimate   =   -1641.72646234 Ry
     estimated scf accuracy    <       0.20859095 Ry

     iteration # 15     ecut=    36.75 Ry     beta=0.30
     Davidson diagonalization with overlap
     ethr =  1.29E-04,  avg # of iterations =  2.0

     negative rho (up, down):  1.172E-02 0.000E+00
 
     Adding external electric field

     Computed dipole along edir(3) : 
        Dipole                0.4387 Ry au,          1.1151 Debye
        Dipole field          0.0008 Ry au
 
        Potential amp.       -0.0794 Ry
        Total length         46.8051 bohr
 

     total cpu time spent up to now is     1139.7 secs

     total energy              =   -1641.69470069 Ry
     Harris-Foulkes estimate   =   -1641.70367061 Ry
     estimated scf accuracy    <       0.03683140 Ry

     iteration # 16     ecut=    36.75 Ry     beta=0.30
     Davidson diagonalization with overlap
     ethr =  2.27E-05,  avg # of iterations =  2.4

     negative rho (up, down):  2.861E-02 0.000E+00
 
     Adding external electric field

     Computed dipole along edir(3) : 
        Dipole               -0.6361 Ry au,         -1.6168 Debye
        Dipole field         -0.0012 Ry au
 
        Potential amp.        0.1151 Ry
        Total length         46.8051 bohr
 

     total cpu time spent up to now is     1179.1 secs

     total energy              =   -1641.68547497 Ry
     Harris-Foulkes estimate   =   -1641.69474937 Ry
     estimated scf accuracy    <       0.03191920 Ry

     iteration # 17     ecut=    36.75 Ry     beta=0.30
     Davidson diagonalization with overlap
     ethr =  1.97E-05,  avg # of iterations =  5.0

     negative rho (up, down):  3.052E-02 0.000E+00
 
     Adding external electric field

     Computed dipole along edir(3) : 
        Dipole               -0.8160 Ry au,         -2.0740 Debye
        Dipole field         -0.0016 Ry au
 
        Potential amp.        0.1476 Ry
        Total length         46.8051 bohr
 

     total cpu time spent up to now is     1226.6 secs

     total energy              =   -1641.69032546 Ry
     Harris-Foulkes estimate   =   -1641.68862405 Ry
     estimated scf accuracy    <       0.08014926 Ry

     iteration # 18     ecut=    36.75 Ry     beta=0.30
     Davidson diagonalization with overlap
     ethr =  1.97E-05,  avg # of iterations =  2.5

     negative rho (up, down):  4.055E-02 0.000E+00
 
     Adding external electric field

     Computed dipole along edir(3) : 
        Dipole               -1.4364 Ry au,         -3.6509 Debye
        Dipole field         -0.0028 Ry au
 
        Potential amp.        0.2599 Ry
        Total length         46.8051 bohr
 

     total cpu time spent up to now is     1265.9 secs

     total energy              =   -1641.69684289 Ry
     Harris-Foulkes estimate   =   -1641.68782766 Ry
     estimated scf accuracy    <       0.10904063 Ry

     iteration # 19     ecut=    36.75 Ry     beta=0.30
     Davidson diagonalization with overlap
     ethr =  1.97E-05,  avg # of iterations =  6.1

     negative rho (up, down):  1.092E-01 0.000E+00
 
     Adding external electric field

     Computed dipole along edir(3) : 
        Dipole               -1.9327 Ry au,         -4.9125 Debye
        Dipole field         -0.0037 Ry au
 
        Potential amp.        0.3497 Ry
        Total length         46.8051 bohr
 

     total cpu time spent up to now is     1312.7 secs

     total energy              =   -1641.71013547 Ry
     Harris-Foulkes estimate   =   -1641.69472738 Ry
     estimated scf accuracy    <       0.16254106 Ry

     iteration # 20     ecut=    36.75 Ry     beta=0.30
     Davidson diagonalization with overlap
     ethr =  1.97E-05,  avg # of iterations =  6.5

     negative rho (up, down):  6.454E-02 0.000E+00
 
     Adding external electric field

     Computed dipole along edir(3) : 
        Dipole               -1.6257 Ry au,         -4.1320 Debye
        Dipole field         -0.0031 Ry au
 
        Potential amp.        0.2941 Ry
        Total length         46.8051 bohr
 

     total cpu time spent up to now is     1361.2 secs

     total energy              =   -1641.69885044 Ry
     Harris-Foulkes estimate   =   -1641.71407234 Ry
     estimated scf accuracy    <       0.27896911 Ry

     iteration # 21     ecut=    36.75 Ry     beta=0.30
     Davidson diagonalization with overlap
     ethr =  1.97E-05,  avg # of iterations =  8.0

     negative rho (up, down):  8.476E-05 0.000E+00
 
     Adding external electric field

     Computed dipole along edir(3) : 
        Dipole               -0.2716 Ry au,         -0.6904 Debye
        Dipole field         -0.0005 Ry au
 
        Potential amp.        0.0491 Ry
        Total length         46.8051 bohr
 

     total cpu time spent up to now is     1408.3 secs

     total energy              =   -1641.67551904 Ry
     Harris-Foulkes estimate   =   -1641.70567904 Ry
     estimated scf accuracy    <       0.17534434 Ry

     iteration # 22     ecut=    36.75 Ry     beta=0.30
     Davidson diagonalization with overlap
     ethr =  1.97E-05,  avg # of iterations =  9.5

     negative rho (up, down):  2.011E-04 0.000E+00
 
     Adding external electric field

     Computed dipole along edir(3) : 
        Dipole               -0.7652 Ry au,         -1.9451 Debye
        Dipole field         -0.0015 Ry au
 
        Potential amp.        0.1385 Ry
        Total length         46.8051 bohr
 

     total cpu time spent up to now is     1462.7 secs

     total energy              =   -1641.68621769 Ry
     Harris-Foulkes estimate   =   -1641.68916685 Ry
     estimated scf accuracy    <       0.00648366 Ry

     iteration # 23     ecut=    36.75 Ry     beta=0.30
     Davidson diagonalization with overlap
     ethr =  4.00E-06,  avg # of iterations =  4.3

     negative rho (up, down):  5.261E-04 0.000E+00
 
     Adding external electric field

     Computed dipole along edir(3) : 
        Dipole               -0.6711 Ry au,         -1.7058 Debye
        Dipole field         -0.0013 Ry au
 
        Potential amp.        0.1214 Ry
        Total length         46.8051 bohr
 

     total cpu time spent up to now is     1507.0 secs

     total energy              =   -1641.68565168 Ry
     Harris-Foulkes estimate   =   -1641.68679003 Ry
     estimated scf accuracy    <       0.00196276 Ry

     iteration # 24     ecut=    36.75 Ry     beta=0.30
     Davidson diagonalization with overlap
     ethr =  1.21E-06,  avg # of iterations =  5.5

     negative rho (up, down):  5.467E-04 0.000E+00
 
     Adding external electric field

     Computed dipole along edir(3) : 
        Dipole               -0.7494 Ry au,         -1.9047 Debye
        Dipole field         -0.0014 Ry au
 
        Potential amp.        0.1356 Ry
        Total length         46.8051 bohr
 

     total cpu time spent up to now is     1553.8 secs

     total energy              =   -1641.68603245 Ry
     Harris-Foulkes estimate   =   -1641.68557192 Ry
     estimated scf accuracy    <       0.00043113 Ry

     iteration # 25     ecut=    36.75 Ry     beta=0.30
     Davidson diagonalization with overlap
     ethr =  2.66E-07,  avg # of iterations =  4.2

     negative rho (up, down):  7.150E-04 0.000E+00
 
     Adding external electric field

     Computed dipole along edir(3) : 
        Dipole               -0.8007 Ry au,         -2.0352 Debye
        Dipole field         -0.0015 Ry au
 
        Potential amp.        0.1449 Ry
        Total length         46.8051 bohr
 

     total cpu time spent up to now is     1595.7 secs

     total energy              =   -1641.68603900 Ry
     Harris-Foulkes estimate   =   -1641.68589141 Ry
     estimated scf accuracy    <       0.00038207 Ry

     iteration # 26     ecut=    36.75 Ry     beta=0.30
     Davidson diagonalization with overlap
     ethr =  2.36E-07,  avg # of iterations =  3.5

     negative rho (up, down):  1.121E-03 0.000E+00
 
     Adding external electric field

     Computed dipole along edir(3) : 
        Dipole               -0.8358 Ry au,         -2.1244 Debye
        Dipole field         -0.0016 Ry au
 
        Potential amp.        0.1512 Ry
        Total length         46.8051 bohr
 

     total cpu time spent up to now is     1636.9 secs

     total energy              =   -1641.68603103 Ry
     Harris-Foulkes estimate   =   -1641.68594014 Ry
     estimated scf accuracy    <       0.00009442 Ry

     iteration # 27     ecut=    36.75 Ry     beta=0.30
     Davidson diagonalization with overlap
     ethr =  5.83E-08,  avg # of iterations =  4.0

     negative rho (up, down):  1.029E-03 0.000E+00

     negative rho (up, down):  1.029E-03 0.000E+00

     negative rho (up, down):  1.029E-03 0.000E+00

     negative rho (up, down):  1.029E-03 0.000E+00

     negative rho (up, down):  1.029E-03 0.000E+00

     negative rho (up, down):  1.029E-03 0.000E+00

     negative rho (up, down):  1.029E-03 0.000E+00

     negative rho (up, down):  1.029E-03 0.000E+00

     negative rho (up, down):  1.029E-03 0.000E+00

     negative rho (up, down):  1.029E-03 0.000E+00

     negative rho (up, down):  1.029E-03 0.000E+00

     negative rho (up, down):  1.029E-03 0.000E+00

     negative rho (up, down):  1.029E-03 0.000E+00

     negative rho (up, down):  1.029E-03 0.000E+00

     negative rho (up, down):  1.029E-03 0.000E+00

     negative rho (up, down):  1.029E-03 0.000E+00

     negative rho (up, down):  1.029E-03 0.000E+00

     negative rho (up, down):  1.029E-03 0.000E+00

     negative rho (up, down):  1.029E-03 0.000E+00

     negative rho (up, down):  1.029E-03 0.000E+00

     negative rho (up, down):  1.029E-03 0.000E+00

     negative rho (up, down):  1.029E-03 0.000E+00

     negative rho (up, down):  1.029E-03 0.000E+00

     negative rho (up, down):  1.029E-03 0.000E+00

     negative rho (up, down):  1.029E-03 0.000E+00

     negative rho (up, down):  1.029E-03 0.000E+00

     negative rho (up, down):  1.029E-03 0.000E+00

     negative rho (up, down):  1.029E-03 0.000E+00

     negative rho (up, down):  1.029E-03 0.000E+00

     negative rho (up, down):  1.029E-03 0.000E+00

     negative rho (up, down):  1.029E-03 0.000E+00

     negative rho (up, down):  1.029E-03 0.000E+00

     negative rho (up, down):  1.029E-03 0.000E+00

     negative rho (up, down):  1.029E-03 0.000E+00

     negative rho (up, down):  1.029E-03 0.000E+00
 
     Adding external electric field

     Computed dipole along edir(3) : 
        Dipole               -0.8234 Ry au,         -2.0928 Debye
        Dipole field         -0.0016 Ry au
 
        Potential amp.        0.1490 Ry
        Total length         46.8051 bohr
 

     total cpu time spent up to now is     1758.2 secs

     End of self-consistent calculation

          k = 0.0000 0.0000 0.0000 ( 24345 PWs)   bands (ev):

   -15.1664 -15.1657 -15.1657 -15.0757 -15.0757 -15.0691 -15.0594 -15.0573
   -15.0573 -15.0521 -15.0139 -15.0139 -15.0134 -15.0088 -14.9846 -14.9846
   -14.9759 -14.9694 -14.9694 -14.9490 -14.9490 -14.9358 -14.9358 -14.9336
   -14.9274 -14.9101 -14.9083 -14.9083 -14.8949 -14.8949 -14.8162 -14.8162
   -14.7846 -14.7846 -14.7799 -14.7464 -14.7464 -14.7445 -14.7390 -14.7390
   -14.7153 -14.6958 -14.6958 -14.6917 -14.6917 -14.6817 -14.6678 -14.6678
   -14.6648 -14.6648 -14.6581 -14.6457 -14.6343 -14.6343 -14.6325 -14.6304
   -14.6304 -14.5916 -14.5822 -14.5822 -10.8549  -9.1643  -7.7375  -5.6215
    -4.3483  -4.3466  -4.3466  -4.0580  -4.0580  -4.0559  -2.8974  -2.8200
    -2.8200  -2.5765  -2.5765  -2.5757  -2.1798  -1.2792  -1.2757  -1.2757
    -0.7797  -0.7797  -0.7137  -0.0417  -0.0417   0.1559   1.3560   2.7436
     2.7436   2.7738   2.9980

          k = 0.0000 0.0291 0.0000 ( 24403 PWs)   bands (ev):

   -15.1561 -15.1439 -15.1437 -15.0684 -15.0670 -15.0612 -15.0452 -15.0420
   -15.0344 -15.0334 -15.0107 -15.0051 -14.9992 -14.9973 -14.9823 -14.9698
   -14.9675 -14.9612 -14.9607 -14.9537 -14.9462 -14.9406 -14.9331 -14.9276
   -14.9209 -14.9023 -14.8981 -14.8934 -14.8890 -14.8804 -14.8249 -14.8167
   -14.7907 -14.7877 -14.7816 -14.7575 -14.7554 -14.7524 -14.7510 -14.7469
   -14.7233 -14.7096 -14.7078 -14.7010 -14.7006 -14.6924 -14.6807 -14.6765
   -14.6754 -14.6682 -14.6665 -14.6589 -14.6514 -14.6510 -14.6506 -14.6422
   -14.6352 -14.6081 -14.6011 -14.5972 -10.8508  -9.0280  -7.6044  -5.6797
    -5.5012  -4.8645  -4.8625  -4.3744  -3.7431  -3.7238  -2.9537  -2.8990
    -2.6936  -2.1223  -2.0185  -1.9828  -1.8758  -1.4760  -1.3391  -0.9958
    -0.6774  -0.6536  -0.2091   0.3649   0.3842   0.9938   1.4618   1.8602
     2.4022   2.5254   3.2530

          k = 0.0000 0.0582 0.0000 ( 24465 PWs)   bands (ev):

   -15.1292 -15.0909 -15.0895 -15.0552 -15.0469 -15.0386 -15.0331 -15.0069
   -15.0020 -14.9975 -14.9960 -14.9886 -14.9830 -14.9779 -14.9747 -14.9537
   -14.9469 -14.9461 -14.9445 -14.9253 -14.9220 -14.9179 -14.9156 -14.9119
   -14.8951 -14.8835 -14.8760 -14.8697 -14.8638 -14.8417 -14.8321 -14.8056
   -14.8041 -14.8019 -14.8012 -14.7938 -14.7919 -14.7864 -14.7749 -14.7540
   -14.7496 -14.7483 -14.7396 -14.7359 -14.7245 -14.7171 -14.7133 -14.7127
   -14.7057 -14.6974 -14.6969 -14.6914 -14.6911 -14.6737 -14.6664 -14.6626
   -14.6557 -14.6489 -14.6159 -14.6130 -10.8429  -8.6156  -7.2026  -6.9375
    -5.5730  -5.2698  -5.2688  -5.1357  -3.9920  -3.9764  -3.6424  -2.3985
    -2.3966  -1.7704  -1.5703  -1.5117  -0.9256  -0.7919  -0.6294  -0.4290
    -0.1747   0.0734   0.5072   1.1289   1.1782   1.3745   1.6120   1.6905
     1.9178   2.4773   2.5492

          k = 0.0000-0.0872 0.0000 ( 24448 PWs)   bands (ev):

   -15.0972 -15.0857 -15.0538 -15.0418 -15.0344 -15.0260 -15.0208 -15.0162
   -14.9923 -14.9884 -14.9832 -14.9750 -14.9735 -14.9634 -14.9605 -14.9588
   -14.9320 -14.9294 -14.9123 -14.9041 -14.9033 -14.9028 -14.8926 -14.8921
   -14.8609 -14.8595 -14.8533 -14.8489 -14.8485 -14.8439 -14.8347 -14.8311
   -14.8198 -14.8155 -14.8051 -14.8005 -14.7955 -14.7902 -14.7834 -14.7819
   -14.7681 -14.7641 -14.7634 -14.7621 -14.7466 -14.7454 -14.7422 -14.7414
   -14.7364 -14.7294 -14.7247 -14.7219 -14.7069 -14.6982 -14.6672 -14.6640
   -14.6630 -14.6549 -14.6169 -14.6158 -10.8391  -7.9267  -7.9132  -6.5436
    -6.5070  -5.4077  -5.4072  -4.5342  -4.5000  -4.1119  -4.0940  -2.4072
    -2.3733  -1.3877  -1.2481  -0.8008  -0.4860  -0.3251  -0.3155  -0.1612
    -0.0642   0.1846   1.0399   1.1018   1.1360   1.2508   2.0746   2.1370
     2.2218   2.3367   2.4033

          k = 0.0252-0.0145 0.0000 ( 24403 PWs)   bands (ev):

   -15.1561 -15.1439 -15.1437 -15.0684 -15.0670 -15.0612 -15.0452 -15.0420
   -15.0344 -15.0334 -15.0107 -15.0051 -14.9992 -14.9973 -14.9823 -14.9698
   -14.9675 -14.9612 -14.9607 -14.9537 -14.9462 -14.9406 -14.9331 -14.9276
   -14.9209 -14.9023 -14.8981 -14.8934 -14.8890 -14.8804 -14.8249 -14.8167
   -14.7907 -14.7877 -14.7816 -14.7575 -14.7554 -14.7524 -14.7510 -14.7469
   -14.7233 -14.7096 -14.7078 -14.7010 -14.7006 -14.6924 -14.6807 -14.6765
   -14.6754 -14.6682 -14.6665 -14.6589 -14.6514 -14.6510 -14.6506 -14.6422
   -14.6352 -14.6081 -14.6011 -14.5972 -10.8508  -9.0280  -7.6044  -5.6797
    -5.5012  -4.8645  -4.8625  -4.3744  -3.7431  -3.7238  -2.9537  -2.8990
    -2.6936  -2.1223  -2.0185  -1.9828  -1.8758  -1.4760  -1.3391  -0.9958
    -0.6774  -0.6536  -0.2091   0.3649   0.3842   0.9938   1.4618   1.8602
     2.4022   2.5254   3.2530

          k = 0.0252 0.0145 0.0000 ( 24403 PWs)   bands (ev):

   -15.1561 -15.1439 -15.1437 -15.0684 -15.0670 -15.0612 -15.0452 -15.0420
   -15.0344 -15.0334 -15.0107 -15.0051 -14.9992 -14.9973 -14.9823 -14.9698
   -14.9675 -14.9612 -14.9607 -14.9537 -14.9462 -14.9406 -14.9331 -14.9276
   -14.9209 -14.9023 -14.8981 -14.8934 -14.8890 -14.8804 -14.8249 -14.8167
   -14.7907 -14.7877 -14.7816 -14.7575 -14.7554 -14.7524 -14.7510 -14.7469
   -14.7233 -14.7096 -14.7078 -14.7010 -14.7006 -14.6924 -14.6807 -14.6765
   -14.6754 -14.6682 -14.6665 -14.6589 -14.6514 -14.6510 -14.6506 -14.6422
   -14.6352 -14.6081 -14.6011 -14.5972 -10.8508  -9.0280  -7.6044  -5.6797
    -5.5012  -4.8645  -4.8625  -4.3744  -3.7431  -3.7238  -2.9537  -2.8990
    -2.6936  -2.1223  -2.0185  -1.9828  -1.8758  -1.4760  -1.3391  -0.9958
    -0.6774  -0.6536  -0.2091   0.3649   0.3842   0.9938   1.4618   1.8602
     2.4022   2.5254   3.2530

          k = 0.0252 0.0436 0.0000 ( 24482 PWs)   bands (ev):

   -15.1262 -15.1250 -15.0987 -15.0501 -15.0486 -15.0421 -15.0342 -15.0180
   -15.0130 -15.0103 -14.9949 -14.9901 -14.9884 -14.9839 -14.9741 -14.9602
   -14.9598 -14.9550 -14.9487 -14.9333 -14.9314 -14.9270 -14.9197 -14.9120
   -14.9019 -14.8983 -14.8816 -14.8755 -14.8736 -14.8536 -14.8353 -14.8092
   -14.8037 -14.7937 -14.7895 -14.7841 -14.7825 -14.7742 -14.7665 -14.7521
   -14.7494 -14.7426 -14.7263 -14.7250 -14.7137 -14.7063 -14.6996 -14.6947
   -14.6939 -14.6869 -14.6862 -14.6839 -14.6793 -14.6689 -14.6650 -14.6617
   -14.6415 -14.6346 -14.6226 -14.6196 -10.8449  -8.7536  -7.3367  -6.2389
    -6.2354  -5.2593  -4.9017  -4.8917  -3.9769  -3.6637  -3.0739  -3.0136
    -2.5420  -2.1434  -1.8450  -1.1111  -1.0833  -0.9466  -0.8076  -0.7195
    -0.1355  -0.0525   0.1680   0.4445   1.0967   1.3127   1.6121   1.7077
     2.1479   2.3804   2.7651

          k = 0.0252-0.1018 0.0000 ( 24479 PWs)   bands (ev):

   -15.0942 -15.0680 -15.0577 -15.0550 -15.0242 -15.0208 -15.0183 -15.0062
   -15.0036 -14.9958 -14.9883 -14.9865 -14.9691 -14.9602 -14.9589 -14.9459
   -14.9367 -14.9312 -14.9198 -14.9101 -14.9021 -14.8989 -14.8916 -14.8904
   -14.8800 -14.8697 -14.8650 -14.8604 -14.8468 -14.8376 -14.8346 -14.8280
   -14.8273 -14.8136 -14.8112 -14.8073 -14.8037 -14.7906 -14.7809 -14.7762
   -14.7690 -14.7647 -14.7545 -14.7529 -14.7495 -14.7462 -14.7329 -14.7282
   -14.7241 -14.7198 -14.7129 -14.7041 -14.7005 -14.6820 -14.6757 -14.6711
   -14.6651 -14.6602 -14.6385 -14.6266 -10.8391  -8.1991  -7.3594  -6.7970
    -6.5177  -5.9805  -5.1656  -4.7660  -4.0771  -4.0160  -3.2778  -3.0132
    -2.3297  -1.5168  -1.3575  -1.0633  -0.8153  -0.5639  -0.1685  -0.0157
     0.1983   0.3753   0.7862   0.8879   1.1722   1.4180   1.5650   2.1270
     2.2743   2.4972   2.6861

          k = 0.0252-0.0727 0.0000 ( 24479 PWs)   bands (ev):

   -15.0942 -15.0680 -15.0577 -15.0550 -15.0242 -15.0208 -15.0183 -15.0062
   -15.0036 -14.9958 -14.9883 -14.9865 -14.9691 -14.9602 -14.9589 -14.9459
   -14.9367 -14.9312 -14.9198 -14.9101 -14.9021 -14.8989 -14.8916 -14.8904
   -14.8800 -14.8697 -14.8650 -14.8604 -14.8468 -14.8376 -14.8346 -14.8280
   -14.8273 -14.8136 -14.8112 -14.8073 -14.8037 -14.7906 -14.7809 -14.7762
   -14.7690 -14.7647 -14.7545 -14.7529 -14.7495 -14.7462 -14.7329 -14.7282
   -14.7241 -14.7198 -14.7129 -14.7041 -14.7005 -14.6820 -14.6757 -14.6711
   -14.6651 -14.6602 -14.6385 -14.6266 -10.8391  -8.1991  -7.3594  -6.7970
    -6.5177  -5.9805  -5.1656  -4.7660  -4.0771  -4.0160  -3.2778  -3.0132
    -2.3297  -1.5168  -1.3575  -1.0633  -0.8153  -0.5639  -0.1685  -0.0157
     0.1983   0.3753   0.7862   0.8879   1.1722   1.4180   1.5650   2.1270
     2.2743   2.4972   2.6861

          k = 0.0252-0.0436 0.0000 ( 24482 PWs)   bands (ev):

   -15.1262 -15.1250 -15.0987 -15.0501 -15.0486 -15.0421 -15.0342 -15.0180
   -15.0130 -15.0103 -14.9949 -14.9901 -14.9884 -14.9839 -14.9741 -14.9602
   -14.9598 -14.9550 -14.9487 -14.9333 -14.9314 -14.9270 -14.9197 -14.9120
   -14.9019 -14.8983 -14.8816 -14.8755 -14.8736 -14.8536 -14.8353 -14.8092
   -14.8037 -14.7937 -14.7895 -14.7841 -14.7825 -14.7742 -14.7665 -14.7521
   -14.7494 -14.7426 -14.7263 -14.7250 -14.7137 -14.7063 -14.6996 -14.6947
   -14.6939 -14.6869 -14.6862 -14.6839 -14.6793 -14.6689 -14.6650 -14.6617
   -14.6415 -14.6346 -14.6226 -14.6196 -10.8449  -8.7536  -7.3367  -6.2389
    -6.2354  -5.2593  -4.9017  -4.8917  -3.9769  -3.6637  -3.0739  -3.0136
    -2.5420  -2.1434  -1.8450  -1.1111  -1.0833  -0.9466  -0.8076  -0.7195
    -0.1355  -0.0525   0.1680   0.4445   1.0967   1.3127   1.6121   1.7077
     2.1479   2.3804   2.7651

          k = 0.0504-0.0291 0.0000 ( 24465 PWs)   bands (ev):

   -15.1292 -15.0909 -15.0895 -15.0552 -15.0469 -15.0386 -15.0331 -15.0069
   -15.0020 -14.9975 -14.9960 -14.9886 -14.9830 -14.9779 -14.9747 -14.9537
   -14.9469 -14.9461 -14.9445 -14.9253 -14.9220 -14.9179 -14.9156 -14.9120
   -14.8951 -14.8835 -14.8760 -14.8697 -14.8638 -14.8417 -14.8321 -14.8056
   -14.8041 -14.8019 -14.8012 -14.7938 -14.7919 -14.7864 -14.7749 -14.7540
   -14.7496 -14.7483 -14.7396 -14.7359 -14.7245 -14.7171 -14.7133 -14.7127
   -14.7057 -14.6974 -14.6969 -14.6914 -14.6911 -14.6737 -14.6664 -14.6626
   -14.6556 -14.6489 -14.6159 -14.6130 -10.8429  -8.6156  -7.2026  -6.9375
    -5.5730  -5.2698  -5.2688  -5.1357  -3.9920  -3.9764  -3.6424  -2.3985
    -2.3966  -1.7704  -1.5703  -1.5117  -0.9256  -0.7919  -0.6294  -0.4290
    -0.1747   0.0734   0.5072   1.1289   1.1782   1.3745   1.6120   1.6905
     1.9178   2.4773   2.5492

          k = 0.0504 0.0000 0.0000 ( 24482 PWs)   bands (ev):

   -15.1262 -15.1250 -15.0987 -15.0501 -15.0486 -15.0421 -15.0342 -15.0180
   -15.0130 -15.0103 -14.9949 -14.9901 -14.9884 -14.9839 -14.9741 -14.9602
   -14.9598 -14.9550 -14.9487 -14.9333 -14.9314 -14.9270 -14.9197 -14.9120
   -14.9019 -14.8983 -14.8816 -14.8755 -14.8736 -14.8536 -14.8353 -14.8092
   -14.8037 -14.7937 -14.7895 -14.7841 -14.7825 -14.7742 -14.7665 -14.7521
   -14.7494 -14.7426 -14.7263 -14.7250 -14.7137 -14.7063 -14.6996 -14.6947
   -14.6939 -14.6869 -14.6862 -14.6839 -14.6793 -14.6689 -14.6650 -14.6617
   -14.6415 -14.6346 -14.6226 -14.6196 -10.8449  -8.7536  -7.3367  -6.2389
    -6.2354  -5.2593  -4.9017  -4.8917  -3.9769  -3.6637  -3.0739  -3.0136
    -2.5420  -2.1434  -1.8450  -1.1111  -1.0833  -0.9466  -0.8076  -0.7195
    -0.1355  -0.0525   0.1680   0.4445   1.0967   1.3127   1.6121   1.7077
     2.1479   2.3804   2.7651

          k = 0.0504 0.0291 0.0000 ( 24465 PWs)   bands (ev):

   -15.1292 -15.0909 -15.0895 -15.0552 -15.0469 -15.0386 -15.0331 -15.0069
   -15.0020 -14.9975 -14.9960 -14.9886 -14.9830 -14.9779 -14.9747 -14.9537
   -14.9469 -14.9461 -14.9445 -14.9253 -14.9220 -14.9179 -14.9156 -14.9120
   -14.8951 -14.8835 -14.8760 -14.8697 -14.8638 -14.8417 -14.8321 -14.8056
   -14.8041 -14.8019 -14.8012 -14.7938 -14.7919 -14.7864 -14.7749 -14.7540
   -14.7496 -14.7483 -14.7396 -14.7359 -14.7245 -14.7171 -14.7133 -14.7127
   -14.7057 -14.6974 -14.6969 -14.6914 -14.6911 -14.6737 -14.6664 -14.6626
   -14.6556 -14.6489 -14.6159 -14.6130 -10.8429  -8.6156  -7.2026  -6.9375
    -5.5730  -5.2698  -5.2688  -5.1357  -3.9920  -3.9764  -3.6424  -2.3985
    -2.3966  -1.7704  -1.5703  -1.5117  -0.9256  -0.7919  -0.6294  -0.4290
    -0.1747   0.0734   0.5072   1.1289   1.1782   1.3745   1.6120   1.6905
     1.9178   2.4773   2.5492

          k = 0.0504-0.1163 0.0000 ( 24479 PWs)   bands (ev):

   -15.0942 -15.0680 -15.0577 -15.0550 -15.0242 -15.0208 -15.0183 -15.0062
   -15.0036 -14.9958 -14.9883 -14.9865 -14.9691 -14.9602 -14.9589 -14.9459
   -14.9367 -14.9312 -14.9198 -14.9101 -14.9021 -14.8989 -14.8916 -14.8904
   -14.8800 -14.8697 -14.8650 -14.8604 -14.8468 -14.8376 -14.8346 -14.8280
   -14.8273 -14.8136 -14.8112 -14.8073 -14.8037 -14.7906 -14.7809 -14.7762
   -14.7690 -14.7647 -14.7545 -14.7529 -14.7495 -14.7462 -14.7329 -14.7282
   -14.7241 -14.7198 -14.7129 -14.7041 -14.7005 -14.6820 -14.6757 -14.6711
   -14.6651 -14.6602 -14.6385 -14.6266 -10.8391  -8.1991  -7.3594  -6.7970
    -6.5177  -5.9805  -5.1656  -4.7660  -4.0771  -4.0160  -3.2778  -3.0132
    -2.3297  -1.5168  -1.3575  -1.0633  -0.8153  -0.5639  -0.1685  -0.0157
     0.1983   0.3753   0.7862   0.8879   1.1722   1.4180   1.5650   2.1270
     2.2743   2.4972   2.6862

          k = 0.0504-0.0872 0.0000 ( 24486 PWs)   bands (ev):

   -15.0489 -15.0455 -15.0431 -15.0369 -15.0318 -15.0270 -15.0201 -15.0194
   -14.9982 -14.9981 -14.9971 -14.9908 -14.9422 -14.9401 -14.9389 -14.9238
   -14.9218 -14.9207 -14.9030 -14.9019 -14.8984 -14.8916 -14.8914 -14.8874
   -14.8818 -14.8804 -14.8647 -14.8512 -14.8481 -14.8469 -14.8386 -14.8360
   -14.8233 -14.8230 -14.8196 -14.8156 -14.8121 -14.8118 -14.7960 -14.7864
   -14.7756 -14.7630 -14.7568 -14.7544 -14.7520 -14.7444 -14.7443 -14.7424
   -14.7231 -14.7209 -14.7199 -14.7129 -14.6956 -14.6825 -14.6788 -14.6774
   -14.6676 -14.6629 -14.6627 -14.6618 -10.8372  -7.5067  -7.5014  -7.4906
    -6.1295  -6.1272  -6.0936  -4.1568  -4.1371  -4.1339  -2.9788  -2.6790
    -2.6682  -1.3334  -1.2268  -1.1621  -0.6790  -0.6481  -0.6211  -0.0365
     0.0528   0.3608   1.1432   1.2376   1.3014   2.1618   2.2054   2.2752
     2.7051   2.7184   2.7379

          k = 0.0504-0.0582 0.0000 ( 24479 PWs)   bands (ev):

   -15.0942 -15.0680 -15.0577 -15.0550 -15.0242 -15.0208 -15.0183 -15.0062
   -15.0036 -14.9958 -14.9883 -14.9865 -14.9691 -14.9602 -14.9589 -14.9459
   -14.9367 -14.9312 -14.9198 -14.9101 -14.9021 -14.8989 -14.8916 -14.8904
   -14.8800 -14.8697 -14.8650 -14.8604 -14.8468 -14.8376 -14.8346 -14.8280
   -14.8273 -14.8136 -14.8112 -14.8073 -14.8037 -14.7906 -14.7809 -14.7762
   -14.7690 -14.7647 -14.7545 -14.7529 -14.7495 -14.7462 -14.7329 -14.7282
   -14.7241 -14.7198 -14.7129 -14.7041 -14.7005 -14.6820 -14.6757 -14.6711
   -14.6651 -14.6602 -14.6385 -14.6266 -10.8391  -8.1991  -7.3594  -6.7970
    -6.5177  -5.9805  -5.1656  -4.7660  -4.0771  -4.0160  -3.2778  -3.0132
    -2.3297  -1.5168  -1.3575  -1.0633  -0.8153  -0.5639  -0.1685  -0.0157
     0.1983   0.3753   0.7862   0.8879   1.1722   1.4180   1.5650   2.1270
     2.2743   2.4972   2.6861

          k =-0.0756 0.0436 0.0000 ( 24448 PWs)   bands (ev):

   -15.0972 -15.0857 -15.0538 -15.0418 -15.0344 -15.0260 -15.0208 -15.0162
   -14.9923 -14.9884 -14.9832 -14.9750 -14.9735 -14.9634 -14.9605 -14.9588
   -14.9320 -14.9294 -14.9123 -14.9041 -14.9033 -14.9028 -14.8926 -14.8921
   -14.8609 -14.8595 -14.8533 -14.8489 -14.8485 -14.8439 -14.8347 -14.8311
   -14.8198 -14.8155 -14.8051 -14.8005 -14.7955 -14.7902 -14.7834 -14.7819
   -14.7681 -14.7641 -14.7634 -14.7621 -14.7466 -14.7454 -14.7422 -14.7414
   -14.7364 -14.7294 -14.7247 -14.7219 -14.7069 -14.6982 -14.6672 -14.6640
   -14.6630 -14.6549 -14.6169 -14.6158 -10.8391  -7.9267  -7.9132  -6.5436
    -6.5070  -5.4077  -5.4072  -4.5342  -4.5000  -4.1119  -4.0940  -2.4072
    -2.3733  -1.3877  -1.2481  -0.8008  -0.4860  -0.3251  -0.3155  -0.1612
    -0.0642   0.1846   1.0399   1.1018   1.1360   1.2508   2.0746   2.1370
     2.2218   2.3367   2.4033

          k =-0.0756 0.0727 0.0000 ( 24479 PWs)   bands (ev):

   -15.0942 -15.0680 -15.0577 -15.0550 -15.0242 -15.0208 -15.0183 -15.0062
   -15.0036 -14.9958 -14.9883 -14.9865 -14.9691 -14.9602 -14.9589 -14.9459
   -14.9367 -14.9312 -14.9198 -14.9101 -14.9021 -14.8989 -14.8916 -14.8904
   -14.8800 -14.8697 -14.8650 -14.8604 -14.8468 -14.8376 -14.8346 -14.8280
   -14.8273 -14.8136 -14.8112 -14.8073 -14.8037 -14.7906 -14.7809 -14.7762
   -14.7690 -14.7647 -14.7545 -14.7529 -14.7495 -14.7462 -14.7329 -14.7282
   -14.7241 -14.7198 -14.7129 -14.7041 -14.7005 -14.6820 -14.6757 -14.6711
   -14.6651 -14.6602 -14.6385 -14.6266 -10.8391  -8.1991  -7.3594  -6.7970
    -6.5177  -5.9805  -5.1656  -4.7660  -4.0771  -4.0160  -3.2778  -3.0132
    -2.3297  -1.5168  -1.3575  -1.0633  -0.8153  -0.5639  -0.1685  -0.0157
     0.1983   0.3753   0.7862   0.8879   1.1722   1.4180   1.5650   2.1270
     2.2743   2.4972   2.6862

          k =-0.0756 0.1018 0.0000 ( 24479 PWs)   bands (ev):

   -15.0942 -15.0680 -15.0577 -15.0550 -15.0242 -15.0208 -15.0183 -15.0062
   -15.0036 -14.9958 -14.9883 -14.9865 -14.9691 -14.9602 -14.9589 -14.9459
   -14.9367 -14.9312 -14.9198 -14.9101 -14.9021 -14.8989 -14.8916 -14.8904
   -14.8800 -14.8697 -14.8650 -14.8604 -14.8468 -14.8376 -14.8346 -14.8280
   -14.8273 -14.8136 -14.8112 -14.8073 -14.8037 -14.7906 -14.7809 -14.7762
   -14.7690 -14.7647 -14.7545 -14.7529 -14.7495 -14.7462 -14.7329 -14.7282
   -14.7241 -14.7198 -14.7129 -14.7041 -14.7005 -14.6820 -14.6757 -14.6711
   -14.6651 -14.6602 -14.6385 -14.6266 -10.8391  -8.1991  -7.3594  -6.7970
    -6.5177  -5.9805  -5.1656  -4.7660  -4.0771  -4.0160  -3.2778  -3.0132
    -2.3297  -1.5168  -1.3575  -1.0633  -0.8153  -0.5639  -0.1685  -0.0157
     0.1983   0.3753   0.7862   0.8879   1.1722   1.4180   1.5650   2.1270
     2.2743   2.4972   2.6861

          k =-0.0756-0.0436 0.0000 ( 24448 PWs)   bands (ev):

   -15.0972 -15.0857 -15.0538 -15.0418 -15.0344 -15.0260 -15.0208 -15.0162
   -14.9923 -14.9884 -14.9832 -14.9750 -14.9735 -14.9634 -14.9605 -14.9588
   -14.9320 -14.9294 -14.9123 -14.9041 -14.9033 -14.9028 -14.8926 -14.8921
   -14.8609 -14.8595 -14.8533 -14.8489 -14.8485 -14.8439 -14.8347 -14.8311
   -14.8198 -14.8155 -14.8051 -14.8005 -14.7955 -14.7902 -14.7834 -14.7819
   -14.7681 -14.7641 -14.7634 -14.7621 -14.7466 -14.7454 -14.7422 -14.7414
   -14.7364 -14.7294 -14.7247 -14.7219 -14.7069 -14.6982 -14.6672 -14.6640
   -14.6630 -14.6549 -14.6169 -14.6158 -10.8391  -7.9267  -7.9132  -6.5436
    -6.5070  -5.4077  -5.4072  -4.5342  -4.5000  -4.1119  -4.0940  -2.4072
    -2.3733  -1.3877  -1.2481  -0.8008  -0.4860  -0.3251  -0.3155  -0.1612
    -0.0642   0.1846   1.0399   1.1018   1.1360   1.2508   2.0746   2.1370
     2.2218   2.3367   2.4033

     the Fermi energy is     0.0162 ev

!    total energy              =   -1641.68604156 Ry
     Harris-Foulkes estimate   =   -1641.68608193 Ry
     estimated scf accuracy    <       0.00000178 Ry

     The total energy is the sum of the following terms:

     one-electron contribution =   -9300.91772457 Ry
     hartree contribution      =    4729.34422095 Ry
     xc contribution           =    -478.16534963 Ry
     ewald contribution        =    3408.09471114 Ry
     electric field correction =       0.00131038 Ry
     smearing contrib. (-TS)   =      -0.04320984 Ry

     convergence has been achieved in  27 iterations
 
 BEEF-vdW xc energy contributions
           1 :   -418.629093174339     
           2 :    382.282658281065     
           3 :   -320.968988254545     
           4 :    251.968518939064     
           5 :   -191.021528268572     
           6 :    146.665675002708     
           7 :   -118.643308429775     
           8 :    100.521497526716     
           9 :   -84.6061596914502     
          10 :    66.2917440505392     
          11 :   -45.7049722427790     
          12 :    26.2986200199506     
          13 :   -11.8253360445632     
          14 :    3.78667157104348     
          15 :  -0.781081056740391     
          16 :  -0.244364414738584     
          17 :    1.97983585084546     
          18 :   -5.35827142385801     
          19 :    9.50763275629237     
          20 :   -12.8051316970938     
          21 :    14.1465749408312     
          22 :   -13.5909184872436     
          23 :    12.1076470927223     
          24 :   -10.7944426086916     
          25 :    10.1988128460622     
          26 :   -10.1689560941968     
          27 :    10.1987362106001     
          28 :   -9.90016105393198     
          29 :    9.23562034033233     
          30 :   -8.41069788002773     
          31 :   -38.2070926811064     
          32 :   -27.6852050284475     

     Forces acting on atoms (Ry/au):


     negative rho (up, down):  1.029E-03 0.000E+00
     atom    1 type  1   force =     0.00000173   -0.00000033   -0.00911781
     atom    2 type  1   force =    -0.00000167    0.00066693   -0.00959026
     atom    3 type  1   force =     0.00057746   -0.00033272   -0.00958805
     atom    4 type  1   force =    -0.00057716   -0.00033207   -0.00958832
     atom    5 type  1   force =    -0.00122973    0.00071019    0.00123202
     atom    6 type  1   force =     0.00122953    0.00070981    0.00123219
     atom    7 type  1   force =    -0.00000019   -0.00000027   -0.00611788
     atom    8 type  1   force =     0.00000024   -0.00142064    0.00123149
     atom    9 type  1   force =     0.00569623    0.00328934    0.03862778
     atom   10 type  1   force =    -0.00569617    0.00328903    0.03862765
     atom   11 type  1   force =    -0.00000090   -0.00657803    0.03862823
     atom   12 type  1   force =     0.00000051   -0.00000069    0.01098009
     atom   13 type  2   force =     0.00000013   -0.00000055   -0.08655712

     Total force =     0.112371     Total SCF correction =     0.009142


     entering subroutine stress ...


     negative rho (up, down):  1.029E-03 0.000E+00
          total   stress  (Ry/bohr**3)                   (kbar)     P=    3.38
   0.00003766  -0.00000000   0.00000000          5.54     -0.00      0.00
  -0.00000000   0.00003766   0.00000000         -0.00      5.54      0.00
   0.00000000   0.00000000  -0.00000635          0.00      0.00     -0.93

 !ASE

     Writing output data file calc.save
 
     init_run     :     14.72s CPU     20.79s WALL (       1 calls)
     electrons    :   1237.78s CPU   1737.26s WALL (       1 calls)
     forces       :      6.34s CPU      7.02s WALL (       1 calls)
     stress       :     16.57s CPU     18.07s WALL (       1 calls)

     Called by init_run:
     wfcinit      :     10.91s CPU     15.97s WALL (       1 calls)
     potinit      :      1.90s CPU      2.70s WALL (       1 calls)

     Called by electrons:
     c_bands      :    987.49s CPU   1387.17s WALL (      27 calls)
     sum_band     :    125.53s CPU    184.87s WALL (      27 calls)
     v_of_rho     :     45.75s CPU     65.70s WALL (      28 calls)
     newd         :     19.38s CPU     20.41s WALL (      28 calls)
     mix_rho      :      1.80s CPU      2.68s WALL (      27 calls)
     vdW_energy   :      4.41s CPU      4.89s WALL (      64 calls)
     vdW_ffts     :     67.62s CPU     94.58s WALL (     130 calls)
     vdW_v        :     12.44s CPU     16.72s WALL (      64 calls)

     Called by c_bands:
     init_us_2    :      2.13s CPU      2.20s WALL (    1140 calls)
     cegterg      :    972.86s CPU   1371.55s WALL (     560 calls)

     Called by *egterg:
     h_psi        :    690.22s CPU   1070.10s WALL (    3677 calls)
     s_psi        :     27.01s CPU     27.09s WALL (    3677 calls)
     g_psi        :      1.83s CPU      1.84s WALL (    3097 calls)
     cdiaghg      :    135.71s CPU    139.41s WALL (    3657 calls)

     Called by h_psi:
     add_vuspsi   :     28.43s CPU     28.52s WALL (    3677 calls)

     General routines
     calbec       :     48.19s CPU     55.17s WALL (    4257 calls)
     fft          :    103.60s CPU    146.41s WALL (    3951 calls)
     ffts         :      0.31s CPU      0.49s WALL (      55 calls)
     fftw         :    674.25s CPU   1098.74s WALL (  380884 calls)
     interpolate  :      1.61s CPU      2.54s WALL (      55 calls)
     davcio       :      0.00s CPU      0.03s WALL (      20 calls)
 
     Parallel routines
     fft_scatter  :    696.92s CPU   1155.65s WALL (  384890 calls)
 
     PWSCF        : 21m16.16s CPU    29m44.55s WALL

 
   This run was terminated on:   5: 3:57  20Jan2018            

=------------------------------------------------------------------------------=
   JOB DONE.
=------------------------------------------------------------------------------=
Job  /afs/slac/g/suncat/bin/suncat-tsmpirun -x LD_LIBRARY_PATH -wdir /scratch/qe505014_WbFSA pw.x -in pw.inp

TID   HOST_NAME   COMMAND_LINE            STATUS            TERMINATION_TIME
===== ========== ================  =======================  ===================
00000 suncat0110 pw.x -in pw.inp   Done                     01/20/2018 05:03:57
00001 suncat0110 pw.x -in pw.inp   Done                     01/20/2018 05:03:57
00002 suncat0110 pw.x -in pw.inp   Done                     01/20/2018 05:03:57
00003 suncat0110 pw.x -in pw.inp   Done                     01/20/2018 05:03:57
00004 suncat0110 pw.x -in pw.inp   Done                     01/20/2018 05:03:57
00005 suncat0110 pw.x -in pw.inp   Done                     01/20/2018 05:03:57
00006 suncat0110 pw.x -in pw.inp   Done                     01/20/2018 05:03:57
00007 suncat0110 pw.x -in pw.inp   Done                     01/20/2018 05:03:57
00008 suncat0109 pw.x -in pw.inp   Done                     01/20/2018 05:03:57
00009 suncat0109 pw.x -in pw.inp   Done                     01/20/2018 05:03:57
00010 suncat0109 pw.x -in pw.inp   Done                     01/20/2018 05:03:57
00011 suncat0109 pw.x -in pw.inp   Done                     01/20/2018 05:03:57
00012 suncat0109 pw.x -in pw.inp   Done                     01/20/2018 05:03:57
00013 suncat0109 pw.x -in pw.inp   Done                     01/20/2018 05:03:57
00014 suncat0109 pw.x -in pw.inp   Done                     01/20/2018 05:03:57
00015 suncat0109 pw.x -in pw.inp   Done                     01/20/2018 05:03:57
00016 suncat0238 pw.x -in pw.inp   Done                     01/20/2018 05:03:57
00017 suncat0238 pw.x -in pw.inp   Done                     01/20/2018 05:03:57
00018 suncat0238 pw.x -in pw.inp   Done                     01/20/2018 05:03:57
00019 suncat0238 pw.x -in pw.inp   Done                     01/20/2018 05:03:57
00020 suncat0238 pw.x -in pw.inp   Done                     01/20/2018 05:03:57
00021 suncat0238 pw.x -in pw.inp   Done                     01/20/2018 05:03:57
00022 suncat0238 pw.x -in pw.inp   Done                     01/20/2018 05:03:57
00023 suncat0238 pw.x -in pw.inp   Done                     01/20/2018 05:03:57
00024 suncat0212 pw.x -in pw.inp   Done                     01/20/2018 05:03:57
00025 suncat0212 pw.x -in pw.inp   Done                     01/20/2018 05:03:57
00026 suncat0212 pw.x -in pw.inp   Done                     01/20/2018 05:03:57
00027 suncat0212 pw.x -in pw.inp   Done                     01/20/2018 05:03:57
00028 suncat0212 pw.x -in pw.inp   Done                     01/20/2018 05:03:57
00029 suncat0212 pw.x -in pw.inp   Done                     01/20/2018 05:03:57
00030 suncat0212 pw.x -in pw.inp   Done                     01/20/2018 05:03:57
00031 suncat0212 pw.x -in pw.inp   Done                     01/20/2018 05:03:57

     Program PWSCF v.5.1rc2 (svn rev. 11289) starts on 20Jan2018 at  5: 4: 3 

     This program is part of the open-source Quantum ESPRESSO suite
     for quantum simulation of materials; please cite
         "P. Giannozzi et al., J. Phys.:Condens. Matter 21 395502 (2009);
          URL http://www.quantum-espresso.org", 
     in publications or presentations arising from this work. More details at
     http://www.quantum-espresso.org/quote

     Parallel version (MPI), running on    32 processors
     R & G space division:  proc/nbgrp/npool/nimage =      32
     Reading input from pw.inp
     Message from routine read_cards :
     DEPRECATED: no units specified in CELL_PARAMETERS card

     Current dimensions of program PWSCF are:
     Max number of different atomic species (ntypx) = 10
     Max number of k-points (npk) =  40000
     Max angular momentum in pseudopotentials (lmaxx) =  3
     Presently stress not available with electric field


     **************************************************************************
     Initializing libbeef V0.1.1 with the BEEF-vdW functional.
     Citation: Wellendorff et al., PRB 85, 235149 (2012).
     **************************************************************************


     IMPORTANT: XC functional enforced from input :
     Exchange-correlation      = BEEF-VDW ( 1  4 27 13 2)
     Any further DFT definition will be discarded
     Please, verify this is what you really want


     Subspace diagonalization in iterative solution of the eigenvalue problem:
     a serial algorithm will be used

 
     Parallelization info
     --------------------
     sticks:   dense  smooth     PW     G-vecs:    dense   smooth      PW
     Min         123      49     14                24159     6095     922
     Max         124      50     15                24174     6130     942
     Sum        3949    1585    451               773273   195593   29841
 


     bravais-lattice index     =            0
     lattice parameter (alat)  =       1.8897  a.u.
     unit-cell volume          =    6501.5726 (a.u.)^3
     number of atoms/cell      =           13
     number of atomic types    =            2
     number of electrons       =       162.00
     number of Kohn-Sham states=           91
     kinetic-energy cutoff     =      36.7493  Ry
     charge density cutoff     =     367.4932  Ry
     convergence threshold     =      1.0E-05
     mixing beta               =       0.3000
     number of iterations used =           10  plain     mixing
     Exchange-correlation      = BEEF-VDW ( 1  4 27 13 2)
     nstep                     =           50


     celldm(1)=   1.889726  celldm(2)=   0.000000  celldm(3)=   0.000000
     celldm(4)=   0.000000  celldm(5)=   0.000000  celldm(6)=   0.000000

     crystal axes: (cart. coord. in units of alat)
               a(1) = (   6.617606   0.000000   0.000000 )  
               a(2) = (   3.308803   5.731015   0.000000 )  
               a(3) = (   0.000000   0.000000  25.403253 )  

     reciprocal axes: (cart. coord. in units 2 pi/alat)
               b(1) = (  0.151112 -0.087245  0.000000 )  
               b(2) = (  0.000000  0.174489  0.000000 )  
               b(3) = (  0.000000  0.000000  0.039365 )  


     PseudoPot. # 1 for In read from file:
     /afs/slac.stanford.edu/u/if/mamunm/psp/gbrv1.5pbe/In.UPF
     MD5 check sum: 90777abd96fbb83f2e67db2a40c566b9
     Pseudo is Ultrasoft + core correction, Zval = 13.0
     Generated by new atomic code, or converted to UPF format
     Using radial grid of  889 points,  6 beta functions with: 
                l(1) =   0
                l(2) =   0
                l(3) =   1
                l(4) =   1
                l(5) =   2
                l(6) =   2
     Q(r) pseudized with  6 coefficients,  rinner =    1.400   1.400   1.400
                                                       1.400   1.400

     PseudoPot. # 2 for S  read from file:
     /afs/slac.stanford.edu/u/if/mamunm/psp/gbrv1.5pbe/S.UPF
     MD5 check sum: 88d86576ff6df21479756cfb9bdac1df
     Pseudo is Ultrasoft + core correction, Zval =  6.0
     Generated by new atomic code, or converted to UPF format
     Using radial grid of  907 points,  6 beta functions with: 
                l(1) =   0
                l(2) =   0
                l(3) =   1
                l(4) =   1
                l(5) =   2
                l(6) =   2
     Q(r) pseudized with  8 coefficients,  rinner =    1.300   1.300   1.300
                                                       1.300   1.300

     vdW kernel table read from file vdW_kernel_table
     MD5 check sum: 095c7af220d748ca6e76c0b4c6cfb241

     atomic species   valence    mass     pseudopotential
        In1           13.00   114.81800     In( 1.00)
        S1             6.00    32.06000     S ( 1.00)

     No symmetry found



   Cartesian axes

     site n.     atom                  positions (alat units)
         1           In1 tau(   1) = (   1.6544016   0.9551692  10.0000000  )
         2           In1 tau(   2) = (   4.9632047   0.9551692  10.0000000  )
         3           In1 tau(   3) = (   3.3088031   3.8206768  10.0000000  )
         4           In1 tau(   4) = (   6.6176063   3.8206768  10.0000000  )
         5           In1 tau(   5) = (   6.6176063   1.9103384  12.7016265  )
         6           In1 tau(   6) = (   3.3088031   1.9103384  12.7016265  )
         7           In1 tau(   7) = (   8.2720078   4.7758460  12.7016265  )
         8           In1 tau(   8) = (   4.9632047   4.7758460  12.7016265  )
         9           In1 tau(   9) = (   0.0146456   0.0084572  15.5025689  )
        10           In1 tau(  10) = (   3.2941577   0.0084564  15.5025686  )
        11           In1 tau(  11) = (   1.6543993   2.8485948  15.5025701  )
        12           In1 tau(  12) = (   4.9632060   2.8655058  15.4314838  )
        13           S1  tau(  13) = (   1.6544019   0.9551678  17.6507056  )

     number of k points=    20  Fermi-Dirac smearing, width (Ry)=  0.0110
                       cart. coord. in units 2pi/alat
        k(    1) = (   0.0000000   0.0000000   0.0000000), wk =   0.0555556
        k(    2) = (   0.0000000   0.0290815   0.0000000), wk =   0.1111111
        k(    3) = (   0.0000000   0.0581631   0.0000000), wk =   0.1111111
        k(    4) = (   0.0000000  -0.0872446   0.0000000), wk =   0.0555556
        k(    5) = (   0.0251853  -0.0145408   0.0000000), wk =   0.1111111
        k(    6) = (   0.0251853   0.0145408   0.0000000), wk =   0.1111111
        k(    7) = (   0.0251853   0.0436223   0.0000000), wk =   0.1111111
        k(    8) = (   0.0251853  -0.1017853   0.0000000), wk =   0.1111111
        k(    9) = (   0.0251853  -0.0727038   0.0000000), wk =   0.1111111
        k(   10) = (   0.0251853  -0.0436223   0.0000000), wk =   0.1111111
        k(   11) = (   0.0503707  -0.0290815   0.0000000), wk =   0.1111111
        k(   12) = (   0.0503707   0.0000000   0.0000000), wk =   0.1111111
        k(   13) = (   0.0503707   0.0290815   0.0000000), wk =   0.1111111
        k(   14) = (   0.0503707  -0.1163261   0.0000000), wk =   0.1111111
        k(   15) = (   0.0503707  -0.0872446   0.0000000), wk =   0.1111111
        k(   16) = (   0.0503707  -0.0581631   0.0000000), wk =   0.1111111
        k(   17) = (  -0.0755560   0.0436223   0.0000000), wk =   0.0555556
        k(   18) = (  -0.0755560   0.0727038   0.0000000), wk =   0.1111111
        k(   19) = (  -0.0755560   0.1017853   0.0000000), wk =   0.1111111
        k(   20) = (  -0.0755560  -0.0436223   0.0000000), wk =   0.0555556

     Dense  grid:   773273 G-vectors     FFT dimensions: (  80,  80, 300)

     Smooth grid:   195593 G-vectors     FFT dimensions: (  50,  50, 192)

     Largest allocated arrays     est. size (Mb)     dimensions
        Kohn-Sham Wavefunctions         1.13 Mb     (     813,   91)
        NL pseudopotentials             2.90 Mb     (     813,  234)
        Each V/rho on FFT grid          0.98 Mb     (   64000)
        Each G-vector array             0.18 Mb     (   24161)
        G-vector shells                 0.08 Mb     (   10769)
     Largest temporary arrays     est. size (Mb)     dimensions
        Auxiliary wavefunctions         4.52 Mb     (     813,  364)
        Each subspace H/S matrix        2.02 Mb     (     364,  364)
        Each <psi_i|beta_j> matrix      0.32 Mb     (     234,   91)
        Arrays for rho mixing           9.77 Mb     (   64000,   10)

     Initial potential from superposition of free atoms
     Check: negative starting charge=   -0.000159

     starting charge  143.99996, renormalised to  162.00000

     negative rho (up, down):  1.786E-04 0.000E+00


     ************************************************************************
     *
     * You are using vdW-DF for exchange-correlation in this calculation.
     * Please cite the following three references that made this development
     * possible:
     *
     *   M. Dion, H. Rydberg, E. Schroder, D. C. Langreth, and
     *   B. I. Lundqvist, Phys. Rev. Lett. 92, 246401 (2004).
     *
     *   T. Thonhauser, V. R. Cooper, S. Li, A. Puzder, P. Hyldgaard, and
     *   D. C. Langreth, Phys. Rev. B 76, 125112 (2007).
     *
     *   G. Roman-Perez and J. M. Soler, Phys. Rev. Lett. 103, 096102 (2009).
     *
     *
     * If you are using vdW-DF2, please also cite:
     *
     *   K. Lee, E. D. Murray, L. Kong, B. I. Lundqvist, and
     *   D. C. Langreth, Phys. Rev. B 82, 081101(R) (2010).
     *
     *
     * If you are calculating the stress with vdW-DF, please also cite:
     *
     *   R. Sabatini, E. Kucukbenli, B. Kolb, T. Thonhauser, and
     *   S. de Gironcoli, J. Phys.: Condens. Matter 24, 424209 (2012).
     *
     ************************************************************************

     Carrying out vdW-DF run using the following parameters:

     Nqs =      20    Nr_points =    1024   r_max =   100.000
     q_mesh =
               0.00001000     0.04494208     0.09755937     0.15916263
               0.23128650     0.31572767     0.41458969     0.53033537
               0.66584808     0.82450364     1.01025438     1.22772762
               1.48234092     1.78043706     2.12944203     2.53805004
               3.01644009     3.57652955     4.23227104     5.00000000

     Gradients computed in reciprocal space

     ************************************************************************


 
     Adding external electric field

     Computed dipole along edir(3) : 
        Dipole               -6.9754 Ry au,        -17.7297 Debye
        Dipole field         -0.0135 Ry au
 
        Potential amp.        1.2621 Ry
        Total length         46.8051 bohr
 
     Starting wfc are  112 randomized atomic wfcs

     total cpu time spent up to now is       21.1 secs

     per-process dynamical memory:    57.9 Mb

     Self-consistent Calculation

     iteration #  1     ecut=    36.75 Ry     beta=0.30
     Davidson diagonalization with overlap
     ethr =  1.00E-02,  avg # of iterations =  8.6

     negative rho (up, down):  7.328E-06 0.000E+00
 
     Adding external electric field

     Computed dipole along edir(3) : 
        Dipole              145.1740 Ry au,        368.9954 Debye
        Dipole field          0.2806 Ry au
 
        Potential amp.      -26.2665 Ry
        Total length         46.8051 bohr
 

     total cpu time spent up to now is      101.7 secs

     total energy              =   -1065.61940288 Ry
     Harris-Foulkes estimate   =   -1625.97582008 Ry
     estimated scf accuracy    <    1199.14451679 Ry

     iteration #  2     ecut=    36.75 Ry     beta=0.30
     Davidson diagonalization with overlap
     ethr =  1.00E-02,  avg # of iterations = 22.1
 
     Adding external electric field

     Computed dipole along edir(3) : 
        Dipole               37.2602 Ry au,         94.7059 Debye
        Dipole field          0.0720 Ry au
 
        Potential amp.       -6.7415 Ry
        Total length         46.8051 bohr
 

     total cpu time spent up to now is      380.8 secs

     total energy              =   -1388.29218599 Ry
     Harris-Foulkes estimate   =   -3006.40110735 Ry
     estimated scf accuracy    <   15373.14264685 Ry

     iteration #  3     ecut=    36.75 Ry     beta=0.30
     Davidson diagonalization with overlap
     ethr =  1.00E-02,  avg # of iterations = 14.2
 
     Adding external electric field

     Computed dipole along edir(3) : 
        Dipole               33.5424 Ry au,         85.2564 Debye
        Dipole field          0.0648 Ry au
 
        Potential amp.       -6.0689 Ry
        Total length         46.8051 bohr
 

     total cpu time spent up to now is      547.2 secs

     total energy              =   -1603.57774758 Ry
     Harris-Foulkes estimate   =   -1973.86022658 Ry
     estimated scf accuracy    <    3044.31417448 Ry

     iteration #  4     ecut=    36.75 Ry     beta=0.30
     Davidson diagonalization with overlap
     c_bands:  2 eigenvalues not converged
     c_bands:  1 eigenvalues not converged
     c_bands:  1 eigenvalues not converged
     c_bands:  3 eigenvalues not converged
     c_bands:  2 eigenvalues not converged
     c_bands:  1 eigenvalues not converged
     c_bands:  2 eigenvalues not converged
     ethr =  1.00E-02,  avg # of iterations = 19.2
 
     Adding external electric field

     Computed dipole along edir(3) : 
        Dipole               25.0283 Ry au,         63.6157 Debye
        Dipole field          0.0484 Ry au
 
        Potential amp.       -4.5284 Ry
        Total length         46.8051 bohr
 

     total cpu time spent up to now is      690.8 secs

     total energy              =   -1653.19931243 Ry
     Harris-Foulkes estimate   =   -1675.54895442 Ry
     estimated scf accuracy    <     143.73901451 Ry

     iteration #  5     ecut=    36.75 Ry     beta=0.30
     Davidson diagonalization with overlap
     ethr =  1.00E-02,  avg # of iterations =  3.7
 
     Adding external electric field

     Computed dipole along edir(3) : 
        Dipole               18.5540 Ry au,         47.1595 Debye
        Dipole field          0.0359 Ry au
 
        Potential amp.       -3.3570 Ry
        Total length         46.8051 bohr
 

     total cpu time spent up to now is      739.0 secs

     total energy              =   -1646.73475853 Ry
     Harris-Foulkes estimate   =   -1657.38702068 Ry
     estimated scf accuracy    <      68.05104030 Ry

     iteration #  6     ecut=    36.75 Ry     beta=0.30
     Davidson diagonalization with overlap
     ethr =  1.00E-02,  avg # of iterations =  3.0
 
     Adding external electric field

     Computed dipole along edir(3) : 
        Dipole               13.3893 Ry au,         34.0322 Debye
        Dipole field          0.0259 Ry au
 
        Potential amp.       -2.4225 Ry
        Total length         46.8051 bohr
 

     total cpu time spent up to now is      780.8 secs

     total energy              =   -1644.55869477 Ry
     Harris-Foulkes estimate   =   -1648.58890801 Ry
     estimated scf accuracy    <      23.33014452 Ry

     iteration #  7     ecut=    36.75 Ry     beta=0.30
     Davidson diagonalization with overlap
     ethr =  1.00E-02,  avg # of iterations =  1.4
 
     Adding external electric field

     Computed dipole along edir(3) : 
        Dipole               10.3139 Ry au,         26.2153 Debye
        Dipole field          0.0199 Ry au
 
        Potential amp.       -1.8661 Ry
        Total length         46.8051 bohr
 

     total cpu time spent up to now is      819.6 secs

     total energy              =   -1643.09076845 Ry
     Harris-Foulkes estimate   =   -1645.18705151 Ry
     estimated scf accuracy    <      16.08280712 Ry

     iteration #  8     ecut=    36.75 Ry     beta=0.30
     Davidson diagonalization with overlap
     ethr =  9.93E-03,  avg # of iterations =  1.9
 
     Adding external electric field

     Computed dipole along edir(3) : 
        Dipole                6.1993 Ry au,         15.7571 Debye
        Dipole field          0.0120 Ry au
 
        Potential amp.       -1.1217 Ry
        Total length         46.8051 bohr
 

     total cpu time spent up to now is      859.4 secs

     total energy              =   -1642.31936664 Ry
     Harris-Foulkes estimate   =   -1643.51234105 Ry
     estimated scf accuracy    <       4.51856848 Ry

     iteration #  9     ecut=    36.75 Ry     beta=0.30
     Davidson diagonalization with overlap
     ethr =  2.79E-03,  avg # of iterations =  2.5

     negative rho (up, down):  1.257E-01 0.000E+00
 
     Adding external electric field

     Computed dipole along edir(3) : 
        Dipole               -0.7843 Ry au,         -1.9936 Debye
        Dipole field         -0.0015 Ry au
 
        Potential amp.        0.1419 Ry
        Total length         46.8051 bohr
 

     total cpu time spent up to now is      899.0 secs

     total energy              =   -1641.00253130 Ry
     Harris-Foulkes estimate   =   -1642.50031298 Ry
     estimated scf accuracy    <       4.57423872 Ry

     iteration # 10     ecut=    36.75 Ry     beta=0.30
     Davidson diagonalization with overlap
     ethr =  2.79E-03,  avg # of iterations =  6.5

     negative rho (up, down):  9.833E-02 0.000E+00
 
     Adding external electric field

     Computed dipole along edir(3) : 
        Dipole               -0.0046 Ry au,         -0.0116 Debye
        Dipole field         -0.0000 Ry au
 
        Potential amp.        0.0008 Ry
        Total length         46.8051 bohr
 

     total cpu time spent up to now is      953.8 secs

     total energy              =   -1642.11314929 Ry
     Harris-Foulkes estimate   =   -1642.70957497 Ry
     estimated scf accuracy    <      27.70303130 Ry

     iteration # 11     ecut=    36.75 Ry     beta=0.30
     Davidson diagonalization with overlap
     ethr =  2.79E-03,  avg # of iterations =  1.9

     negative rho (up, down):  7.614E-02 0.000E+00
 
     Adding external electric field

     Computed dipole along edir(3) : 
        Dipole                1.3225 Ry au,          3.3614 Debye
        Dipole field          0.0026 Ry au
 
        Potential amp.       -0.2393 Ry
        Total length         46.8051 bohr
 

     total cpu time spent up to now is      993.1 secs

     total energy              =   -1642.17481796 Ry
     Harris-Foulkes estimate   =   -1642.26445560 Ry
     estimated scf accuracy    <      10.96944447 Ry

     iteration # 12     ecut=    36.75 Ry     beta=0.30
     Davidson diagonalization with overlap
     ethr =  2.79E-03,  avg # of iterations =  3.5

     negative rho (up, down):  7.212E-02 0.000E+00
 
     Adding external electric field

     Computed dipole along edir(3) : 
        Dipole                1.6950 Ry au,          4.3084 Debye
        Dipole field          0.0033 Ry au
 
        Potential amp.       -0.3067 Ry
        Total length         46.8051 bohr
 

     total cpu time spent up to now is     1034.5 secs

     total energy              =   -1642.21166383 Ry
     Harris-Foulkes estimate   =   -1642.21747693 Ry
     estimated scf accuracy    <       7.93657131 Ry

     iteration # 13     ecut=    36.75 Ry     beta=0.30
     Davidson diagonalization with overlap
     ethr =  2.79E-03,  avg # of iterations =  1.0

     negative rho (up, down):  2.150E-02 0.000E+00
 
     Adding external electric field

     Computed dipole along edir(3) : 
        Dipole                0.9556 Ry au,          2.4289 Debye
        Dipole field          0.0018 Ry au
 
        Potential amp.       -0.1729 Ry
        Total length         46.8051 bohr
 

     total cpu time spent up to now is     1072.6 secs

     total energy              =   -1641.86289198 Ry
     Harris-Foulkes estimate   =   -1642.21865603 Ry
     estimated scf accuracy    <       7.25697541 Ry

     iteration # 14     ecut=    36.75 Ry     beta=0.30
     Davidson diagonalization with overlap
     ethr =  2.79E-03,  avg # of iterations =  1.8

     negative rho (up, down):  9.450E-01 0.000E+00
 
     Adding external electric field

     Computed dipole along edir(3) : 
        Dipole               -6.5695 Ry au,        -16.6981 Debye
        Dipole field         -0.0127 Ry au
 
        Potential amp.        1.1886 Ry
        Total length         46.8051 bohr
 

     total cpu time spent up to now is     1112.0 secs

     total energy              =   -1642.16917312 Ry
     Harris-Foulkes estimate   =   -1641.84269024 Ry
     estimated scf accuracy    <       2.56130317 Ry

     iteration # 15     ecut=    36.75 Ry     beta=0.30
     Davidson diagonalization with overlap
     ethr =  1.58E-03,  avg # of iterations =  9.3

     negative rho (up, down):  8.497E-01 0.000E+00
 
     Adding external electric field

     Computed dipole along edir(3) : 
        Dipole               -5.9620 Ry au,        -15.1540 Debye
        Dipole field         -0.0115 Ry au
 
        Potential amp.        1.0787 Ry
        Total length         46.8051 bohr
 

     total cpu time spent up to now is     1192.0 secs

     total energy              =   -1649.18155614 Ry
     Harris-Foulkes estimate   =   -1651.74767360 Ry
     estimated scf accuracy    <     688.44797221 Ry

     iteration # 16     ecut=    36.75 Ry     beta=0.30
     Davidson diagonalization with overlap
     ethr =  1.58E-03,  avg # of iterations =  1.7

     negative rho (up, down):  8.744E-01 0.000E+00
 
     Adding external electric field

     Computed dipole along edir(3) : 
        Dipole               -6.1322 Ry au,        -15.5866 Debye
        Dipole field         -0.0119 Ry au
 
        Potential amp.        1.1095 Ry
        Total length         46.8051 bohr
 

     total cpu time spent up to now is     1231.0 secs

     total energy              =   -1649.94995796 Ry
     Harris-Foulkes estimate   =   -1649.37231358 Ry
[...]
     0.6534   0.9568   1.1937   1.4441   1.7301   1.8989   2.1242   2.4442
     2.7195   3.0030   3.0966

          k = 0.0252-0.0727 0.0000 ( 24479 PWs)   bands (ev):

   -14.6547 -14.6210 -14.5942 -14.5884 -14.5808 -14.5688 -14.5563 -14.5483
   -14.5446 -14.5408 -14.5364 -14.5276 -14.5220 -14.5124 -14.5037 -14.5021
   -14.4940 -14.4917 -14.4882 -14.4789 -14.4695 -14.4596 -14.4507 -14.4457
   -14.4366 -14.4328 -14.4297 -14.4205 -14.4182 -14.4107 -14.4043 -14.3937
   -14.3903 -14.3807 -14.3715 -14.3629 -14.3589 -14.3539 -14.3501 -14.3425
   -14.3365 -14.3318 -14.3193 -14.3168 -14.3097 -14.3050 -14.3001 -14.2946
   -14.2885 -14.2789 -14.2729 -14.2695 -14.2585 -14.2536 -14.2516 -14.2428
   -14.2316 -14.2247 -14.2138 -14.2047 -11.7744  -7.6084  -6.7911  -6.3351
    -5.9455  -5.5214  -4.8389  -4.4936  -3.8778  -3.6190  -3.2733  -2.8417
    -2.2853  -1.8889  -1.3500  -1.0294  -0.5054  -0.3675   0.2374   0.4717
     0.6534   0.9567   1.1937   1.4441   1.7302   1.8989   2.1242   2.4442
     2.7196   3.0030   3.0966

          k = 0.0252-0.0436 0.0000 ( 24482 PWs)   bands (ev):

   -14.7067 -14.6538 -14.6444 -14.6195 -14.5919 -14.5825 -14.5734 -14.5728
   -14.5670 -14.5603 -14.5485 -14.5463 -14.5441 -14.5361 -14.5177 -14.5153
   -14.5123 -14.5073 -14.5026 -14.4992 -14.4908 -14.4809 -14.4804 -14.4666
   -14.4594 -14.4581 -14.4446 -14.4427 -14.4332 -14.4233 -14.3881 -14.3802
   -14.3756 -14.3577 -14.3535 -14.3418 -14.3391 -14.3345 -14.3241 -14.3215
   -14.3118 -14.2952 -14.2912 -14.2857 -14.2812 -14.2746 -14.2727 -14.2655
   -14.2600 -14.2449 -14.2440 -14.2393 -14.2383 -14.2363 -14.2311 -14.2206
   -14.2162 -14.2105 -14.2036 -14.1955 -11.7884  -8.1501  -6.7952  -5.7134
    -5.6276  -5.0385  -4.6155  -4.4774  -3.6061  -3.3473  -3.0932  -2.8485
    -2.5292  -2.2564  -1.5843  -1.1064  -1.0163  -0.7859  -0.3890  -0.3317
     0.2308   0.3790   0.5663   1.3098   1.4998   1.8645   1.8764   2.3001
     2.3985   2.9155   3.4326

          k = 0.0504-0.0291 0.0000 ( 24465 PWs)   bands (ev):

   -14.6930 -14.6522 -14.6153 -14.6127 -14.5889 -14.5840 -14.5695 -14.5684
   -14.5634 -14.5542 -14.5380 -14.5350 -14.5305 -14.5251 -14.5223 -14.5151
   -14.5073 -14.5048 -14.5000 -14.4908 -14.4800 -14.4726 -14.4680 -14.4596
   -14.4511 -14.4459 -14.4423 -14.4345 -14.4297 -14.4126 -14.3968 -14.3833
   -14.3742 -14.3665 -14.3557 -14.3511 -14.3462 -14.3412 -14.3399 -14.3194
   -14.3189 -14.3100 -14.3019 -14.2941 -14.2880 -14.2855 -14.2806 -14.2735
   -14.2689 -14.2630 -14.2623 -14.2567 -14.2517 -14.2468 -14.2399 -14.2232
   -14.2170 -14.2132 -14.1966 -14.1918 -11.7838  -8.0149  -6.7002  -6.3329
    -5.2404  -4.8300  -4.7528  -4.6731  -3.9877  -3.7048  -3.4365  -2.4613
    -2.3896  -2.0308  -1.3183  -1.1062  -0.9434  -0.5550  -0.5277   0.1062
     0.3058   0.7099   0.9887   1.5312   1.6147   1.7717   2.0900   2.2557
     2.4660   2.8950   2.9624

          k = 0.0504 0.0000 0.0000 ( 24482 PWs)   bands (ev):

   -14.7067 -14.6538 -14.6444 -14.6195 -14.5919 -14.5825 -14.5734 -14.5728
   -14.5670 -14.5603 -14.5485 -14.5463 -14.5441 -14.5361 -14.5177 -14.5153
   -14.5123 -14.5073 -14.5026 -14.4992 -14.4908 -14.4809 -14.4804 -14.4666
   -14.4594 -14.4581 -14.4446 -14.4427 -14.4332 -14.4233 -14.3881 -14.3802
   -14.3756 -14.3577 -14.3535 -14.3418 -14.3391 -14.3345 -14.3241 -14.3215
   -14.3118 -14.2952 -14.2912 -14.2857 -14.2812 -14.2746 -14.2727 -14.2655
   -14.2600 -14.2449 -14.2440 -14.2393 -14.2383 -14.2363 -14.2311 -14.2206
   -14.2162 -14.2105 -14.2036 -14.1955 -11.7885  -8.1501  -6.7951  -5.7135
    -5.6275  -5.0384  -4.6157  -4.4773  -3.6061  -3.3474  -3.0932  -2.8485
    -2.5292  -2.2564  -1.5842  -1.1064  -1.0164  -0.7859  -0.3890  -0.3318
     0.2310   0.3790   0.5662   1.3098   1.4997   1.8645   1.8764   2.3001
     2.3984   2.9155   3.4325

          k = 0.0504 0.0291 0.0000 ( 24465 PWs)   bands (ev):

   -14.6930 -14.6522 -14.6153 -14.6127 -14.5889 -14.5840 -14.5695 -14.5684
   -14.5634 -14.5543 -14.5380 -14.5350 -14.5305 -14.5251 -14.5223 -14.5151
   -14.5074 -14.5048 -14.5000 -14.4908 -14.4800 -14.4726 -14.4680 -14.4596
   -14.4511 -14.4459 -14.4423 -14.4345 -14.4297 -14.4126 -14.3968 -14.3833
   -14.3742 -14.3665 -14.3557 -14.3511 -14.3462 -14.3412 -14.3399 -14.3194
   -14.3189 -14.3100 -14.3018 -14.2941 -14.2880 -14.2855 -14.2806 -14.2735
   -14.2689 -14.2630 -14.2623 -14.2567 -14.2517 -14.2468 -14.2399 -14.2232
   -14.2170 -14.2131 -14.1966 -14.1919 -11.7838  -8.0149  -6.7001  -6.3330
    -5.2404  -4.8301  -4.7528  -4.6731  -3.9877  -3.7048  -3.4365  -2.4612
    -2.3896  -2.0308  -1.3182  -1.1062  -0.9434  -0.5549  -0.5276   0.1061
     0.3058   0.7099   0.9887   1.5312   1.6146   1.7716   2.0901   2.2557
     2.4660   2.8950   2.9624

          k = 0.0504-0.1163 0.0000 ( 24479 PWs)   bands (ev):

   -14.6547 -14.6210 -14.5942 -14.5884 -14.5808 -14.5688 -14.5563 -14.5483
   -14.5446 -14.5408 -14.5364 -14.5276 -14.5220 -14.5124 -14.5037 -14.5021
   -14.4940 -14.4917 -14.4882 -14.4789 -14.4695 -14.4597 -14.4507 -14.4457
   -14.4366 -14.4328 -14.4297 -14.4205 -14.4182 -14.4107 -14.4043 -14.3937
   -14.3903 -14.3807 -14.3714 -14.3629 -14.3589 -14.3539 -14.3501 -14.3425
   -14.3365 -14.3318 -14.3193 -14.3168 -14.3097 -14.3050 -14.3001 -14.2946
   -14.2885 -14.2789 -14.2729 -14.2695 -14.2585 -14.2536 -14.2516 -14.2428
   -14.2316 -14.2246 -14.2138 -14.2047 -11.7745  -7.6084  -6.7910  -6.3350
    -5.9456  -5.5215  -4.8388  -4.4936  -3.8778  -3.6190  -3.2733  -2.8417
    -2.2853  -1.8889  -1.3499  -1.0294  -0.5054  -0.3675   0.2375   0.4717
     0.6534   0.9568   1.1938   1.4441   1.7302   1.8990   2.1242   2.4442
     2.7195   3.0030   3.0965

          k = 0.0504-0.0872 0.0000 ( 24486 PWs)   bands (ev):

   -14.6258 -14.5814 -14.5797 -14.5741 -14.5662 -14.5656 -14.5563 -14.5499
   -14.5488 -14.5407 -14.5330 -14.5316 -14.5111 -14.5089 -14.5019 -14.4821
   -14.4787 -14.4746 -14.4729 -14.4701 -14.4626 -14.4527 -14.4509 -14.4413
   -14.4375 -14.4371 -14.4242 -14.4204 -14.4179 -14.4177 -14.4096 -14.4015
   -14.3997 -14.3866 -14.3812 -14.3800 -14.3710 -14.3684 -14.3666 -14.3389
   -14.3383 -14.3372 -14.3351 -14.3213 -14.3093 -14.3060 -14.3004 -14.2953
   -14.2835 -14.2785 -14.2762 -14.2696 -14.2653 -14.2593 -14.2553 -14.2512
   -14.2457 -14.2438 -14.2430 -14.2179 -11.7698  -6.9705  -6.9658  -6.8257
    -5.9172  -5.7342  -5.3412  -4.1302  -4.0246  -3.8073  -2.8194  -2.5065
    -2.2136  -2.0280  -1.4010  -1.1471  -0.2442  -0.1816  -0.0057   0.3220
     0.4179   0.6921   1.6316   1.6964   1.9490   2.6157   2.7189   2.8282
     3.0564   3.0716   3.1631

          k = 0.0504-0.0582 0.0000 ( 24479 PWs)   bands (ev):

   -14.6547 -14.6210 -14.5942 -14.5884 -14.5808 -14.5688 -14.5563 -14.5483
   -14.5446 -14.5408 -14.5364 -14.5276 -14.5220 -14.5124 -14.5037 -14.5021
   -14.4940 -14.4917 -14.4882 -14.4789 -14.4695 -14.4596 -14.4507 -14.4457
   -14.4366 -14.4328 -14.4297 -14.4205 -14.4182 -14.4107 -14.4043 -14.3937
   -14.3903 -14.3807 -14.3714 -14.3629 -14.3589 -14.3539 -14.3501 -14.3425
   -14.3365 -14.3318 -14.3193 -14.3168 -14.3097 -14.3050 -14.3001 -14.2946
   -14.2885 -14.2789 -14.2729 -14.2695 -14.2585 -14.2536 -14.2516 -14.2428
   -14.2316 -14.2247 -14.2138 -14.2047 -11.7745  -7.6084  -6.7911  -6.3351
    -5.9455  -5.5213  -4.8389  -4.4936  -3.8778  -3.6190  -3.2733  -2.8416
    -2.2853  -1.8889  -1.3500  -1.0294  -0.5054  -0.3674   0.2374   0.4717
     0.6534   0.9568   1.1937   1.4441   1.7302   1.8989   2.1242   2.4442
     2.7196   3.0030   3.0966

          k =-0.0756 0.0436 0.0000 ( 24448 PWs)   bands (ev):

   -14.6538 -14.6284 -14.6144 -14.5879 -14.5730 -14.5659 -14.5605 -14.5573
   -14.5479 -14.5422 -14.5309 -14.5236 -14.5230 -14.5038 -14.5024 -14.4972
   -14.4935 -14.4911 -14.4818 -14.4780 -14.4691 -14.4458 -14.4448 -14.4411
   -14.4368 -14.4312 -14.4243 -14.4224 -14.4128 -14.4031 -14.4029 -14.3890
   -14.3850 -14.3742 -14.3676 -14.3652 -14.3534 -14.3489 -14.3475 -14.3456
   -14.3363 -14.3339 -14.3323 -14.3277 -14.3176 -14.3162 -14.3146 -14.3121
   -14.2992 -14.2907 -14.2861 -14.2715 -14.2693 -14.2559 -14.2529 -14.2276
   -14.2208 -14.2194 -14.1969 -14.1938 -11.7745  -7.3875  -7.2781  -6.2417
    -5.8526  -4.8855  -4.8445  -4.4598  -4.1526  -4.0869  -3.6836  -2.5250
    -2.3204  -2.0721  -0.9293  -0.9091  -0.2040   0.0047   0.1751   0.2106
     0.5114   0.7954   1.5214   1.5516   1.6297   1.9076   2.3359   2.5987
     2.6840   2.8864   2.9913

          k =-0.0756 0.0727 0.0000 ( 24479 PWs)   bands (ev):

   -14.6547 -14.6210 -14.5942 -14.5884 -14.5808 -14.5688 -14.5563 -14.5483
   -14.5446 -14.5408 -14.5364 -14.5276 -14.5220 -14.5124 -14.5037 -14.5021
   -14.4940 -14.4917 -14.4882 -14.4789 -14.4695 -14.4597 -14.4507 -14.4457
   -14.4366 -14.4328 -14.4297 -14.4205 -14.4182 -14.4107 -14.4043 -14.3937
   -14.3903 -14.3807 -14.3714 -14.3629 -14.3589 -14.3539 -14.3501 -14.3425
   -14.3365 -14.3318 -14.3193 -14.3168 -14.3097 -14.3050 -14.3001 -14.2946
   -14.2885 -14.2789 -14.2729 -14.2695 -14.2585 -14.2536 -14.2516 -14.2428
   -14.2316 -14.2247 -14.2138 -14.2047 -11.7745  -7.6084  -6.7911  -6.3350
    -5.9456  -5.5214  -4.8388  -4.4937  -3.8778  -3.6190  -3.2733  -2.8416
    -2.2853  -1.8889  -1.3499  -1.0294  -0.5055  -0.3675   0.2375   0.4718
     0.6534   0.9568   1.1937   1.4441   1.7302   1.8989   2.1242   2.4442
     2.7195   3.0030   3.0966

          k =-0.0756 0.1018 0.0000 ( 24479 PWs)   bands (ev):

   -14.6547 -14.6210 -14.5942 -14.5884 -14.5808 -14.5688 -14.5563 -14.5483
   -14.5446 -14.5408 -14.5364 -14.5276 -14.5220 -14.5124 -14.5037 -14.5021
   -14.4940 -14.4917 -14.4882 -14.4789 -14.4695 -14.4596 -14.4507 -14.4457
   -14.4366 -14.4328 -14.4297 -14.4205 -14.4182 -14.4107 -14.4043 -14.3937
   -14.3903 -14.3807 -14.3714 -14.3629 -14.3589 -14.3539 -14.3501 -14.3425
   -14.3365 -14.3318 -14.3193 -14.3168 -14.3097 -14.3050 -14.3001 -14.2946
   -14.2885 -14.2789 -14.2729 -14.2695 -14.2585 -14.2536 -14.2516 -14.2428
   -14.2316 -14.2246 -14.2138 -14.2047 -11.7745  -7.6084  -6.7910  -6.3350
    -5.9456  -5.5215  -4.8388  -4.4936  -3.8778  -3.6190  -3.2733  -2.8417
    -2.2853  -1.8889  -1.3499  -1.0294  -0.5054  -0.3675   0.2375   0.4717
     0.6534   0.9568   1.1938   1.4441   1.7302   1.8990   2.1242   2.4442
     2.7195   3.0030   3.0965

          k =-0.0756-0.0436 0.0000 ( 24448 PWs)   bands (ev):

   -14.6539 -14.6284 -14.6144 -14.5879 -14.5730 -14.5659 -14.5605 -14.5573
   -14.5479 -14.5422 -14.5309 -14.5236 -14.5230 -14.5038 -14.5024 -14.4972
   -14.4934 -14.4911 -14.4818 -14.4780 -14.4691 -14.4458 -14.4448 -14.4411
   -14.4368 -14.4312 -14.4243 -14.4224 -14.4128 -14.4031 -14.4029 -14.3890
   -14.3850 -14.3742 -14.3675 -14.3652 -14.3534 -14.3489 -14.3474 -14.3456
   -14.3363 -14.3339 -14.3323 -14.3277 -14.3176 -14.3162 -14.3146 -14.3121
   -14.2992 -14.2907 -14.2861 -14.2715 -14.2693 -14.2559 -14.2529 -14.2276
   -14.2207 -14.2194 -14.1969 -14.1938 -11.7745  -7.3874  -7.2782  -6.2415
    -5.8528  -4.8855  -4.8445  -4.4598  -4.1528  -4.0869  -3.6835  -2.5250
    -2.3206  -2.0720  -0.9293  -0.9089  -0.2039   0.0047   0.1751   0.2106
     0.5114   0.7955   1.5214   1.5515   1.6298   1.9076   2.3359   2.5987
     2.6840   2.8863   2.9913

     the Fermi energy is     0.4883 ev

!    total energy              =   -1641.77056902 Ry
     Harris-Foulkes estimate   =   -1641.77057675 Ry
     estimated scf accuracy    <       0.00000205 Ry

     The total energy is the sum of the following terms:

     one-electron contribution =   -9201.63046606 Ry
     hartree contribution      =    4681.65586662 Ry
     xc contribution           =    -478.31492039 Ry
     ewald contribution        =    3356.55585271 Ry
     electric field correction =       0.00028862 Ry
     smearing contrib. (-TS)   =      -0.03719052 Ry

     convergence has been achieved in  28 iterations
 
 BEEF-vdW xc energy contributions
           1 :   -418.782034539003     
           2 :    382.477505077808     
           3 :   -321.189882614453     
           4 :    252.157997400672     
           5 :   -191.128555138279     
           6 :    146.671308167619     
           7 :   -118.559794467661     
           8 :    100.376964369854     
           9 :   -84.4295328215262     
          10 :    66.1049474685255     
          11 :   -45.5229256006606     
          12 :    26.1349598332077     
          13 :   -11.6979976984850     
          14 :    3.71624323443774     
          15 :  -0.780772166983184     
          16 :  -0.180135301461746     
          17 :    1.87951722058028     
          18 :   -5.26587633872413     
          19 :    9.46530161513999     
          20 :   -12.8331853440779     
          21 :    14.2324617634473     
          22 :   -13.6945638346260     
          23 :    12.1809409228525     
          24 :   -10.8039315450604     
          25 :    10.1394893302156     
          26 :   -10.0623198558725     
          27 :    10.0775383752206     
          28 :   -9.79023361200166     
          29 :    9.14571314167955     
          30 :   -8.33601831377109     
          31 :   -38.2186571338632     
          32 :   -27.7045327882512     

     Forces acting on atoms (Ry/au):


     negative rho (up, down):  1.115E-03 0.000E+00
     atom    1 type  1   force =    -0.00000067    0.00000162   -0.00910718
     atom    2 type  1   force =     0.00000035   -0.00002834   -0.00949334
     atom    3 type  1   force =    -0.00002786    0.00001613   -0.00948469
     atom    4 type  1   force =     0.00002736    0.00001269   -0.00950554
     atom    5 type  1   force =     0.00146112   -0.00085339    0.01298388
     atom    6 type  1   force =    -0.00145905   -0.00086303    0.01298610
     atom    7 type  1   force =    -0.00000132    0.00001319    0.00142570
     atom    8 type  1   force =     0.00000250    0.00170249    0.01298295
     atom    9 type  1   force =     0.00088006    0.00050144   -0.00025174
     atom   10 type  1   force =    -0.00089773    0.00053274   -0.00023862
     atom   11 type  1   force =     0.00001816   -0.00102839   -0.00024434
     atom   12 type  1   force =    -0.00001778   -0.00000558   -0.00056773
     atom   13 type  2   force =     0.00001488   -0.00000156   -0.00148546

     Total force =     0.029592     Total SCF correction =     0.009884
     SCF correction compared to forces is large: reduce conv_thr to get better values


     entering subroutine stress ...


     negative rho (up, down):  1.115E-03 0.000E+00
          total   stress  (Ry/bohr**3)                   (kbar)     P=    5.79
   0.00005021   0.00000000   0.00000001          7.39      0.00      0.00
   0.00000000   0.00005021  -0.00000000          0.00      7.39     -0.00
   0.00000001  -0.00000000   0.00001760          0.00     -0.00      2.59

 !ASE

     Writing output data file calc.save
 
     init_run     :     14.39s CPU     20.87s WALL (       1 calls)
     electrons    :   1272.00s CPU   1831.09s WALL (       1 calls)
     forces       :      5.99s CPU      7.02s WALL (       1 calls)
     stress       :     16.42s CPU     18.36s WALL (       1 calls)

     Called by init_run:
     wfcinit      :     10.40s CPU     15.74s WALL (       1 calls)
     potinit      :      1.86s CPU      2.69s WALL (       1 calls)

     Called by electrons:
     c_bands      :   1029.55s CPU   1473.76s WALL (      28 calls)
     sum_band     :    127.70s CPU    191.73s WALL (      28 calls)
     v_of_rho     :     44.98s CPU     68.14s WALL (      29 calls)
     newd         :     18.80s CPU     19.39s WALL (      29 calls)
     mix_rho      :      1.87s CPU      2.82s WALL (      28 calls)
     vdW_energy   :      4.50s CPU      5.00s WALL (      65 calls)
     vdW_ffts     :     59.53s CPU     95.07s WALL (     132 calls)
     vdW_v        :     11.94s CPU     16.85s WALL (      65 calls)

     Called by c_bands:
     init_us_2    :      1.92s CPU      1.97s WALL (    1180 calls)
     cegterg      :   1014.69s CPU   1457.79s WALL (     582 calls)

     Called by *egterg:
     h_psi        :    705.82s CPU   1127.47s WALL (    4030 calls)
     s_psi        :     28.37s CPU     28.43s WALL (    4030 calls)
     g_psi        :      1.94s CPU      1.94s WALL (    3428 calls)
     cdiaghg      :    151.31s CPU    155.54s WALL (    4010 calls)

     Called by h_psi:
     add_vuspsi   :     29.56s CPU     29.65s WALL (    4030 calls)

     General routines
     calbec       :     50.58s CPU     58.26s WALL (    4630 calls)
     fft          :     92.30s CPU    146.55s WALL (    4017 calls)
     ffts         :      0.34s CPU      0.53s WALL (      57 calls)
     fftw         :    685.66s CPU   1155.32s WALL (  399666 calls)
     interpolate  :      1.65s CPU      2.64s WALL (      57 calls)
     davcio       :      0.00s CPU      0.03s WALL (      20 calls)
 
     Parallel routines
     fft_scatter  :    692.72s CPU   1208.03s WALL (  403740 calls)
 
     PWSCF        : 21m49.62s CPU    31m18.75s WALL

 
   This run was terminated on:   9:30:36  20Jan2018            

=------------------------------------------------------------------------------=
   JOB DONE.
=------------------------------------------------------------------------------=
Job  /afs/slac/g/suncat/bin/suncat-tsmpirun -x LD_LIBRARY_PATH -wdir /scratch/qe505014_WbFSA pw.x -in pw.inp

TID   HOST_NAME   COMMAND_LINE            STATUS            TERMINATION_TIME
===== ========== ================  =======================  ===================
00000 suncat0110 pw.x -in pw.inp   Done                     01/20/2018 09:30:36
00001 suncat0110 pw.x -in pw.inp   Done                     01/20/2018 09:30:36
00002 suncat0110 pw.x -in pw.inp   Done                     01/20/2018 09:30:36
00003 suncat0110 pw.x -in pw.inp   Done                     01/20/2018 09:30:36
00004 suncat0110 pw.x -in pw.inp   Done                     01/20/2018 09:30:36
00005 suncat0110 pw.x -in pw.inp   Done                     01/20/2018 09:30:36
00006 suncat0110 pw.x -in pw.inp   Done                     01/20/2018 09:30:36
00007 suncat0110 pw.x -in pw.inp   Done                     01/20/2018 09:30:36
00008 suncat0109 pw.x -in pw.inp   Done                     01/20/2018 09:30:36
00009 suncat0109 pw.x -in pw.inp   Done                     01/20/2018 09:30:36
00010 suncat0109 pw.x -in pw.inp   Done                     01/20/2018 09:30:36
00011 suncat0109 pw.x -in pw.inp   Done                     01/20/2018 09:30:36
00012 suncat0109 pw.x -in pw.inp   Done                     01/20/2018 09:30:36
00013 suncat0109 pw.x -in pw.inp   Done                     01/20/2018 09:30:36
00014 suncat0109 pw.x -in pw.inp   Done                     01/20/2018 09:30:36
00015 suncat0109 pw.x -in pw.inp   Done                     01/20/2018 09:30:36
00016 suncat0238 pw.x -in pw.inp   Done                     01/20/2018 09:30:36
00017 suncat0238 pw.x -in pw.inp   Done                     01/20/2018 09:30:36
00018 suncat0238 pw.x -in pw.inp   Done                     01/20/2018 09:30:36
00019 suncat0238 pw.x -in pw.inp   Done                     01/20/2018 09:30:36
00020 suncat0238 pw.x -in pw.inp   Done                     01/20/2018 09:30:36
00021 suncat0238 pw.x -in pw.inp   Done                     01/20/2018 09:30:36
00022 suncat0238 pw.x -in pw.inp   Done                     01/20/2018 09:30:36
00023 suncat0238 pw.x -in pw.inp   Done                     01/20/2018 09:30:36
00024 suncat0212 pw.x -in pw.inp   Done                     01/20/2018 09:30:36
00025 suncat0212 pw.x -in pw.inp   Done                     01/20/2018 09:30:36
00026 suncat0212 pw.x -in pw.inp   Done                     01/20/2018 09:30:36
00027 suncat0212 pw.x -in pw.inp   Done                     01/20/2018 09:30:36
00028 suncat0212 pw.x -in pw.inp   Done                     01/20/2018 09:30:36
00029 suncat0212 pw.x -in pw.inp   Done                     01/20/2018 09:30:36
00030 suncat0212 pw.x -in pw.inp   Done                     01/20/2018 09:30:36
00031 suncat0212 pw.x -in pw.inp   Done                     01/20/2018 09:30:36
