  python dir          : /u/if/mamunm/src/espresso
  espresso dir        : /nfs/slac/g/suncatfs/sw/espv18/espresso-dynpy-beef/bin
  pseudo dir          : /u/if/mamunm/psp/gbrv1.5pbe
  ase-espresso py git : GITVERSION



     Program PWSCF v.5.1rc2 (svn rev. 11289) starts on  2May2018 at 16:22:33 

     This program is part of the open-source Quantum ESPRESSO suite
     for quantum simulation of materials; please cite
         "P. Giannozzi et al., J. Phys.:Condens. Matter 21 395502 (2009);
          URL http://www.quantum-espresso.org", 
     in publications or presentations arising from this work. More details at
     http://www.quantum-espresso.org/quote

     Parallel version (MPI), running on    32 processors
     K-points division:     npool     =       4
     R & G space division:  proc/nbgrp/npool/nimage =       8
     Reading input from pw.inp
     Message from routine read_cards :
     DEPRECATED: no units specified in CELL_PARAMETERS card

     Current dimensions of program PWSCF are:
     Max number of different atomic species (ntypx) = 10
     Max number of k-points (npk) =  40000
     Max angular momentum in pseudopotentials (lmaxx) =  3
     Presently stress not available with electric field


     **************************************************************************
     Initializing libbeef V0.1.1 with the BEEF-vdW functional.
     Citation: Wellendorff et al., PRB 85, 235149 (2012).
     **************************************************************************


     IMPORTANT: XC functional enforced from input :
     Exchange-correlation      = BEEF-VDW ( 1  4 27 13 2)
     Any further DFT definition will be discarded
     Please, verify this is what you really want


     Subspace diagonalization in iterative solution of the eigenvalue problem:
     a serial algorithm will be used

 
     Parallelization info
     --------------------
     sticks:   dense  smooth     PW     G-vecs:    dense   smooth      PW
     Min         339     133     39                63987    16111    2561
     Max         340     134     40                64016    16172    2582
     Sum        2713    1069    313               511963   129143   20533
 


     bravais-lattice index     =            0
     lattice parameter (alat)  =       1.8897  a.u.
     unit-cell volume          =    4301.6107 (a.u.)^3
     number of atoms/cell      =           13
     number of atomic types    =            2
     number of electrons       =       181.00
     number of Kohn-Sham states=          100
     kinetic-energy cutoff     =      36.7493  Ry
     charge density cutoff     =     367.4932  Ry
     convergence threshold     =      1.0E-05
     mixing beta               =       0.3000
     number of iterations used =           10  plain     mixing
     Exchange-correlation      = BEEF-VDW ( 1  4 27 13 2)
     nstep                     =           50


     celldm(1)=   1.889726  celldm(2)=   0.000000  celldm(3)=   0.000000
     celldm(4)=   0.000000  celldm(5)=   0.000000  celldm(6)=   0.000000

     crystal axes: (cart. coord. in units of alat)
               a(1) = (   5.483647   0.000000   0.000000 )  
               a(2) = (   2.741823   4.748977   0.000000 )  
               a(3) = (   0.000000   0.000000  24.477379 )  

     reciprocal axes: (cart. coord. in units 2 pi/alat)
               b(1) = (  0.182360 -0.105286  0.000000 )  
               b(2) = (  0.000000  0.210572  0.000000 )  
               b(3) = (  0.000000  0.000000  0.040854 )  


     PseudoPot. # 1 for Tc read from file:
     /u/if/mamunm/psp/gbrv1.5pbe/Tc.UPF
     MD5 check sum: 9eb49e5b028550b2339a02317eb7b844
     Pseudo is Ultrasoft + core correction, Zval = 15.0
     Generated by new atomic code, or converted to UPF format
     Using radial grid of  965 points,  6 beta functions with: 
                l(1) =   0
                l(2) =   0
                l(3) =   1
                l(4) =   1
                l(5) =   2
                l(6) =   2
     Q(r) pseudized with  8 coefficients,  rinner =    1.300   1.300   1.300
                                                       1.300   1.300

     PseudoPot. # 2 for H  read from file:
     /u/if/mamunm/psp/gbrv1.5pbe/H.UPF
     MD5 check sum: 761ae9a214b05c3daf00ab9f6b793d6f
     Pseudo is Ultrasoft, Zval =  1.0
     Generated by new atomic code, or converted to UPF format
     Using radial grid of  615 points,  2 beta functions with: 
                l(1) =   0
                l(2) =   0
     Q(r) pseudized with  8 coefficients,  rinner =    0.700

     vdW kernel table read from file vdW_kernel_table
     MD5 check sum: 095c7af220d748ca6e76c0b4c6cfb241

     atomic species   valence    mass     pseudopotential
        Tc1           15.00    97.90721     Tc( 1.00)
        H1             1.00     1.00800     H ( 1.00)

     No symmetry found



   Cartesian axes

     site n.     atom                  positions (alat units)
         1           Tc1 tau(   1) = (   1.3709117   0.7914962  10.0000000  )
         2           Tc1 tau(   2) = (   4.1127351   0.7914962  10.0000000  )
         3           Tc1 tau(   3) = (   2.7418234   3.1659850  10.0000000  )
         4           Tc1 tau(   4) = (   5.4836469   3.1659850  10.0000000  )
         5           Tc1 tau(   5) = (   5.4836469   1.5829925  12.2386895  )
         6           Tc1 tau(   6) = (   2.7418234   1.5829925  12.2386895  )
         7           Tc1 tau(   7) = (   6.8545586   3.9574812  12.2386895  )
         8           Tc1 tau(   8) = (   4.1127351   3.9574812  12.2386895  )
         9           Tc1 tau(   9) = (   0.0000000   0.0000000  14.4773789  )
        10           Tc1 tau(  10) = (   2.7418234   0.0000000  14.4773789  )
        11           Tc1 tau(  11) = (   1.3709117   2.3744887  14.4773789  )
        12           Tc1 tau(  12) = (   4.1127351   2.3744887  14.4773789  )
        13           H1  tau(  13) = (   1.3709117   0.0000000  15.8123789  )

     number of k points=    20  Fermi-Dirac smearing, width (Ry)=  0.0110
                       cart. coord. in units 2pi/alat
        k(    1) = (   0.0000000   0.0000000   0.0000000), wk =   0.0555556
        k(    2) = (   0.0000000   0.0350953   0.0000000), wk =   0.1111111
        k(    3) = (   0.0000000   0.0701905   0.0000000), wk =   0.1111111
        k(    4) = (   0.0000000  -0.1052858   0.0000000), wk =   0.0555556
        k(    5) = (   0.0303934  -0.0175476   0.0000000), wk =   0.1111111
        k(    6) = (   0.0303934   0.0175476   0.0000000), wk =   0.1111111
        k(    7) = (   0.0303934   0.0526429   0.0000000), wk =   0.1111111
        k(    8) = (   0.0303934  -0.1228335   0.0000000), wk =   0.1111111
        k(    9) = (   0.0303934  -0.0877382   0.0000000), wk =   0.1111111
        k(   10) = (   0.0303934  -0.0526429   0.0000000), wk =   0.1111111
        k(   11) = (   0.0607868  -0.0350953   0.0000000), wk =   0.1111111
        k(   12) = (   0.0607868   0.0000000   0.0000000), wk =   0.1111111
        k(   13) = (   0.0607868   0.0350953   0.0000000), wk =   0.1111111
        k(   14) = (   0.0607868  -0.1403811   0.0000000), wk =   0.1111111
        k(   15) = (   0.0607868  -0.1052858   0.0000000), wk =   0.1111111
        k(   16) = (   0.0607868  -0.0701905   0.0000000), wk =   0.1111111
        k(   17) = (  -0.0911802   0.0526429   0.0000000), wk =   0.0555556
        k(   18) = (  -0.0911802   0.0877382   0.0000000), wk =   0.1111111
        k(   19) = (  -0.0911802   0.1228335   0.0000000), wk =   0.1111111
        k(   20) = (  -0.0911802  -0.0526429   0.0000000), wk =   0.0555556

     Dense  grid:   511963 G-vectors     FFT dimensions: (  64,  64, 288)

     Smooth grid:   129143 G-vectors     FFT dimensions: (  40,  40, 180)

     Largest allocated arrays     est. size (Mb)     dimensions
        Kohn-Sham Wavefunctions         3.12 Mb     (    2045,  100)
        NL pseudopotentials             6.80 Mb     (    2045,  218)
        Each V/rho on FFT grid          2.25 Mb     (  147456)
        Each G-vector array             0.49 Mb     (   63995)
        G-vector shells                 0.13 Mb     (   17029)
     Largest temporary arrays     est. size (Mb)     dimensions
        Auxiliary wavefunctions        12.48 Mb     (    2045,  400)
        Each subspace H/S matrix        2.44 Mb     (     400,  400)
        Each <psi_i|beta_j> matrix      0.33 Mb     (     218,  100)
        Arrays for rho mixing          22.50 Mb     (  147456,   10)

     Check: negative/imaginary core charge=   -0.000022    0.000000

     Initial potential from superposition of free atoms
     Check: negative starting charge=   -1.504997

     starting charge  168.99966, renormalised to  181.00000

     negative rho (up, down):  1.612E+00 0.000E+00


     ************************************************************************
     *
     * You are using vdW-DF for exchange-correlation in this calculation.
     * Please cite the following three references that made this development
     * possible:
     *
     *   M. Dion, H. Rydberg, E. Schroder, D. C. Langreth, and
     *   B. I. Lundqvist, Phys. Rev. Lett. 92, 246401 (2004).
     *
     *   T. Thonhauser, V. R. Cooper, S. Li, A. Puzder, P. Hyldgaard, and
     *   D. C. Langreth, Phys. Rev. B 76, 125112 (2007).
     *
     *   G. Roman-Perez and J. M. Soler, Phys. Rev. Lett. 103, 096102 (2009).
     *
     *
     * If you are using vdW-DF2, please also cite:
     *
     *   K. Lee, E. D. Murray, L. Kong, B. I. Lundqvist, and
     *   D. C. Langreth, Phys. Rev. B 82, 081101(R) (2010).
     *
     *
     * If you are calculating the stress with vdW-DF, please also cite:
     *
     *   R. Sabatini, E. Kucukbenli, B. Kolb, T. Thonhauser, and
     *   S. de Gironcoli, J. Phys.: Condens. Matter 24, 424209 (2012).
     *
     ************************************************************************

     Carrying out vdW-DF run using the following parameters:

     Nqs =      20    Nr_points =    1024   r_max =   100.000
     q_mesh =
               0.00001000     0.04494208     0.09755937     0.15916263
               0.23128650     0.31572767     0.41458969     0.53033537
               0.66584808     0.82450364     1.01025438     1.22772762
               1.48234092     1.78043706     2.12944203     2.53805004
               3.01644009     3.57652955     4.23227104     5.00000000

     Gradients computed in reciprocal space

     ************************************************************************


 
     Adding external electric field

     Computed dipole along edir(3) : 
        Dipole               -0.4795 Ry au,         -1.2187 Debye
        Dipole field         -0.0014 Ry au
 
        Potential amp.        0.1263 Ry
        Total length         45.0992 bohr
 
     Starting wfc are  157 randomized atomic wfcs

     total cpu time spent up to now is       10.1 secs

     per-process dynamical memory:    73.6 Mb

     Self-consistent Calculation

     iteration #  1     ecut=    36.75 Ry     beta=0.30
     Davidson diagonalization with overlap
     ethr =  1.00E-02,  avg # of iterations =  2.1

     negative rho (up, down):  1.605E+00 0.000E+00
 
     Adding external electric field

     Computed dipole along edir(3) : 
        Dipole                7.7682 Ry au,         19.7448 Debye
        Dipole field          0.0227 Ry au
 
        Potential amp.       -2.0469 Ry
        Total length         45.0992 bohr
 

     total cpu time spent up to now is       26.1 secs

     total energy              =   -2098.95421116 Ry
     Harris-Foulkes estimate   =   -2109.28029934 Ry
     estimated scf accuracy    <      23.53054461 Ry

     iteration #  2     ecut=    36.75 Ry     beta=0.30
     Davidson diagonalization with overlap
     ethr =  1.00E-02,  avg # of iterations =  8.8

     negative rho (up, down):  1.605E+00 0.000E+00
 
     Adding external electric field

     Computed dipole along edir(3) : 
        Dipole               -0.9114 Ry au,         -2.3165 Debye
        Dipole field         -0.0027 Ry au
 
        Potential amp.        0.2401 Ry
        Total length         45.0992 bohr
 

     total cpu time spent up to now is       51.4 secs

     total energy              =   -2084.82873925 Ry
     Harris-Foulkes estimate   =   -2141.13682634 Ry
     estimated scf accuracy    <    1315.75054998 Ry

     iteration #  3     ecut=    36.75 Ry     beta=0.30
     Davidson diagonalization with overlap
     ethr =  1.00E-02,  avg # of iterations =  6.8

     negative rho (up, down):  1.602E+00 0.000E+00
 
     Adding external electric field

     Computed dipole along edir(3) : 
        Dipole               -0.6580 Ry au,         -1.6724 Debye
        Dipole field         -0.0019 Ry au
 
        Potential amp.        0.1734 Ry
        Total length         45.0992 bohr
 

     total cpu time spent up to now is       72.4 secs

     total energy              =   -2100.04416977 Ry
     Harris-Foulkes estimate   =   -2106.92848327 Ry
     estimated scf accuracy    <      66.75575929 Ry

     iteration #  4     ecut=    36.75 Ry     beta=0.30
     Davidson diagonalization with overlap
     ethr =  1.00E-02,  avg # of iterations =  4.8

     negative rho (up, down):  1.596E+00 0.000E+00
 
     Adding external electric field

     Computed dipole along edir(3) : 
        Dipole               -0.5803 Ry au,         -1.4750 Debye
        Dipole field         -0.0017 Ry au
 
        Potential amp.        0.1529 Ry
        Total length         45.0992 bohr
 

     total cpu time spent up to now is       90.9 secs

     total energy              =   -2102.94196719 Ry
     Harris-Foulkes estimate   =   -2107.08620449 Ry
     estimated scf accuracy    <      62.13706371 Ry

     iteration #  5     ecut=    36.75 Ry     beta=0.30
     Davidson diagonalization with overlap
     ethr =  1.00E-02,  avg # of iterations =  3.5

     negative rho (up, down):  1.594E+00 0.000E+00
 
     Adding external electric field

     Computed dipole along edir(3) : 
        Dipole               -1.6846 Ry au,         -4.2817 Debye
        Dipole field         -0.0049 Ry au
 
        Potential amp.        0.4439 Ry
        Total length         45.0992 bohr
 

     total cpu time spent up to now is      105.9 secs

     total energy              =   -2103.79433418 Ry
     Harris-Foulkes estimate   =   -2104.77985643 Ry
     estimated scf accuracy    <      24.23887688 Ry

     iteration #  6     ecut=    36.75 Ry     beta=0.30
     Davidson diagonalization with overlap
     ethr =  1.00E-02,  avg # of iterations =  1.9

     negative rho (up, down):  1.594E+00 0.000E+00
 
     Adding external electric field

     Computed dipole along edir(3) : 
        Dipole               -1.4901 Ry au,         -3.7876 Debye
        Dipole field         -0.0044 Ry au
 
        Potential amp.        0.3927 Ry
        Total length         45.0992 bohr
 

     total cpu time spent up to now is      120.1 secs

     total energy              =   -2104.48706811 Ry
     Harris-Foulkes estimate   =   -2104.58998725 Ry
     estimated scf accuracy    <       2.63744304 Ry

     iteration #  7     ecut=    36.75 Ry     beta=0.30
     Davidson diagonalization with overlap
     ethr =  1.46E-03,  avg # of iterations =  6.0

     negative rho (up, down):  1.592E+00 0.000E+00
 
     Adding external electric field

     Computed dipole along edir(3) : 
        Dipole               -1.1093 Ry au,         -2.8195 Debye
        Dipole field         -0.0032 Ry au
 
        Potential amp.        0.2923 Ry
        Total length         45.0992 bohr
 

     total cpu time spent up to now is      136.9 secs

     total energy              =   -2104.48927058 Ry
     Harris-Foulkes estimate   =   -2104.67963461 Ry
     estimated scf accuracy    <       6.04052198 Ry

     iteration #  8     ecut=    36.75 Ry     beta=0.30
     Davidson diagonalization with overlap
     ethr =  1.46E-03,  avg # of iterations =  1.2

     negative rho (up, down):  1.591E+00 0.000E+00
 
     Adding external electric field

     Computed dipole along edir(3) : 
        Dipole               -0.7918 Ry au,         -2.0125 Debye
        Dipole field         -0.0023 Ry au
 
        Potential amp.        0.2086 Ry
        Total length         45.0992 bohr
 

     total cpu time spent up to now is      150.8 secs

     total energy              =   -2104.50529809 Ry
     Harris-Foulkes estimate   =   -2104.56230119 Ry
     estimated scf accuracy    <       0.51800317 Ry

     iteration #  9     ecut=    36.75 Ry     beta=0.30
     Davidson diagonalization with overlap
     ethr =  2.86E-04,  avg # of iterations =  5.2

     negative rho (up, down):  1.590E+00 0.000E+00
 
     Adding external electric field

     Computed dipole along edir(3) : 
        Dipole               -0.7533 Ry au,         -1.9147 Debye
        Dipole field         -0.0022 Ry au
 
        Potential amp.        0.1985 Ry
        Total length         45.0992 bohr
 

     total cpu time spent up to now is      167.7 secs

     total energy              =   -2104.54932876 Ry
     Harris-Foulkes estimate   =   -2104.57727830 Ry
     estimated scf accuracy    <       1.57707101 Ry

     iteration # 10     ecut=    36.75 Ry     beta=0.30
     Davidson diagonalization with overlap
     ethr =  2.86E-04,  avg # of iterations =  1.0

     negative rho (up, down):  1.589E+00 0.000E+00
 
     Adding external electric field

     Computed dipole along edir(3) : 
        Dipole               -0.6799 Ry au,         -1.7280 Debye
        Dipole field         -0.0020 Ry au
 
        Potential amp.        0.1791 Ry
        Total length         45.0992 bohr
 

     total cpu time spent up to now is      181.5 secs

     total energy              =   -2104.54783458 Ry
     Harris-Foulkes estimate   =   -2104.55870449 Ry
     estimated scf accuracy    <       0.35328776 Ry

     iteration # 11     ecut=    36.75 Ry     beta=0.30
     Davidson diagonalization with overlap
     ethr =  1.95E-04,  avg # of iterations =  1.6

     negative rho (up, down):  1.589E+00 0.000E+00
 
     Adding external electric field

     Computed dipole along edir(3) : 
        Dipole               -0.5679 Ry au,         -1.4435 Debye
        Dipole field         -0.0017 Ry au
 
        Potential amp.        0.1496 Ry
        Total length         45.0992 bohr
 

     total cpu time spent up to now is      195.7 secs

     total energy              =   -2104.55109175 Ry
     Harris-Foulkes estimate   =   -2104.55387111 Ry
     estimated scf accuracy    <       0.01467530 Ry

     iteration # 12     ecut=    36.75 Ry     beta=0.30
     Davidson diagonalization with overlap
     ethr =  8.11E-06,  avg # of iterations =  6.7

     negative rho (up, down):  1.588E+00 0.000E+00
 
     Adding external electric field

     Computed dipole along edir(3) : 
        Dipole               -0.4024 Ry au,         -1.0228 Debye
        Dipole field         -0.0012 Ry au
 
        Potential amp.        0.1060 Ry
        Total length         45.0992 bohr
 

     total cpu time spent up to now is      215.2 secs

     total energy              =   -2104.55373824 Ry
     Harris-Foulkes estimate   =   -2104.55752716 Ry
     estimated scf accuracy    <       0.15213407 Ry

     iteration # 13     ecut=    36.75 Ry     beta=0.30
     Davidson diagonalization with overlap
     ethr =  8.11E-06,  avg # of iterations =  1.2

     negative rho (up, down):  1.588E+00 0.000E+00
 
     Adding external electric field

     Computed dipole along edir(3) : 
        Dipole               -0.1558 Ry au,         -0.3961 Debye
        Dipole field         -0.0005 Ry au
 
        Potential amp.        0.0411 Ry
        Total length         45.0992 bohr
 

     total cpu time spent up to now is      229.0 secs

     total energy              =   -2104.55088782 Ry
     Harris-Foulkes estimate   =   -2104.55472696 Ry
     estimated scf accuracy    <       0.06180887 Ry

     iteration # 14     ecut=    36.75 Ry     beta=0.30
     Davidson diagonalization with overlap
     ethr =  8.11E-06,  avg # of iterations =  4.8

     negative rho (up, down):  1.588E+00 0.000E+00
 
     Adding external electric field

     Computed dipole along edir(3) : 
        Dipole               -0.0796 Ry au,         -0.2023 Debye
        Dipole field         -0.0002 Ry au
 
        Potential amp.        0.0210 Ry
        Total length         45.0992 bohr
 

     total cpu time spent up to now is      245.4 secs

     total energy              =   -2104.55226917 Ry
     Harris-Foulkes estimate   =   -2104.55262757 Ry
     estimated scf accuracy    <       0.00812299 Ry

     iteration # 15     ecut=    36.75 Ry     beta=0.30
     Davidson diagonalization with overlap
     ethr =  4.49E-06,  avg # of iterations =  2.0

     negative rho (up, down):  1.588E+00 0.000E+00
 
     Adding external electric field

     Computed dipole along edir(3) : 
        Dipole               -0.0254 Ry au,         -0.0644 Debye
        Dipole field         -0.0001 Ry au
 
        Potential amp.        0.0067 Ry
        Total length         45.0992 bohr
 

     total cpu time spent up to now is      259.8 secs

     total energy              =   -2104.55186244 Ry
     Harris-Foulkes estimate   =   -2104.55258020 Ry
     estimated scf accuracy    <       0.01299606 Ry

     iteration # 16     ecut=    36.75 Ry     beta=0.30
     Davidson diagonalization with overlap
     ethr =  4.49E-06,  avg # of iterations =  2.5

     negative rho (up, down):  1.588E+00 0.000E+00
 
     Adding external electric field

     Computed dipole along edir(3) : 
        Dipole               -0.0168 Ry au,         -0.0428 Debye
        Dipole field         -0.0000 Ry au
 
        Potential amp.        0.0044 Ry
        Total length         45.0992 bohr
 

     total cpu time spent up to now is      274.7 secs

     total energy              =   -2104.55222665 Ry
     Harris-Foulkes estimate   =   -2104.55229939 Ry
     estimated scf accuracy    <       0.00164600 Ry

     iteration # 17     ecut=    36.75 Ry     beta=0.30
     Davidson diagonalization with overlap
     ethr =  9.09E-07,  avg # of iterations =  4.0

     negative rho (up, down):  1.588E+00 0.000E+00
 
     Adding external electric field

     Computed dipole along edir(3) : 
        Dipole               -0.0144 Ry au,         -0.0367 Debye
        Dipole field         -0.0000 Ry au
 
        Potential amp.        0.0038 Ry
        Total length         45.0992 bohr
 

     total cpu time spent up to now is      290.0 secs

     total energy              =   -2104.55226680 Ry
     Harris-Foulkes estimate   =   -2104.55228257 Ry
     estimated scf accuracy    <       0.00020416 Ry

     iteration # 18     ecut=    36.75 Ry     beta=0.30
     Davidson diagonalization with overlap
     ethr =  1.13E-07,  avg # of iterations =  5.8

     negative rho (up, down):  1.588E+00 0.000E+00
 
     Adding external electric field

     Computed dipole along edir(3) : 
        Dipole               -0.0120 Ry au,         -0.0305 Debye
        Dipole field         -0.0000 Ry au
 
        Potential amp.        0.0032 Ry
        Total length         45.0992 bohr
 

     total cpu time spent up to now is      306.9 secs

     total energy              =   -2104.55227499 Ry
     Harris-Foulkes estimate   =   -2104.55228470 Ry
     estimated scf accuracy    <       0.00006258 Ry

     iteration # 19     ecut=    36.75 Ry     beta=0.30
     Davidson diagonalization with overlap
     ethr =  3.46E-08,  avg # of iterations =  4.8

     negative rho (up, down):  1.588E+00 0.000E+00
 
     Adding external electric field

     Computed dipole along edir(3) : 
        Dipole               -0.0081 Ry au,         -0.0205 Debye
        Dipole field         -0.0000 Ry au
 
        Potential amp.        0.0021 Ry
        Total length         45.0992 bohr
 

     total cpu time spent up to now is      323.7 secs

     total energy              =   -2104.55228082 Ry
     Harris-Foulkes estimate   =   -2104.55228694 Ry
     estimated scf accuracy    <       0.00017639 Ry

     iteration # 20     ecut=    36.75 Ry     beta=0.30
     Davidson diagonalization with overlap
     ethr =  3.46E-08,  avg # of iterations =  1.0

     negative rho (up, down):  1.588E+00 0.000E+00
 
     Adding external electric field

     Computed dipole along edir(3) : 
        Dipole               -0.0062 Ry au,         -0.0159 Debye
        Dipole field         -0.0000 Ry au
 
        Potential amp.        0.0016 Ry
        Total length         45.0992 bohr
 

     total cpu time spent up to now is      337.7 secs

     total energy              =   -2104.55227799 Ry
     Harris-Foulkes estimate   =   -2104.55228296 Ry
     estimated scf accuracy    <       0.00007921 Ry

     iteration # 21     ecut=    36.75 Ry     beta=0.30
     Davidson diagonalization with overlap
     ethr =  3.46E-08,  avg # of iterations =  4.5

     negative rho (up, down):  1.589E+00 0.000E+00
 
     Adding external electric field

     Computed dipole along edir(3) : 
        Dipole               -0.0054 Ry au,         -0.0137 Debye
        Dipole field         -0.0000 Ry au
 
        Potential amp.        0.0014 Ry
        Total length         45.0992 bohr
 

     total cpu time spent up to now is      353.9 secs

     total energy              =   -2104.55228140 Ry
     Harris-Foulkes estimate   =   -2104.55228281 Ry
     estimated scf accuracy    <       0.00003123 Ry

     iteration # 22     ecut=    36.75 Ry     beta=0.30
     Davidson diagonalization with overlap
     ethr =  1.73E-08,  avg # of iterations =  1.1

     negative rho (up, down):  1.589E+00 0.000E+00
 
     Adding external electric field

     Computed dipole along edir(3) : 
        Dipole               -0.0050 Ry au,         -0.0127 Debye
        Dipole field         -0.0000 Ry au
 
        Potential amp.        0.0013 Ry
        Total length         45.0992 bohr
 

     total cpu time spent up to now is      367.9 secs

     total energy              =   -2104.55228142 Ry
     Harris-Foulkes estimate   =   -2104.55228218 Ry
     estimated scf accuracy    <       0.00001460 Ry

     iteration # 23     ecut=    36.75 Ry     beta=0.30
     Davidson diagonalization with overlap
     ethr =  8.07E-09,  avg # of iterations =  3.0

     negative rho (up, down):  1.589E+00 0.000E+00

     negative rho (up, down):  1.589E+00 0.000E+00

     negative rho (up, down):  1.589E+00 0.000E+00

     negative rho (up, down):  1.589E+00 0.000E+00

     negative rho (up, down):  1.589E+00 0.000E+00

     negative rho (up, down):  1.589E+00 0.000E+00

     negative rho (up, down):  1.589E+00 0.000E+00

     negative rho (up, down):  1.589E+00 0.000E+00

     negative rho (up, down):  1.589E+00 0.000E+00

     negative rho (up, down):  1.589E+00 0.000E+00

     negative rho (up, down):  1.589E+00 0.000E+00

     negative rho (up, down):  1.589E+00 0.000E+00

     negative rho (up, down):  1.589E+00 0.000E+00

     negative rho (up, down):  1.589E+00 0.000E+00

     negative rho (up, down):  1.589E+00 0.000E+00

     negative rho (up, down):  1.589E+00 0.000E+00

     negative rho (up, down):  1.589E+00 0.000E+00

     negative rho (up, down):  1.589E+00 0.000E+00

     negative rho (up, down):  1.589E+00 0.000E+00

     negative rho (up, down):  1.589E+00 0.000E+00

     negative rho (up, down):  1.589E+00 0.000E+00

     negative rho (up, down):  1.589E+00 0.000E+00

     negative rho (up, down):  1.589E+00 0.000E+00

     negative rho (up, down):  1.589E+00 0.000E+00

     negative rho (up, down):  1.589E+00 0.000E+00

     negative rho (up, down):  1.589E+00 0.000E+00

     negative rho (up, down):  1.589E+00 0.000E+00

     negative rho (up, down):  1.589E+00 0.000E+00

     negative rho (up, down):  1.589E+00 0.000E+00

     negative rho (up, down):  1.589E+00 0.000E+00

     negative rho (up, down):  1.589E+00 0.000E+00

     negative rho (up, down):  1.589E+00 0.000E+00

     negative rho (up, down):  1.589E+00 0.000E+00

     negative rho (up, down):  1.589E+00 0.000E+00

     negative rho (up, down):  1.589E+00 0.000E+00
 
     Adding external electric field

     Computed dipole along edir(3) : 
        Dipole               -0.0227 Ry au,         -0.0578 Debye
        Dipole field         -0.0001 Ry au
 
        Potential amp.        0.0060 Ry
        Total length         45.0992 bohr
 

     total cpu time spent up to now is      424.3 secs

     End of self-consistent calculation

          k = 0.0000 0.0000 0.0000 ( 16073 PWs)   bands (ev):

   -64.8733 -64.7338 -64.7179 -64.6985 -64.6685 -64.6070 -64.5624 -64.5388
   -64.5206 -64.4866 -64.4848 -64.4834 -37.3103 -37.3015 -37.2960 -37.1938
   -37.1481 -37.1270 -37.1258 -37.0063 -36.9931 -36.9867 -36.6901 -36.6578
   -36.6534 -36.6353 -36.5822 -36.5806 -36.5723 -36.5666 -36.5574 -36.5493
   -36.4220 -36.4134 -36.4054 -36.3562 -36.3447 -36.3412 -36.3395 -36.3369
   -36.3321 -36.2743 -36.2732 -36.2724 -36.1377 -36.1317 -36.0782 -36.0780
    -4.2420  -3.3583  -2.7970  -2.7903  -2.7796  -2.6865  -2.4374  -2.3579
    -2.3519  -2.2736  -2.1641  -2.1614  -1.9327  -1.8394  -1.8165  -1.2915
    -0.6549  -0.6404  -0.1378   0.1680   0.1716   0.2973   0.4480   0.7233
     0.7279   0.9044   1.0456   1.0845   1.1186   1.1257   1.1834   1.2922
     1.3235   1.6409   1.6736   1.7220   2.4979   2.7360   2.7659   2.7676
     2.7925   2.8125   3.1191   3.1245   3.1928   3.5858   3.6109   3.9722
     4.1077   4.1485   4.4042   4.4370

          k = 0.0000 0.0351 0.0000 ( 16137 PWs)   bands (ev):

   -64.8634 -64.7338 -64.7275 -64.6991 -64.6608 -64.5990 -64.5624 -64.5465
   -64.5207 -64.4936 -64.4848 -64.4848 -37.2782 -37.2630 -37.2456 -37.1751
   -37.1219 -37.1003 -37.0918 -36.9766 -36.9555 -36.9373 -36.6974 -36.6818
   -36.6727 -36.6614 -36.6279 -36.6055 -36.5648 -36.5370 -36.5361 -36.5197
   -36.4341 -36.4236 -36.4046 -36.3933 -36.3642 -36.3576 -36.3556 -36.3524
   -36.3327 -36.3069 -36.3043 -36.2609 -36.1867 -36.1504 -36.1359 -36.0913
    -4.0173  -3.2132  -2.6623  -2.5844  -2.5720  -2.4498  -2.3072  -2.1783
    -2.1737  -2.1147  -2.0444  -2.0065  -1.8176  -1.5941  -1.5646  -1.2193
    -0.6049  -0.5532  -0.1301   0.2334   0.2639   0.2731   0.4322   0.5292
     0.6998   0.8800   0.9304   0.9348   1.1056   1.1864   1.1974   1.2317
     1.4812   1.5018   1.5616   1.6019   2.1101   2.3727   2.4803   2.5378
     2.7196   2.7262   2.7626   2.9794   2.9802   3.4169   3.6071   3.6339
     3.7692   3.9269   4.0762   4.0882

          k = 0.0000 0.0702 0.0000 ( 16149 PWs)   bands (ev):

   -64.8368 -64.7545 -64.7339 -64.6996 -64.6403 -64.5774 -64.5663 -64.5624
   -64.5207 -64.5160 -64.4850 -64.4848 -37.1993 -37.1801 -37.1252 -37.0942
   -37.0628 -37.0432 -37.0360 -36.9070 -36.8809 -36.7855 -36.7597 -36.7503
   -36.7343 -36.6864 -36.6239 -36.6046 -36.5280 -36.5259 -36.5175 -36.5057
   -36.4977 -36.4813 -36.4759 -36.4131 -36.4100 -36.4069 -36.4046 -36.3734
   -36.3676 -36.3560 -36.3297 -36.3024 -36.2634 -36.2262 -36.1828 -36.1275
    -3.4882  -2.8667  -2.3898  -2.1022  -2.1010  -2.0069  -1.8628  -1.7208
    -1.7085  -1.6955  -1.6294  -1.5848  -1.4827  -1.0976  -0.9360  -0.8693
    -0.5238  -0.3644  -0.3049  -0.1253   0.1258   0.3449   0.3899   0.4157
     0.5079   0.6123   0.6899   0.9116   1.0138   1.1038   1.1040   1.2480
     1.3673   1.4623   1.5615   1.5848   1.7059   1.7722   1.9004   2.1075
     2.1345   2.1887   2.3477   2.3800   2.3939   2.7398   2.8215   2.8324
     3.2431   3.4024   3.4179   3.5659

          k = 0.0000-0.1053 0.0000 ( 16164 PWs)   bands (ev):

   -64.8108 -64.7809 -64.7339 -64.6997 -64.6233 -64.5839 -64.5624 -64.5472
   -64.5458 -64.5208 -64.4850 -64.4848 -37.1449 -37.1205 -37.0725 -37.0523
   -37.0297 -37.0116 -36.9016 -36.8811 -36.8563 -36.8381 -36.8166 -36.8125
   -36.5998 -36.5970 -36.5952 -36.5830 -36.5661 -36.5581 -36.5359 -36.5226
   -36.5210 -36.5051 -36.4991 -36.4883 -36.4752 -36.4563 -36.4545 -36.4511
   -36.3822 -36.3662 -36.3397 -36.3273 -36.2762 -36.2115 -36.1778 -36.1746
    -3.1886  -2.5118  -2.3610  -1.8157  -1.7853  -1.7615  -1.6708  -1.4957
    -1.4180  -1.3185  -1.1511  -1.0900  -1.0495  -0.8832  -0.7713  -0.7342
    -0.5744  -0.2643  -0.2043  -0.1095  -0.0786  -0.0392   0.0773   0.4074
     0.4624   0.7620   0.8227   0.8686   0.9432   1.0097   1.0211   1.0476
     1.1270   1.1718   1.2087   1.2192   1.3759   1.3853   1.5602   1.5690
     2.0102   2.2553   2.2916   2.3207   2.3730   2.3787   2.7722   2.7912
     2.8221   3.0043   3.0293   3.1208

          k = 0.0304-0.0175 0.0000 ( 16137 PWs)   bands (ev):

   -64.8633 -64.7399 -64.7182 -64.7026 -64.6605 -64.5990 -64.5669 -64.5387
   -64.5243 -64.4934 -64.4860 -64.4838 -37.2727 -37.2688 -37.2452 -37.1748
   -37.1153 -37.1010 -37.0956 -36.9700 -36.9624 -36.9375 -36.6962 -36.6851
   -36.6685 -36.6627 -36.6225 -36.6175 -36.5615 -36.5394 -36.5287 -36.5237
   -36.4331 -36.4285 -36.4033 -36.3960 -36.3698 -36.3594 -36.3566 -36.3498
   -36.3223 -36.3060 -36.3052 -36.2603 -36.1908 -36.1468 -36.1357 -36.0915
    -4.0022  -3.1752  -2.6587  -2.5892  -2.5699  -2.4498  -2.2695  -2.2319
    -2.1756  -2.1221  -2.0378  -2.0088  -1.7478  -1.6847  -1.5756  -1.1929
    -0.6187  -0.5739  -0.1603   0.2346   0.2655   0.2739   0.4395   0.5498
     0.6332   0.8825   0.9247   0.9465   1.1099   1.1838   1.1996   1.2264
     1.4524   1.5057   1.5684   1.5971   2.1212   2.3571   2.4232   2.5998
     2.7145   2.7314   2.7790   2.9828   2.9961   3.4853   3.6076   3.6335
     3.7590   3.8761   4.0312   4.1008

          k = 0.0304 0.0175 0.0000 ( 16137 PWs)   bands (ev):

   -64.8633 -64.7399 -64.7182 -64.7026 -64.6605 -64.5990 -64.5669 -64.5387
   -64.5243 -64.4934 -64.4860 -64.4838 -37.2727 -37.2688 -37.2452 -37.1748
   -37.1153 -37.1010 -37.0956 -36.9700 -36.9624 -36.9375 -36.6962 -36.6851
   -36.6685 -36.6627 -36.6226 -36.6175 -36.5615 -36.5394 -36.5287 -36.5237
   -36.4331 -36.4285 -36.4033 -36.3960 -36.3698 -36.3594 -36.3566 -36.3498
   -36.3223 -36.3060 -36.3052 -36.2603 -36.1908 -36.1468 -36.1357 -36.0915
    -4.0022  -3.1752  -2.6587  -2.5892  -2.5699  -2.4498  -2.2695  -2.2319
    -2.1756  -2.1221  -2.0378  -2.0089  -1.7478  -1.6847  -1.5756  -1.1929
    -0.6187  -0.5739  -0.1603   0.2346   0.2655   0.2739   0.4395   0.5498
     0.6332   0.8825   0.9247   0.9465   1.1099   1.1838   1.1995   1.2265
     1.4524   1.5057   1.5685   1.5971   2.1212   2.3571   2.4232   2.5998
     2.7145   2.7314   2.7790   2.9828   2.9961   3.4853   3.6076   3.6335
     3.7590   3.8760   4.0311   4.1008

          k = 0.0304 0.0526 0.0000 ( 16202 PWs)   bands (ev):

   -64.8449 -64.7448 -64.7354 -64.6994 -64.6462 -64.5841 -64.5693 -64.5526
   -64.5221 -64.5016 -64.4993 -64.4777 -37.2294 -37.1695 -37.1678 -37.1404
   -37.0735 -37.0544 -37.0492 -36.9335 -36.8670 -36.8625 -36.7507 -36.7195
   -36.7078 -36.7026 -36.6366 -36.5727 -36.5676 -36.5288 -36.5196 -36.5086
   -36.4864 -36.4647 -36.4234 -36.4193 -36.4104 -36.4042 -36.3834 -36.3700
   -36.3403 -36.3289 -36.2833 -36.2771 -36.2767 -36.2267 -36.1766 -36.1205
    -3.6033  -2.9260  -2.3509  -2.3264  -2.2065  -2.0398  -2.0173  -1.9965
    -1.8425  -1.8181  -1.7608  -1.6790  -1.5300  -1.3299  -1.1089  -0.9872
    -0.5466  -0.4535  -0.2422   0.0036   0.2028   0.3400   0.3908   0.4284
     0.4558   0.6323   0.8746   0.9060   1.0188   1.0329   1.2806   1.2923
     1.3035   1.3512   1.4916   1.7553   1.9067   1.9474   1.9574   2.0546
     2.3982   2.5193   2.5398   2.5638   2.6409   2.6537   2.7206   3.0562
     3.4029   3.4798   3.6683   3.7845

          k = 0.0304-0.1228 0.0000 ( 16203 PWs)   bands (ev):

   -64.8150 -64.7665 -64.7478 -64.6960 -64.6245 -64.5746 -64.5714 -64.5574
   -64.5272 -64.5200 -64.5045 -64.4735 -37.1451 -37.0841 -37.0837 -37.0325
   -37.0223 -37.0088 -36.9943 -36.9077 -36.8381 -36.8123 -36.7881 -36.7404
   -36.6965 -36.6616 -36.6519 -36.5822 -36.5580 -36.5474 -36.5293 -36.5191
   -36.5126 -36.5052 -36.4981 -36.4704 -36.4578 -36.4373 -36.4202 -36.4176
   -36.3696 -36.3620 -36.3159 -36.3107 -36.3005 -36.2302 -36.2192 -36.1712
    -3.1276  -2.5137  -2.1510  -1.8033  -1.7940  -1.7008  -1.6535  -1.5028
    -1.4103  -1.3344  -1.3205  -1.1748  -1.0509  -0.9377  -0.7845  -0.6626
    -0.5808  -0.3292  -0.3246  -0.1788  -0.0533   0.0628   0.1327   0.2548
     0.3493   0.6181   0.6880   0.7117   0.7821   0.8630   0.9145   0.9898
     1.0489   1.1959   1.2347   1.3634   1.5236   1.5941   1.6740   1.7161
     1.7810   2.1681   2.3060   2.3534   2.4281   2.5288   2.6236   2.6884
     2.8411   3.0672   3.1839   3.3744

          k = 0.0304-0.0877 0.0000 ( 16203 PWs)   bands (ev):

   -64.8150 -64.7665 -64.7478 -64.6960 -64.6245 -64.5746 -64.5714 -64.5574
   -64.5272 -64.5200 -64.5044 -64.4735 -37.1451 -37.0842 -37.0836 -37.0325
   -37.0223 -37.0088 -36.9943 -36.9077 -36.8381 -36.8123 -36.7881 -36.7404
   -36.6965 -36.6616 -36.6519 -36.5822 -36.5580 -36.5474 -36.5293 -36.5191
   -36.5126 -36.5053 -36.4981 -36.4704 -36.4578 -36.4373 -36.4202 -36.4176
   -36.3696 -36.3620 -36.3159 -36.3107 -36.3005 -36.2302 -36.2192 -36.1712
    -3.1276  -2.5137  -2.1510  -1.8033  -1.7940  -1.7008  -1.6535  -1.5028
    -1.4103  -1.3344  -1.3205  -1.1748  -1.0509  -0.9377  -0.7845  -0.6626
    -0.5808  -0.3292  -0.3246  -0.1788  -0.0533   0.0628   0.1327   0.2548
     0.3493   0.6181   0.6880   0.7117   0.7821   0.8630   0.9145   0.9898
     1.0489   1.1959   1.2347   1.3634   1.5236   1.5941   1.6740   1.7161
     1.7810   2.1681   2.3060   2.3534   2.4281   2.5288   2.6236   2.6884
     2.8411   3.0672   3.1839   3.3744

          k = 0.0304-0.0526 0.0000 ( 16202 PWs)   bands (ev):

   -64.8449 -64.7448 -64.7354 -64.6994 -64.6462 -64.5841 -64.5693 -64.5526
   -64.5221 -64.5016 -64.4993 -64.4777 -37.2294 -37.1695 -37.1678 -37.1404
   -37.0735 -37.0544 -37.0492 -36.9335 -36.8670 -36.8625 -36.7507 -36.7195
   -36.7078 -36.7026 -36.6366 -36.5727 -36.5676 -36.5288 -36.5196 -36.5086
   -36.4864 -36.4647 -36.4234 -36.4192 -36.4104 -36.4042 -36.3834 -36.3700
   -36.3403 -36.3289 -36.2833 -36.2771 -36.2767 -36.2267 -36.1766 -36.1205
    -3.6033  -2.9260  -2.3509  -2.3264  -2.2065  -2.0398  -2.0173  -1.9965
    -1.8425  -1.8181  -1.7609  -1.6790  -1.5300  -1.3299  -1.1089  -0.9872
    -0.5466  -0.4535  -0.2422   0.0036   0.2028   0.3399   0.3908   0.4284
     0.4558   0.6323   0.8746   0.9060   1.0188   1.0329   1.2806   1.2923
     1.3035   1.3512   1.4916   1.7553   1.9067   1.9474   1.9574   2.0546
     2.3982   2.5193   2.5398   2.5638   2.6409   2.6537   2.7206   3.0562
     3.4029   3.4797   3.6683   3.7845

          k = 0.0608-0.0351 0.0000 ( 16149 PWs)   bands (ev):

   -64.8360 -64.7625 -64.7187 -64.7077 -64.6386 -64.5826 -64.5770 -64.5381
   -64.5308 -64.5158 -64.4860 -64.4838 -37.1905 -37.1876 -37.1245 -37.0951
   -37.0500 -37.0429 -37.0397 -36.8955 -36.8893 -36.7933 -36.7558 -36.7532
   -36.7344 -36.6888 -36.6199 -36.6153 -36.5343 -36.5212 -36.5153 -36.5088
   -36.4998 -36.4840 -36.4783 -36.4246 -36.4104 -36.4052 -36.3984 -36.3747
   -36.3622 -36.3593 -36.3307 -36.2856 -36.2636 -36.2251 -36.1842 -36.1277
    -3.3775  -2.7499  -2.3823  -2.1085  -2.0922  -2.0585  -1.9053  -1.7318
    -1.7056  -1.6967  -1.6267  -1.5890  -1.4411  -1.2769  -0.9448  -0.8571
    -0.5301  -0.4562  -0.3061  -0.1297   0.0433   0.3510   0.3739   0.4129
     0.4944   0.6066   0.7004   0.9144   1.0274   1.0937   1.1080   1.2110
     1.3763   1.4647   1.5425   1.5726   1.7444   1.7560   1.9033   2.0980
     2.1536   2.1765   2.3212   2.3748   2.3929   2.7522   2.8284   2.9439
     3.2761   3.4001   3.4105   3.5621

          k = 0.0608 0.0000 0.0000 ( 16202 PWs)   bands (ev):

   -64.8445 -64.7532 -64.7223 -64.7046 -64.6453 -64.5840 -64.5775 -64.5372
   -64.5301 -64.5009 -64.5001 -64.4776 -37.2272 -37.1737 -37.1654 -37.1400
   -37.0607 -37.0581 -37.0526 -36.9276 -36.8809 -36.8555 -36.7529 -36.7183
   -36.7080 -36.7029 -36.6385 -36.5736 -36.5693 -36.5311 -36.5216 -36.5079
   -36.4920 -36.4665 -36.4313 -36.4130 -36.4097 -36.3994 -36.3834 -36.3685
   -36.3384 -36.3231 -36.2880 -36.2780 -36.2763 -36.2268 -36.1729 -36.1207
    -3.5511  -2.8409  -2.3463  -2.3205  -2.2185  -2.0339  -2.0179  -2.0127
    -1.8650  -1.8167  -1.7646  -1.6992  -1.4312  -1.3416  -1.2916  -0.9664
    -0.5836  -0.4510  -0.2749  -0.0474   0.1965   0.3401   0.3936   0.4259
     0.4563   0.6557   0.8628   0.9127   1.0121   1.0194   1.2796   1.2941
     1.3006   1.3395   1.4073   1.7845   1.8559   1.9444   1.9816   2.0675
     2.4295   2.4901   2.5554   2.6231   2.6369   2.6606   2.7204   3.0852
     3.4464   3.4900   3.6516   3.7579

          k = 0.0608 0.0351 0.0000 ( 16149 PWs)   bands (ev):

   -64.8360 -64.7625 -64.7187 -64.7077 -64.6386 -64.5826 -64.5770 -64.5381
   -64.5308 -64.5158 -64.4861 -64.4838 -37.1906 -37.1875 -37.1245 -37.0951
   -37.0500 -37.0429 -37.0397 -36.8955 -36.8893 -36.7933 -36.7558 -36.7532
   -36.7344 -36.6888 -36.6199 -36.6153 -36.5343 -36.5212 -36.5153 -36.5088
   -36.4998 -36.4839 -36.4783 -36.4246 -36.4104 -36.4052 -36.3984 -36.3747
   -36.3622 -36.3593 -36.3307 -36.2856 -36.2636 -36.2251 -36.1842 -36.1277
    -3.3775  -2.7499  -2.3823  -2.1085  -2.0922  -2.0585  -1.9053  -1.7318
    -1.7056  -1.6967  -1.6267  -1.5890  -1.4411  -1.2769  -0.9448  -0.8571
    -0.5301  -0.4562  -0.3061  -0.1297   0.0433   0.3510   0.3739   0.4129
     0.4944   0.6066   0.7004   0.9144   1.0274   1.0937   1.1080   1.2110
     1.3763   1.4647   1.5425   1.5726   1.7444   1.7560   1.9033   2.0980
     2.1536   2.1765   2.3212   2.3748   2.3929   2.7522   2.8284   2.9439
     3.2761   3.4001   3.4105   3.5621

          k = 0.0608-0.1404 0.0000 ( 16203 PWs)   bands (ev):

   -64.8132 -64.7747 -64.7393 -64.6983 -64.6214 -64.5907 -64.5588 -64.5536
   -64.5277 -64.5228 -64.5046 -64.4735 -37.1430 -37.0855 -37.0824 -37.0365
   -37.0137 -37.0057 -36.9957 -36.9081 -36.8286 -36.8131 -36.7902 -36.7426
   -36.7126 -36.6583 -36.6529 -36.5830 -36.5592 -36.5523 -36.5300 -36.5205
   -36.5100 -36.5041 -36.4974 -36.4725 -36.4620 -36.4358 -36.4207 -36.4172
   -36.3690 -36.3647 -36.3158 -36.3106 -36.2816 -36.2285 -36.2269 -36.1714
    -2.9703  -2.4767  -2.1747  -1.8071  -1.7939  -1.7625  -1.6393  -1.5533
    -1.4079  -1.3382  -1.3192  -1.2211  -1.0448  -0.9427  -0.8681  -0.6568
    -0.5942  -0.3345  -0.3253  -0.2162  -0.0468   0.0608   0.0907   0.2516
     0.3781   0.6032   0.6527   0.7206   0.7909   0.8604   0.9304   0.9771
     1.0576   1.1298   1.2757   1.3628   1.5503   1.5868   1.6664   1.7291
     1.7815   2.1840   2.3148   2.3506   2.4117   2.5638   2.6324   2.7008
     2.8444   3.0652   3.1949   3.3846

          k = 0.0608-0.1053 0.0000 ( 16272 PWs)   bands (ev):

   -64.7917 -64.7800 -64.7603 -64.6936 -64.6080 -64.5941 -64.5680 -64.5333
   -64.5307 -64.5299 -64.5198 -64.4693 -37.0436 -37.0404 -37.0385 -37.0327
   -37.0216 -36.9650 -36.9512 -36.9453 -36.9404 -36.7632 -36.7358 -36.6912
   -36.6876 -36.6691 -36.6666 -36.6296 -36.6215 -36.6210 -36.5239 -36.5201
   -36.5121 -36.4977 -36.4851 -36.4813 -36.4771 -36.4720 -36.4535 -36.3816
   -36.3683 -36.3613 -36.3193 -36.2939 -36.2800 -36.2443 -36.2434 -36.2404
    -2.7651  -2.0115  -2.0054  -1.9570  -1.4091  -1.3951  -1.3928  -1.3867
    -1.3271  -1.1257  -0.9925  -0.9803  -0.9764  -0.9308  -0.9272  -0.8855
    -0.4122  -0.4049  -0.0856  -0.0801  -0.0654   0.0676   0.0773   0.0889
     0.1616   0.1800   0.2785   0.3379   0.3419   0.5629   0.7026   0.8884
     0.9587   0.9885   1.1953   1.3272   1.3369   1.4964   1.5111   1.5188
     1.8488   2.0715   2.0899   2.4285   2.5741   2.6041   2.6632   2.6891
     2.9924   3.1191   3.1301   3.7162

          k = 0.0608-0.0702 0.0000 ( 16203 PWs)   bands (ev):

   -64.8132 -64.7747 -64.7393 -64.6983 -64.6214 -64.5907 -64.5588 -64.5536
   -64.5277 -64.5228 -64.5046 -64.4735 -37.1430 -37.0855 -37.0824 -37.0365
   -37.0137 -37.0057 -36.9957 -36.9081 -36.8286 -36.8131 -36.7902 -36.7426
   -36.7126 -36.6583 -36.6529 -36.5830 -36.5592 -36.5523 -36.5300 -36.5205
   -36.5100 -36.5041 -36.4974 -36.4725 -36.4620 -36.4358 -36.4207 -36.4172
   -36.3690 -36.3647 -36.3158 -36.3106 -36.2816 -36.2285 -36.2269 -36.1714
    -2.9703  -2.4767  -2.1747  -1.8071  -1.7939  -1.7625  -1.6393  -1.5533
    -1.4079  -1.3382  -1.3192  -1.2211  -1.0448  -0.9427  -0.8681  -0.6568
    -0.5942  -0.3345  -0.3253  -0.2162  -0.0468   0.0608   0.0907   0.2516
     0.3781   0.6032   0.6527   0.7206   0.7909   0.8604   0.9304   0.9771
     1.0576   1.1298   1.2757   1.3628   1.5503   1.5868   1.6664   1.7291
     1.7815   2.1840   2.3148   2.3506   2.4117   2.5638   2.6323   2.7008
     2.8444   3.0652   3.1949   3.3846

          k =-0.0912 0.0526 0.0000 ( 16164 PWs)   bands (ev):

   -64.8007 -64.7965 -64.7190 -64.7092 -64.6103 -64.6086 -64.5481 -64.5457
   -64.5373 -64.5332 -64.4861 -64.4838 -37.1336 -37.1302 -37.0649 -37.0618
   -37.0137 -37.0102 -36.8954 -36.8907 -36.8424 -36.8356 -36.8206 -36.8190
   -36.6333 -36.6077 -36.5915 -36.5876 -36.5667 -36.5576 -36.5391 -36.5245
   -36.5137 -36.5048 -36.4959 -36.4917 -36.4644 -36.4633 -36.4519 -36.4512
   -36.3768 -36.3721 -36.3344 -36.3319 -36.2370 -36.2332 -36.1781 -36.1752
    -2.8210  -2.5180  -2.4016  -1.8268  -1.7723  -1.7685  -1.7596  -1.5014
    -1.4795  -1.3261  -1.2360  -1.0934  -1.0669  -0.9009  -0.8335  -0.7373
    -0.7126  -0.2666  -0.2312  -0.0959  -0.0843  -0.0455   0.0204   0.4032
     0.4600   0.7412   0.7831   0.8722   0.8869   1.0121   1.0239   1.0802
     1.1334   1.1715   1.1953   1.2371   1.3541   1.3894   1.5682   1.5712
     2.1186   2.2471   2.3064   2.3147   2.3440   2.3833   2.7261   2.7885
     2.9419   3.0230   3.0645   3.1504

          k =-0.0912 0.0877 0.0000 ( 16203 PWs)   bands (ev):

   -64.8121 -64.7780 -64.7357 -64.6997 -64.6194 -64.5956 -64.5578 -64.5495
   -64.5271 -64.5255 -64.5046 -64.4735 -37.1420 -37.0851 -37.0825 -37.0381
   -37.0133 -37.0018 -36.9944 -36.9084 -36.8227 -36.8191 -36.7926 -36.7404
   -36.7041 -36.6726 -36.6518 -36.5947 -36.5613 -36.5488 -36.5277 -36.5172
   -36.5104 -36.5045 -36.4980 -36.4709 -36.4596 -36.4376 -36.4192 -36.4168
   -36.3679 -36.3649 -36.3155 -36.3114 -36.2824 -36.2284 -36.2246 -36.1715
    -2.8804  -2.4786  -2.1745  -1.8087  -1.7982  -1.7696  -1.6558  -1.5599
    -1.4071  -1.3331  -1.3211  -1.2171  -1.0510  -0.9390  -0.8965  -0.7130
    -0.6016  -0.3358  -0.3243  -0.2728  -0.0161   0.0581   0.0880   0.2449
     0.3405   0.6123   0.6506   0.7224   0.7981   0.8646   0.9169   0.9831
     1.0618   1.1727   1.3118   1.3364   1.5080   1.5823   1.6521   1.7304
     1.7860   2.1772   2.3182   2.3694   2.4405   2.5408   2.6383   2.6988
     2.8168   3.0680   3.2698   3.3791

          k =-0.0912 0.1228 0.0000 ( 16203 PWs)   bands (ev):

   -64.8121 -64.7780 -64.7357 -64.6997 -64.6194 -64.5956 -64.5578 -64.5495
   -64.5271 -64.5255 -64.5046 -64.4735 -37.1420 -37.0851 -37.0825 -37.0381
   -37.0133 -37.0018 -36.9944 -36.9084 -36.8227 -36.8191 -36.7926 -36.7404
   -36.7041 -36.6726 -36.6518 -36.5947 -36.5613 -36.5488 -36.5277 -36.5172
   -36.5104 -36.5045 -36.4980 -36.4709 -36.4596 -36.4376 -36.4192 -36.4168
   -36.3679 -36.3649 -36.3155 -36.3114 -36.2825 -36.2284 -36.2246 -36.1715
    -2.8804  -2.4786  -2.1745  -1.8087  -1.7982  -1.7696  -1.6558  -1.5599
    -1.4071  -1.3331  -1.3211  -1.2171  -1.0510  -0.9390  -0.8965  -0.7130
    -0.6016  -0.3358  -0.3243  -0.2727  -0.0161   0.0581   0.0880   0.2449
     0.3405   0.6123   0.6506   0.7224   0.7981   0.8646   0.9169   0.9831
     1.0618   1.1727   1.3118   1.3364   1.5080   1.5823   1.6521   1.7304
     1.7860   2.1772   2.3182   2.3694   2.4405   2.5408   2.6383   2.6988
     2.8168   3.0680   3.2698   3.3791

          k =-0.0912-0.0526 0.0000 ( 16164 PWs)   bands (ev):

   -64.8008 -64.7965 -64.7190 -64.7092 -64.6102 -64.6086 -64.5481 -64.5456
   -64.5373 -64.5333 -64.4861 -64.4838 -37.1336 -37.1302 -37.0649 -37.0618
   -37.0137 -37.0102 -36.8954 -36.8907 -36.8424 -36.8356 -36.8206 -36.8190
   -36.6332 -36.6077 -36.5915 -36.5876 -36.5667 -36.5576 -36.5391 -36.5245
   -36.5137 -36.5048 -36.4959 -36.4917 -36.4645 -36.4632 -36.4519 -36.4512
   -36.3768 -36.3721 -36.3344 -36.3319 -36.2370 -36.2332 -36.1781 -36.1752
    -2.8210  -2.5180  -2.4016  -1.8268  -1.7722  -1.7685  -1.7596  -1.5014
    -1.4795  -1.3261  -1.2360  -1.0934  -1.0669  -0.9010  -0.8335  -0.7373
    -0.7126  -0.2666  -0.2312  -0.0959  -0.0843  -0.0455   0.0204   0.4032
     0.4600   0.7412   0.7831   0.8722   0.8869   1.0121   1.0239   1.0802
     1.1334   1.1715   1.1954   1.2371   1.3541   1.3894   1.5683   1.5712
     2.1186   2.2471   2.3064   2.3147   2.3440   2.3833   2.7261   2.7885
     2.9419   3.0230   3.0645   3.1504

     the Fermi energy is     2.4132 ev

!    total energy              =   -2104.55227711 Ry
     Harris-Foulkes estimate   =   -2104.55228054 Ry
     estimated scf accuracy    <       0.00000504 Ry

     The total energy is the sum of the following terms:

     one-electron contribution =  -18662.16815908 Ry
     hartree contribution      =    9329.73367040 Ry
     xc contribution           =    -397.65239418 Ry
     ewald contribution        =    7625.62879952 Ry
     electric field correction =       0.00000151 Ry
     smearing contrib. (-TS)   =      -0.09419529 Ry

     convergence has been achieved in  23 iterations
 
 BEEF-vdW xc energy contributions
           1 :   -348.460328312748     
           2 :    320.416487833110     
           3 :   -270.508826663452     
           4 :    208.738304273122     
           5 :   -145.820807846235     
           6 :    90.1965402252395     
           7 :   -46.3573924612907     
           8 :    14.7366426523448     
           9 :    7.01970212103686     
          10 :   -22.2011351734757     
          11 :    33.3625057152283     
          12 :   -41.4767038494887     
          13 :    46.0155729197883     
          14 :   -45.7666666622715     
          15 :    39.8824383051392     
          16 :   -28.6912660005115     
          17 :    13.9255377258162     
          18 :    1.67330150673206     
          19 :   -15.1795209054837     
          20 :    24.3562987790289     
          21 :   -28.2293695989913     
          22 :    27.1518650935823     
          23 :   -22.4065271131643     
          24 :    15.5727668281357     
          25 :   -7.97008202181667     
          26 :   0.394433830639969     
          27 :    6.79993432939682     
          28 :   -13.4052925759231     
          29 :    19.0626135949242     
          30 :   -23.1465717501374     
          31 :   -33.1200988970659     
          32 :   -24.3012015555673     

     Forces acting on atoms (Ry/au):


     negative rho (up, down):  1.589E+00 0.000E+00
     atom    1 type  1   force =     0.00000672    0.00084605    0.02720280
     atom    2 type  1   force =    -0.00000993   -0.00089179    0.02827844
     atom    3 type  1   force =    -0.00169599    0.00120717    0.02907890
     atom    4 type  1   force =     0.00170041    0.00121672    0.02908999
     atom    5 type  1   force =     0.00017883   -0.00065724    0.00217704
     atom    6 type  1   force =    -0.00018054   -0.00065517    0.00217343
     atom    7 type  1   force =     0.00000319   -0.00833430   -0.02465420
     atom    8 type  1   force =    -0.00000075    0.00012519    0.00731393
     atom    9 type  1   force =    -0.00433223    0.00401197   -0.00959832
     atom   10 type  1   force =     0.00433238    0.00401198   -0.00959000
     atom   11 type  1   force =     0.00000099    0.00515189   -0.02804178
     atom   12 type  1   force =    -0.00000293   -0.00727040   -0.03250394
     atom   13 type  2   force =    -0.00000015    0.00123793   -0.02092629

     Total force =     0.051142     Total SCF correction =     0.010827
     SCF correction compared to forces is large: reduce conv_thr to get better values


     entering subroutine stress ...


     negative rho (up, down):  1.589E+00 0.000E+00
          total   stress  (Ry/bohr**3)                   (kbar)     P=  -35.05
  -0.00023812   0.00000001  -0.00000000        -35.03      0.00     -0.00
   0.00000001  -0.00023536   0.00000544          0.00    -34.62      0.80
  -0.00000000   0.00000544  -0.00024128         -0.00      0.80    -35.49


     BFGS Geometry Optimization

     number of scf cycles    =   1
     number of bfgs steps    =   0

     energy   new            =   -2104.5522771112 Ry

     new trust radius        =       0.0333071287 bohr
     new conv_thr            =       0.0000099958 Ry


ATOMIC_POSITIONS (crystal)
Tc1      0.166666667   0.166666667   0.408540475    0   0   0
Tc1      0.666666667   0.166666667   0.408540475    0   0   0
Tc1      0.166666667   0.666666667   0.408540475    0   0   0
Tc1      0.666666667   0.666666667   0.408540475    0   0   0
Tc1      0.833333333   0.333333333   0.500000000    0   0   0
Tc1      0.333333333   0.333333333   0.500000000    0   0   0
Tc1      0.833333333   0.833333333   0.500000000    0   0   0
Tc1      0.333333333   0.833333333   0.500000000    0   0   0
Tc1     -0.000641590   0.000447053   0.591252019
Tc1      0.500194551   0.000447054   0.591252199
Tc1     -0.000286942   0.500574074   0.590853289
Tc1      0.500404787   0.499189861   0.590756822
H1       0.249931014   0.000137943   0.645547272



     Writing output data file calc.save
     Check: negative starting charge=   -1.504997
     NEW-OLD atomic charge density approx. for the potential

     Check: negative/imaginary core charge=   -0.000022    0.000000
     Check: negative starting charge=   -1.508211

     negative rho (up, down):  1.591E+00 0.000E+00
 
     Adding external electric field

     Computed dipole along edir(3) : 
        Dipole               -0.1025 Ry au,         -0.2604 Debye
        Dipole field         -0.0003 Ry au
 
        Potential amp.        0.0270 Ry
        Total length         45.0992 bohr
 

     total cpu time spent up to now is      478.1 secs

     per-process dynamical memory:   100.2 Mb

     Self-consistent Calculation

     iteration #  1     ecut=    36.75 Ry     beta=0.30
     Davidson diagonalization with overlap
     ethr =  1.00E-06,  avg # of iterations = 11.4

     negative rho (up, down):  1.591E+00 0.000E+00
 
     Adding external electric field

     Computed dipole along edir(3) : 
        Dipole                1.6980 Ry au,          4.3159 Debye
        Dipole field          0.0050 Ry au
 
        Potential amp.       -0.4474 Ry
        Total length         45.0992 bohr
 

     total cpu time spent up to now is      507.9 secs

     total energy              =   -2104.32842625 Ry
     Harris-Foulkes estimate   =   -2104.55288838 Ry
     estimated scf accuracy    <       0.46058448 Ry

     iteration #  2     ecut=    36.75 Ry     beta=0.30
     Davidson diagonalization with overlap
     ethr =  2.54E-04,  avg # of iterations =  8.1

     negative rho (up, down):  1.591E+00 0.000E+00
 
     Adding external electric field

     Computed dipole along edir(3) : 
        Dipole               -0.0044 Ry au,         -0.0111 Debye
        Dipole field         -0.0000 Ry au
 
        Potential amp.        0.0012 Ry
        Total length         45.0992 bohr
 

     total cpu time spent up to now is      532.8 secs

     total energy              =   -2101.78263542 Ry
     Harris-Foulkes estimate   =   -2107.73054633 Ry
     estimated scf accuracy    <     249.57846951 Ry

     iteration #  3     ecut=    36.75 Ry     beta=0.30
     Davidson diagonalization with overlap
     ethr =  2.54E-04,  avg # of iterations =  6.2

     negative rho (up, down):  1.591E+00 0.000E+00
 
     Adding external electric field

     Computed dipole along edir(3) : 
        Dipole                0.0012 Ry au,          0.0031 Debye
        Dipole field          0.0000 Ry au
 
        Potential amp.       -0.0003 Ry
        Total length         45.0992 bohr
 

     total cpu time spent up to now is      555.5 secs

     total energy              =   -2104.52467583 Ry
     Harris-Foulkes estimate   =   -2104.58697536 Ry
     estimated scf accuracy    <       0.74248713 Ry

     iteration #  4     ecut=    36.75 Ry     beta=0.30
     Davidson diagonalization with overlap
     ethr =  2.54E-04,  avg # of iterations =  3.0

     negative rho (up, down):  1.591E+00 0.000E+00
 
     Adding external electric field

     Computed dipole along edir(3) : 
        Dipole               -0.0054 Ry au,         -0.0138 Debye
        Dipole field         -0.0000 Ry au
 
        Potential amp.        0.0014 Ry
        Total length         45.0992 bohr
 

     total cpu time spent up to now is      570.8 secs

     total energy              =   -2104.54864464 Ry
     Harris-Foulkes estimate   =   -2104.54990281 Ry
     estimated scf accuracy    <       0.02327322 Ry

     iteration #  5     ecut=    36.75 Ry     beta=0.30
     Davidson diagonalization with overlap
     ethr =  1.29E-05,  avg # of iterations =  6.5

     negative rho (up, down):  1.591E+00 0.000E+00
 
     Adding external electric field

     Computed dipole along edir(3) : 
        Dipole               -0.0083 Ry au,         -0.0210 Debye
        Dipole field         -0.0000 Ry au
 
        Potential amp.        0.0022 Ry
        Total length         45.0992 bohr
 

     total cpu time spent up to now is      591.0 secs

     total energy              =   -2104.55480629 Ry
     Harris-Foulkes estimate   =   -2104.55500530 Ry
     estimated scf accuracy    <       0.00465483 Ry

     iteration #  6     ecut=    36.75 Ry     beta=0.30
     Davidson diagonalization with overlap
     ethr =  2.57E-06,  avg # of iterations =  1.9

     negative rho (up, down):  1.591E+00 0.000E+00
 
     Adding external electric field

     Computed dipole along edir(3) : 
        Dipole               -0.0075 Ry au,         -0.0191 Debye
        Dipole field         -0.0000 Ry au
 
        Potential amp.        0.0020 Ry
        Total length         45.0992 bohr
 

     total cpu time spent up to now is      606.4 secs

     total energy              =   -2104.55471725 Ry
     Harris-Foulkes estimate   =   -2104.55489498 Ry
     estimated scf accuracy    <       0.00332176 Ry

     iteration #  7     ecut=    36.75 Ry     beta=0.30
     Davidson diagonalization with overlap
     ethr =  1.84E-06,  avg # of iterations =  1.0

     negative rho (up, down):  1.591E+00 0.000E+00
 
     Adding external electric field

     Computed dipole along edir(3) : 
        Dipole               -0.0069 Ry au,         -0.0175 Debye
        Dipole field         -0.0000 Ry au
 
        Potential amp.        0.0018 Ry
        Total length         45.0992 bohr
 

     total cpu time spent up to now is      620.6 secs

     total energy              =   -2104.55471884 Ry
     Harris-Foulkes estimate   =   -2104.55477478 Ry
     estimated scf accuracy    <       0.00112984 Ry

     iteration #  8     ecut=    36.75 Ry     beta=0.30
     Davidson diagonalization with overlap
     ethr =  6.24E-07,  avg # of iterations =  4.2

     negative rho (up, down):  1.591E+00 0.000E+00
 
     Adding external electric field

     Computed dipole along edir(3) : 
        Dipole               -0.0052 Ry au,         -0.0131 Debye
        Dipole field         -0.0000 Ry au
 
        Potential amp.        0.0014 Ry
        Total length         45.0992 bohr
 

     total cpu time spent up to now is      636.5 secs

     total energy              =   -2104.55472515 Ry
     Harris-Foulkes estimate   =   -2104.55475912 Ry
     estimated scf accuracy    <       0.00021040 Ry

     iteration #  9     ecut=    36.75 Ry     beta=0.30
     Davidson diagonalization with overlap
     ethr =  1.16E-07,  avg # of iterations =  4.9

     negative rho (up, down):  1.591E+00 0.000E+00
 
     Adding external electric field

     Computed dipole along edir(3) : 
        Dipole               -0.0045 Ry au,         -0.0115 Debye
        Dipole field         -0.0000 Ry au
 
        Potential amp.        0.0012 Ry
        Total length         45.0992 bohr
 

     total cpu time spent up to now is      655.6 secs

     total energy              =   -2104.55477962 Ry
     Harris-Foulkes estimate   =   -2104.55478942 Ry
     estimated scf accuracy    <       0.00036994 Ry

     iteration # 10     ecut=    36.75 Ry     beta=0.30
     Davidson diagonalization with overlap
     ethr =  1.16E-07,  avg # of iterations =  1.0

     negative rho (up, down):  1.591E+00 0.000E+00
 
     Adding external electric field

     Computed dipole along edir(3) : 
        Dipole               -0.0044 Ry au,         -0.0113 Debye
        Dipole field         -0.0000 Ry au
 
        Potential amp.        0.0012 Ry
        Total length         45.0992 bohr
 

     total cpu time spent up to now is      670.0 secs

     total energy              =   -2104.55476877 Ry
     Harris-Foulkes estimate   =   -2104.55478318 Ry
     estimated scf accuracy    <       0.00026156 Ry

     iteration # 11     ecut=    36.75 Ry     beta=0.30
     Davidson diagonalization with overlap
     ethr =  1.16E-07,  avg # of iterations =  1.4

     negative rho (up, down):  1.592E+00 0.000E+00
 
     Adding external electric field

     Computed dipole along edir(3) : 
        Dipole               -0.0041 Ry au,         -0.0104 Debye
        Dipole field         -0.0000 Ry au
 
        Potential amp.        0.0011 Ry
        Total length         45.0992 bohr
 

     total cpu time spent up to now is      684.9 secs

     total energy              =   -2104.55476898 Ry
     Harris-Foulkes estimate   =   -2104.55477353 Ry
     estimated scf accuracy    <       0.00005834 Ry

     iteration # 12     ecut=    36.75 Ry     beta=0.30
     Davidson diagonalization with overlap
     ethr =  3.22E-08,  avg # of iterations =  5.1

     negative rho (up, down):  1.592E+00 0.000E+00

     negative rho (up, down):  1.592E+00 0.000E+00

     negative rho (up, down):  1.592E+00 0.000E+00

     negative rho (up, down):  1.592E+00 0.000E+00

     negative rho (up, down):  1.592E+00 0.000E+00

     negative rho (up, down):  1.592E+00 0.000E+00

     negative rho (up, down):  1.592E+00 0.000E+00

     negative rho (up, down):  1.592E+00 0.000E+00

     negative rho (up, down):  1.592E+00 0.000E+00

     negative rho (up, down):  1.592E+00 0.000E+00

     negative rho (up, down):  1.592E+00 0.000E+00

     negative rho (up, down):  1.592E+00 0.000E+00

     negative rho (up, down):  1.592E+00 0.000E+00

     negative rho (up, down):  1.592E+00 0.000E+00

     negative rho (up, down):  1.592E+00 0.000E+00

     negative rho (up, down):  1.592E+00 0.000E+00

     negative rho (up, down):  1.592E+00 0.000E+00

     negative rho (up, down):  1.592E+00 0.000E+00

     negative rho (up, down):  1.592E+00 0.000E+00

     negative rho (up, down):  1.592E+00 0.000E+00

     negative rho (up, down):  1.592E+00 0.000E+00

     negative rho (up, down):  1.592E+00 0.000E+00

     negative rho (up, down):  1.592E+00 0.000E+00

     negative rho (up, down):  1.592E+00 0.000E+00

     negative rho (up, down):  1.592E+00 0.000E+00

     negative rho (up, down):  1.592E+00 0.000E+00

     negative rho (up, down):  1.592E+00 0.000E+00

     negative rho (up, down):  1.592E+00 0.000E+00

     negative rho (up, down):  1.592E+00 0.000E+00

     negative rho (up, down):  1.592E+00 0.000E+00

     negative rho (up, down):  1.592E+00 0.000E+00

     negative rho (up, down):  1.592E+00 0.000E+00

     negative rho (up, down):  1.592E+00 0.000E+00

     negative rho (up, down):  1.592E+00 0.000E+00

     negative rho (up, down):  1.592E+00 0.000E+00
 
     Adding external electric field

     Computed dipole along edir(3) : 
        Dipole               -0.0052 Ry au,         -0.0132 Debye
        Dipole field         -0.0000 Ry au
 
        Potential amp.        0.0014 Ry
        Total length         45.0992 bohr
 

     total cpu time spent up to now is      742.6 secs

     End of self-consistent calculation

          k = 0.0000 0.0000 0.0000 ( 16073 PWs)   bands (ev):

   -64.8777 -64.7371 -64.7214 -64.7035 -64.6664 -64.6099 -64.5591 -64.5371
   -64.5203 -64.4911 -64.4866 -64.4864 -37.3185 -37.3087 -37.3020 -37.2028
   -37.1524 -37.1328 -37.1322 -37.0074 -36.9942 -36.9884 -36.6901 -36.6574
   -36.6542 -36.6379 -36.5874 -36.5851 -36.5786 -36.5656 -36.5585 -36.5515
   -36.4218 -36.4134 -36.4054 -36.3571 -36.3482 -36.3406 -36.3399 -36.3392
   -36.3302 -36.2771 -36.2754 -36.2752 -36.1370 -36.1307 -36.0811 -36.0809
    -4.2507  -3.3678  -2.8117  -2.8090  -2.7971  -2.6940  -2.4453  -2.3718
    -2.3614  -2.2880  -2.1764  -2.1761  -1.9374  -1.8425  -1.8214  -1.2915
    -0.6576  -0.6443  -0.1412   0.1729   0.1789   0.3057   0.4522   0.7100
     0.7144   0.9000   1.0320   1.0704   1.0977   1.1087   1.1740   1.2894
     1.3248   1.6389   1.6671   1.7130   2.4965   2.7317   2.7621   2.7624
     2.7948   2.8144   3.1148   3.1191   3.2009   3.5805   3.6064   3.9745
     4.1159   4.1541   4.4142   4.4442

          k = 0.0000 0.0351 0.0000 ( 16137 PWs)   bands (ev):

   -64.8678 -64.7372 -64.7313 -64.7040 -64.6585 -64.6020 -64.5591 -64.5449
   -64.5203 -64.4970 -64.4891 -64.4864 -37.2864 -37.2689 -37.2527 -37.1840
   -37.1260 -37.1076 -37.0976 -36.9777 -36.9572 -36.9382 -36.6969 -36.6845
   -36.6731 -36.6662 -36.6305 -36.6101 -36.5703 -36.5372 -36.5353 -36.5211
   -36.4340 -36.4247 -36.4054 -36.3968 -36.3681 -36.3566 -36.3538 -36.3509
   -36.3324 -36.3090 -36.3074 -36.2637 -36.1853 -36.1496 -36.1388 -36.0942
    -4.0260  -3.2228  -2.6785  -2.6033  -2.5871  -2.4580  -2.3153  -2.1940
    -2.1829  -2.1283  -2.0551  -2.0215  -1.8225  -1.5965  -1.5702  -1.2197
    -0.6105  -0.5560  -0.1371   0.2325   0.2667   0.2807   0.4377   0.5212
     0.6965   0.8662   0.9162   0.9169   1.1037   1.1631   1.1854   1.2352
     1.4721   1.4988   1.5563   1.5943   2.1059   2.3724   2.4797   2.5353
     2.7212   2.7253   2.7581   2.9738   2.9740   3.4183   3.6031   3.6314
     3.7678   3.9328   4.0835   4.0896

          k = 0.0000 0.0702 0.0000 ( 16149 PWs)   bands (ev):

   -64.8411 -64.7585 -64.7372 -64.7045 -64.6378 -64.5804 -64.5649 -64.5591
   -64.5203 -64.5191 -64.4895 -64.4864 -37.2075 -37.1859 -37.1340 -37.1012
   -37.0665 -37.0516 -37.0428 -36.9082 -36.8828 -36.7855 -36.7628 -36.7574
   -36.7381 -36.6883 -36.6240 -36.6078 -36.5311 -36.5256 -36.5177 -36.5062
   -36.4991 -36.4807 -36.4774 -36.4135 -36.4098 -36.4095 -36.4085 -36.3725
   -36.3684 -36.3564 -36.3297 -36.3013 -36.2634 -36.2291 -36.1820 -36.1303
    -3.4971  -2.8755  -2.4041  -2.1206  -2.1138  -2.0211  -1.8705  -1.7329
    -1.7213  -1.7057  -1.6424  -1.6003  -1.4886  -1.0971  -0.9476  -0.8729
    -0.5309  -0.3751  -0.3113  -0.1331   0.1163   0.3368   0.3818   0.4174
     0.4974   0.6204   0.6846   0.9140   1.0114   1.0928   1.1029   1.2455
     1.3462   1.4442   1.5474   1.5792   1.7031   1.7749   1.9001   2.1048
     2.1370   2.1841   2.3463   2.3824   2.3906   2.7335   2.8134   2.8265
     3.2496   3.4047   3.4260   3.5654

          k = 0.0000-0.1053 0.0000 ( 16164 PWs)   bands (ev):

   -64.8147 -64.7853 -64.7373 -64.7046 -64.6203 -64.5830 -64.5591 -64.5517
   -64.5473 -64.5203 -64.4896 -64.4864 -37.1531 -37.1262 -37.0826 -37.0590
   -37.0321 -37.0209 -36.9065 -36.8886 -36.8593 -36.8415 -36.8192 -36.8190
   -36.5993 -36.5960 -36.5945 -36.5875 -36.5663 -36.5589 -36.5332 -36.5245
   -36.5201 -36.5050 -36.5007 -36.4889 -36.4808 -36.4589 -36.4570 -36.4544
   -36.3822 -36.3657 -36.3380 -36.3257 -36.2748 -36.2117 -36.1814 -36.1760
    -3.1976  -2.5210  -2.3708  -1.8345  -1.7986  -1.7768  -1.6768  -1.5136
    -1.4300  -1.3233  -1.1625  -1.1006  -1.0683  -0.8883  -0.7768  -0.7569
    -0.5733  -0.2853  -0.2155  -0.1185  -0.0911  -0.0429   0.0659   0.4158
     0.4623   0.7554   0.8090   0.8763   0.9386   1.0062   1.0207   1.0493
     1.1216   1.1681   1.2121   1.2190   1.3669   1.3915   1.5347   1.5512
     2.0134   2.2594   2.2802   2.3055   2.3796   2.3836   2.7720   2.7965
     2.8240   3.0002   3.0255   3.1237

          k = 0.0304-0.0175 0.0000 ( 16137 PWs)   bands (ev):

   -64.8677 -64.7433 -64.7217 -64.7076 -64.6583 -64.6019 -64.5636 -64.5369
   -64.5240 -64.4970 -64.4889 -64.4865 -37.2802 -37.2760 -37.2517 -37.1837
   -37.1201 -37.1064 -37.1027 -36.9712 -36.9634 -36.9389 -36.6963 -36.6866
   -36.6705 -36.6656 -36.6263 -36.6216 -36.5670 -36.5394 -36.5291 -36.5242
   -36.4334 -36.4290 -36.4040 -36.3989 -36.3697 -36.3624 -36.3558 -36.3492
   -36.3211 -36.3089 -36.3076 -36.2629 -36.1897 -36.1458 -36.1385 -36.0944
    -4.0106  -3.1842  -2.6752  -2.6048  -2.5874  -2.4579  -2.2801  -2.2404
    -2.1879  -2.1368  -2.0521  -2.0214  -1.7528  -1.6880  -1.5799  -1.1944
    -0.6227  -0.5779  -0.1665   0.2332   0.2706   0.2777   0.4460   0.5393
     0.6306   0.8645   0.9101   0.9349   1.1029   1.1753   1.1828   1.2201
     1.4483   1.5029   1.5615   1.5889   2.1187   2.3543   2.4213   2.6019
     2.7148   2.7296   2.7736   2.9774   2.9924   3.4840   3.6071   3.6289
     3.7609   3.8811   4.0315   4.1069

          k = 0.0304 0.0175 0.0000 ( 16137 PWs)   bands (ev):

   -64.8677 -64.7432 -64.7218 -64.7076 -64.6583 -64.6019 -64.5636 -64.5369
   -64.5240 -64.4970 -64.4888 -64.4866 -37.2803 -37.2759 -37.2517 -37.1837
   -37.1201 -37.1065 -37.1026 -36.9712 -36.9634 -36.9389 -36.6963 -36.6866
   -36.6706 -36.6656 -36.6265 -36.6213 -36.5670 -36.5394 -36.5291 -36.5242
   -36.4335 -36.4290 -36.4040 -36.3989 -36.3697 -36.3623 -36.3558 -36.3492
   -36.3211 -36.3089 -36.3076 -36.2629 -36.1897 -36.1458 -36.1385 -36.0944
    -4.0106  -3.1842  -2.6751  -2.6049  -2.5874  -2.4579  -2.2801  -2.2404
    -2.1879  -2.1367  -2.0520  -2.0214  -1.7528  -1.6880  -1.5799  -1.1944
    -0.6227  -0.5779  -0.1665   0.2332   0.2706   0.2777   0.4460   0.5394
     0.6306   0.8645   0.9101   0.9349   1.1029   1.1753   1.1827   1.2201
     1.4483   1.5029   1.5615   1.5889   2.1187   2.3543   2.4213   2.6019
     2.7147   2.7297   2.7736   2.9774   2.9924   3.4840   3.6072   3.6289
     3.7609   3.8810   4.0316   4.1069

          k = 0.0304 0.0526 0.0000 ( 16202 PWs)   bands (ev):

   -64.8492 -64.7482 -64.7395 -64.7041 -64.6438 -64.5871 -64.5662 -64.5511
   -64.5215 -64.5052 -64.5020 -64.4806 -37.2368 -37.1763 -37.1747 -37.1492
   -37.0781 -37.0622 -37.0555 -36.9351 -36.8679 -36.8633 -36.7562 -36.7204
   -36.7117 -36.7050 -36.6381 -36.5768 -36.5718 -36.5282 -36.5196 -36.5081
   -36.4863 -36.4672 -36.4252 -36.4214 -36.4112 -36.4042 -36.3840 -36.3713
   -36.3396 -36.3272 -36.2836 -36.2794 -36.2787 -36.2281 -36.1756 -36.1234
    -3.6117  -2.9346  -2.3658  -2.3434  -2.2229  -2.0513  -2.0283  -2.0036
    -1.8564  -1.8311  -1.7747  -1.6898  -1.5366  -1.3330  -1.1147  -0.9911
    -0.5539  -0.4583  -0.2531  -0.0037   0.1917   0.3424   0.3905   0.4244
     0.4528   0.6280   0.8647   0.8962   1.0183   1.0337   1.2693   1.2842
     1.2929   1.3365   1.4831   1.7489   1.9047   1.9435   1.9565   2.0551
     2.3980   2.5178   2.5356   2.5647   2.6371   2.6463   2.7151   3.0544
     3.4044   3.4836   3.6678   3.7891

          k = 0.0304-0.1228 0.0000 ( 16203 PWs)   bands (ev):

   -64.8191 -64.7706 -64.7516 -64.7005 -64.6217 -64.5735 -64.5685 -64.5605
   -64.5302 -64.5193 -64.5075 -64.4765 -37.1525 -37.0931 -37.0902 -37.0404
   -37.0272 -37.0162 -37.0007 -36.9136 -36.8398 -36.8177 -36.7899 -36.7444
   -36.6964 -36.6630 -36.6544 -36.5830 -36.5594 -36.5491 -36.5285 -36.5206
   -36.5119 -36.5068 -36.4989 -36.4716 -36.4597 -36.4378 -36.4221 -36.4197
   -36.3694 -36.3612 -36.3148 -36.3115 -36.2991 -36.2329 -36.2184 -36.1740
    -3.1357  -2.5217  -2.1623  -1.8171  -1.8093  -1.7169  -1.6650  -1.5122
    -1.4215  -1.3500  -1.3331  -1.1820  -1.0661  -0.9522  -0.7909  -0.6750
    -0.5887  -0.3377  -0.3339  -0.1857  -0.0612   0.0510   0.1226   0.2565
     0.3404   0.6152   0.6842   0.7092   0.7755   0.8552   0.9125   0.9924
     1.0471   1.1923   1.2331   1.3654   1.5217   1.5888   1.6741   1.7058
     1.7683   2.1623   2.3031   2.3597   2.4285   2.5229   2.6219   2.6900
     2.8378   3.0720   3.1839   3.3724

          k = 0.0304-0.0877 0.0000 ( 16203 PWs)   bands (ev):

   -64.8191 -64.7707 -64.7516 -64.7006 -64.6217 -64.5735 -64.5685 -64.5605
   -64.5302 -64.5193 -64.5075 -64.4765 -37.1525 -37.0931 -37.0902 -37.0404
   -37.0272 -37.0161 -37.0008 -36.9136 -36.8399 -36.8176 -36.7899 -36.7444
   -36.6964 -36.6630 -36.6544 -36.5830 -36.5593 -36.5491 -36.5285 -36.5206
   -36.5119 -36.5069 -36.4989 -36.4716 -36.4597 -36.4378 -36.4221 -36.4197
   -36.3694 -36.3612 -36.3148 -36.3115 -36.2991 -36.2329 -36.2184 -36.1740
    -3.1357  -2.5217  -2.1623  -1.8171  -1.8092  -1.7169  -1.6650  -1.5122
    -1.4215  -1.3501  -1.3331  -1.1820  -1.0661  -0.9522  -0.7909  -0.6750
    -0.5886  -0.3377  -0.3339  -0.1857  -0.0612   0.0510   0.1227   0.2565
     0.3403   0.6152   0.6842   0.7092   0.7755   0.8552   0.9125   0.9924
     1.0471   1.1923   1.2331   1.3654   1.5217   1.5888   1.6741   1.7058
     1.7683   2.1623   2.3031   2.3597   2.4285   2.5229   2.6218   2.6901
     2.8378   3.0720   3.1840   3.3723

          k = 0.0304-0.0526 0.0000 ( 16202 PWs)   bands (ev):

   -64.8492 -64.7485 -64.7392 -64.7041 -64.6438 -64.5871 -64.5662 -64.5511
   -64.5215 -64.5052 -64.5020 -64.4806 -37.2368 -37.1764 -37.1746 -37.1492
   -37.0781 -37.0622 -37.0556 -36.9351 -36.8679 -36.8633 -36.7562 -36.7204
   -36.7117 -36.7050 -36.6381 -36.5769 -36.5718 -36.5282 -36.5196 -36.5081
   -36.4863 -36.4672 -36.4252 -36.4214 -36.4112 -36.4042 -36.3840 -36.3713
   -36.3396 -36.3272 -36.2836 -36.2794 -36.2787 -36.2281 -36.1756 -36.1234
    -3.6117  -2.9346  -2.3659  -2.3433  -2.2229  -2.0512  -2.0283  -2.0036
    -1.8564  -1.8311  -1.7747  -1.6898  -1.5366  -1.3330  -1.1147  -0.9911
    -0.5539  -0.4583  -0.2531  -0.0036   0.1917   0.3423   0.3905   0.4244
     0.4528   0.6280   0.8647   0.8962   1.0183   1.0337   1.2693   1.2842
     1.2929   1.3365   1.4831   1.7489   1.9047   1.9435   1.9565   2.0551
     2.3981   2.5178   2.5356   2.5647   2.6371   2.6463   2.7151   3.0544
     3.4045   3.4835   3.6678   3.7891

          k = 0.0608-0.0351 0.0000 ( 16149 PWs)   bands (ev):

   -64.8402 -64.7663 -64.7222 -64.7127 -64.6362 -64.5801 -64.5797 -64.5362
   -64.5305 -64.5190 -64.4894 -64.4865 -37.1974 -37.1949 -37.1332 -37.1020
   -37.0565 -37.0492 -37.0465 -36.8966 -36.8905 -36.7934 -36.7615 -36.7577
   -36.7376 -36.6905 -36.6213 -36.6172 -36.5342 -36.5257 -36.5153 -36.5079
   -36.5012 -36.4838 -36.4791 -36.4260 -36.4114 -36.4084 -36.4008 -36.3741
   -36.3635 -36.3595 -36.3305 -36.2845 -36.2637 -36.2278 -36.1832 -36.1305
    -3.3850  -2.7563  -2.3965  -2.1235  -2.1074  -2.0698  -1.9164  -1.7414
    -1.7186  -1.7087  -1.6412  -1.6030  -1.4475  -1.2819  -0.9517  -0.8655
    -0.5361  -0.4622  -0.3149  -0.1360   0.0295   0.3367   0.3625   0.4140
     0.4919   0.6074   0.7008   0.9167   1.0244   1.0856   1.1046   1.2107
     1.3550   1.4468   1.5339   1.5655   1.7395   1.7516   1.9048   2.0958
     2.1533   2.1740   2.3200   2.3786   2.3883   2.7436   2.8243   2.9448
     3.2784   3.4057   3.4178   3.5608

          k = 0.0608 0.0000 0.0000 ( 16202 PWs)   bands (ev):

   -64.8488 -64.7567 -64.7265 -64.7090 -64.6429 -64.5870 -64.5743 -64.5361
   -64.5293 -64.5055 -64.5018 -64.4807 -37.2342 -37.1821 -37.1711 -37.1488
   -37.0666 -37.0646 -37.0594 -36.9291 -36.8813 -36.8565 -36.7585 -36.7199
   -36.7108 -36.7049 -36.6396 -36.5789 -36.5730 -36.5318 -36.5207 -36.5068
   -36.4911 -36.4695 -36.4342 -36.4138 -36.4122 -36.3988 -36.3845 -36.3699
   -36.3381 -36.3208 -36.2873 -36.2803 -36.2790 -36.2283 -36.1718 -36.1237
    -3.5587  -2.8476  -2.3633  -2.3343  -2.2345  -2.0440  -2.0302  -2.0225
    -1.8758  -1.8311  -1.7769  -1.7133  -1.4380  -1.3440  -1.2962  -0.9748
    -0.5895  -0.4540  -0.2847  -0.0542   0.1835   0.3409   0.3917   0.4192
     0.4536   0.6519   0.8550   0.9034   1.0113   1.0207   1.2710   1.2828
     1.2862   1.3282   1.3967   1.7814   1.8525   1.9419   1.9766   2.0691
     2.4297   2.4903   2.5482   2.6208   2.6329   2.6570   2.7156   3.0847
     3.4490   3.4958   3.6555   3.7627

          k = 0.0608 0.0351 0.0000 ( 16149 PWs)   bands (ev):

   -64.8402 -64.7662 -64.7225 -64.7125 -64.6362 -64.5801 -64.5797 -64.5362
   -64.5305 -64.5190 -64.4893 -64.4866 -37.1976 -37.1946 -37.1332 -37.1020
   -37.0565 -37.0493 -37.0465 -36.8966 -36.8905 -36.7934 -36.7614 -36.7578
   -36.7376 -36.6905 -36.6216 -36.6169 -36.5342 -36.5257 -36.5154 -36.5079
   -36.5012 -36.4838 -36.4790 -36.4260 -36.4113 -36.4085 -36.4008 -36.3740
   -36.3634 -36.3596 -36.3305 -36.2845 -36.2637 -36.2278 -36.1832 -36.1305
    -3.3850  -2.7564  -2.3965  -2.1236  -2.1073  -2.0698  -1.9164  -1.7415
    -1.7187  -1.7086  -1.6412  -1.6030  -1.4475  -1.2819  -0.9517  -0.8654
    -0.5362  -0.4622  -0.3149  -0.1360   0.0295   0.3367   0.3625   0.4141
     0.4918   0.6074   0.7008   0.9167   1.0244   1.0856   1.1046   1.2107
     1.3550   1.4468   1.5339   1.5655   1.7396   1.7516   1.9048   2.0958
     2.1533   2.1740   2.3200   2.3786   2.3883   2.7436   2.8243   2.9448
     3.2783   3.4057   3.4178   3.5609

          k = 0.0608-0.1404 0.0000 ( 16203 PWs)   bands (ev):

   -64.8173 -64.7785 -64.7435 -64.7026 -64.6188 -64.5879 -64.5615 -64.5527
   -64.5306 -64.5220 -64.5076 -64.4765 -37.1500 -37.0926 -37.0909 -37.0448
   -37.0204 -37.0116 -37.0024 -36.9135 -36.8309 -36.8178 -36.7907 -36.7461
   -36.7136 -36.6602 -36.6547 -36.5840 -36.5610 -36.5541 -36.5286 -36.5204
   -36.5103 -36.5055 -36.4994 -36.4739 -36.4633 -36.4368 -36.4226 -36.4195
   -36.3692 -36.3637 -36.3149 -36.3113 -36.2802 -36.2311 -36.2259 -36.1742
    -2.9764  -2.4830  -2.1856  -1.8213  -1.8104  -1.7744  -1.6503  -1.5654
    -1.4203  -1.3536  -1.3331  -1.2285  -1.0604  -0.9574  -0.8726  -0.6699
    -0.6045  -0.3444  -0.3327  -0.2268  -0.0553   0.0493   0.0813   0.2466
     0.3766   0.6038   0.6479   0.7155   0.7843   0.8557   0.9278   0.9767
     1.0562   1.1280   1.2721   1.3642   1.5461   1.5833   1.6626   1.7223
     1.7682   2.1764   2.3150   2.3601   2.4089   2.5640   2.6325   2.6965
     2.8419   3.0710   3.1914   3.3828

          k = 0.0608-0.1053 0.0000 ( 16272 PWs)   bands (ev):

   -64.7955 -64.7839 -64.7649 -64.6979 -64.6049 -64.5914 -64.5672 -64.5379
   -64.5331 -64.5322 -64.5188 -64.4724 -37.0535 -37.0477 -37.0442 -37.0415
   -37.0286 -36.9711 -36.9569 -36.9509 -36.9480 -36.7623 -36.7356 -36.6936
   -36.6894 -36.6711 -36.6700 -36.6321 -36.6233 -36.6226 -36.5236 -36.5190
   -36.5112 -36.4960 -36.4876 -36.4811 -36.4801 -36.4754 -36.4569 -36.3809
   -36.3676 -36.3607 -36.3185 -36.2925 -36.2789 -36.2472 -36.2456 -36.2421
    -2.7689  -2.0206  -2.0142  -1.9648  -1.4291  -1.4083  -1.4036  -1.3946
    -1.3438  -1.1414  -1.0085  -1.0011  -0.9941  -0.9454  -0.9429  -0.8965
    -0.4302  -0.4144  -0.0895  -0.0847  -0.0650   0.0665   0.0677   0.0900
     0.1529   0.1664   0.2779   0.3343   0.3441   0.5571   0.6859   0.8851
     0.9563   0.9857   1.2004   1.3261   1.3400   1.4965   1.5103   1.5156
     1.8506   2.0684   2.0837   2.4197   2.5774   2.6015   2.6799   2.6876
     2.9813   3.1114   3.1276   3.7226

          k = 0.0608-0.0702 0.0000 ( 16203 PWs)   bands (ev):

   -64.8172 -64.7786 -64.7434 -64.7027 -64.6188 -64.5879 -64.5615 -64.5527
   -64.5306 -64.5220 -64.5076 -64.4765 -37.1500 -37.0926 -37.0909 -37.0448
   -37.0205 -37.0116 -37.0024 -36.9135 -36.8310 -36.8177 -36.7907 -36.7461
   -36.7135 -36.6602 -36.6547 -36.5840 -36.5610 -36.5540 -36.5286 -36.5204
   -36.5103 -36.5055 -36.4994 -36.4739 -36.4632 -36.4368 -36.4226 -36.4196
   -36.3692 -36.3638 -36.3149 -36.3113 -36.2802 -36.2311 -36.2259 -36.1742
    -2.9764  -2.4830  -2.1856  -1.8213  -1.8104  -1.7744  -1.6503  -1.5655
    -1.4202  -1.3536  -1.3331  -1.2286  -1.0604  -0.9574  -0.8726  -0.6699
    -0.6045  -0.3444  -0.3327  -0.2268  -0.0553   0.0493   0.0813   0.2466
     0.3766   0.6038   0.6479   0.7156   0.7843   0.8557   0.9279   0.9767
     1.0562   1.1280   1.2721   1.3643   1.5461   1.5833   1.6626   1.7223
     1.7682   2.1765   2.3149   2.3601   2.4089   2.5640   2.6324   2.6965
     2.8419   3.0709   3.1914   3.3828

          k =-0.0912 0.0526 0.0000 ( 16164 PWs)   bands (ev):

[...]
     3.4693   3.5412   3.6901   3.8334

          k = 0.0608-0.0351 0.0000 ( 16149 PWs)   bands (ev):

   -64.8414 -64.7632 -64.7172 -64.7120 -64.5969 -64.5710 -64.5349 -64.5146
   -64.5007 -64.4893 -64.4850 -64.4821 -37.2285 -37.2248 -37.1793 -37.1325
   -37.0923 -37.0859 -37.0724 -36.8845 -36.8779 -36.7780 -36.7746 -36.7647
   -36.7408 -36.6755 -36.6005 -36.5904 -36.5388 -36.5103 -36.4960 -36.4902
   -36.4828 -36.4509 -36.4482 -36.4180 -36.4002 -36.3845 -36.3745 -36.3381
   -36.3270 -36.3193 -36.3038 -36.2539 -36.2229 -36.2147 -36.1508 -36.1217
    -3.5146  -2.9016  -2.4961  -2.2322  -2.2106  -2.1431  -1.9964  -1.8223
    -1.7880  -1.7815  -1.7229  -1.6912  -1.4745  -1.3089  -0.9887  -0.9096
    -0.5601  -0.4892  -0.3739  -0.1717  -0.0441   0.2357   0.3042   0.4536
     0.5205   0.6482   0.7447   0.9626   1.0247   1.0529   1.0909   1.1832
     1.2616   1.3035   1.4498   1.5632   1.7311   1.7475   1.9524   2.0988
     2.1666   2.1787   2.3433   2.4044   2.4153   2.7046   2.8244   2.9923
     3.3347   3.4688   3.4851   3.5983

          k = 0.0608 0.0000 0.0000 ( 16202 PWs)   bands (ev):

   -64.8505 -64.7521 -64.7251 -64.7058 -64.6041 -64.5772 -64.5284 -64.5033
   -64.5022 -64.4953 -64.4875 -64.4766 -37.2645 -37.2198 -37.1952 -37.1920
   -37.1035 -37.1000 -37.0865 -36.9179 -36.8642 -36.8413 -36.7739 -36.7146
   -36.6993 -36.6944 -36.6091 -36.5877 -36.5720 -36.5132 -36.4925 -36.4817
   -36.4666 -36.4568 -36.4266 -36.4035 -36.3779 -36.3592 -36.3521 -36.3347
   -36.3062 -36.2807 -36.2714 -36.2630 -36.2574 -36.2008 -36.1368 -36.1167
    -3.6708  -3.0053  -2.4739  -2.4462  -2.3449  -2.1241  -2.1056  -2.0744
    -1.9469  -1.9113  -1.8582  -1.8019  -1.4706  -1.3536  -1.3135  -1.0181
    -0.6083  -0.4613  -0.3432  -0.0986   0.0902   0.3609   0.3881   0.4127
     0.4742   0.6451   0.8366   0.8900   1.0265   1.0456   1.1971   1.2148
     1.2292   1.2659   1.3348   1.7686   1.8469   1.9439   1.9695   2.1154
     2.4496   2.4974   2.5429   2.6105   2.6404   2.6526   2.7227   3.1072
     3.5123   3.5495   3.7314   3.8063

          k = 0.0608 0.0351 0.0000 ( 16149 PWs)   bands (ev):

   -64.8414 -64.7632 -64.7172 -64.7120 -64.5969 -64.5710 -64.5349 -64.5146
   -64.5007 -64.4893 -64.4850 -64.4821 -37.2285 -37.2248 -37.1793 -37.1325
   -37.0923 -37.0859 -37.0724 -36.8845 -36.8779 -36.7780 -36.7746 -36.7647
   -36.7408 -36.6755 -36.6005 -36.5904 -36.5388 -36.5103 -36.4960 -36.4902
   -36.4828 -36.4509 -36.4482 -36.4180 -36.4002 -36.3845 -36.3745 -36.3381
   -36.3270 -36.3193 -36.3038 -36.2539 -36.2229 -36.2147 -36.1508 -36.1217
    -3.5146  -2.9016  -2.4961  -2.2322  -2.2106  -2.1431  -1.9964  -1.8223
    -1.7880  -1.7815  -1.7229  -1.6912  -1.4745  -1.3089  -0.9887  -0.9096
    -0.5601  -0.4892  -0.3739  -0.1717  -0.0441   0.2357   0.3042   0.4536
     0.5205   0.6482   0.7447   0.9626   1.0247   1.0529   1.0909   1.1832
     1.2616   1.3035   1.4498   1.5632   1.7311   1.7475   1.9524   2.0988
     2.1666   2.1787   2.3433   2.4044   2.4153   2.7046   2.8244   2.9923
     3.3347   3.4688   3.4851   3.5983

          k = 0.0608-0.1404 0.0000 ( 16203 PWs)   bands (ev):

   -64.8171 -64.7767 -64.7412 -64.6997 -64.5782 -64.5545 -64.5435 -64.5249
   -64.5152 -64.5024 -64.4833 -64.4724 -37.1803 -37.1407 -37.1219 -37.0915
   -37.0566 -37.0394 -37.0217 -36.9315 -36.8400 -36.8126 -36.7781 -36.7470
   -36.7037 -36.6523 -36.6348 -36.5682 -36.5509 -36.5394 -36.5099 -36.4960
   -36.4906 -36.4847 -36.4744 -36.4524 -36.4361 -36.4186 -36.4030 -36.3816
   -36.3436 -36.3173 -36.2853 -36.2611 -36.2432 -36.2169 -36.1910 -36.1660
    -3.1791  -2.5647  -2.2504  -1.9389  -1.8972  -1.8645  -1.7306  -1.6529
    -1.4978  -1.4464  -1.4219  -1.2680  -1.1703  -1.0380  -0.8946  -0.7515
    -0.6683  -0.4117  -0.3870  -0.2574  -0.1124  -0.0216   0.0538   0.2388
     0.3978   0.5963   0.6254   0.7072   0.7812   0.8407   0.9340   0.9937
     1.0709   1.1454   1.2732   1.4214   1.5326   1.5875   1.6151   1.6507
     1.7753   2.1345   2.3772   2.4100   2.4460   2.5921   2.6668   2.7039
     2.8450   3.1355   3.2053   3.4145

          k = 0.0608-0.1053 0.0000 ( 16272 PWs)   bands (ev):

   -64.7932 -64.7820 -64.7654 -64.6944 -64.5631 -64.5469 -64.5362 -64.5310
   -64.5277 -64.5210 -64.4802 -64.4683 -37.1117 -37.0909 -37.0780 -37.0696
   -37.0623 -37.0013 -36.9772 -36.9712 -36.9655 -36.7437 -36.7173 -36.6913
   -36.6846 -36.6695 -36.6632 -36.6211 -36.6123 -36.6047 -36.4993 -36.4973
   -36.4868 -36.4765 -36.4675 -36.4638 -36.4530 -36.4425 -36.4281 -36.3411
   -36.3243 -36.3122 -36.2872 -36.2601 -36.2516 -36.2326 -36.2210 -36.2196
    -3.0186  -2.0632  -2.0558  -2.0076  -1.6203  -1.5035  -1.4700  -1.4336
    -1.4158  -1.2473  -1.1850  -1.1512  -1.1170  -1.0239  -1.0076  -0.9455
    -0.5476  -0.4640  -0.1216  -0.0921  -0.0438   0.0264   0.0571   0.0785
     0.0992   0.1169   0.2904   0.3323   0.3920   0.5546   0.6361   0.8703
     0.9652   0.9922   1.2502   1.3631   1.3999   1.4973   1.5209   1.5370
     1.9291   2.0497   2.0730   2.3979   2.6000   2.6334   2.7028   2.8464
     2.9265   3.0753   3.1263   3.8060

          k = 0.0608-0.0702 0.0000 ( 16203 PWs)   bands (ev):

   -64.8171 -64.7767 -64.7412 -64.6997 -64.5782 -64.5545 -64.5435 -64.5249
   -64.5152 -64.5024 -64.4833 -64.4724 -37.1803 -37.1407 -37.1219 -37.0915
   -37.0566 -37.0394 -37.0217 -36.9315 -36.8400 -36.8126 -36.7781 -36.7470
   -36.7037 -36.6523 -36.6348 -36.5682 -36.5509 -36.5394 -36.5099 -36.4960
   -36.4906 -36.4847 -36.4744 -36.4524 -36.4361 -36.4186 -36.4030 -36.3816
   -36.3436 -36.3173 -36.2853 -36.2611 -36.2432 -36.2169 -36.1910 -36.1660
    -3.1791  -2.5647  -2.2504  -1.9389  -1.8972  -1.8645  -1.7306  -1.6529
    -1.4978  -1.4464  -1.4219  -1.2680  -1.1703  -1.0380  -0.8946  -0.7515
    -0.6683  -0.4117  -0.3870  -0.2574  -0.1124  -0.0216   0.0538   0.2388
     0.3978   0.5963   0.6254   0.7072   0.7812   0.8407   0.9340   0.9937
     1.0709   1.1454   1.2732   1.4214   1.5326   1.5875   1.6151   1.6507
     1.7753   2.1345   2.3772   2.4100   2.4460   2.5921   2.6668   2.7039
     2.8450   3.1355   3.2053   3.4145

          k =-0.0912 0.0526 0.0000 ( 16164 PWs)   bands (ev):

   -64.8035 -64.8006 -64.7175 -64.7130 -64.5705 -64.5602 -64.5430 -64.5421
   -64.5009 -64.4904 -64.4851 -64.4822 -37.1711 -37.1673 -37.1245 -37.1112
   -37.0557 -37.0441 -36.9259 -36.9139 -36.8585 -36.8486 -36.8144 -36.8132
   -36.6206 -36.5886 -36.5611 -36.5575 -36.5501 -36.5377 -36.5239 -36.5128
   -36.4902 -36.4793 -36.4776 -36.4764 -36.4698 -36.4635 -36.4341 -36.4238
   -36.3428 -36.3291 -36.2806 -36.2715 -36.2087 -36.1977 -36.1698 -36.1664
    -3.0232  -2.5764  -2.4841  -1.9249  -1.9087  -1.8833  -1.8574  -1.6019
    -1.5877  -1.3795  -1.2971  -1.2068  -1.1763  -0.9431  -0.8842  -0.8480
    -0.8224  -0.3825  -0.3665  -0.1887  -0.1698  -0.0389  -0.0006   0.4682
     0.5310   0.7127   0.7695   0.8508   0.8601   1.0375   1.0516   1.0892
     1.1364   1.1596   1.2268   1.2930   1.3463   1.3790   1.3894   1.4099
     2.1892   2.2342   2.2451   2.3099   2.4427   2.4572   2.8030   2.8562
     2.9402   3.0058   3.0885   3.1309

          k =-0.0912 0.0877 0.0000 ( 16203 PWs)   bands (ev):

   -64.8163 -64.7793 -64.7387 -64.7003 -64.5771 -64.5544 -64.5461 -64.5259
   -64.5119 -64.5018 -64.4847 -64.4725 -37.1789 -37.1406 -37.1232 -37.0926
   -37.0575 -37.0356 -37.0212 -36.9350 -36.8358 -36.8097 -36.7812 -36.7469
   -36.6853 -36.6539 -36.6460 -36.5795 -36.5512 -36.5410 -36.5119 -36.4986
   -36.4900 -36.4832 -36.4744 -36.4499 -36.4410 -36.4112 -36.4022 -36.3835
   -36.3406 -36.3160 -36.2853 -36.2630 -36.2443 -36.2199 -36.1876 -36.1643
    -3.0554  -2.5770  -2.2503  -1.9452  -1.9034  -1.8696  -1.7368  -1.6724
    -1.5114  -1.4430  -1.4195  -1.2889  -1.1721  -1.0367  -0.9197  -0.7978
    -0.6819  -0.4135  -0.3740  -0.3280  -0.0792  -0.0280   0.0666   0.2301
     0.3363   0.6016   0.6261   0.7025   0.7985   0.8322   0.9122   1.0509
     1.0909   1.1842   1.3030   1.3794   1.4664   1.5817   1.6119   1.6602
     1.7756   2.1167   2.3874   2.4170   2.4536   2.5908   2.6708   2.6992
     2.8208   3.1634   3.2840   3.4330

          k =-0.0912 0.1228 0.0000 ( 16203 PWs)   bands (ev):

   -64.8163 -64.7793 -64.7387 -64.7003 -64.5771 -64.5544 -64.5461 -64.5259
   -64.5119 -64.5018 -64.4847 -64.4725 -37.1789 -37.1406 -37.1232 -37.0926
   -37.0575 -37.0356 -37.0212 -36.9350 -36.8358 -36.8097 -36.7812 -36.7469
   -36.6853 -36.6539 -36.6460 -36.5795 -36.5512 -36.5410 -36.5119 -36.4986
   -36.4900 -36.4832 -36.4744 -36.4499 -36.4410 -36.4112 -36.4022 -36.3835
   -36.3406 -36.3160 -36.2853 -36.2630 -36.2443 -36.2199 -36.1876 -36.1643
    -3.0554  -2.5770  -2.2503  -1.9452  -1.9034  -1.8696  -1.7368  -1.6724
    -1.5114  -1.4430  -1.4195  -1.2889  -1.1721  -1.0367  -0.9197  -0.7978
    -0.6819  -0.4135  -0.3740  -0.3280  -0.0792  -0.0280   0.0666   0.2301
     0.3363   0.6016   0.6261   0.7025   0.7985   0.8322   0.9122   1.0509
     1.0909   1.1842   1.3030   1.3794   1.4664   1.5817   1.6119   1.6602
     1.7756   2.1167   2.3874   2.4170   2.4536   2.5908   2.6708   2.6992
     2.8208   3.1634   3.2840   3.4330

          k =-0.0912-0.0526 0.0000 ( 16164 PWs)   bands (ev):

   -64.8035 -64.8006 -64.7175 -64.7130 -64.5705 -64.5602 -64.5430 -64.5421
   -64.5009 -64.4904 -64.4851 -64.4822 -37.1711 -37.1673 -37.1245 -37.1112
   -37.0557 -37.0441 -36.9259 -36.9139 -36.8585 -36.8486 -36.8144 -36.8132
   -36.6206 -36.5886 -36.5611 -36.5575 -36.5501 -36.5377 -36.5239 -36.5128
   -36.4902 -36.4793 -36.4776 -36.4764 -36.4698 -36.4635 -36.4341 -36.4238
   -36.3428 -36.3291 -36.2806 -36.2715 -36.2087 -36.1977 -36.1698 -36.1664
    -3.0232  -2.5764  -2.4841  -1.9249  -1.9087  -1.8833  -1.8574  -1.6019
    -1.5877  -1.3795  -1.2971  -1.2068  -1.1763  -0.9431  -0.8842  -0.8480
    -0.8224  -0.3825  -0.3665  -0.1887  -0.1698  -0.0389  -0.0006   0.4682
     0.5310   0.7127   0.7695   0.8508   0.8601   1.0375   1.0516   1.0892
     1.1364   1.1596   1.2268   1.2930   1.3463   1.3790   1.3894   1.4099
     2.1892   2.2342   2.2451   2.3099   2.4427   2.4572   2.8030   2.8562
     2.9402   3.0058   3.0885   3.1309

     the Fermi energy is     2.4305 ev

!    total energy              =   -2104.56569177 Ry
     Harris-Foulkes estimate   =   -2104.56569175 Ry
     estimated scf accuracy    <       0.00000005 Ry

     The total energy is the sum of the following terms:

     one-electron contribution =  -18928.73184850 Ry
     hartree contribution      =    9463.06242694 Ry
     xc contribution           =    -397.91326700 Ry
     ewald contribution        =    7759.11003422 Ry
     electric field correction =       0.00000190 Ry
     smearing contrib. (-TS)   =      -0.09303934 Ry

     convergence has been achieved in  10 iterations
 
 BEEF-vdW xc energy contributions
           1 :   -348.725638884255     
           2 :    320.771671403898     
           3 :   -270.984219725288     
           4 :    209.278439233655     
           5 :   -146.305603139638     
           6 :    90.4994591556663     
           7 :   -46.4098988738782     
           8 :    14.5688450510766     
           9 :    7.28521384025760     
          10 :   -22.4040064994078     
          11 :    33.3810603270491     
          12 :   -41.2843729635027     
          13 :    45.6934157109329     
          14 :   -45.4639198068951     
          15 :    39.7427932664156     
          16 :   -28.7833212093387     
          17 :    14.2091079499671     
          18 :    1.32790951035270     
          19 :   -14.9296054682455     
          20 :    24.3105731646645     
          21 :   -28.3955589518406     
          22 :    27.4341803130691     
          23 :   -22.6540657798594     
          24 :    15.6537165816637     
          25 :   -7.83505490976472     
          26 :   9.890396713581140E-002
          27 :    7.12385717806853     
          28 :   -13.6131901104347     
          29 :    19.0657099726609     
          30 :   -22.9508661614403     
          31 :   -33.1377189990787     
          32 :   -24.3389963469985     

     Forces acting on atoms (Ry/au):


     negative rho (up, down):  1.587E+00 0.000E+00
     atom    1 type  1   force =     0.00000013    0.00128057    0.01718545
     atom    2 type  1   force =     0.00000003   -0.00010562    0.01825341
     atom    3 type  1   force =    -0.00117834    0.00206724    0.01793711
     atom    4 type  1   force =     0.00117825    0.00206722    0.01793623
     atom    5 type  1   force =    -0.00074676   -0.00121735   -0.01281405
     atom    6 type  1   force =     0.00074671   -0.00121761   -0.01281416
     atom    7 type  1   force =    -0.00000045   -0.00557396   -0.03825992
     atom    8 type  1   force =     0.00000052    0.00180812   -0.00806233
     atom    9 type  1   force =    -0.00112248    0.00032362    0.00076519
     atom   10 type  1   force =     0.00112189    0.00032331    0.00076690
     atom   11 type  1   force =     0.00000013   -0.00152393   -0.00054350
     atom   12 type  1   force =    -0.00000003    0.00062328   -0.00070513
     atom   13 type  2   force =     0.00000040    0.00114511    0.00035479

     Total force =     0.002974     Total SCF correction =     0.000433
     SCF correction compared to forces is large: reduce conv_thr to get better values


     entering subroutine stress ...


     negative rho (up, down):  1.587E+00 0.000E+00
          total   stress  (Ry/bohr**3)                   (kbar)     P=  -21.32
  -0.00017225   0.00000000   0.00000000        -25.34      0.00      0.00
   0.00000000  -0.00017645  -0.00000337          0.00    -25.96     -0.50
   0.00000000  -0.00000337  -0.00008614          0.00     -0.50    -12.67


     bfgs converged in  13 scf cycles and  12 bfgs steps
     (criteria: energy <  1.0E+00, force <  1.9E-03)

     End of BFGS Geometry Optimization

     Final energy   =   -2104.5656917689 Ry
Begin final coordinates

ATOMIC_POSITIONS (crystal)
Tc1      0.166666667   0.166666667   0.408540475    0   0   0
Tc1      0.666666667   0.166666667   0.408540475    0   0   0
Tc1      0.166666667   0.666666667   0.408540475    0   0   0
Tc1      0.666666667   0.666666667   0.408540475    0   0   0
Tc1      0.833333333   0.333333333   0.500000000    0   0   0
Tc1      0.333333333   0.333333333   0.500000000    0   0   0
Tc1      0.833333333   0.833333333   0.500000000    0   0   0
Tc1      0.333333333   0.833333333   0.500000000    0   0   0
Tc1     -0.006436761   0.006081318   0.588226306
Tc1      0.500354995   0.006081243   0.588226100
Tc1     -0.003223384   0.506446466   0.587190033
Tc1      0.500704564   0.498590711   0.586448251
H1       0.247324990   0.005349408   0.637953452
End final coordinates



     Writing output data file calc.save
 
     init_run     :      9.22s CPU      9.71s WALL (       1 calls)
     electrons    :   4049.94s CPU   4349.28s WALL (      13 calls)
     update_pot   :     28.17s CPU     30.26s WALL (      12 calls)
     forces       :    152.73s CPU    163.10s WALL (      13 calls)
     stress       :    471.29s CPU    497.46s WALL (      13 calls)

     Called by init_run:
     wfcinit      :      3.82s CPU      3.88s WALL (       1 calls)
     potinit      :      1.54s CPU      1.60s WALL (       1 calls)

     Called by electrons:
     c_bands      :   1796.50s CPU   1914.23s WALL (     208 calls)
     sum_band     :    762.29s CPU    824.37s WALL (     208 calls)
     v_of_rho     :    277.11s CPU    296.24s WALL (     219 calls)
     newd         :    663.27s CPU    675.96s WALL (     219 calls)
     mix_rho      :     10.23s CPU     10.44s WALL (     208 calls)
     vdW_energy   :    134.54s CPU    147.47s WALL (     687 calls)
     vdW_ffts     :    288.75s CPU    303.71s WALL (    1400 calls)
     vdW_v        :    112.92s CPU    116.42s WALL (     687 calls)

     Called by c_bands:
     init_us_2    :      9.22s CPU      9.29s WALL (    2215 calls)
     cegterg      :   1636.83s CPU   1678.59s WALL (    1040 calls)

     Called by *egterg:
     h_psi        :    944.30s CPU    965.48s WALL (    5459 calls)
     s_psi        :     98.79s CPU     99.00s WALL (    5459 calls)
     g_psi        :      6.60s CPU      6.64s WALL (    4414 calls)
     cdiaghg      :    236.83s CPU    238.40s WALL (    5384 calls)

     Called by h_psi:
     add_vuspsi   :    101.72s CPU    102.01s WALL (    5459 calls)

     General routines
     calbec       :    155.31s CPU    157.89s WALL (    6629 calls)
     fft          :    435.29s CPU    465.52s WALL (   41813 calls)
     ffts         :      0.60s CPU      0.65s WALL (     427 calls)
     fftw         :    564.61s CPU    585.23s WALL (  624318 calls)
     interpolate  :      5.63s CPU      5.78s WALL (     427 calls)
     davcio       :      0.00s CPU      0.03s WALL (       5 calls)
 
     Parallel routines
     fft_scatter  :    581.13s CPU    628.48s WALL (  666558 calls)
 
     PWSCF        :     1h19m CPU        1h24m WALL

 
   This run was terminated on:  17:47:29   2May2018            

=------------------------------------------------------------------------------=
   JOB DONE.
=------------------------------------------------------------------------------=
Job  /afs/slac/g/suncat/bin/suncat-tsmpirun -x LD_LIBRARY_PATH -wdir /scratch/qe796801_EBfzk pw.x -npool 4 -in pw.inp

TID   HOST_NAME   COMMAND_LINE            STATUS            TERMINATION_TIME
===== ========== ================  =======================  ===================
00000 suncat0010 pw.x -npool 4 -i  Done                     05/02/2018 17:47:29
00001 suncat0010 pw.x -npool 4 -i  Done                     05/02/2018 17:47:29
00002 suncat0010 pw.x -npool 4 -i  Done                     05/02/2018 17:47:29
00003 suncat0010 pw.x -npool 4 -i  Done                     05/02/2018 17:47:29
00004 suncat0010 pw.x -npool 4 -i  Done                     05/02/2018 17:47:29
00005 suncat0010 pw.x -npool 4 -i  Done                     05/02/2018 17:47:29
00006 suncat0010 pw.x -npool 4 -i  Done                     05/02/2018 17:47:29
00007 suncat0010 pw.x -npool 4 -i  Done                     05/02/2018 17:47:29
00008 suncat0191 pw.x -npool 4 -i  Done                     05/02/2018 17:47:29
00009 suncat0191 pw.x -npool 4 -i  Done                     05/02/2018 17:47:29
00010 suncat0191 pw.x -npool 4 -i  Done                     05/02/2018 17:47:29
00011 suncat0191 pw.x -npool 4 -i  Done                     05/02/2018 17:47:29
00012 suncat0191 pw.x -npool 4 -i  Done                     05/02/2018 17:47:29
00013 suncat0191 pw.x -npool 4 -i  Done                     05/02/2018 17:47:29
00014 suncat0191 pw.x -npool 4 -i  Done                     05/02/2018 17:47:29
00015 suncat0191 pw.x -npool 4 -i  Done                     05/02/2018 17:47:29
00016 suncat0159 pw.x -npool 4 -i  Done                     05/02/2018 17:47:29
00017 suncat0159 pw.x -npool 4 -i  Done                     05/02/2018 17:47:29
00018 suncat0159 pw.x -npool 4 -i  Done                     05/02/2018 17:47:29
00019 suncat0159 pw.x -npool 4 -i  Done                     05/02/2018 17:47:29
00020 suncat0159 pw.x -npool 4 -i  Done                     05/02/2018 17:47:29
00021 suncat0159 pw.x -npool 4 -i  Done                     05/02/2018 17:47:29
00022 suncat0159 pw.x -npool 4 -i  Done                     05/02/2018 17:47:29
00023 suncat0159 pw.x -npool 4 -i  Done                     05/02/2018 17:47:29
00024 suncat0143 pw.x -npool 4 -i  Done                     05/02/2018 17:47:29
00025 suncat0143 pw.x -npool 4 -i  Done                     05/02/2018 17:47:29
00026 suncat0143 pw.x -npool 4 -i  Done                     05/02/2018 17:47:29
00027 suncat0143 pw.x -npool 4 -i  Done                     05/02/2018 17:47:29
00028 suncat0143 pw.x -npool 4 -i  Done                     05/02/2018 17:47:29
00029 suncat0143 pw.x -npool 4 -i  Done                     05/02/2018 17:47:29
00030 suncat0143 pw.x -npool 4 -i  Done                     05/02/2018 17:47:29
00031 suncat0143 pw.x -npool 4 -i  Done                     05/02/2018 17:47:29
