  python dir          : /u/if/mamunm/src/espresso
  espresso dir        : /nfs/slac/g/suncatfs/sw/espv18/espresso-dynpy-beef/bin
  pseudo dir          : /u/if/mamunm/psp/gbrv1.5pbe
  ase-espresso py git : GITVERSION



     Program PWSCF v.5.1rc2 (svn rev. 11289) starts on 16Apr2018 at 21:32:33 

     This program is part of the open-source Quantum ESPRESSO suite
     for quantum simulation of materials; please cite
         "P. Giannozzi et al., J. Phys.:Condens. Matter 21 395502 (2009);
          URL http://www.quantum-espresso.org", 
     in publications or presentations arising from this work. More details at
     http://www.quantum-espresso.org/quote

     Parallel version (MPI), running on    32 processors
     K-points division:     npool     =       4
     R & G space division:  proc/nbgrp/npool/nimage =       8
     Reading input from pw.inp
     Message from routine read_cards :
     DEPRECATED: no units specified in CELL_PARAMETERS card

     Current dimensions of program PWSCF are:
     Max number of different atomic species (ntypx) = 10
     Max number of k-points (npk) =  40000
     Max angular momentum in pseudopotentials (lmaxx) =  3
     Presently stress not available with electric field


     **************************************************************************
     Initializing libbeef V0.1.1 with the BEEF-vdW functional.
     Citation: Wellendorff et al., PRB 85, 235149 (2012).
     **************************************************************************


     IMPORTANT: XC functional enforced from input :
     Exchange-correlation      = BEEF-VDW ( 1  4 27 13 2)
     Any further DFT definition will be discarded
     Please, verify this is what you really want


     Subspace diagonalization in iterative solution of the eigenvalue problem:
     a serial algorithm will be used

 
     Parallelization info
     --------------------
     sticks:   dense  smooth     PW     G-vecs:    dense   smooth      PW
     Min         297     119     35                55393    13999    2259
     Max         298     120     36                55416    14060    2272
     Sum        2383     955    283               443253   112179   18115
 


     bravais-lattice index     =            0
     lattice parameter (alat)  =       1.8897  a.u.
     unit-cell volume          =    3724.3394 (a.u.)^3
     number of atoms/cell      =           14
     number of atomic types    =            3
     number of electrons       =       173.00
     number of Kohn-Sham states=           96
     kinetic-energy cutoff     =      36.7493  Ry
     charge density cutoff     =     367.4932  Ry
     convergence threshold     =      1.0E-05
     mixing beta               =       0.3000
     number of iterations used =           10  plain     mixing
     Exchange-correlation      = BEEF-VDW ( 1  4 27 13 2)
     nstep                     =           50


     celldm(1)=   1.889726  celldm(2)=   0.000000  celldm(3)=   0.000000
     celldm(4)=   0.000000  celldm(5)=   0.000000  celldm(6)=   0.000000

     crystal axes: (cart. coord. in units of alat)
               a(1) = (   5.132588   0.000000   0.000000 )  
               a(2) = (   2.566294   4.444952   0.000000 )  
               a(3) = (   0.000000   0.000000  24.190741 )  

     reciprocal axes: (cart. coord. in units 2 pi/alat)
               b(1) = (  0.194833 -0.112487  0.000000 )  
               b(2) = (  0.000000  0.224974  0.000000 )  
               b(3) = (  0.000000  0.000000  0.041338 )  


     PseudoPot. # 1 for Cr read from file:
     /u/if/mamunm/psp/gbrv1.5pbe/Cr.UPF
     MD5 check sum: 0d52af634a40206e4dee301ad30da4bf
     Pseudo is Ultrasoft + core correction, Zval = 14.0
     Generated by new atomic code, or converted to UPF format
     Using radial grid of  857 points,  6 beta functions with: 
                l(1) =   0
                l(2) =   0
                l(3) =   1
                l(4) =   1
                l(5) =   2
                l(6) =   2
     Q(r) pseudized with  8 coefficients,  rinner =    0.950   0.950   0.950
                                                       0.950   0.950

     PseudoPot. # 2 for C  read from file:
     /u/if/mamunm/psp/gbrv1.5pbe/C.UPF
     MD5 check sum: d1aef80898a10debaa0f26306b886e00
     Pseudo is Ultrasoft + core correction, Zval =  4.0
     Generated by new atomic code, or converted to UPF format
     Using radial grid of  721 points,  4 beta functions with: 
                l(1) =   0
                l(2) =   0
                l(3) =   1
                l(4) =   1
     Q(r) pseudized with  8 coefficients,  rinner =    1.100   1.100   1.100


     PseudoPot. # 3 for H  read from file:
     /u/if/mamunm/psp/gbrv1.5pbe/H.UPF
     MD5 check sum: 761ae9a214b05c3daf00ab9f6b793d6f
     Pseudo is Ultrasoft, Zval =  1.0
     Generated by new atomic code, or converted to UPF format
     Using radial grid of  615 points,  2 beta functions with: 
                l(1) =   0
                l(2) =   0
     Q(r) pseudized with  8 coefficients,  rinner =    0.700

     vdW kernel table read from file vdW_kernel_table
     MD5 check sum: 095c7af220d748ca6e76c0b4c6cfb241

     atomic species   valence    mass     pseudopotential
        Cr1           14.00    51.99610     Cr( 1.00)
        C1             4.00    12.01100     C ( 1.00)
        H1             1.00     1.00800     H ( 1.00)

     No symmetry found



   Cartesian axes

     site n.     atom                  positions (alat units)
         1           Cr1 tau(   1) = (   1.2831471   0.7408253  10.0000000  )
         2           Cr1 tau(   2) = (   3.8494412   0.7408253  10.0000000  )
         3           Cr1 tau(   3) = (   2.5662941   2.9633012  10.0000000  )
         4           Cr1 tau(   4) = (   5.1325882   2.9633012  10.0000000  )
         5           Cr1 tau(   5) = (   5.1325882   1.4816506  12.0953704  )
         6           Cr1 tau(   6) = (   2.5662941   1.4816506  12.0953704  )
         7           Cr1 tau(   7) = (   6.4157353   3.7041265  12.0953704  )
         8           Cr1 tau(   8) = (   3.8494412   3.7041265  12.0953704  )
         9           Cr1 tau(   9) = (   0.0000000   0.0000000  14.1907408  )
        10           Cr1 tau(  10) = (   2.5662941   0.0000000  14.1907408  )
        11           Cr1 tau(  11) = (   1.2831471   2.2224759  14.1907408  )
        12           Cr1 tau(  12) = (   3.8494412   2.2224759  14.1907408  )
        13           C1  tau(  13) = (   1.2831471   0.0000000  15.8032408  )
        14           H1  tau(  14) = (   1.2831471   0.0000000  16.9032408  )

     number of k points=    20  Fermi-Dirac smearing, width (Ry)=  0.0110
                       cart. coord. in units 2pi/alat
        k(    1) = (   0.0000000   0.0000000   0.0000000), wk =   0.0555556
        k(    2) = (   0.0000000   0.0374957   0.0000000), wk =   0.1111111
        k(    3) = (   0.0000000   0.0749914   0.0000000), wk =   0.1111111
        k(    4) = (   0.0000000  -0.1124872   0.0000000), wk =   0.0555556
        k(    5) = (   0.0324722  -0.0187479   0.0000000), wk =   0.1111111
        k(    6) = (   0.0324722   0.0187479   0.0000000), wk =   0.1111111
        k(    7) = (   0.0324722   0.0562436   0.0000000), wk =   0.1111111
        k(    8) = (   0.0324722  -0.1312350   0.0000000), wk =   0.1111111
        k(    9) = (   0.0324722  -0.0937393   0.0000000), wk =   0.1111111
        k(   10) = (   0.0324722  -0.0562436   0.0000000), wk =   0.1111111
        k(   11) = (   0.0649445  -0.0374957   0.0000000), wk =   0.1111111
        k(   12) = (   0.0649445   0.0000000   0.0000000), wk =   0.1111111
        k(   13) = (   0.0649445   0.0374957   0.0000000), wk =   0.1111111
        k(   14) = (   0.0649445  -0.1499829   0.0000000), wk =   0.1111111
        k(   15) = (   0.0649445  -0.1124872   0.0000000), wk =   0.1111111
        k(   16) = (   0.0649445  -0.0749914   0.0000000), wk =   0.1111111
        k(   17) = (  -0.0974167   0.0562436   0.0000000), wk =   0.0555556
        k(   18) = (  -0.0974167   0.0937393   0.0000000), wk =   0.1111111
        k(   19) = (  -0.0974167   0.1312350   0.0000000), wk =   0.1111111
        k(   20) = (  -0.0974167  -0.0562436   0.0000000), wk =   0.0555556

     Dense  grid:   443253 G-vectors     FFT dimensions: (  60,  60, 288)

     Smooth grid:   112179 G-vectors     FFT dimensions: (  40,  40, 180)

     Largest allocated arrays     est. size (Mb)     dimensions
        Kohn-Sham Wavefunctions         2.62 Mb     (    1792,   96)
        NL pseudopotentials             6.18 Mb     (    1792,  226)
        Each V/rho on FFT grid          1.98 Mb     (  129600)
        Each G-vector array             0.42 Mb     (   55406)
        G-vector shells                 0.11 Mb     (   14836)
     Largest temporary arrays     est. size (Mb)     dimensions
        Auxiliary wavefunctions        10.50 Mb     (    1792,  384)
        Each subspace H/S matrix        2.25 Mb     (     384,  384)
        Each <psi_i|beta_j> matrix      0.33 Mb     (     226,   96)
        Arrays for rho mixing          19.78 Mb     (  129600,   10)

     Check: negative/imaginary core charge=   -0.000004    0.000000

     Initial potential from superposition of free atoms
     Check: negative starting charge=   -0.014798

     starting charge  160.99977, renormalised to  173.00000

     negative rho (up, down):  1.590E-02 0.000E+00


     ************************************************************************
     *
     * You are using vdW-DF for exchange-correlation in this calculation.
     * Please cite the following three references that made this development
     * possible:
     *
     *   M. Dion, H. Rydberg, E. Schroder, D. C. Langreth, and
     *   B. I. Lundqvist, Phys. Rev. Lett. 92, 246401 (2004).
     *
     *   T. Thonhauser, V. R. Cooper, S. Li, A. Puzder, P. Hyldgaard, and
     *   D. C. Langreth, Phys. Rev. B 76, 125112 (2007).
     *
     *   G. Roman-Perez and J. M. Soler, Phys. Rev. Lett. 103, 096102 (2009).
     *
     *
     * If you are using vdW-DF2, please also cite:
     *
     *   K. Lee, E. D. Murray, L. Kong, B. I. Lundqvist, and
     *   D. C. Langreth, Phys. Rev. B 82, 081101(R) (2010).
     *
     *
     * If you are calculating the stress with vdW-DF, please also cite:
     *
     *   R. Sabatini, E. Kucukbenli, B. Kolb, T. Thonhauser, and
     *   S. de Gironcoli, J. Phys.: Condens. Matter 24, 424209 (2012).
     *
     ************************************************************************

     Carrying out vdW-DF run using the following parameters:

     Nqs =      20    Nr_points =    1024   r_max =   100.000
     q_mesh =
               0.00001000     0.04494208     0.09755937     0.15916263
               0.23128650     0.31572767     0.41458969     0.53033537
               0.66584808     0.82450364     1.01025438     1.22772762
               1.48234092     1.78043706     2.12944203     2.53805004
               3.01644009     3.57652955     4.23227104     5.00000000

     Gradients computed in reciprocal space

     ************************************************************************


 
     Adding external electric field

     Computed dipole along edir(3) : 
        Dipole               -2.7659 Ry au,         -7.0301 Debye
        Dipole field         -0.0093 Ry au
 
        Potential amp.        0.8319 Ry
        Total length         44.5710 bohr
 
     Starting wfc are  125 randomized atomic wfcs

     total cpu time spent up to now is        8.1 secs

     per-process dynamical memory:    65.7 Mb

     Self-consistent Calculation

     iteration #  1     ecut=    36.75 Ry     beta=0.30
     Davidson diagonalization with overlap
     ethr =  1.00E-02,  avg # of iterations =  7.8

     negative rho (up, down):  1.753E-02 0.000E+00
 
     Adding external electric field

     Computed dipole along edir(3) : 
        Dipole               49.2804 Ry au,        125.2582 Debye
        Dipole field          0.1663 Ry au
 
        Potential amp.      -14.8224 Ry
        Total length         44.5710 bohr
 

     total cpu time spent up to now is       28.4 secs

     total energy              =   -1954.10762016 Ry
     Harris-Foulkes estimate   =   -2130.49127553 Ry
     estimated scf accuracy    <     367.57656040 Ry

     iteration #  2     ecut=    36.75 Ry     beta=0.30
     Davidson diagonalization with overlap
     c_bands:  1 eigenvalues not converged
     c_bands:  1 eigenvalues not converged
     ethr =  1.00E-02,  avg # of iterations = 18.9

     negative rho (up, down):  1.638E-02 0.000E+00
 
     Adding external electric field

     Computed dipole along edir(3) : 
        Dipole                1.7855 Ry au,          4.5382 Debye
        Dipole field          0.0060 Ry au
 
        Potential amp.       -0.5370 Ry
        Total length         44.5710 bohr
 

     total cpu time spent up to now is       68.5 secs

     total energy              =   -1825.89104811 Ry
     Harris-Foulkes estimate   =   -2849.76043969 Ry
     estimated scf accuracy    <   16761.52335279 Ry

     iteration #  3     ecut=    36.75 Ry     beta=0.30
     Davidson diagonalization with overlap
     ethr =  1.00E-02,  avg # of iterations =  9.9

     negative rho (up, down):  1.509E-02 0.000E+00
 
     Adding external electric field

     Computed dipole along edir(3) : 
        Dipole                4.5060 Ry au,         11.4531 Debye
        Dipole field          0.0152 Ry au
 
        Potential amp.       -1.3553 Ry
        Total length         44.5710 bohr
 

     total cpu time spent up to now is       96.5 secs

     total energy              =   -2059.27790954 Ry
     Harris-Foulkes estimate   =   -2256.00477228 Ry
     estimated scf accuracy    <    2595.75340492 Ry

     iteration #  4     ecut=    36.75 Ry     beta=0.30
     Davidson diagonalization with overlap
     ethr =  1.00E-02,  avg # of iterations =  5.0

     negative rho (up, down):  9.258E-02 0.000E+00
 
     Adding external electric field

     Computed dipole along edir(3) : 
        Dipole                5.3589 Ry au,         13.6211 Debye
        Dipole field          0.0181 Ry au
 
        Potential amp.       -1.6118 Ry
        Total length         44.5710 bohr
 

     total cpu time spent up to now is      113.9 secs

     total energy              =   -2107.05000801 Ry
     Harris-Foulkes estimate   =   -2141.99002059 Ry
     estimated scf accuracy    <     605.84575843 Ry

     iteration #  5     ecut=    36.75 Ry     beta=0.30
     Davidson diagonalization with overlap
     ethr =  1.00E-02,  avg # of iterations =  6.8

     negative rho (up, down):  1.478E-02 0.000E+00
 
     Adding external electric field

     Computed dipole along edir(3) : 
        Dipole                2.7453 Ry au,          6.9778 Debye
        Dipole field          0.0093 Ry au
 
        Potential amp.       -0.8257 Ry
        Total length         44.5710 bohr
 

     total cpu time spent up to now is      134.0 secs

     total energy              =   -2124.27855695 Ry
     Harris-Foulkes estimate   =   -2140.87415686 Ry
     estimated scf accuracy    <     567.84008412 Ry

     iteration #  6     ecut=    36.75 Ry     beta=0.30
     Davidson diagonalization with overlap
     ethr =  1.00E-02,  avg # of iterations =  7.3

     negative rho (up, down):  1.476E-02 0.000E+00
 
     Adding external electric field

     Computed dipole along edir(3) : 
        Dipole                2.6983 Ry au,          6.8585 Debye
        Dipole field          0.0091 Ry au
 
        Potential amp.       -0.8116 Ry
        Total length         44.5710 bohr
 

     total cpu time spent up to now is      150.7 secs

     total energy              =   -2129.05297041 Ry
     Harris-Foulkes estimate   =   -2129.16112706 Ry
     estimated scf accuracy    <      30.43275237 Ry

     iteration #  7     ecut=    36.75 Ry     beta=0.30
     Davidson diagonalization with overlap
     ethr =  1.00E-02,  avg # of iterations =  1.0

     negative rho (up, down):  1.482E-02 0.000E+00
 
     Adding external electric field

     Computed dipole along edir(3) : 
        Dipole                2.6578 Ry au,          6.7555 Debye
        Dipole field          0.0090 Ry au
 
        Potential amp.       -0.7994 Ry
        Total length         44.5710 bohr
 

     total cpu time spent up to now is      161.9 secs

     total energy              =   -2129.20301687 Ry
     Harris-Foulkes estimate   =   -2129.12048375 Ry
     estimated scf accuracy    <      23.21806931 Ry

     iteration #  8     ecut=    36.75 Ry     beta=0.30
     Davidson diagonalization with overlap
     ethr =  1.00E-02,  avg # of iterations =  1.0

     negative rho (up, down):  1.441E-02 0.000E+00
 
     Adding external electric field

     Computed dipole along edir(3) : 
        Dipole                1.7874 Ry au,          4.5430 Debye
        Dipole field          0.0060 Ry au
 
        Potential amp.       -0.5376 Ry
        Total length         44.5710 bohr
 

     total cpu time spent up to now is      173.2 secs

     total energy              =   -2127.46230644 Ry
     Harris-Foulkes estimate   =   -2129.26803049 Ry
     estimated scf accuracy    <      39.40799095 Ry

     iteration #  9     ecut=    36.75 Ry     beta=0.30
     Davidson diagonalization with overlap
     ethr =  1.00E-02,  avg # of iterations =  1.0

     negative rho (up, down):  1.441E-02 0.000E+00
 
     Adding external electric field

     Computed dipole along edir(3) : 
        Dipole                0.3736 Ry au,          0.9496 Debye
        Dipole field          0.0013 Ry au
 
        Potential amp.       -0.1124 Ry
        Total length         44.5710 bohr
 

     total cpu time spent up to now is      184.3 secs

     total energy              =   -2127.21246623 Ry
     Harris-Foulkes estimate   =   -2128.62393249 Ry
     estimated scf accuracy    <      12.71970335 Ry

     iteration # 10     ecut=    36.75 Ry     beta=0.30
     Davidson diagonalization with overlap
     ethr =  7.35E-03,  avg # of iterations =  2.1

     negative rho (up, down):  1.463E-02 0.000E+00
 
     Adding external electric field

     Computed dipole along edir(3) : 
        Dipole               -0.1177 Ry au,         -0.2991 Debye
        Dipole field         -0.0004 Ry au
 
        Potential amp.        0.0354 Ry
        Total length         44.5710 bohr
 

     total cpu time spent up to now is      196.1 secs

     total energy              =   -2128.03600299 Ry
     Harris-Foulkes estimate   =   -2127.95319804 Ry
     estimated scf accuracy    <      18.31422678 Ry

     iteration # 11     ecut=    36.75 Ry     beta=0.30
     Davidson diagonalization with overlap
     ethr =  7.35E-03,  avg # of iterations =  1.0

     negative rho (up, down):  1.476E-02 0.000E+00
 
     Adding external electric field

     Computed dipole along edir(3) : 
        Dipole               -0.2926 Ry au,         -0.7436 Debye
        Dipole field         -0.0010 Ry au
 
        Potential amp.        0.0880 Ry
        Total length         44.5710 bohr
 

     total cpu time spent up to now is      207.4 secs

     total energy              =   -2128.67192382 Ry
     Harris-Foulkes estimate   =   -2128.52345620 Ry
     estimated scf accuracy    <      91.01783733 Ry

     iteration # 12     ecut=    36.75 Ry     beta=0.30
     Davidson diagonalization with overlap
     ethr =  7.35E-03,  avg # of iterations =  1.0

     negative rho (up, down):  1.473E-02 0.000E+00
 
     Adding external electric field

     Computed dipole along edir(3) : 
        Dipole               -0.6331 Ry au,         -1.6092 Debye
        Dipole field         -0.0021 Ry au
 
        Potential amp.        0.1904 Ry
        Total length         44.5710 bohr
 

     total cpu time spent up to now is      218.7 secs

     total energy              =   -2127.46782895 Ry
     Harris-Foulkes estimate   =   -2128.77271576 Ry
     estimated scf accuracy    <     113.67205325 Ry

     iteration # 13     ecut=    36.75 Ry     beta=0.30
     Davidson diagonalization with overlap
     ethr =  7.35E-03,  avg # of iterations =  1.0

     negative rho (up, down):  1.489E-02 0.000E+00
 
     Adding external electric field

     Computed dipole along edir(3) : 
        Dipole               -0.3238 Ry au,         -0.8230 Debye
        Dipole field         -0.0011 Ry au
 
        Potential amp.        0.0974 Ry
        Total length         44.5710 bohr
 

     total cpu time spent up to now is      230.0 secs

     total energy              =   -2128.09976429 Ry
     Harris-Foulkes estimate   =   -2127.83335715 Ry
     estimated scf accuracy    <      29.53232326 Ry

     iteration # 14     ecut=    36.75 Ry     beta=0.30
     Davidson diagonalization with overlap
     ethr =  7.35E-03,  avg # of iterations =  1.0

     negative rho (up, down):  1.465E-02 0.000E+00
 
     Adding external electric field

     Computed dipole along edir(3) : 
        Dipole                0.0512 Ry au,          0.1301 Debye
        Dipole field          0.0002 Ry au
 
        Potential amp.       -0.0154 Ry
        Total length         44.5710 bohr
 

     total cpu time spent up to now is      241.5 secs

     total energy              =   -2126.76841400 Ry
     Harris-Foulkes estimate   =   -2128.27677059 Ry
     estimated scf accuracy    <      74.72644583 Ry

     iteration # 15     ecut=    36.75 Ry     beta=0.30
     Davidson diagonalization with overlap
     ethr =  7.35E-03,  avg # of iterations =  1.1

     negative rho (up, down):  1.455E-02 0.000E+00
 
     Adding external electric field

     Computed dipole along edir(3) : 
        Dipole                0.0610 Ry au,          0.1550 Debye
        Dipole field          0.0002 Ry au
 
        Potential amp.       -0.0183 Ry
        Total length         44.5710 bohr
 

     total cpu time spent up to now is      253.0 secs

     total energy              =   -2127.46525851 Ry
     Harris-Foulkes estimate   =   -2127.52122030 Ry
     estimated scf accuracy    <       0.81597649 Ry

     iteration # 16     ecut=    36.75 Ry     beta=0.30
     Davidson diagonalization with overlap
     ethr =  4.72E-04,  avg # of iterations =  5.6

     negative rho (up, down):  1.439E-02 0.000E+00
 
     Adding external electric field

     Computed dipole along edir(3) : 
        Dipole                0.0226 Ry au,          0.0575 Debye
        Dipole field          0.0001 Ry au
 
        Potential amp.       -0.0068 Ry
        Total length         44.5710 bohr
 

     total cpu time spent up to now is      270.9 secs

     total energy              =   -2127.83347898 Ry
     Harris-Foulkes estimate   =   -2127.97315405 Ry
     estimated scf accuracy    <      27.73732453 Ry

     iteration # 17     ecut=    36.75 Ry     beta=0.30
     Davidson diagonalization with overlap
     ethr =  4.72E-04,  avg # of iterations =  1.0

     negative rho (up, down):  1.426E-02 0.000E+00
 
     Adding external electric field

     Computed dipole along edir(3) : 
        Dipole               -0.1244 Ry au,         -0.3162 Debye
        Dipole field         -0.0004 Ry au
 
        Potential amp.        0.0374 Ry
        Total length         44.5710 bohr
 

     total cpu time spent up to now is      282.4 secs

     total energy              =   -2127.63688148 Ry
     Harris-Foulkes estimate   =   -2127.85130882 Ry
     estimated scf accuracy    <      17.68996481 Ry

     iteration # 18     ecut=    36.75 Ry     beta=0.30
     Davidson diagonalization with overlap
     ethr =  4.72E-04,  avg # of iterations =  4.5

     negative rho (up, down):  1.405E-02 0.000E+00
 
     Adding external electric field

     Computed dipole along edir(3) : 
        Dipole               -0.3296 Ry au,         -0.8377 Debye
        Dipole field         -0.0011 Ry au
 
        Potential amp.        0.0991 Ry
        Total length         44.5710 bohr
 

     total cpu time spent up to now is      295.8 secs

     total energy              =   -2127.54224517 Ry
     Harris-Foulkes estimate   =   -2127.70735125 Ry
     estimated scf accuracy    <       3.86122442 Ry

     iteration # 19     ecut=    36.75 Ry     beta=0.30
     Davidson diagonalization with overlap
     ethr =  4.72E-04,  avg # of iterations =  6.5

     negative rho (up, down):  1.406E-02 0.000E+00
 
     Adding external electric field

     Computed dipole along edir(3) : 
        Dipole               -0.0387 Ry au,         -0.0984 Debye
        Dipole field         -0.0001 Ry au
 
        Potential amp.        0.0116 Ry
        Total length         44.5710 bohr
 

     total cpu time spent up to now is      310.8 secs

     total energy              =   -2127.59534163 Ry
     Harris-Foulkes estimate   =   -2127.69192158 Ry
     estimated scf accuracy    <       1.85606008 Ry

     iteration # 20     ecut=    36.75 Ry     beta=0.30
     Davidson diagonalization with overlap
     ethr =  4.72E-04,  avg # of iterations =  3.2

     negative rho (up, down):  1.398E-02 0.000E+00
 
     Adding external electric field

     Computed dipole along edir(3) : 
        Dipole               -0.0196 Ry au,         -0.0499 Debye
        Dipole field         -0.0001 Ry au
 
        Potential amp.        0.0059 Ry
        Total length         44.5710 bohr
 

     total cpu time spent up to now is      323.3 secs

     total energy              =   -2127.64184692 Ry
     Harris-Foulkes estimate   =   -2127.65558465 Ry
     estimated scf accuracy    <       0.54529208 Ry

     iteration # 21     ecut=    36.75 Ry     beta=0.30
     Davidson diagonalization with overlap
     ethr =  3.15E-04,  avg # of iterations =  4.2

     negative rho (up, down):  1.396E-02 0.000E+00
 
     Adding external electric field

     Computed dipole along edir(3) : 
        Dipole               -0.0078 Ry au,         -0.0198 Debye
        Dipole field         -0.0000 Ry au
 
        Potential amp.        0.0023 Ry
        Total length         44.5710 bohr
 

     total cpu time spent up to now is      336.3 secs

     total energy              =   -2127.64976638 Ry
     Harris-Foulkes estimate   =   -2127.66015595 Ry
     estimated scf accuracy    <       0.80544920 Ry

     iteration # 22     ecut=    36.75 Ry     beta=0.30
     Davidson diagonalization with overlap
     ethr =  3.15E-04,  avg # of iterations =  1.1

     negative rho (up, down):  1.391E-02 0.000E+00
 
     Adding external electric field

     Computed dipole along edir(3) : 
        Dipole                0.0137 Ry au,          0.0348 Debye
        Dipole field          0.0000 Ry au
 
        Potential amp.       -0.0041 Ry
        Total length         44.5710 bohr
 

     total cpu time spent up to now is      347.8 secs

     total energy              =   -2127.65161904 Ry
     Harris-Foulkes estimate   =   -2127.65794515 Ry
     estimated scf accuracy    <       0.50903563 Ry

     iteration # 23     ecut=    36.75 Ry     beta=0.30
     Davidson diagonalization with overlap
     ethr =  2.94E-04,  avg # of iterations =  1.0

     negative rho (up, down):  1.384E-02 0.000E+00
 
     Adding external electric field

     Computed dipole along edir(3) : 
        Dipole                0.0190 Ry au,          0.0483 Debye
        Dipole field          0.0001 Ry au
 
        Potential amp.       -0.0057 Ry
        Total length         44.5710 bohr
 

     total cpu time spent up to now is      359.4 secs

     total energy              =   -2127.64935544 Ry
     Harris-Foulkes estimate   =   -2127.65797901 Ry
     estimated scf accuracy    <       0.31888487 Ry

     iteration # 24     ecut=    36.75 Ry     beta=0.30
     Davidson diagonalization with overlap
     ethr =  1.84E-04,  avg # of iterations =  1.0

     negative rho (up, down):  1.379E-02 0.000E+00
 
     Adding external electric field

     Computed dipole along edir(3) : 
        Dipole                0.0652 Ry au,          0.1657 Debye
        Dipole field          0.0002 Ry au
 
        Potential amp.       -0.0196 Ry
        Total length         44.5710 bohr
 

     total cpu time spent up to now is      370.9 secs

     total energy              =   -2127.64769592 Ry
     Harris-Foulkes estimate   =   -2127.65505446 Ry
     estimated scf accuracy    <       0.09497590 Ry

     iteration # 25     ecut=    36.75 Ry     beta=0.30
     Davidson diagonalization with overlap
     ethr =  5.49E-05,  avg # of iterations =  6.8

     negative rho (up, down):  1.381E-02 0.000E+00
 
     Adding external electric field

     Computed dipole along edir(3) : 
        Dipole                0.0498 Ry au,          0.1265 Debye
        Dipole field          0.0002 Ry au
 
        Potential amp.       -0.0150 Ry
        Total length         44.5710 bohr
 

     total cpu time spent up to now is      385.9 secs

     total energy              =   -2127.65268736 Ry
     Harris-Foulkes estimate   =   -2127.65584202 Ry
     estimated scf accuracy    <       0.15379581 Ry

     iteration # 26     ecut=    36.75 Ry     beta=0.30
     Davidson diagonalization with overlap
     ethr =  5.49E-05,  avg # of iterations =  1.4

     negative rho (up, down):  1.377E-02 0.000E+00
 
     Adding external electric field

     Computed dipole along edir(3) : 
        Dipole                0.0465 Ry au,          0.1181 Debye
        Dipole field          0.0002 Ry au
 
        Potential amp.       -0.0140 Ry
        Total length         44.5710 bohr
 

     total cpu time spent up to now is      397.7 secs

     total energy              =   -2127.65243587 Ry
     Harris-Foulkes estimate   =   -2127.65426991 Ry
     estimated scf accuracy    <       0.04561686 Ry

     iteration # 27     ecut=    36.75 Ry     beta=0.30
     Davidson diagonalization with overlap
     ethr =  2.64E-05,  avg # of iterations =  5.9

     negative rho (up, down):  1.382E-02 0.000E+00
 
     Adding external electric field

     Computed dipole along edir(3) : 
        Dipole                0.0763 Ry au,          0.1940 Debye
        Dipole field          0.0003 Ry au
 
        Potential amp.       -0.0230 Ry
        Total length         44.5710 bohr
 

     total cpu time spent up to now is      411.9 secs

     total energy              =   -2127.65331248 Ry
     Harris-Foulkes estimate   =   -2127.65483293 Ry
     estimated scf accuracy    <       0.02899565 Ry

     iteration # 28     ecut=    36.75 Ry     beta=0.30
     Davidson diagonalization with overlap
     ethr =  1.68E-05,  avg # of iterations =  4.4

     negative rho (up, down):  1.378E-02 0.000E+00
 
     Adding external electric field

     Computed dipole along edir(3) : 
        Dipole                0.0692 Ry au,          0.1760 Debye
        Dipole field          0.0002 Ry au
 
        Potential amp.       -0.0208 Ry
        Total length         44.5710 bohr
 

     total cpu time spent up to now is      425.8 secs

     total energy              =   -2127.65352135 Ry
     Harris-Foulkes estimate   =   -2127.65438174 Ry
     estimated scf accuracy    <       0.01142365 Ry

     iteration # 29     ecut=    36.75 Ry     beta=0.30
     Davidson diagonalization with overlap
     ethr =  6.60E-06,  avg # of iterations =  7.1

     negative rho (up, down):  1.387E-02 0.000E+00
 
     Adding external electric field

     Computed dipole along edir(3) : 
        Dipole                0.0729 Ry au,          0.1854 Debye
        Dipole field          0.0002 Ry au
 
        Potential amp.       -0.0219 Ry
        Total length         44.5710 bohr
 

     total cpu time spent up to now is      440.8 secs

     total energy              =   -2127.65395213 Ry
     Harris-Foulkes estimate   =   -2127.65434792 Ry
     estimated scf accuracy    <       0.01072763 Ry

     iteration # 30     ecut=    36.75 Ry     beta=0.30
     Davidson diagonalization with overlap
     ethr =  6.20E-06,  avg # of iterations =  1.2

     negative rho (up, down):  1.397E-02 0.000E+00
 
     Adding external electric field

     Computed dipole along edir(3) : 
        Dipole                0.0712 Ry au,          0.1810 Debye
        Dipole field          0.0002 Ry au
 
        Potential amp.       -0.0214 Ry
        Total length         44.5710 bohr
 

     total cpu time spent up to now is      452.6 secs

     total energy              =   -2127.65404957 Ry
     Harris-Foulkes estimate   =   -2127.65421462 Ry
     estimated scf accuracy    <       0.00634939 Ry

     iteration # 31     ecut=    36.75 Ry     beta=0.30
     Davidson diagonalization with overlap
     ethr =  3.67E-06,  avg # of iterations =  4.0

     negative rho (up, down):  1.441E-02 0.000E+00
 
     Adding external electric field

     Computed dipole along edir(3) : 
        Dipole                0.0739 Ry au,          0.1879 Debye
        Dipole field          0.0002 Ry au
 
        Potential amp.       -0.0222 Ry
        Total length         44.5710 bohr
 

     total cpu time spent up to now is      465.4 secs

     total energy              =   -2127.65416432 Ry
     Harris-Foulkes estimate   =   -2127.65428903 Ry
     estimated scf accuracy    <       0.00222093 Ry

     iteration # 32     ecut=    36.75 Ry     beta=0.30
     Davidson diagonalization with overlap
     ethr =  1.28E-06,  avg # of iterations =  6.0

     negative rho (up, down):  1.445E-02 0.000E+00
 
     Adding external electric field

     Computed dipole along edir(3) : 
        Dipole                0.0766 Ry au,          0.1948 Debye
        Dipole field          0.0003 Ry au
 
        Potential amp.       -0.0231 Ry
        Total length         44.5710 bohr
 

     total cpu time spent up to now is      479.8 secs

     total energy              =   -2127.65430137 Ry
     Harris-Foulkes estimate   =   -2127.65434964 Ry
     estimated scf accuracy    <       0.00074992 Ry

     iteration # 33     ecut=    36.75 Ry     beta=0.30
     Davidson diagonalization with overlap
     ethr =  4.33E-07,  avg # of iterations =  4.8

     negative rho (up, down):  1.427E-02 0.000E+00
 
     Adding external electric field

     Computed dipole along edir(3) : 
        Dipole                0.0739 Ry au,          0.1877 Debye
        Dipole field          0.0002 Ry au
 
        Potential amp.       -0.0222 Ry
        Total length         44.5710 bohr
 

     total cpu time spent up to now is      494.2 secs

     total energy              =   -2127.65431764 Ry
     Harris-Foulkes estimate   =   -2127.65435958 Ry
     estimated scf accuracy    <       0.00073664 Ry

     iteration # 34     ecut=    36.75 Ry     beta=0.30
     Davidson diagonalization with overlap
     ethr =  4.26E-07,  avg # of iterations =  1.4

     negative rho (up, down):  1.422E-02 0.000E+00
 
     Adding external electric field

     Computed dipole along edir(3) : 
        Dipole                0.0734 Ry au,          0.1864 Debye
        Dipole field          0.0002 Ry au
 
        Potential amp.       -0.0221 Ry
        Total length         44.5710 bohr
 

     total cpu time spent up to now is      506.0 secs

     total energy              =   -2127.65432052 Ry
     Harris-Foulkes estimate   =   -2127.65434694 Ry
     estimated scf accuracy    <       0.00039809 Ry

     iteration # 35     ecut=    36.75 Ry     beta=0.30
     Davidson diagonalization with overlap
     ethr =  2.30E-07,  avg # of iterations =  4.5

     negative rho (up, down):  1.434E-02 0.000E+00
 
     Adding external electric field

     Computed dipole along edir(3) : 
        Dipole                0.0757 Ry au,          0.1923 Debye
        Dipole field          0.0003 Ry au
 
        Potential amp.       -0.0228 Ry
        Total length         44.5710 bohr
 

     total cpu time spent up to now is      519.3 secs

     total energy              =   -2127.65433064 Ry
     Harris-Foulkes estimate   =   -2127.65435822 Ry
     estimated scf accuracy    <       0.00037733 Ry

     iteration # 36     ecut=    36.75 Ry     beta=0.30
     Davidson diagonalization with overlap
     ethr =  2.18E-07,  avg # of iterations =  1.4

     negative rho (up, down):  1.446E-02 0.000E+00
 
     Adding external electric field

     Computed dipole along edir(3) : 
        Dipole                0.0746 Ry au,          0.1896 Debye
        Dipole field          0.0003 Ry au
 
        Potential amp.       -0.0224 Ry
        Total length         44.5710 bohr
 

     total cpu time spent up to now is      531.1 secs

     total energy              =   -2127.65434515 Ry
     Harris-Foulkes estimate   =   -2127.65435035 Ry
     estimated scf accuracy    <       0.00010472 Ry

     iteration # 37     ecut=    36.75 Ry     beta=0.30
     Davidson diagonalization with overlap
     ethr =  6.05E-08,  avg # of iterations =  5.4

     negative rho (up, down):  1.453E-02 0.000E+00
 
     Adding external electric field

     Computed dipole along edir(3) : 
        Dipole                0.0744 Ry au,          0.1891 Debye
        Dipole field          0.0003 Ry au
 
        Potential amp.       -0.0224 Ry
        Total length         44.5710 bohr
 

     total cpu time spent up to now is      546.7 secs

     total energy              =   -2127.65434645 Ry
     Harris-Foulkes estimate   =   -2127.65436924 Ry
     estimated scf accuracy    <       0.00032997 Ry

     iteration # 38     ecut=    36.75 Ry     beta=0.30
     Davidson diagonalization with overlap
     ethr =  6.05E-08,  avg # of iterations =  5.2

     negative rho (up, down):  1.452E-02 0.000E+00
 
     Adding external electric field

     Computed dipole along edir(3) : 
        Dipole                0.0756 Ry au,          0.1921 Debye
        Dipole field          0.0003 Ry au
 
        Potential amp.       -0.0227 Ry
        Total length         44.5710 bohr
 

     total cpu time spent up to now is      561.8 secs

     total energy              =   -2127.65434208 Ry
     Harris-Foulkes estimate   =   -2127.65437595 Ry
     estimated scf accuracy    <       0.00048421 Ry

     iteration # 39     ecut=    36.75 Ry     beta=0.30
     Davidson diagonalization with overlap
     ethr =  6.05E-08,  avg # of iterations =  5.5

     negative rho (up, down):  1.467E-02 0.000E+00
 
     Adding external electric field

     Computed dipole along edir(3) : 
        Dipole                0.0761 Ry au,          0.1935 Debye
        Dipole field          0.0003 Ry au
 
        Potential amp.       -0.0229 Ry
        Total length         44.5710 bohr
 

     total cpu time spent up to now is      575.8 secs

     total energy              =   -2127.65435287 Ry
     Harris-Foulkes estimate   =   -2127.65435984 Ry
     estimated scf accuracy    <       0.00022605 Ry

     iteration # 40     ecut=    36.75 Ry     beta=0.30
     Davidson diagonalization with overlap
     ethr =  6.05E-08,  avg # of iterations =  3.6

     negative rho (up, down):  1.459E-02 0.000E+00
 
     Adding external electric field

     Computed dipole along edir(3) : 
        Dipole                0.0745 Ry au,          0.1893 Debye
        Dipole field          0.0003 Ry au
 
        Potential amp.       -0.0224 Ry
        Total length         44.5710 bohr
 

     total cpu time spent up to now is      588.7 secs

     total energy              =   -2127.65435475 Ry
     Harris-Foulkes estimate   =   -2127.65436228 Ry
     estimated scf accuracy    <       0.00011163 Ry

     iteration # 41     ecut=    36.75 Ry     beta=0.30
     Davidson diagonalization with overlap
     ethr =  6.05E-08,  avg # of iterations =  4.8

     negative rho (up, down):  1.454E-02 0.000E+00
 
     Adding external electric field

     Computed dipole along edir(3) : 
        Dipole                0.0739 Ry au,          0.1878 Debye
        Dipole field          0.0002 Ry au
 
        Potential amp.       -0.0222 Ry
        Total length         44.5710 bohr
 

     total cpu time spent up to now is      602.0 secs

     total energy              =   -2127.65435262 Ry
     Harris-Foulkes estimate   =   -2127.65436687 Ry
     estimated scf accuracy    <       0.00015323 Ry

     iteration # 42     ecut=    36.75 Ry     beta=0.30
     Davidson diagonalization with overlap
     ethr =  6.05E-08,  avg # of iterations =  3.0

     negative rho (up, down):  1.458E-02 0.000E+00
 
     Adding external electric field

     Computed dipole along edir(3) : 
        Dipole                0.0743 Ry au,          0.1888 Debye
        Dipole field          0.0003 Ry au
 
        Potential amp.       -0.0223 Ry
        Total length         44.5710 bohr
 

     total cpu time spent up to now is      614.8 secs

     total energy              =   -2127.65435654 Ry
     Harris-Foulkes estimate   =   -2127.65436027 Ry
     estimated scf accuracy    <       0.00014564 Ry

     iteration # 43     ecut=    36.75 Ry     beta=0.30
     Davidson diagonalization with overlap
     ethr =  6.05E-08,  avg # of iterations =  3.2

     negative rho (up, down):  1.462E-02 0.000E+00
 
     Adding external electric field

     Computed dipole along edir(3) : 
        Dipole                0.0749 Ry au,          0.1904 Debye
        Dipole field          0.0003 Ry au
 
        Potential amp.       -0.0225 Ry
        Total length         44.5710 bohr
 

     total cpu time spent up to now is      627.5 secs

     total energy              =   -2127.65435832 Ry
     Harris-Foulkes estimate   =   -2127.65436162 Ry
     estimated scf accuracy    <       0.00005558 Ry

     iteration # 44     ecut=    36.75 Ry     beta=0.30
     Davidson diagonalization with overlap
     ethr =  3.21E-08,  avg # of iterations =  4.6

     negative rho (up, down):  1.466E-02 0.000E+00
 
     Adding external electric field

     Computed dipole along edir(3) : 
        Dipole                0.0744 Ry au,          0.1890 Debye
        Dipole field          0.0003 Ry au
 
        Potential amp.       -0.0224 Ry
        Total length         44.5710 bohr
 

     total cpu time spent up to now is      641.2 secs

     total energy              =   -2127.65435882 Ry
     Harris-Foulkes estimate   =   -2127.65436515 Ry
     estimated scf accuracy    <       0.00015025 Ry

     iteration # 45     ecut=    36.75 Ry     beta=0.30
     Davidson diagonalization with overlap
     ethr =  3.21E-08,  avg # of iterations =  1.1

     negative rho (up, down):  1.465E-02 0.000E+00
 
     Adding external electric field

     Computed dipole along edir(3) : 
        Dipole                0.0746 Ry au,          0.1896 Debye
        Dipole field          0.0003 Ry au
 
        Potential amp.       -0.0224 Ry
        Total length         44.5710 bohr
 

     total cpu time spent up to now is      653.4 secs

     total energy              =   -2127.65436045 Ry
     Harris-Foulkes estimate   =   -2127.65436140 Ry
     estimated scf accuracy    <       0.00001878 Ry

     iteration # 46     ecut=    36.75 Ry     beta=0.30
     Davidson diagonalization with overlap
     ethr =  1.09E-08,  avg # of iterations =  5.1

     negative rho (up, down):  1.466E-02 0.000E+00
 
     Adding external electric field

     Computed dipole along edir(3) : 
        Dipole                0.0745 Ry au,          0.1893 Debye
        Dipole field          0.0003 Ry au
 
        Potential amp.       -0.0224 Ry
        Total length         44.5710 bohr
 

     total cpu time spent up to now is      667.6 secs

     total energy              =   -2127.65436113 Ry
     Harris-Foulkes estimate   =   -2127.65436269 Ry
     estimated scf accuracy    <       0.00002634 Ry

     iteration # 47     ecut=    36.75 Ry     beta=0.30
     Davidson diagonalization with overlap
     ethr =  1.09E-08,  avg # of iterations =  1.0

     negative rho (up, down):  1.464E-02 0.000E+00

     negative rho (up, down):  1.464E-02 0.000E+00

     negative rho (up, down):  1.464E-02 0.000E+00

     negative rho (up, down):  1.464E-02 0.000E+00

     negative rho (up, down):  1.464E-02 0.000E+00

     negative rho (up, down):  1.464E-02 0.000E+00

     negative rho (up, down):  1.464E-02 0.000E+00

     negative rho (up, down):  1.464E-02 0.000E+00

     negative rho (up, down):  1.464E-02 0.000E+00

     negative rho (up, down):  1.464E-02 0.000E+00

     negative rho (up, down):  1.464E-02 0.000E+00

     negative rho (up, down):  1.464E-02 0.000E+00

     negative rho (up, down):  1.464E-02 0.000E+00

     negative rho (up, down):  1.464E-02 0.000E+00

     negative rho (up, down):  1.464E-02 0.000E+00

     negative rho (up, down):  1.464E-02 0.000E+00

     negative rho (up, down):  1.464E-02 0.000E+00

     negative rho (up, down):  1.464E-02 0.000E+00

     negative rho (up, down):  1.464E-02 0.000E+00

     negative rho (up, down):  1.464E-02 0.000E+00

     negative rho (up, down):  1.464E-02 0.000E+00

     negative rho (up, down):  1.464E-02 0.000E+00

     negative rho (up, down):  1.464E-02 0.000E+00

     negative rho (up, down):  1.464E-02 0.000E+00

     negative rho (up, down):  1.464E-02 0.000E+00

     negative rho (up, down):  1.464E-02 0.000E+00

     negative rho (up, down):  1.464E-02 0.000E+00

     negative rho (up, down):  1.464E-02 0.000E+00

     negative rho (up, down):  1.464E-02 0.000E+00

     negative rho (up, down):  1.464E-02 0.000E+00

     negative rho (up, down):  1.464E-02 0.000E+00

     negative rho (up, down):  1.464E-02 0.000E+00

     negative rho (up, down):  1.464E-02 0.000E+00

     negative rho (up, down):  1.464E-02 0.000E+00

     negative rho (up, down):  1.464E-02 0.000E+00
 
     Adding external electric field

     Computed dipole along edir(3) : 
        Dipole                0.0730 Ry au,          0.1855 Debye
        Dipole field          0.0002 Ry au
 
        Potential amp.       -0.0219 Ry
        Total length         44.5710 bohr
 

     total cpu time spent up to now is      712.4 secs

     End of self-consistent calculation

          k = 0.0000 0.0000 0.0000 ( 14081 PWs)   bands (ev):

   -70.3736 -70.2973 -70.2417 -70.2283 -70.2179 -70.2101 -70.2054 -70.2014
   -70.1885 -70.1127 -70.1125 -70.1077 -41.9675 -41.9563 -41.9482 -41.9136
   -41.8958 -41.8936 -41.8736 -41.7810 -41.7736 -41.7710 -41.6388 -41.5875
   -41.5501 -41.5284 -41.5040 -41.5029 -41.5017 -41.4548 -41.4533 -41.4406
   -41.3854 -41.3754 -41.3731 -41.3615 -41.3529 -41.3493 -41.3216 -41.2827
   -41.2801 -41.2577 -41.2561 -41.2519 -41.2288 -41.2172 -41.1245 -41.1203
    -9.2836  -5.3814  -4.1292  -3.0578  -2.4455  -2.3064  -2.2867  -2.2445
    -2.0541  -2.0497  -1.8367  -1.6429  -1.5395  -1.5388  -1.4721  -1.4716
    -1.2182  -0.7597  -0.5678  -0.2406  -0.0696   0.2472   0.3800   0.4724
     0.5460   0.6523   0.9281   0.9383   0.9643   1.1146   1.1152   1.1768
     1.1960   1.1969   1.2052   1.2815   1.2865   1.3081   1.4806   1.6551
     2.0050   2.0761   2.2448   2.2745   2.3544   2.5058   2.5876   2.5876

          k = 0.0000 0.0375 0.0000 ( 14040 PWs)   bands (ev):

   -70.3648 -70.2909 -70.2475 -70.2284 -70.2249 -70.2101 -70.2014 -70.1996
   -70.1907 -70.1180 -70.1125 -70.1087 -41.9453 -41.9253 -41.9187 -41.8964
   -41.8772 -41.8631 -41.8526 -41.7601 -41.7497 -41.7389 -41.6392 -41.5955
   -41.5752 -41.5472 -41.5048 -41.4979 -41.4905 -41.4634 -41.4574 -41.4366
   -41.4103 -41.3967 -41.3682 -41.3576 -41.3560 -41.3423 -41.3380 -41.3136
   -41.2906 -41.2772 -41.2740 -41.2620 -41.2481 -41.2255 -41.1593 -41.1334
    -9.2697  -5.1614  -4.0096  -2.9245  -2.3152  -2.2803  -2.1567  -2.1454
    -1.9527  -1.9230  -1.7930  -1.5126  -1.4435  -1.4302  -1.3127  -1.2899
    -1.1267  -0.7001  -0.5451  -0.2490  -0.0990   0.1676   0.2923   0.5410
     0.5463   0.6515   0.7332   0.8018   0.9042   1.0576   1.0619   1.0968
     1.1427   1.2141   1.2230   1.2429   1.2452   1.3273   1.4316   1.4831
     1.7277   1.7383   2.0644   2.2233   2.3128   2.3577   2.3689   2.4925

          k = 0.0000 0.0750 0.0000 ( 14026 PWs)   bands (ev):

   -70.3406 -70.2764 -70.2681 -70.2333 -70.2286 -70.2167 -70.2013 -70.1956
   -70.1816 -70.1349 -70.1125 -70.1091 -41.8908 -41.8680 -41.8569 -41.8429
   -41.8074 -41.8038 -41.7998 -41.7132 -41.6992 -41.6632 -41.6411 -41.6221
   -41.5951 -41.5793 -41.5164 -41.4949 -41.4801 -41.4774 -41.4656 -41.4565
   -41.4464 -41.4332 -41.4086 -41.3890 -41.3729 -41.3719 -41.3370 -41.3356
   -41.3260 -41.3166 -41.3138 -41.3082 -41.2514 -41.2478 -41.2242 -41.1579
    -9.2425  -4.5679  -3.7614  -2.6916  -2.4787  -1.9316  -1.8296  -1.8237
    -1.7092  -1.6224  -1.5708  -1.2485  -1.1527  -1.1371  -0.9451  -0.8776
    -0.8728  -0.5643  -0.4620  -0.3144  -0.1891  -0.0518   0.0219   0.2700
     0.3618   0.5138   0.5920   0.6649   0.7781   0.8075   0.8318   0.8834
     0.9170   0.9810   1.0457   1.1851   1.2296   1.3932   1.4106   1.4300
     1.4761   1.5018   1.5115   1.5788   1.8528   1.9187   2.1070   2.2726

          k = 0.0000-0.1125 0.0000 ( 14010 PWs)   bands (ev):

   -70.3111 -70.3018 -70.2560 -70.2435 -70.2287 -70.2218 -70.2012 -70.1965
   -70.1593 -70.1574 -70.1125 -70.1092 -41.8516 -41.8268 -41.8225 -41.8185
   -41.7885 -41.7751 -41.7021 -41.6898 -41.6799 -41.6645 -41.6468 -41.6334
   -41.5744 -41.5585 -41.5206 -41.5088 -41.5029 -41.4926 -41.4782 -41.4677
   -41.4533 -41.4529 -41.4282 -41.4245 -41.4074 -41.4058 -41.3708 -41.3653
   -41.3308 -41.3252 -41.3120 -41.3016 -41.2955 -41.2686 -41.1935 -41.1889
    -9.2290  -4.0702  -3.5099  -3.1966  -2.2272  -1.8320  -1.5376  -1.5016
    -1.4849  -1.4814  -1.3905  -1.1196  -0.9861  -0.9824  -0.7811  -0.6358
    -0.5972  -0.4600  -0.4210  -0.4023  -0.1192  -0.0961  -0.0334   0.0273
     0.0853   0.3665   0.3785   0.4575   0.5998   0.6075   0.6832   0.7570
     0.7676   0.7857   0.9045   1.0051   1.0119   1.0561   1.0917   1.1089
     1.5152   1.5727   1.6715   1.8122   1.9929   2.0289   2.0360   2.1482

          k = 0.0325-0.0187 0.0000 ( 14040 PWs)   bands (ev):

   -70.3648 -70.2910 -70.2455 -70.2337 -70.2199 -70.2109 -70.2034 -70.1995
   -70.1896 -70.1179 -70.1126 -70.1087 -41.9401 -41.9335 -41.9152 -41.8943
   -41.8753 -41.8726 -41.8477 -41.7567 -41.7527 -41.7389 -41.6390 -41.6000
   -41.5649 -41.5542 -41.5042 -41.4996 -41.4874 -41.4645 -41.4564 -41.4380
   -41.4046 -41.4013 -41.3667 -41.3593 -41.3528 -41.3479 -41.3316 -41.3151
   -41.2933 -41.2788 -41.2751 -41.2546 -41.2456 -41.2330 -41.1625 -41.1302
    -9.2685  -5.1582  -3.9948  -2.9049  -2.3152  -2.2480  -2.1788  -2.1425
    -2.0458  -1.9282  -1.7363  -1.5380  -1.4451  -1.4231  -1.3549  -1.2959
    -1.0903  -0.7142  -0.5203  -0.2828  -0.1355   0.2623   0.3141   0.5061
     0.5454   0.6474   0.7425   0.8253   0.8933   1.0031   1.0733   1.0824
     1.1569   1.2093   1.2185   1.2359   1.2482   1.3133   1.4357   1.5451
     1.7148   1.7662   2.0639   2.2193   2.2688   2.3289   2.3922   2.4738

          k = 0.0325 0.0187 0.0000 ( 14040 PWs)   bands (ev):

   -70.3648 -70.2910 -70.2454 -70.2337 -70.2199 -70.2109 -70.2034 -70.1995
   -70.1896 -70.1179 -70.1125 -70.1087 -41.9401 -41.9335 -41.9152 -41.8943
   -41.8753 -41.8726 -41.8477 -41.7567 -41.7527 -41.7389 -41.6390 -41.6000
   -41.5649 -41.5541 -41.5042 -41.4996 -41.4875 -41.4646 -41.4564 -41.4380
   -41.4047 -41.4013 -41.3667 -41.3593 -41.3528 -41.3479 -41.3316 -41.3151
   -41.2933 -41.2789 -41.2751 -41.2546 -41.2456 -41.2330 -41.1625 -41.1302
    -9.2685  -5.1582  -3.9948  -2.9049  -2.3152  -2.2480  -2.1788  -2.1425
    -2.0458  -1.9282  -1.7363  -1.5380  -1.4451  -1.4231  -1.3549  -1.2959
    -1.0903  -0.7142  -0.5203  -0.2828  -0.1355   0.2623   0.3141   0.5061
     0.5454   0.6474   0.7425   0.8253   0.8933   1.0031   1.0733   1.0824
     1.1569   1.2093   1.2185   1.2359   1.2482   1.3133   1.4357   1.5451
     1.7148   1.7662   2.0639   2.2193   2.2688   2.3289   2.3922   2.4738

          k = 0.0325 0.0562 0.0000 ( 14027 PWs)   bands (ev):

   -70.3483 -70.2800 -70.2557 -70.2447 -70.2207 -70.2114 -70.2068 -70.1931
   -70.1866 -70.1246 -70.1213 -70.1051 -41.9085 -41.8736 -41.8665 -41.8600
   -41.8400 -41.8237 -41.8098 -41.7290 -41.6970 -41.6943 -41.6412 -41.6136
   -41.5912 -41.5833 -41.5253 -41.4892 -41.4815 -41.4730 -41.4620 -41.4439
   -41.4377 -41.3992 -41.3847 -41.3812 -41.3733 -41.3684 -41.3439 -41.3342
   -41.3263 -41.3116 -41.3031 -41.2597 -41.2556 -41.2478 -41.2226 -41.1519
    -9.2480  -4.7450  -3.8068  -2.6606  -2.2784  -2.2494  -1.9900  -1.9116
    -1.8545  -1.6960  -1.5453  -1.3075  -1.2650  -1.2027  -1.0676  -1.0235
    -0.8934  -0.6228  -0.4734  -0.3211  -0.1576   0.0320   0.1000   0.4070
     0.4516   0.5195   0.5920   0.6777   0.7120   0.8625   0.9204   0.9881
     1.0165   1.0619   1.1306   1.1880   1.2885   1.3663   1.3840   1.4532
     1.4904   1.6606   1.7142   1.7379   1.8282   1.9861   2.1795   2.2017

          k = 0.0325-0.1312 0.0000 ( 13990 PWs)   bands (ev):

   -70.3196 -70.2846 -70.2629 -70.2487 -70.2310 -70.2128 -70.2076 -70.1933
   -70.1670 -70.1435 -70.1258 -70.1020 -41.8518 -41.8274 -41.8105 -41.8034
   -41.7820 -41.7701 -41.7473 -41.6967 -41.6714 -41.6569 -41.6477 -41.6239
   -41.5997 -41.5759 -41.5413 -41.5123 -41.5082 -41.4779 -41.4706 -41.4644
   -41.4504 -41.4458 -41.4288 -41.4102 -41.3988 -41.3934 -41.3608 -41.3541
   -41.3444 -41.3328 -41.3098 -41.2927 -41.2804 -41.2725 -41.2262 -41.1871
    -9.2278  -4.1173  -3.5383  -2.8313  -2.2166  -2.1582  -1.7607  -1.6426
    -1.4407  -1.3949  -1.1755  -1.0373  -0.9655  -0.9168  -0.7991  -0.7441
    -0.6478  -0.5016  -0.3568  -0.2888  -0.2422  -0.1598  -0.0289   0.0220
     0.0966   0.2793   0.3222   0.4113   0.5554   0.5825   0.6416   0.7017
     0.7615   0.7932   0.8608   1.0044   1.0403   1.0929   1.1870   1.3423
     1.4337   1.5221   1.6331   1.8095   1.9244   2.0227   2.1010   2.1247

          k = 0.0325-0.0937 0.0000 ( 13990 PWs)   bands (ev):

   -70.3196 -70.2847 -70.2629 -70.2487 -70.2310 -70.2128 -70.2076 -70.1933
   -70.1670 -70.1435 -70.1258 -70.1020 -41.8518 -41.8274 -41.8105 -41.8034
   -41.7820 -41.7701 -41.7473 -41.6967 -41.6714 -41.6569 -41.6477 -41.6238
   -41.5997 -41.5760 -41.5413 -41.5123 -41.5082 -41.4779 -41.4706 -41.4644
   -41.4504 -41.4458 -41.4288 -41.4102 -41.3988 -41.3934 -41.3608 -41.3541
   -41.3444 -41.3328 -41.3098 -41.2927 -41.2804 -41.2725 -41.2262 -41.1871
    -9.2278  -4.1173  -3.5383  -2.8313  -2.2166  -2.1582  -1.7607  -1.6426
    -1.4407  -1.3949  -1.1755  -1.0373  -0.9655  -0.9168  -0.7991  -0.7441
    -0.6477  -0.5016  -0.3568  -0.2888  -0.2422  -0.1598  -0.0289   0.0220
     0.0966   0.2793   0.3222   0.4113   0.5555   0.5824   0.6416   0.7017
     0.7615   0.7932   0.8608   1.0044   1.0403   1.0929   1.1870   1.3423
     1.4337   1.5221   1.6331   1.8095   1.9244   2.0227   2.1010   2.1246

          k = 0.0325-0.0562 0.0000 ( 14027 PWs)   bands (ev):

   -70.3483 -70.2800 -70.2558 -70.2447 -70.2207 -70.2115 -70.2067 -70.1931
   -70.1866 -70.1246 -70.1214 -70.1051 -41.9085 -41.8736 -41.8665 -41.8600
   -41.8400 -41.8237 -41.8098 -41.7290 -41.6970 -41.6943 -41.6412 -41.6136
   -41.5911 -41.5833 -41.5253 -41.4892 -41.4815 -41.4730 -41.4620 -41.4438
   -41.4377 -41.3992 -41.3847 -41.3812 -41.3733 -41.3684 -41.3439 -41.3342
   -41.3263 -41.3116 -41.3031 -41.2598 -41.2555 -41.2478 -41.2226 -41.1519
    -9.2480  -4.7450  -3.8068  -2.6606  -2.2784  -2.2494  -1.9900  -1.9116
    -1.8545  -1.6960  -1.5453  -1.3075  -1.2651  -1.2027  -1.0676  -1.0236
    -0.8934  -0.6228  -0.4734  -0.3211  -0.1576   0.0320   0.1000   0.4070
     0.4516   0.5195   0.5920   0.6777   0.7120   0.8625   0.9204   0.9881
     1.0166   1.0619   1.1306   1.1880   1.2885   1.3663   1.3840   1.4532
     1.4904   1.6606   1.7142   1.7379   1.8282   1.9861   2.1795   2.2016

          k = 0.0649-0.0375 0.0000 ( 14026 PWs)   bands (ev):

   -70.3406 -70.2793 -70.2629 -70.2379 -70.2244 -70.2164 -70.2069 -70.1921
   -70.1816 -70.1348 -70.1126 -70.1091 -41.8820 -41.8771 -41.8548 -41.8289
   -41.8234 -41.8135 -41.7924 -41.7068 -41.7043 -41.6618 -41.6447 -41.6156
   -41.6000 -41.5796 -41.5072 -41.5001 -41.4833 -41.4734 -41.4678 -41.4546
   -41.4492 -41.4239 -41.4095 -41.3873 -41.3760 -41.3671 -41.3381 -41.3330
   -41.3248 -41.3195 -41.3168 -41.3118 -41.2575 -41.2525 -41.2214 -41.1547
    -9.2387  -4.5414  -3.7047  -2.6955  -2.5056  -2.0146  -1.8410  -1.8308
    -1.7236  -1.6244  -1.5224  -1.3057  -1.1539  -1.1054  -1.0516  -0.9099
    -0.7545  -0.5623  -0.3954  -0.3249  -0.2292   0.0172   0.0513   0.2853
     0.3428   0.4486   0.5232   0.5893   0.7543   0.8024   0.8423   0.8766
     0.9434   1.0088   1.0534   1.1896   1.2568   1.3775   1.4042   1.4514
     1.4952   1.5003   1.5194   1.6442   1.8463   1.9418   2.0529   2.2679

          k = 0.0649 0.0000 0.0000 ( 14027 PWs)   bands (ev):

   -70.3483 -70.2807 -70.2523 -70.2467 -70.2199 -70.2131 -70.2077 -70.1921
   -70.1865 -70.1243 -70.1216 -70.1051 -41.9035 -41.8827 -41.8601 -41.8571
   -41.8436 -41.8282 -41.8080 -41.7263 -41.7019 -41.6906 -41.6425 -41.6124
   -41.5945 -41.5816 -41.5180 -41.4958 -41.4773 -41.4712 -41.4662 -41.4462
   -41.4369 -41.3951 -41.3857 -41.3761 -41.3745 -41.3677 -41.3442 -41.3330
   -41.3274 -41.3165 -41.2985 -41.2591 -41.2566 -41.2550 -41.2246 -41.1488
    -9.2455  -4.7320  -3.7735  -2.6155  -2.2962  -2.2668  -1.9935  -1.9319
    -1.8612  -1.8048  -1.4457  -1.3610  -1.2574  -1.2223  -1.1526  -1.0131
    -0.8692  -0.5907  -0.4296  -0.3377  -0.2420   0.1349   0.2392   0.4125
     0.4420   0.4835   0.5376   0.6011   0.7478   0.8384   0.8842   0.9556
     1.0137   1.0817   1.1426   1.1877   1.3085   1.3744   1.3884   1.4531
     1.5168   1.6754   1.7255   1.7393   1.7720   1.9996   2.1274   2.2441

          k = 0.0649 0.0375 0.0000 ( 14026 PWs)   bands (ev):

   -70.3406 -70.2793 -70.2628 -70.2380 -70.2244 -70.2164 -70.2069 -70.1920
   -70.1816 -70.1348 -70.1125 -70.1091 -41.8820 -41.8772 -41.8548 -41.8290
   -41.8234 -41.8135 -41.7924 -41.7068 -41.7043 -41.6618 -41.6447 -41.6156
   -41.5999 -41.5796 -41.5072 -41.5001 -41.4833 -41.4735 -41.4677 -41.4547
   -41.4492 -41.4239 -41.4095 -41.3873 -41.3760 -41.3671 -41.3380 -41.3331
   -41.3248 -41.3195 -41.3168 -41.3118 -41.2575 -41.2525 -41.2214 -41.1547
    -9.2387  -4.5414  -3.7047  -2.6955  -2.5056  -2.0146  -1.8410  -1.8308
    -1.7236  -1.6244  -1.5224  -1.3057  -1.1539  -1.1054  -1.0516  -0.9100
    -0.7545  -0.5623  -0.3954  -0.3249  -0.2292   0.0172   0.0513   0.2853
     0.3428   0.4486   0.5232   0.5893   0.7543   0.8024   0.8423   0.8766
     0.9434   1.0088   1.0534   1.1896   1.2568   1.3775   1.4041   1.4514
     1.4953   1.5003   1.5194   1.6442   1.8463   1.9418   2.0529   2.2679

          k = 0.0649-0.1500 0.0000 ( 13990 PWs)   bands (ev):

   -70.3197 -70.2854 -70.2584 -70.2527 -70.2289 -70.2149 -70.2086 -70.1920
   -70.1671 -70.1434 -70.1259 -70.1020 -41.8492 -41.8272 -41.8110 -41.7920
   -41.7895 -41.7759 -41.7510 -41.6960 -41.6725 -41.6569 -41.6526 -41.6201
   -41.5948 -41.5709 -41.5469 -41.5110 -41.5024 -41.4801 -41.4760 -41.4627
   -41.4500 -41.4420 -41.4269 -41.4090 -41.3987 -41.3955 -41.3609 -41.3497
   -41.3447 -41.3364 -41.3132 -41.2917 -41.2837 -41.2783 -41.2228 -41.1855
    -9.2253  -4.0650  -3.5176  -2.8977  -2.2308  -2.1322  -1.8447  -1.5993
    -1.4530  -1.3844  -1.1721  -1.0682  -0.9661  -0.8558  -0.8333  -0.6911
    -0.6447  -0.4945  -0.3976  -0.2846  -0.2331  -0.1592  -0.0323   0.0299
     0.1179   0.1959   0.3118   0.3942   0.5246   0.5867   0.6329   0.6907
     0.7238   0.8058   0.8662   1.0144   1.0605   1.1086   1.2122   1.3470
     1.4883   1.5413   1.6154   1.8040   1.9285   2.0299   2.0877   2.1198

          k = 0.0649-0.1125 0.0000 ( 13962 PWs)   bands (ev):

   -70.2984 -70.2862 -70.2821 -70.2410 -70.2311 -70.2272 -70.2019 -70.1928
   -70.1488 -70.1476 -70.1431 -70.0989 -41.8089 -41.7938 -41.7815 -41.7725
   -41.7632 -41.7510 -41.7286 -41.7211 -41.7083 -41.6482 -41.6206 -41.6030
   -41.5952 -41.5894 -41.5580 -41.5232 -41.5155 -41.5062 -41.4871 -41.4760
   -41.4636 -41.4573 -41.4305 -41.4045 -41.3937 -41.3863 -41.3741 -41.3533
   -41.3469 -41.3328 -41.3219 -41.3091 -41.3044 -41.2389 -41.2339 -41.2312
    -9.2187  -3.8223  -2.9991  -2.9749  -2.8156  -1.8581  -1.8304  -1.6074
    -1.1413  -1.0779  -1.0435  -0.9055  -0.7846  -0.7722  -0.7073  -0.6889
    -0.4714  -0.4684  -0.4602  -0.4206  -0.1965  -0.1746  -0.1332  -0.1295
     0.1178   0.1533   0.1728   0.2627   0.2721   0.2977   0.3738   0.4246
     0.5085   0.6655   0.7447   0.7759   1.1370   1.2017   1.2778   1.4014
     1.4331   1.4955   1.6353   1.6919   1.8918   1.9444   2.1073   2.2330

          k = 0.0649-0.0750 0.0000 ( 13990 PWs)   bands (ev):

   -70.3197 -70.2855 -70.2584 -70.2527 -70.2289 -70.2148 -70.2087 -70.1920
   -70.1671 -70.1434 -70.1259 -70.1020 -41.8492 -41.8272 -41.8110 -41.7919
   -41.7895 -41.7759 -41.7510 -41.6960 -41.6725 -41.6569 -41.6526 -41.6202
   -41.5948 -41.5709 -41.5469 -41.5110 -41.5023 -41.4801 -41.4760 -41.4627
   -41.4500 -41.4420 -41.4269 -41.4089 -41.3987 -41.3955 -41.3609 -41.3497
   -41.3447 -41.3364 -41.3132 -41.2917 -41.2837 -41.2783 -41.2228 -41.1855
    -9.2253  -4.0650  -3.5176  -2.8977  -2.2308  -2.1322  -1.8447  -1.5993
    -1.4530  -1.3844  -1.1721  -1.0682  -0.9661  -0.8558  -0.8333  -0.6911
    -0.6447  -0.4945  -0.3976  -0.2846  -0.2331  -0.1592  -0.0323   0.0299
     0.1180   0.1959   0.3118   0.3942   0.5246   0.5867   0.6329   0.6908
     0.7238   0.8058   0.8662   1.0144   1.0605   1.1086   1.2122   1.3470
     1.4883   1.5413   1.6154   1.8040   1.9284   2.0299   2.0877   2.1198

          k =-0.0974 0.0562 0.0000 ( 14010 PWs)   bands (ev):

   -70.3114 -70.3019 -70.2532 -70.2421 -70.2337 -70.2187 -70.2075 -70.1921
   -70.1605 -70.1563 -70.1126 -70.1091 -41.8423 -41.8363 -41.8146 -41.8075
   -41.7982 -41.7857 -41.7050 -41.6906 -41.6811 -41.6699 -41.6468 -41.6292
   -41.5705 -41.5540 -41.5157 -41.5074 -41.5022 -41.4837 -41.4762 -41.4689
   -41.4570 -41.4533 -41.4322 -41.4248 -41.4074 -41.4038 -41.3724 -41.3638
   -41.3346 -41.3245 -41.3104 -41.3038 -41.2972 -41.2806 -41.1910 -41.1853
    -9.2239  -3.9133  -3.5359  -3.2702  -2.2444  -1.9321  -1.5712  -1.5154
    -1.4807  -1.4773  -1.3420  -1.2082  -0.9950  -0.8003  -0.7768  -0.6211
    -0.6108  -0.5102  -0.4336  -0.3332  -0.1251  -0.0643  -0.0386   0.0252
     0.0739   0.2013   0.3577   0.4298   0.5794   0.6061   0.6144   0.7114
     0.7595   0.8070   0.9127   0.9900   1.0304   1.0776   1.0992   1.2716
     1.5145   1.5258   1.7566   1.8538   2.0189   2.0274   2.0377   2.0794

          k =-0.0974 0.0937 0.0000 ( 13990 PWs)   bands (ev):

   -70.3197 -70.2853 -70.2614 -70.2475 -70.2317 -70.2152 -70.2081 -70.1917
   -70.1672 -70.1433 -70.1259 -70.1020 -41.8453 -41.8296 -41.8100 -41.7965
   -41.7867 -41.7782 -41.7500 -41.6973 -41.6697 -41.6636 -41.6447 -41.6234
   -41.5977 -41.5688 -41.5423 -41.5134 -41.4976 -41.4845 -41.4746 -41.4631
   -41.4482 -41.4433 -41.4281 -41.4094 -41.3994 -41.3902 -41.3615 -41.3511
   -41.3434 -41.3389 -41.3117 -41.2945 -41.2838 -41.2794 -41.2240 -41.1835
    -9.2240  -4.0309  -3.5352  -2.8874  -2.2202  -2.1370  -1.8716  -1.6461
    -1.4586  -1.3072  -1.2045  -1.1112  -0.9766  -0.8809  -0.8223  -0.7553
    -0.6086  -0.4413  -0.3721  -0.2849  -0.1752  -0.1416  -0.0408   0.0170
     0.1164   0.2194   0.2845   0.3900   0.5241   0.5869   0.6127   0.6576
     0.7403   0.7952   0.8562   0.9830   1.0340   1.0748   1.2824   1.3415
     1.4972   1.5493   1.6120   1.8499   1.9146   1.9989   2.0760   2.1312

          k =-0.0974 0.1312 0.0000 ( 13990 PWs)   bands (ev):

   -70.3197 -70.2853 -70.2614 -70.2475 -70.2317 -70.2153 -70.2081 -70.1917
   -70.1671 -70.1433 -70.1259 -70.1020 -41.8453 -41.8296 -41.8100 -41.7965
   -41.7868 -41.7782 -41.7500 -41.6973 -41.6696 -41.6636 -41.6447 -41.6234
   -41.5977 -41.5689 -41.5424 -41.5134 -41.4976 -41.4845 -41.4746 -41.4631
   -41.4482 -41.4433 -41.4281 -41.4094 -41.3995 -41.3902 -41.3615 -41.3511
   -41.3434 -41.3389 -41.3117 -41.2945 -41.2838 -41.2794 -41.2240 -41.1835
    -9.2240  -4.0309  -3.5352  -2.8874  -2.2202  -2.1370  -1.8716  -1.6461
    -1.4586  -1.3072  -1.2045  -1.1112  -0.9766  -0.8809  -0.8223  -0.7553
    -0.6086  -0.4413  -0.3721  -0.2848  -0.1752  -0.1416  -0.0408   0.0170
     0.1164   0.2194   0.2845   0.3900   0.5241   0.5869   0.6127   0.6577
     0.7402   0.7952   0.8562   0.9830   1.0341   1.0748   1.2824   1.3415
     1.4972   1.5493   1.6120   1.8499   1.9146   1.9989   2.0760   2.1312

          k =-0.0974-0.0562 0.0000 ( 14010 PWs)   bands (ev):

   -70.3114 -70.3019 -70.2532 -70.2421 -70.2338 -70.2187 -70.2075 -70.1921
   -70.1604 -70.1564 -70.1125 -70.1092 -41.8423 -41.8363 -41.8145 -41.8075
   -41.7983 -41.7857 -41.7050 -41.6906 -41.6811 -41.6699 -41.6467 -41.6292
   -41.5703 -41.5540 -41.5157 -41.5076 -41.5023 -41.4837 -41.4762 -41.4688
   -41.4571 -41.4533 -41.4322 -41.4248 -41.4074 -41.4037 -41.3724 -41.3638
   -41.3347 -41.3244 -41.3104 -41.3039 -41.2972 -41.2806 -41.1910 -41.1854
    -9.2239  -3.9133  -3.5359  -3.2702  -2.2444  -1.9321  -1.5712  -1.5154
    -1.4807  -1.4773  -1.3420  -1.2083  -0.9950  -0.8003  -0.7768  -0.6211
    -0.6108  -0.5102  -0.4336  -0.3332  -0.1251  -0.0643  -0.0386   0.0252
     0.0739   0.2013   0.3577   0.4298   0.5794   0.6061   0.6144   0.7115
     0.7595   0.8070   0.9127   0.9901   1.0305   1.0775   1.0992   1.2716
     1.5145   1.5258   1.7566   1.8538   2.0189   2.0274   2.0377   2.0794

     the Fermi energy is     1.3627 ev

!    total energy              =   -2127.65435696 Ry
     Harris-Foulkes estimate   =   -2127.65436250 Ry
     estimated scf accuracy    <       0.00000568 Ry

     The total energy is the sum of the following terms:

     one-electron contribution =  -19855.25420636 Ry
     hartree contribution      =    9921.21731478 Ry
     xc contribution           =    -283.38739117 Ry
     ewald contribution        =    8089.90261047 Ry
     electric field correction =       0.00001797 Ry
     smearing contrib. (-TS)   =      -0.13270266 Ry

     convergence has been achieved in  47 iterations
 
 BEEF-vdW xc energy contributions
           1 :   -245.242556623439     
           2 :    220.762525298509     
           3 :   -179.916361538411     
           4 :    135.001031059572     
           5 :   -97.1606243872935     
           6 :    72.3507304770587     
           7 :   -60.2323434486221     
           8 :    56.0295288793982     
           9 :   -53.9387643114888     
          10 :    50.1315787417446     
          11 :   -43.9690754135042     
          12 :    37.2306287559001     
          13 :   -32.2415749711575     
          14 :    30.1716127159237     
          15 :   -30.4205779114199     
          16 :    31.2246296983466     
          17 :   -30.8981686724809     
          18 :    28.8523323709662     
          19 :   -25.7973065329428     
          20 :    23.1036582726338     
          21 :   -21.8224577841419     
          22 :    22.0231879640635     
          23 :   -22.8405639505047     
          24 :    23.1255024143145     
          25 :   -22.2178668965243     
          26 :    20.3269114861728     
          27 :   -18.3136875203663     
          28 :    17.0734695144763     
          29 :   -16.9520999945667     
          30 :    17.5642186483692     
          31 :   -24.3713612269545     
          32 :   -17.5294356828465     

     Forces acting on atoms (Ry/au):


     negative rho (up, down):  1.464E-02 0.000E+00
     atom    1 type  1   force =    -0.00000682    0.00060542    0.00020638
     atom    2 type  1   force =     0.00001396    0.00046700   -0.00011255
     atom    3 type  1   force =    -0.00094549   -0.00087612   -0.00031126
     atom    4 type  1   force =     0.00093739   -0.00087996   -0.00034611
     atom    5 type  1   force =     0.00014650    0.00120229   -0.00072664
     atom    6 type  1   force =    -0.00015079    0.00119440   -0.00070449
     atom    7 type  1   force =    -0.00001541   -0.00488058   -0.01054145
     atom    8 type  1   force =     0.00001664    0.00503117    0.00321189
     atom    9 type  1   force =    -0.00635739   -0.00115956    0.07231730
     atom   10 type  1   force =     0.00636030   -0.00117986    0.07232172
     atom   11 type  1   force =    -0.00000879    0.00141714    0.01318810
     atom   12 type  1   force =     0.00001823   -0.00210982    0.00481101
     atom   13 type  2   force =    -0.00000703    0.00137556   -0.14049569
     atom   14 type  3   force =    -0.00000131   -0.00020707   -0.01281821

     Total force =     0.175079     Total SCF correction =     0.003873


     entering subroutine stress ...


     negative rho (up, down):  1.464E-02 0.000E+00
          total   stress  (Ry/bohr**3)                   (kbar)     P=  -32.98
  -0.00027448   0.00000001  -0.00000004        -40.38      0.00     -0.01
   0.00000001  -0.00026177  -0.00000047          0.00    -38.51     -0.07
  -0.00000004  -0.00000047  -0.00013627         -0.01     -0.07    -20.05


     BFGS Geometry Optimization

     number of scf cycles    =   1
     number of bfgs steps    =   0

     energy   new            =   -2127.6543569612 Ry

     new trust radius        =       0.1405024218 bohr
     new conv_thr            =       0.0000099958 Ry


ATOMIC_POSITIONS (crystal)
Cr1      0.166666667   0.166666667   0.413381306    0   0   0
Cr1      0.666666667   0.166666667   0.413381306    0   0   0
Cr1      0.166666667   0.666666667   0.413381306    0   0   0
Cr1      0.666666667   0.666666667   0.413381306    0   0   0
Cr1      0.833333333   0.333333333   0.500000000    0   0   0
Cr1      0.333333333   0.333333333   0.500000000    0   0   0
Cr1      0.833333333   0.833333333   0.500000000    0   0   0
Cr1      0.333333333   0.833333333   0.500000000    0   0   0
Cr1     -0.000586432  -0.000138048   0.588200650
Cr1      0.500725988  -0.000140463   0.588200746
Cr1     -0.000085262   0.500168712   0.586907187
Cr1      0.500127468   0.499748823   0.586723936
C1       0.249917395   0.000163762   0.650203059
H1       0.250012191  -0.000024652   0.698467973



     Writing output data file calc.save
     Check: negative starting charge=   -0.014798
     NEW-OLD atomic charge density approx. for the potential

     Check: negative/imaginary core charge=   -0.000004    0.000000
     Check: negative starting charge=   -0.014887

     negative rho (up, down):  1.480E-02 0.000E+00
 
     Adding external electric field

     Computed dipole along edir(3) : 
        Dipole                0.2356 Ry au,          0.5989 Debye
        Dipole field          0.0008 Ry au
 
        Potential amp.       -0.0709 Ry
        Total length         44.5710 bohr
 

     total cpu time spent up to now is      759.3 secs

     per-process dynamical memory:   112.1 Mb

     Self-consistent Calculation

     iteration #  1     ecut=    36.75 Ry     beta=0.30
     Davidson diagonalization with overlap
     ethr =  1.00E-06,  avg # of iterations = 16.3

     negative rho (up, down):  1.470E-02 0.000E+00
 
     Adding external electric field

     Computed dipole along edir(3) : 
        Dipole               -4.0597 Ry au,        -10.3188 Debye
        Dipole field         -0.0137 Ry au
 
        Potential amp.        1.2211 Ry
        Total length         44.5710 bohr
 

     total cpu time spent up to now is      790.0 secs

     total energy              =   -2125.97974391 Ry
     Harris-Foulkes estimate   =   -2127.65479660 Ry
     estimated scf accuracy    <       3.42444431 Ry

     iteration #  2     ecut=    36.75 Ry     beta=0.30
     Davidson diagonalization with overlap
     ethr =  1.98E-03,  avg # of iterations =  8.3

     negative rho (up, down):  1.531E-02 0.000E+00
 
     Adding external electric field

     Computed dipole along edir(3) : 
        Dipole                0.2930 Ry au,          0.7447 Debye
        Dipole field          0.0010 Ry au
 
        Potential amp.       -0.0881 Ry
        Total length         44.5710 bohr
 

     total cpu time spent up to now is      811.3 secs

     total energy              =   -2118.60435795 Ry
     Harris-Foulkes estimate   =   -2149.64556607 Ry
     estimated scf accuracy    <     977.00003460 Ry

     iteration #  3     ecut=    36.75 Ry     beta=0.30
     Davidson diagonalization with overlap
     ethr =  1.98E-03,  avg # of iterations =  6.5

     negative rho (up, down):  1.585E-02 0.000E+00
 
     Adding external electric field

     Computed dipole along edir(3) : 
        Dipole                0.2221 Ry au,          0.5645 Debye
        Dipole field          0.0007 Ry au
 
        Potential amp.       -0.0668 Ry
        Total length         44.5710 bohr
 

     total cpu time spent up to now is      831.5 secs

     total energy              =   -2127.03115203 Ry
     Harris-Foulkes estimate   =   -2128.46213329 Ry
     estimated scf accuracy    <      32.78989957 Ry

     iteration #  4     ecut=    36.75 Ry     beta=0.30
     Davidson diagonalization with overlap
     ethr =  1.98E-03,  avg # of iterations =  5.0

     negative rho (up, down):  1.569E-02 0.000E+00
 
     Adding external electric field

     Computed dipole along edir(3) : 
        Dipole                0.1640 Ry au,          0.4168 Debye
        Dipole field          0.0006 Ry au
 
        Potential amp.       -0.0493 Ry
        Total length         44.5710 bohr
 

     total cpu time spent up to now is      845.1 secs

     total energy              =   -2127.53482969 Ry
     Harris-Foulkes estimate   =   -2127.59394482 Ry
     estimated scf accuracy    <       6.12772863 Ry

     iteration #  5     ecut=    36.75 Ry     beta=0.30
     Davidson diagonalization with overlap
     ethr =  1.98E-03,  avg # of iterations =  2.3

     negative rho (up, down):  1.568E-02 0.000E+00
 
     Adding external electric field

     Computed dipole along edir(3) : 
        Dipole                0.1273 Ry au,          0.3235 Debye
        Dipole field          0.0004 Ry au
 
        Potential amp.       -0.0383 Ry
        Total length         44.5710 bohr
 

     total cpu time spent up to now is      857.6 secs

     total energy              =   -2127.56645331 Ry
     Harris-Foulkes estimate   =   -2127.59631169 Ry
     estimated scf accuracy    <       2.85282673 Ry

     iteration #  6     ecut=    36.75 Ry     beta=0.30
     Davidson diagonalization with overlap
     ethr =  1.65E-03,  avg # of iterations =  1.0

     negative rho (up, down):  1.553E-02 0.000E+00
 
     Adding external electric field

     Computed dipole along edir(3) : 
        Dipole                0.1168 Ry au,          0.2969 Debye
        Dipole field          0.0004 Ry au
 
        Potential amp.       -0.0351 Ry
        Total length         44.5710 bohr
 

     total cpu time spent up to now is      869.7 secs

     total energy              =   -2127.57921077 Ry
     Harris-Foulkes estimate   =   -2127.59809701 Ry
     estimated scf accuracy    <       1.15409205 Ry

     iteration #  7     ecut=    36.75 Ry     beta=0.30
     Davidson diagonalization with overlap
     ethr =  6.67E-04,  avg # of iterations =  5.3

     negative rho (up, down):  1.527E-02 0.000E+00
 
     Adding external electric field

     Computed dipole along edir(3) : 
        Dipole                0.1202 Ry au,          0.3056 Debye
        Dipole field          0.0004 Ry au
 
        Potential amp.       -0.0362 Ry
        Total length         44.5710 bohr
 

     total cpu time spent up to now is      884.6 secs

     total energy              =   -2127.66759557 Ry
     Harris-Foulkes estimate   =   -2127.67210072 Ry
     estimated scf accuracy    <       0.19750445 Ry

     iteration #  8     ecut=    36.75 Ry     beta=0.30
     Davidson diagonalization with overlap
     ethr =  1.14E-04,  avg # of iterations =  7.2

     negative rho (up, down):  1.510E-02 0.000E+00
 
     Adding external electric field

     Computed dipole along edir(3) : 
        Dipole                0.1235 Ry au,          0.3140 Debye
        Dipole field          0.0004 Ry au
 
        Potential amp.       -0.0372 Ry
        Total length         44.5710 bohr
 

     total cpu time spent up to now is      901.0 secs

     total energy              =   -2127.67431898 Ry
     Harris-Foulkes estimate   =   -2127.68136983 Ry
     estimated scf accuracy    <       0.33362315 Ry

     iteration #  9     ecut=    36.75 Ry     beta=0.30
     Davidson diagonalization with overlap
     ethr =  1.14E-04,  avg # of iterations =  1.2

     negative rho (up, down):  1.500E-02 0.000E+00
 
     Adding external electric field

     Computed dipole along edir(3) : 
        Dipole                0.1210 Ry au,          0.3074 Debye
        Dipole field          0.0004 Ry au
 
        Potential amp.       -0.0364 Ry
        Total length         44.5710 bohr
 

     total cpu time spent up to now is      912.9 secs

     total energy              =   -2127.67366936 Ry
     Harris-Foulkes estimate   =   -2127.67613763 Ry
     estimated scf accuracy    <       0.13855555 Ry

     iteration # 10     ecut=    36.75 Ry     beta=0.30
     Davidson diagonalization with overlap
     ethr =  8.01E-05,  avg # of iterations =  1.2

     negative rho (up, down):  1.489E-02 0.000E+00
 
     Adding external electric field

     Computed dipole along edir(3) : 
        Dipole                0.1144 Ry au,          0.2907 Debye
        Dipole field          0.0004 Ry au
 
        Potential amp.       -0.0344 Ry
        Total length         44.5710 bohr
 

     total cpu time spent up to now is      925.0 secs

     total energy              =   -2127.67303611 Ry
     Harris-Foulkes estimate   =   -2127.67463192 Ry
     estimated scf accuracy    <       0.07767521 Ry

     iteration # 11     ecut=    36.75 Ry     beta=0.30
     Davidson diagonalization with overlap
     ethr =  4.49E-05,  avg # of iterations =  2.6

     negative rho (up, down):  1.474E-02 0.000E+00
 
     Adding external electric field

     Computed dipole along edir(3) : 
        Dipole                0.1082 Ry au,          0.2750 Debye
        Dipole field          0.0004 Ry au
 
        Potential amp.       -0.0325 Ry
        Total length         44.5710 bohr
 

     total cpu time spent up to now is      938.6 secs

     total energy              =   -2127.67266853 Ry
     Harris-Foulkes estimate   =   -2127.67396684 Ry
     estimated scf accuracy    <       0.04808408 Ry

     iteration # 12     ecut=    36.75 Ry     beta=0.30
     Davidson diagonalization with overlap
     ethr =  2.78E-05,  avg # of iterations =  4.4

     negative rho (up, down):  1.466E-02 0.000E+00
 
     Adding external electric field

     Computed dipole along edir(3) : 
        Dipole                0.1003 Ry au,          0.2550 Debye
        Dipole field          0.0003 Ry au
 
        Potential amp.       -0.0302 Ry
        Total length         44.5710 bohr
 

     total cpu time spent up to now is      951.9 secs

     total energy              =   -2127.67400832 Ry
     Harris-Foulkes estimate   =   -2127.67430935 Ry
     estimated scf accuracy    <       0.00236430 Ry

     iteration # 13     ecut=    36.75 Ry     beta=0.30
     Davidson diagonalization with overlap
     ethr =  1.37E-06,  avg # of iterations =  6.2

     negative rho (up, down):  1.469E-02 0.000E+00
 
     Adding external electric field

     Computed dipole along edir(3) : 
        Dipole                0.0930 Ry au,          0.2365 Debye
        Dipole field          0.0003 Ry au
 
        Potential amp.       -0.0280 Ry
        Total length         44.5710 bohr
 

     total cpu time spent up to now is      970.2 secs

     total energy              =   -2127.67517869 Ry
     Harris-Foulkes estimate   =   -2127.67602560 Ry
     estimated scf accuracy    <       0.03187665 Ry

     iteration # 14     ecut=    36.75 Ry     beta=0.30
     Davidson diagonalization with overlap
     ethr =  1.37E-06,  avg # of iterations =  3.0

     negative rho (up, down):  1.470E-02 0.000E+00
 
     Adding external electric field

     Computed dipole along edir(3) : 
        Dipole                0.0940 Ry au,          0.2388 Debye
        Dipole field          0.0003 Ry au
 
        Potential amp.       -0.0283 Ry
        Total length         44.5710 bohr
 

     total cpu time spent up to now is      982.9 secs

[...]
    -0.7551  -0.6693  -0.5430  -0.3368  -0.1600   0.0630   0.1383   0.4248
     0.4547   0.5221   0.6070   0.6571   0.7503   0.8223   0.8988   0.9764
     1.0345   1.0983   1.2153   1.2457   1.3575   1.3775   1.4305   1.5151
     1.5320   1.7006   1.7336   1.7749   1.8733   2.0739   2.2191   2.2842

          k = 0.0649-0.0375 0.0000 ( 14026 PWs)   bands (ev):

   -70.3143 -70.2659 -70.2369 -70.2125 -70.1897 -70.1873 -70.1373 -70.1248
   -70.0859 -70.0616 -70.0609 -70.0338 -41.8633 -41.8559 -41.8301 -41.8106
   -41.7961 -41.7807 -41.7433 -41.6740 -41.6616 -41.6323 -41.6123 -41.5843
   -41.5608 -41.5396 -41.5146 -41.4733 -41.4477 -41.4338 -41.4178 -41.4019
   -41.3874 -41.3688 -41.3559 -41.3497 -41.3353 -41.3102 -41.2930 -41.2860
   -41.2746 -41.2689 -41.2564 -41.2130 -41.2016 -41.1734 -41.1070 -41.0477
    -9.5887  -4.5684  -3.8764  -2.7732  -2.4657  -2.1278  -1.9585  -1.7675
    -1.7325  -1.6088  -1.5039  -1.3165  -1.1706  -1.0765  -1.0046  -0.9381
    -0.7895  -0.6170  -0.4522  -0.3126  -0.1248  -0.0251   0.0834   0.2435
     0.3550   0.4358   0.4940   0.5677   0.7262   0.7726   0.8649   0.9225
     0.9641   1.0290   1.1303   1.2097   1.2815   1.4297   1.4554   1.4882
     1.5146   1.5703   1.6628   1.7501   1.9290   2.0602   2.1570   2.3125

          k = 0.0649 0.0000 0.0000 ( 14027 PWs)   bands (ev):

   -70.3204 -70.2673 -70.2330 -70.2110 -70.1935 -70.1830 -70.1420 -70.1239
   -70.0742 -70.0731 -70.0555 -70.0339 -41.8773 -41.8642 -41.8353 -41.8330
   -41.8187 -41.8040 -41.7522 -41.6824 -41.6742 -41.6462 -41.6166 -41.5853
   -41.5529 -41.5378 -41.5139 -41.4653 -41.4482 -41.4201 -41.4123 -41.3992
   -41.3852 -41.3643 -41.3517 -41.3456 -41.3274 -41.2975 -41.2916 -41.2879
   -41.2739 -41.2528 -41.2107 -41.2095 -41.1888 -41.1804 -41.1005 -41.0500
    -9.5979  -4.7304  -3.9511  -2.5970  -2.4187  -2.3466  -2.0994  -1.9179
    -1.8052  -1.7010  -1.5070  -1.4000  -1.2376  -1.1833  -1.0980  -1.0152
    -0.8252  -0.6315  -0.5463  -0.3920  -0.0053   0.0659   0.1556   0.3452
     0.4320   0.4844   0.5456   0.6144   0.7309   0.8120   0.8615   0.9372
     1.0567   1.1476   1.1753   1.2895   1.3113   1.4162   1.4454   1.5118
     1.5986   1.6662   1.7311   1.8761   1.9394   2.1693   2.2264   2.3183

          k = 0.0649 0.0375 0.0000 ( 14026 PWs)   bands (ev):

   -70.3143 -70.2659 -70.2369 -70.2125 -70.1897 -70.1873 -70.1373 -70.1248
   -70.0859 -70.0616 -70.0609 -70.0338 -41.8633 -41.8559 -41.8302 -41.8106
   -41.7961 -41.7807 -41.7433 -41.6740 -41.6616 -41.6323 -41.6123 -41.5843
   -41.5608 -41.5396 -41.5146 -41.4733 -41.4477 -41.4338 -41.4178 -41.4019
   -41.3874 -41.3688 -41.3560 -41.3497 -41.3353 -41.3102 -41.2930 -41.2860
   -41.2746 -41.2689 -41.2564 -41.2130 -41.2016 -41.1734 -41.1070 -41.0477
    -9.5887  -4.5684  -3.8764  -2.7732  -2.4657  -2.1278  -1.9585  -1.7675
    -1.7325  -1.6088  -1.5039  -1.3165  -1.1706  -1.0765  -1.0046  -0.9381
    -0.7895  -0.6170  -0.4522  -0.3126  -0.1248  -0.0251   0.0834   0.2435
     0.3550   0.4358   0.4940   0.5677   0.7262   0.7726   0.8649   0.9225
     0.9641   1.0290   1.1303   1.2097   1.2815   1.4297   1.4554   1.4882
     1.5146   1.5703   1.6628   1.7501   1.9290   2.0602   2.1570   2.3125

          k = 0.0649-0.1500 0.0000 ( 13990 PWs)   bands (ev):

   -70.3002 -70.2622 -70.2413 -70.2204 -70.2001 -70.1786 -70.1331 -70.1181
   -70.0949 -70.0769 -70.0522 -70.0335 -41.8349 -41.8178 -41.7999 -41.7626
   -41.7509 -41.7442 -41.7123 -41.6714 -41.6411 -41.6223 -41.6095 -41.5928
   -41.5655 -41.5468 -41.5193 -41.4698 -41.4635 -41.4435 -41.4321 -41.4113
   -41.4017 -41.3851 -41.3732 -41.3561 -41.3517 -41.3322 -41.3159 -41.3121
   -41.2943 -41.2668 -41.2504 -41.2372 -41.2253 -41.1746 -41.1379 -41.0497
    -9.5707  -4.2294  -3.6036  -2.8917  -2.3341  -2.1383  -1.8612  -1.6925
    -1.5194  -1.4557  -1.1938  -1.0607  -0.9623  -0.8766  -0.7968  -0.7537
    -0.6482  -0.5312  -0.3567  -0.2713  -0.2290  -0.0851  -0.0764   0.0460
     0.1352   0.2475   0.2958   0.3621   0.5313   0.6022   0.6820   0.7045
     0.7659   0.8165   0.9072   1.0432   1.0867   1.1547   1.2921   1.4585
     1.5570   1.5819   1.7156   1.9290   1.9695   2.0664   2.1500   2.1731

          k = 0.0649-0.1125 0.0000 ( 13962 PWs)   bands (ev):

   -70.2924 -70.2553 -70.2443 -70.2313 -70.2024 -70.1748 -70.1348 -70.0991
   -70.0979 -70.0971 -70.0489 -70.0334 -41.8062 -41.8001 -41.7638 -41.7413
   -41.7273 -41.7180 -41.6948 -41.6792 -41.6717 -41.6434 -41.5867 -41.5777
   -41.5598 -41.5410 -41.5136 -41.4889 -41.4731 -41.4578 -41.4474 -41.4341
   -41.4133 -41.3850 -41.3781 -41.3594 -41.3491 -41.3486 -41.3332 -41.3017
   -41.2980 -41.2811 -41.2547 -41.2392 -41.1907 -41.1868 -41.1837 -41.0532
    -9.5620  -4.1003  -3.0205  -2.9738  -2.7553  -2.0687  -1.9312  -1.5536
    -1.3873  -1.2474  -1.0067  -0.9294  -0.7739  -0.7508  -0.6382  -0.6119
    -0.4446  -0.4319  -0.4211  -0.3714  -0.2895  -0.2359  -0.1946  -0.0371
     0.0535   0.1304   0.2223   0.2835   0.3249   0.3423   0.3818   0.4689
     0.6093   0.7348   0.7881   0.8350   1.2146   1.2369   1.3041   1.4481
     1.5077   1.5319   1.7420   1.8403   1.9088   2.0372   2.1754   2.2976

          k = 0.0649-0.0750 0.0000 ( 13990 PWs)   bands (ev):

   -70.3002 -70.2622 -70.2413 -70.2204 -70.2001 -70.1786 -70.1331 -70.1181
   -70.0949 -70.0769 -70.0522 -70.0335 -41.8349 -41.8178 -41.7999 -41.7626
   -41.7509 -41.7442 -41.7123 -41.6714 -41.6411 -41.6223 -41.6095 -41.5929
   -41.5655 -41.5468 -41.5193 -41.4698 -41.4635 -41.4435 -41.4321 -41.4113
   -41.4017 -41.3851 -41.3732 -41.3561 -41.3517 -41.3322 -41.3159 -41.3121
   -41.2943 -41.2667 -41.2504 -41.2372 -41.2253 -41.1746 -41.1379 -41.0497
    -9.5707  -4.2294  -3.6036  -2.8917  -2.3341  -2.1383  -1.8612  -1.6925
    -1.5194  -1.4557  -1.1938  -1.0607  -0.9623  -0.8766  -0.7968  -0.7537
    -0.6482  -0.5312  -0.3567  -0.2713  -0.2290  -0.0851  -0.0764   0.0460
     0.1352   0.2475   0.2958   0.3621   0.5313   0.6022   0.6820   0.7045
     0.7659   0.8165   0.9072   1.0432   1.0867   1.1547   1.2921   1.4585
     1.5570   1.5819   1.7156   1.9290   1.9695   2.0664   2.1500   2.1731

          k =-0.0974 0.0562 0.0000 ( 14010 PWs)   bands (ev):

   -70.2961 -70.2676 -70.2443 -70.2184 -70.1896 -70.1882 -70.1311 -70.1107
   -70.1091 -70.0616 -70.0609 -70.0338 -41.8287 -41.8220 -41.7865 -41.7800
   -41.7590 -41.7544 -41.6679 -41.6647 -41.6553 -41.6388 -41.6153 -41.5958
   -41.5704 -41.5228 -41.5179 -41.4833 -41.4527 -41.4335 -41.4249 -41.4078
   -41.3995 -41.3869 -41.3759 -41.3656 -41.3625 -41.3361 -41.3199 -41.3103
   -41.2926 -41.2763 -41.2691 -41.2519 -41.2079 -41.1414 -41.1397 -41.0589
    -9.5621  -4.1130  -3.5577  -3.2379  -2.3724  -1.9092  -1.7732  -1.5598
    -1.5157  -1.4273  -1.4096  -1.1399  -1.0839  -0.7986  -0.7547  -0.7089
    -0.6355  -0.5256  -0.4735  -0.3093  -0.1404  -0.1063   0.0072   0.0313
     0.0783   0.2304   0.3442   0.3852   0.5862   0.6295   0.7213   0.7419
     0.7741   0.8079   0.9103   1.0529   1.0618   1.0895   1.1975   1.4634
     1.6168   1.6481   1.8231   1.8754   1.9322   2.0961   2.1239   2.1792

          k =-0.0974 0.0937 0.0000 ( 13990 PWs)   bands (ev):

   -70.2983 -70.2646 -70.2387 -70.2243 -70.1991 -70.1788 -70.1317 -70.1183
   -70.0948 -70.0769 -70.0522 -70.0337 -41.8286 -41.8177 -41.7780 -41.7756
   -41.7583 -41.7401 -41.7110 -41.6802 -41.6388 -41.6289 -41.6147 -41.5988
   -41.5634 -41.5501 -41.5065 -41.4776 -41.4612 -41.4414 -41.4371 -41.4114
   -41.3998 -41.3873 -41.3709 -41.3618 -41.3492 -41.3328 -41.3225 -41.3039
   -41.2871 -41.2715 -41.2511 -41.2355 -41.2093 -41.1765 -41.1354 -41.0619
    -9.5623  -4.1724  -3.5954  -2.9053  -2.3022  -2.1977  -1.9180  -1.7034
    -1.4599  -1.3976  -1.2273  -1.1750  -0.9669  -0.8699  -0.7917  -0.7423
    -0.6778  -0.4806  -0.3561  -0.2861  -0.2197  -0.1382  -0.0418   0.0151
     0.1121   0.2260   0.2662   0.3839   0.5025   0.5687   0.6696   0.7085
     0.7671   0.8145   0.9542   1.0418   1.0859   1.1943   1.2739   1.4603
     1.5578   1.6604   1.7239   1.9046   1.9342   2.0479   2.1315   2.1773

          k =-0.0974 0.1312 0.0000 ( 13990 PWs)   bands (ev):

   -70.2984 -70.2646 -70.2387 -70.2243 -70.1991 -70.1788 -70.1317 -70.1183
   -70.0948 -70.0769 -70.0522 -70.0337 -41.8287 -41.8177 -41.7780 -41.7756
   -41.7583 -41.7401 -41.7110 -41.6801 -41.6388 -41.6289 -41.6147 -41.5988
   -41.5634 -41.5501 -41.5065 -41.4776 -41.4612 -41.4414 -41.4371 -41.4114
   -41.3998 -41.3873 -41.3709 -41.3618 -41.3492 -41.3328 -41.3225 -41.3039
   -41.2871 -41.2715 -41.2511 -41.2355 -41.2093 -41.1765 -41.1354 -41.0619
    -9.5623  -4.1724  -3.5954  -2.9053  -2.3022  -2.1977  -1.9180  -1.7034
    -1.4599  -1.3976  -1.2273  -1.1750  -0.9669  -0.8699  -0.7917  -0.7423
    -0.6778  -0.4806  -0.3561  -0.2861  -0.2197  -0.1382  -0.0418   0.0151
     0.1121   0.2260   0.2662   0.3839   0.5024   0.5687   0.6697   0.7085
     0.7671   0.8145   0.9542   1.0418   1.0859   1.1943   1.2739   1.4603
     1.5578   1.6604   1.7239   1.9046   1.9342   2.0479   2.1315   2.1773

          k =-0.0974-0.0562 0.0000 ( 14010 PWs)   bands (ev):

   -70.2961 -70.2676 -70.2443 -70.2184 -70.1897 -70.1881 -70.1311 -70.1107
   -70.1092 -70.0616 -70.0609 -70.0338 -41.8287 -41.8220 -41.7865 -41.7800
   -41.7590 -41.7544 -41.6679 -41.6647 -41.6553 -41.6388 -41.6153 -41.5958
   -41.5704 -41.5228 -41.5179 -41.4833 -41.4527 -41.4335 -41.4249 -41.4078
   -41.3994 -41.3869 -41.3759 -41.3656 -41.3625 -41.3362 -41.3198 -41.3103
   -41.2927 -41.2763 -41.2691 -41.2519 -41.2079 -41.1414 -41.1397 -41.0589
    -9.5621  -4.1130  -3.5577  -3.2379  -2.3724  -1.9092  -1.7732  -1.5598
    -1.5157  -1.4273  -1.4096  -1.1399  -1.0839  -0.7986  -0.7547  -0.7089
    -0.6355  -0.5256  -0.4735  -0.3093  -0.1404  -0.1063   0.0072   0.0313
     0.0783   0.2304   0.3443   0.3852   0.5862   0.6294   0.7213   0.7419
     0.7741   0.8079   0.9103   1.0529   1.0618   1.0895   1.1975   1.4634
     1.6168   1.6481   1.8231   1.8754   1.9322   2.0961   2.1239   2.1792

     the Fermi energy is     1.4147 ev

!    total energy              =   -2127.71494067 Ry
     Harris-Foulkes estimate   =   -2127.71494067 Ry
     estimated scf accuracy    <       0.00000008 Ry

     The total energy is the sum of the following terms:

     one-electron contribution =  -19958.21866256 Ry
     hartree contribution      =    9972.96296139 Ry
     xc contribution           =    -283.62587584 Ry
     ewald contribution        =    8141.29373074 Ry
     electric field correction =       0.00003833 Ry
     smearing contrib. (-TS)   =      -0.12713272 Ry

     convergence has been achieved in  18 iterations
 
 BEEF-vdW xc energy contributions
           1 :   -245.483811688894     
           2 :    221.071033118660     
           3 :   -180.293398052779     
           4 :    135.378735614201     
           5 :   -97.4461072565618     
           6 :    72.4766896272853     
           7 :   -60.1881895344640     
           8 :    55.8603276068699     
           9 :   -53.7179979132802     
          10 :    49.9242401704471     
          11 :   -43.8025329139020     
          12 :    37.0861014567092     
          13 :   -32.0703888492204     
          14 :    29.9297247251934     
          15 :   -30.1025474451790     
          16 :    30.8750635781975     
          17 :   -30.5923810412006     
          18 :    28.6556160668178     
          19 :   -25.7264155460597     
          20 :    23.1156584415684     
          21 :   -21.8388058838464     
          22 :    21.9739476603991     
          23 :   -22.7018223185198     
          24 :    22.9285541475613     
          25 :   -22.0267207812768     
          26 :    20.1982221720752     
          27 :   -18.2615237140097     
          28 :    17.0590740721160     
          29 :   -16.9061023072646     
          30 :    17.4297093378815     
          31 :   -24.3876826364556     
          32 :   -17.5589752719152     

     Forces acting on atoms (Ry/au):


     negative rho (up, down):  1.342E-02 0.000E+00
     atom    1 type  1   force =     0.00000028    0.00341373   -0.00272979
     atom    2 type  1   force =    -0.00000121   -0.00003267   -0.00123193
     atom    3 type  1   force =    -0.00036837   -0.00104574   -0.00184952
     atom    4 type  1   force =     0.00036758   -0.00104593   -0.00185206
     atom    5 type  1   force =    -0.00335068    0.00325575    0.00673034
     atom    6 type  1   force =     0.00335032    0.00325518    0.00673069
     atom    7 type  1   force =    -0.00000111   -0.00871824   -0.02484953
     atom    8 type  1   force =     0.00000039    0.00154055    0.01895131
     atom    9 type  1   force =     0.00027892    0.00048844    0.00025126
     atom   10 type  1   force =    -0.00027724    0.00049010    0.00025336
     atom   11 type  1   force =     0.00000221   -0.00034576    0.00074425
     atom   12 type  1   force =    -0.00000055    0.00048987   -0.00106363
     atom   13 type  2   force =    -0.00000137   -0.00112675    0.00004372
     atom   14 type  3   force =     0.00000083   -0.00061852   -0.00012846

     Total force =     0.002116     Total SCF correction =     0.000399
     SCF correction compared to forces is large: reduce conv_thr to get better values


     entering subroutine stress ...


     negative rho (up, down):  1.342E-02 0.000E+00
          total   stress  (Ry/bohr**3)                   (kbar)     P=  -21.12
  -0.00016788  -0.00000000  -0.00000000        -24.70     -0.00     -0.00
  -0.00000000  -0.00026169  -0.00000347         -0.00    -38.50     -0.51
  -0.00000000  -0.00000347  -0.00000115         -0.00     -0.51     -0.17


     bfgs converged in  19 scf cycles and  18 bfgs steps
     (criteria: energy <  1.0E+00, force <  1.9E-03)

     End of BFGS Geometry Optimization

     Final energy   =   -2127.7149406669 Ry
Begin final coordinates

ATOMIC_POSITIONS (crystal)
Cr1      0.166666667   0.166666667   0.413381306    0   0   0
Cr1      0.666666667   0.166666667   0.413381306    0   0   0
Cr1      0.166666667   0.666666667   0.413381306    0   0   0
Cr1      0.666666667   0.666666667   0.413381306    0   0   0
Cr1      0.833333333   0.333333333   0.500000000    0   0   0
Cr1      0.333333333   0.333333333   0.500000000    0   0   0
Cr1      0.833333333   0.833333333   0.500000000    0   0   0
Cr1      0.333333333   0.833333333   0.500000000    0   0   0
Cr1     -0.028392749  -0.001740911   0.586221292
Cr1      0.530137141  -0.001740751   0.586221028
Cr1      0.019332111   0.461339766   0.586537415
Cr1      0.475792710   0.548420837   0.588796007
C1       0.252654114  -0.005302639   0.637978141
H1       0.249096636   0.001807641   0.683320719
End final coordinates



     Writing output data file calc.save
 
     init_run     :      7.37s CPU      7.68s WALL (       1 calls)
     electrons    :   8704.16s CPU   9239.40s WALL (      19 calls)
     update_pot   :     38.36s CPU     40.26s WALL (      18 calls)
     forces       :    209.79s CPU    221.82s WALL (      19 calls)
     stress       :    675.28s CPU    714.44s WALL (      19 calls)

     Called by init_run:
     wfcinit      :      2.69s CPU      2.74s WALL (       1 calls)
     potinit      :      1.41s CPU      1.53s WALL (       1 calls)

     Called by electrons:
     c_bands      :   4074.40s CPU   4269.86s WALL (     558 calls)
     sum_band     :   1755.39s CPU   1859.34s WALL (     558 calls)
     v_of_rho     :    588.62s CPU    641.18s WALL (     577 calls)
     newd         :   1472.31s CPU   1485.36s WALL (     577 calls)
     mix_rho      :     26.01s CPU     26.55s WALL (     558 calls)
     vdW_energy   :    190.70s CPU    210.93s WALL (    1261 calls)
     vdW_ffts     :    427.28s CPU    453.55s WALL (    2560 calls)
     vdW_v        :    180.38s CPU    186.65s WALL (    1261 calls)

     Called by c_bands:
     init_us_2    :     24.71s CPU     24.84s WALL (    5775 calls)
     cegterg      :   3669.98s CPU   3733.20s WALL (    2790 calls)

     Called by *egterg:
     h_psi        :   2223.54s CPU   2274.42s WALL (   12894 calls)
     s_psi        :    222.80s CPU    223.25s WALL (   12894 calls)
     g_psi        :     14.07s CPU     14.09s WALL (   10099 calls)
     cdiaghg      :    480.14s CPU    483.29s WALL (   12799 calls)

     Called by h_psi:
     add_vuspsi   :    232.71s CPU    233.30s WALL (   12894 calls)

     General routines
     calbec       :    349.38s CPU    352.34s WALL (   15874 calls)
     fft          :    687.06s CPU    747.80s WALL (   78057 calls)
     ffts         :      1.56s CPU      1.67s WALL (    1135 calls)
     fftw         :   1355.80s CPU   1417.66s WALL ( 1565092 calls)
     interpolate  :     13.78s CPU     14.17s WALL (    1135 calls)
     davcio       :      0.00s CPU      0.02s WALL (       5 calls)
 
     Parallel routines
     fft_scatter  :   1126.82s CPU   1236.48s WALL ( 1644284 calls)
 
     PWSCF        :     2h41m CPU        2h51m WALL

 
   This run was terminated on:   0:23:57  17Apr2018            

=------------------------------------------------------------------------------=
   JOB DONE.
=------------------------------------------------------------------------------=
Job  /afs/slac/g/suncat/bin/suncat-tsmpirun -x LD_LIBRARY_PATH -wdir /scratch/qe137755_Cd5DH pw.x -npool 4 -in pw.inp

TID   HOST_NAME   COMMAND_LINE            STATUS            TERMINATION_TIME
===== ========== ================  =======================  ===================
00000 suncat0089 pw.x -npool 4 -i  Done                     04/17/2018 00:23:57
00001 suncat0089 pw.x -npool 4 -i  Done                     04/17/2018 00:23:57
00002 suncat0089 pw.x -npool 4 -i  Done                     04/17/2018 00:23:57
00003 suncat0089 pw.x -npool 4 -i  Done                     04/17/2018 00:23:57
00004 suncat0089 pw.x -npool 4 -i  Done                     04/17/2018 00:23:57
00005 suncat0089 pw.x -npool 4 -i  Done                     04/17/2018 00:23:57
00006 suncat0089 pw.x -npool 4 -i  Done                     04/17/2018 00:23:57
00007 suncat0089 pw.x -npool 4 -i  Done                     04/17/2018 00:23:57
00008 suncat0081 pw.x -npool 4 -i  Done                     04/17/2018 00:23:57
00009 suncat0081 pw.x -npool 4 -i  Done                     04/17/2018 00:23:57
00010 suncat0081 pw.x -npool 4 -i  Done                     04/17/2018 00:23:57
00011 suncat0081 pw.x -npool 4 -i  Done                     04/17/2018 00:23:57
00012 suncat0081 pw.x -npool 4 -i  Done                     04/17/2018 00:23:57
00013 suncat0081 pw.x -npool 4 -i  Done                     04/17/2018 00:23:57
00014 suncat0081 pw.x -npool 4 -i  Done                     04/17/2018 00:23:57
00015 suncat0081 pw.x -npool 4 -i  Done                     04/17/2018 00:23:57
00016 suncat0058 pw.x -npool 4 -i  Done                     04/17/2018 00:23:57
00017 suncat0058 pw.x -npool 4 -i  Done                     04/17/2018 00:23:57
00018 suncat0058 pw.x -npool 4 -i  Done                     04/17/2018 00:23:57
00019 suncat0058 pw.x -npool 4 -i  Done                     04/17/2018 00:23:57
00020 suncat0058 pw.x -npool 4 -i  Done                     04/17/2018 00:23:57
00021 suncat0058 pw.x -npool 4 -i  Done                     04/17/2018 00:23:57
00022 suncat0058 pw.x -npool 4 -i  Done                     04/17/2018 00:23:57
00023 suncat0058 pw.x -npool 4 -i  Done                     04/17/2018 00:23:57
00024 suncat0050 pw.x -npool 4 -i  Done                     04/17/2018 00:23:57
00025 suncat0050 pw.x -npool 4 -i  Done                     04/17/2018 00:23:57
00026 suncat0050 pw.x -npool 4 -i  Done                     04/17/2018 00:23:57
00027 suncat0050 pw.x -npool 4 -i  Done                     04/17/2018 00:23:57
00028 suncat0050 pw.x -npool 4 -i  Done                     04/17/2018 00:23:57
00029 suncat0050 pw.x -npool 4 -i  Done                     04/17/2018 00:23:57
00030 suncat0050 pw.x -npool 4 -i  Done                     04/17/2018 00:23:57
00031 suncat0050 pw.x -npool 4 -i  Done                     04/17/2018 00:23:57
