  python dir          : /u/if/mamunm/src/espresso
  espresso dir        : /nfs/slac/g/suncatfs/sw/espv18/espresso-dynpy-beef/bin
  pseudo dir          : /u/if/mamunm/psp/gbrv1.5pbe
  ase-espresso py git : GITVERSION



     Program PWSCF v.5.1rc2 (svn rev. 11289) starts on 16Apr2018 at  9:57:12 

     This program is part of the open-source Quantum ESPRESSO suite
     for quantum simulation of materials; please cite
         "P. Giannozzi et al., J. Phys.:Condens. Matter 21 395502 (2009);
          URL http://www.quantum-espresso.org", 
     in publications or presentations arising from this work. More details at
     http://www.quantum-espresso.org/quote

     Parallel version (MPI), running on    32 processors
     K-points division:     npool     =       4
     R & G space division:  proc/nbgrp/npool/nimage =       8
     Reading input from pw.inp
     Message from routine read_cards :
     DEPRECATED: no units specified in CELL_PARAMETERS card

     Current dimensions of program PWSCF are:
     Max number of different atomic species (ntypx) = 10
     Max number of k-points (npk) =  40000
     Max angular momentum in pseudopotentials (lmaxx) =  3
     Presently stress not available with electric field


     **************************************************************************
     Initializing libbeef V0.1.1 with the BEEF-vdW functional.
     Citation: Wellendorff et al., PRB 85, 235149 (2012).
     **************************************************************************


     IMPORTANT: XC functional enforced from input :
     Exchange-correlation      = BEEF-VDW ( 1  4 27 13 2)
     Any further DFT definition will be discarded
     Please, verify this is what you really want


     Subspace diagonalization in iterative solution of the eigenvalue problem:
     a serial algorithm will be used

 
     Parallelization info
     --------------------
     sticks:   dense  smooth     PW     G-vecs:    dense   smooth      PW
     Min         402     160     45                76958    19469    3023
     Max         403     161     46                76979    19511    3040
     Sum        3217    1285    367               615719   155893   24283
 


     bravais-lattice index     =            0
     lattice parameter (alat)  =       1.8897  a.u.
     unit-cell volume          =    5174.6160 (a.u.)^3
     number of atoms/cell      =           14
     number of atomic types    =            3
     number of electrons       =       233.00
     number of Kohn-Sham states=          126
     kinetic-energy cutoff     =      36.7493  Ry
     charge density cutoff     =     367.4932  Ry
     convergence threshold     =      1.0E-05
     mixing beta               =       0.3000
     number of iterations used =           10  plain     mixing
     Exchange-correlation      = BEEF-VDW ( 1  4 27 13 2)
     nstep                     =           50


     celldm(1)=   1.889726  celldm(2)=   0.000000  celldm(3)=   0.000000
     celldm(4)=   0.000000  celldm(5)=   0.000000  celldm(6)=   0.000000

     crystal axes: (cart. coord. in units of alat)
               a(1) = (   5.966546   0.000000   0.000000 )  
               a(2) = (   2.983273   5.167181   0.000000 )  
               a(3) = (   0.000000   0.000000  24.871665 )  

     reciprocal axes: (cart. coord. in units 2 pi/alat)
               b(1) = (  0.167601 -0.096765  0.000000 )  
               b(2) = (  0.000000  0.193529  0.000000 )  
               b(3) = (  0.000000  0.000000  0.040206 )  


     PseudoPot. # 1 for Ag read from file:
     /u/if/mamunm/psp/gbrv1.5pbe/Ag.UPF
     MD5 check sum: d66d668201baa78d5eb5b04ef7011058
     Pseudo is Ultrasoft + core correction, Zval = 19.0
     Generated by new atomic code, or converted to UPF format
     Using radial grid of  887 points,  6 beta functions with: 
                l(1) =   0
                l(2) =   0
                l(3) =   1
                l(4) =   1
                l(5) =   2
                l(6) =   2
     Q(r) pseudized with  6 coefficients,  rinner =    1.300   1.300   1.300
                                                       1.300   1.300

     PseudoPot. # 2 for C  read from file:
     /u/if/mamunm/psp/gbrv1.5pbe/C.UPF
     MD5 check sum: d1aef80898a10debaa0f26306b886e00
     Pseudo is Ultrasoft + core correction, Zval =  4.0
     Generated by new atomic code, or converted to UPF format
     Using radial grid of  721 points,  4 beta functions with: 
                l(1) =   0
                l(2) =   0
                l(3) =   1
                l(4) =   1
     Q(r) pseudized with  8 coefficients,  rinner =    1.100   1.100   1.100


     PseudoPot. # 3 for H  read from file:
     /u/if/mamunm/psp/gbrv1.5pbe/H.UPF
     MD5 check sum: 761ae9a214b05c3daf00ab9f6b793d6f
     Pseudo is Ultrasoft, Zval =  1.0
     Generated by new atomic code, or converted to UPF format
     Using radial grid of  615 points,  2 beta functions with: 
                l(1) =   0
                l(2) =   0
     Q(r) pseudized with  8 coefficients,  rinner =    0.700

     vdW kernel table read from file vdW_kernel_table
     MD5 check sum: 095c7af220d748ca6e76c0b4c6cfb241

     atomic species   valence    mass     pseudopotential
        Ag1           19.00   107.86820     Ag( 1.00)
        C1             4.00    12.01100     C ( 1.00)
        H1             1.00     1.00800     H ( 1.00)

     No symmetry found



   Cartesian axes

     site n.     atom                  positions (alat units)
         1           Ag1 tau(   1) = (   1.4916366   0.8611968  10.0000000  )
         2           Ag1 tau(   2) = (   4.4749098   0.8611968  10.0000000  )
         3           Ag1 tau(   3) = (   2.9832732   3.4447871  10.0000000  )
         4           Ag1 tau(   4) = (   5.9665464   3.4447871  10.0000000  )
         5           Ag1 tau(   5) = (   5.9665464   1.7223936  12.4358324  )
         6           Ag1 tau(   6) = (   2.9832732   1.7223936  12.4358324  )
         7           Ag1 tau(   7) = (   7.4581830   4.3059839  12.4358324  )
         8           Ag1 tau(   8) = (   4.4749098   4.3059839  12.4358324  )
         9           Ag1 tau(   9) = (   0.0000000   0.0000000  14.8716647  )
        10           Ag1 tau(  10) = (   2.9832732   0.0000000  14.8716647  )
        11           Ag1 tau(  11) = (   1.4916366   2.5835904  14.8716647  )
        12           Ag1 tau(  12) = (   4.4749098   2.5835904  14.8716647  )
        13           C1  tau(  13) = (   2.9832732   1.7223936  16.3081647  )
        14           H1  tau(  14) = (   2.9832732   1.7223936  17.4081647  )

     number of k points=    20  Fermi-Dirac smearing, width (Ry)=  0.0110
                       cart. coord. in units 2pi/alat
        k(    1) = (   0.0000000   0.0000000   0.0000000), wk =   0.0555556
        k(    2) = (   0.0000000   0.0322549   0.0000000), wk =   0.1111111
        k(    3) = (   0.0000000   0.0645097   0.0000000), wk =   0.1111111
        k(    4) = (   0.0000000  -0.0967646   0.0000000), wk =   0.0555556
        k(    5) = (   0.0279335  -0.0161274   0.0000000), wk =   0.1111111
        k(    6) = (   0.0279335   0.0161274   0.0000000), wk =   0.1111111
        k(    7) = (   0.0279335   0.0483823   0.0000000), wk =   0.1111111
        k(    8) = (   0.0279335  -0.1128920   0.0000000), wk =   0.1111111
        k(    9) = (   0.0279335  -0.0806371   0.0000000), wk =   0.1111111
        k(   10) = (   0.0279335  -0.0483823   0.0000000), wk =   0.1111111
        k(   11) = (   0.0558670  -0.0322549   0.0000000), wk =   0.1111111
        k(   12) = (   0.0558670   0.0000000   0.0000000), wk =   0.1111111
        k(   13) = (   0.0558670   0.0322549   0.0000000), wk =   0.1111111
        k(   14) = (   0.0558670  -0.1290194   0.0000000), wk =   0.1111111
        k(   15) = (   0.0558670  -0.0967646   0.0000000), wk =   0.1111111
        k(   16) = (   0.0558670  -0.0645097   0.0000000), wk =   0.1111111
        k(   17) = (  -0.0838006   0.0483823   0.0000000), wk =   0.0555556
        k(   18) = (  -0.0838006   0.0806371   0.0000000), wk =   0.1111111
        k(   19) = (  -0.0838006   0.1128920   0.0000000), wk =   0.1111111
        k(   20) = (  -0.0838006  -0.0483823   0.0000000), wk =   0.0555556

     Dense  grid:   615719 G-vectors     FFT dimensions: (  72,  72, 288)

     Smooth grid:   155893 G-vectors     FFT dimensions: (  45,  45, 192)

     Largest allocated arrays     est. size (Mb)     dimensions
        Kohn-Sham Wavefunctions         4.76 Mb     (    2474,  126)
        NL pseudopotentials             8.53 Mb     (    2474,  226)
        Each V/rho on FFT grid          2.85 Mb     (  186624)
        Each G-vector array             0.59 Mb     (   76979)
        G-vector shells                 0.16 Mb     (   20444)
     Largest temporary arrays     est. size (Mb)     dimensions
        Auxiliary wavefunctions        19.03 Mb     (    2474,  504)
        Each subspace H/S matrix        3.88 Mb     (     504,  504)
        Each <psi_i|beta_j> matrix      0.43 Mb     (     226,  126)
        Arrays for rho mixing          28.48 Mb     (  186624,   10)

     Initial potential from superposition of free atoms
     Check: negative starting charge=   -0.002021

     starting charge  226.99938, renormalised to  233.00000

     negative rho (up, down):  2.074E-03 0.000E+00


     ************************************************************************
     *
     * You are using vdW-DF for exchange-correlation in this calculation.
     * Please cite the following three references that made this development
     * possible:
     *
     *   M. Dion, H. Rydberg, E. Schroder, D. C. Langreth, and
     *   B. I. Lundqvist, Phys. Rev. Lett. 92, 246401 (2004).
     *
     *   T. Thonhauser, V. R. Cooper, S. Li, A. Puzder, P. Hyldgaard, and
     *   D. C. Langreth, Phys. Rev. B 76, 125112 (2007).
     *
     *   G. Roman-Perez and J. M. Soler, Phys. Rev. Lett. 103, 096102 (2009).
     *
     *
     * If you are using vdW-DF2, please also cite:
     *
     *   K. Lee, E. D. Murray, L. Kong, B. I. Lundqvist, and
     *   D. C. Langreth, Phys. Rev. B 82, 081101(R) (2010).
     *
     *
     * If you are calculating the stress with vdW-DF, please also cite:
     *
     *   R. Sabatini, E. Kucukbenli, B. Kolb, T. Thonhauser, and
     *   S. de Gironcoli, J. Phys.: Condens. Matter 24, 424209 (2012).
     *
     ************************************************************************

     Carrying out vdW-DF run using the following parameters:

     Nqs =      20    Nr_points =    1024   r_max =   100.000
     q_mesh =
               0.00001000     0.04494208     0.09755937     0.15916263
               0.23128650     0.31572767     0.41458969     0.53033537
               0.66584808     0.82450364     1.01025438     1.22772762
               1.48234092     1.78043706     2.12944203     2.53805004
               3.01644009     3.57652955     4.23227104     5.00000000

     Gradients computed in reciprocal space

     ************************************************************************


 
     Adding external electric field

     Computed dipole along edir(3) : 
        Dipole               -1.0218 Ry au,         -2.5970 Debye
        Dipole field         -0.0025 Ry au
 
        Potential amp.        0.2274 Ry
        Total length         45.8256 bohr
 
     Starting wfc are  161 randomized atomic wfcs

     total cpu time spent up to now is       13.5 secs

     per-process dynamical memory:    97.7 Mb

     Self-consistent Calculation

     iteration #  1     ecut=    36.75 Ry     beta=0.30
     Davidson diagonalization with overlap
     ethr =  1.00E-02,  avg # of iterations =  5.8

     negative rho (up, down):  1.039E-03 0.000E+00
 
     Adding external electric field

     Computed dipole along edir(3) : 
        Dipole                8.2109 Ry au,         20.8701 Debye
        Dipole field          0.0199 Ry au
 
        Potential amp.       -1.8275 Ry
        Total length         45.8256 bohr
 

     total cpu time spent up to now is       40.5 secs

     total energy              =   -3563.86316028 Ry
     Harris-Foulkes estimate   =   -3575.91244803 Ry
     estimated scf accuracy    <      26.18807152 Ry

     iteration #  2     ecut=    36.75 Ry     beta=0.30
     Davidson diagonalization with overlap
     ethr =  1.00E-02,  avg # of iterations =  9.7

     negative rho (up, down):  2.983E-05 0.000E+00
 
     Adding external electric field

     Computed dipole along edir(3) : 
        Dipole               -0.9883 Ry au,         -2.5120 Debye
        Dipole field         -0.0024 Ry au
 
        Potential amp.        0.2200 Ry
        Total length         45.8256 bohr
 

     total cpu time spent up to now is       79.5 secs

     total energy              =   -3535.91691435 Ry
     Harris-Foulkes estimate   =   -3602.67093120 Ry
     estimated scf accuracy    <    2277.41265111 Ry

     iteration #  3     ecut=    36.75 Ry     beta=0.30
     Davidson diagonalization with overlap
     ethr =  1.00E-02,  avg # of iterations =  6.7

     negative rho (up, down):  5.329E-05 0.000E+00
 
     Adding external electric field

     Computed dipole along edir(3) : 
        Dipole                0.1053 Ry au,          0.2678 Debye
        Dipole field          0.0003 Ry au
 
        Potential amp.       -0.0234 Ry
        Total length         45.8256 bohr
 

     total cpu time spent up to now is      112.4 secs

     total energy              =   -3570.24515247 Ry
     Harris-Foulkes estimate   =   -3573.70962270 Ry
     estimated scf accuracy    <      13.91173867 Ry

     iteration #  4     ecut=    36.75 Ry     beta=0.30
     Davidson diagonalization with overlap
     ethr =  5.97E-03,  avg # of iterations =  3.2

     negative rho (up, down):  1.756E-02 0.000E+00
 
     Adding external electric field

     Computed dipole along edir(3) : 
        Dipole                0.4016 Ry au,          1.0209 Debye
        Dipole field          0.0010 Ry au
 
        Potential amp.       -0.0894 Ry
        Total length         45.8256 bohr
 

     total cpu time spent up to now is      136.8 secs

     total energy              =   -3571.62478623 Ry
     Harris-Foulkes estimate   =   -3572.27827369 Ry
     estimated scf accuracy    <       4.74605061 Ry

     iteration #  5     ecut=    36.75 Ry     beta=0.30
     Davidson diagonalization with overlap
     ethr =  2.04E-03,  avg # of iterations =  3.5

     negative rho (up, down):  1.023E-04 0.000E+00
 
     Adding external electric field

     Computed dipole along edir(3) : 
        Dipole               -0.0084 Ry au,         -0.0215 Debye
        Dipole field         -0.0000 Ry au
 
        Potential amp.        0.0019 Ry
        Total length         45.8256 bohr
 

     total cpu time spent up to now is      163.9 secs

     total energy              =   -3572.32487868 Ry
     Harris-Foulkes estimate   =   -3572.44358365 Ry
     estimated scf accuracy    <       1.58580091 Ry

     iteration #  6     ecut=    36.75 Ry     beta=0.30
     Davidson diagonalization with overlap
     ethr =  6.81E-04,  avg # of iterations =  1.9

     negative rho (up, down):  1.220E-04 0.000E+00
 
     Adding external electric field

     Computed dipole along edir(3) : 
        Dipole               -0.2987 Ry au,         -0.7593 Debye
        Dipole field         -0.0007 Ry au
 
        Potential amp.        0.0665 Ry
        Total length         45.8256 bohr
 

     total cpu time spent up to now is      185.9 secs

     total energy              =   -3572.39517235 Ry
     Harris-Foulkes estimate   =   -3572.41546913 Ry
     estimated scf accuracy    <       0.07147577 Ry

     iteration #  7     ecut=    36.75 Ry     beta=0.30
     Davidson diagonalization with overlap
     ethr =  3.07E-05,  avg # of iterations =  4.0

     negative rho (up, down):  2.044E-04 0.000E+00
 
     Adding external electric field

     Computed dipole along edir(3) : 
        Dipole               -0.4770 Ry au,         -1.2125 Debye
        Dipole field         -0.0012 Ry au
 
        Potential amp.        0.1062 Ry
        Total length         45.8256 bohr
 

     total cpu time spent up to now is      210.1 secs

     total energy              =   -3572.39323251 Ry
     Harris-Foulkes estimate   =   -3572.40117955 Ry
     estimated scf accuracy    <       0.04325196 Ry

     iteration #  8     ecut=    36.75 Ry     beta=0.30
     Davidson diagonalization with overlap
     ethr =  1.86E-05,  avg # of iterations =  6.1

     negative rho (up, down):  3.380E-04 0.000E+00
 
     Adding external electric field

     Computed dipole along edir(3) : 
        Dipole               -0.4253 Ry au,         -1.0810 Debye
        Dipole field         -0.0010 Ry au
 
        Potential amp.        0.0947 Ry
        Total length         45.8256 bohr
 

     total cpu time spent up to now is      236.7 secs

     total energy              =   -3572.39407108 Ry
     Harris-Foulkes estimate   =   -3572.39557613 Ry
     estimated scf accuracy    <       0.01018713 Ry

     iteration #  9     ecut=    36.75 Ry     beta=0.30
     Davidson diagonalization with overlap
     ethr =  4.37E-06,  avg # of iterations =  5.0

     negative rho (up, down):  4.996E-04 0.000E+00
 
     Adding external electric field

     Computed dipole along edir(3) : 
        Dipole               -0.3977 Ry au,         -1.0108 Debye
        Dipole field         -0.0010 Ry au
 
        Potential amp.        0.0885 Ry
        Total length         45.8256 bohr
 

     total cpu time spent up to now is      261.2 secs

     total energy              =   -3572.39415350 Ry
     Harris-Foulkes estimate   =   -3572.39451542 Ry
     estimated scf accuracy    <       0.00859332 Ry

     iteration # 10     ecut=    36.75 Ry     beta=0.30
     Davidson diagonalization with overlap
     ethr =  3.69E-06,  avg # of iterations =  6.2

     negative rho (up, down):  6.770E-04 0.000E+00
 
     Adding external electric field

     Computed dipole along edir(3) : 
        Dipole               -0.3468 Ry au,         -0.8816 Debye
        Dipole field         -0.0008 Ry au
 
        Potential amp.        0.0772 Ry
        Total length         45.8256 bohr
 

     total cpu time spent up to now is      286.2 secs

     total energy              =   -3572.39399470 Ry
     Harris-Foulkes estimate   =   -3572.39430901 Ry
     estimated scf accuracy    <       0.00420070 Ry

     iteration # 11     ecut=    36.75 Ry     beta=0.30
     Davidson diagonalization with overlap
     ethr =  1.80E-06,  avg # of iterations =  6.0

     negative rho (up, down):  7.591E-04 0.000E+00
 
     Adding external electric field

     Computed dipole along edir(3) : 
        Dipole               -0.2929 Ry au,         -0.7446 Debye
        Dipole field         -0.0007 Ry au
 
        Potential amp.        0.0652 Ry
        Total length         45.8256 bohr
 

     total cpu time spent up to now is      310.3 secs

     total energy              =   -3572.39392846 Ry
     Harris-Foulkes estimate   =   -3572.39410545 Ry
     estimated scf accuracy    <       0.00203315 Ry

     iteration # 12     ecut=    36.75 Ry     beta=0.30
     Davidson diagonalization with overlap
     ethr =  8.73E-07,  avg # of iterations =  3.0

     negative rho (up, down):  8.135E-04 0.000E+00
 
     Adding external electric field

     Computed dipole along edir(3) : 
        Dipole               -0.2463 Ry au,         -0.6260 Debye
        Dipole field         -0.0006 Ry au
 
        Potential amp.        0.0548 Ry
        Total length         45.8256 bohr
 

     total cpu time spent up to now is      333.7 secs

     total energy              =   -3572.39388653 Ry
     Harris-Foulkes estimate   =   -3572.39399773 Ry
     estimated scf accuracy    <       0.00138393 Ry

     iteration # 13     ecut=    36.75 Ry     beta=0.30
     Davidson diagonalization with overlap
     ethr =  5.94E-07,  avg # of iterations =  2.2

     negative rho (up, down):  2.064E-03 0.000E+00
 
     Adding external electric field

     Computed dipole along edir(3) : 
        Dipole               -0.1024 Ry au,         -0.2603 Debye
        Dipole field         -0.0002 Ry au
 
        Potential amp.        0.0228 Ry
        Total length         45.8256 bohr
 

     total cpu time spent up to now is      356.8 secs

     total energy              =   -3572.39386637 Ry
     Harris-Foulkes estimate   =   -3572.39401466 Ry
     estimated scf accuracy    <       0.00080837 Ry

     iteration # 14     ecut=    36.75 Ry     beta=0.30
     Davidson diagonalization with overlap
     ethr =  3.47E-07,  avg # of iterations =  4.0

     negative rho (up, down):  2.109E-03 0.000E+00

     negative rho (up, down):  2.109E-03 0.000E+00

     negative rho (up, down):  2.109E-03 0.000E+00

     negative rho (up, down):  2.109E-03 0.000E+00

     negative rho (up, down):  2.109E-03 0.000E+00

     negative rho (up, down):  2.109E-03 0.000E+00

     negative rho (up, down):  2.109E-03 0.000E+00

     negative rho (up, down):  2.109E-03 0.000E+00

     negative rho (up, down):  2.109E-03 0.000E+00

     negative rho (up, down):  2.109E-03 0.000E+00

     negative rho (up, down):  2.109E-03 0.000E+00

     negative rho (up, down):  2.109E-03 0.000E+00

     negative rho (up, down):  2.109E-03 0.000E+00

     negative rho (up, down):  2.109E-03 0.000E+00

     negative rho (up, down):  2.109E-03 0.000E+00

     negative rho (up, down):  2.109E-03 0.000E+00

     negative rho (up, down):  2.109E-03 0.000E+00

     negative rho (up, down):  2.109E-03 0.000E+00

     negative rho (up, down):  2.109E-03 0.000E+00

     negative rho (up, down):  2.109E-03 0.000E+00

     negative rho (up, down):  2.109E-03 0.000E+00

     negative rho (up, down):  2.109E-03 0.000E+00

     negative rho (up, down):  2.109E-03 0.000E+00

     negative rho (up, down):  2.109E-03 0.000E+00

     negative rho (up, down):  2.109E-03 0.000E+00

     negative rho (up, down):  2.109E-03 0.000E+00

     negative rho (up, down):  2.109E-03 0.000E+00

     negative rho (up, down):  2.109E-03 0.000E+00

     negative rho (up, down):  2.109E-03 0.000E+00

     negative rho (up, down):  2.109E-03 0.000E+00

     negative rho (up, down):  2.109E-03 0.000E+00

     negative rho (up, down):  2.109E-03 0.000E+00

     negative rho (up, down):  2.109E-03 0.000E+00

     negative rho (up, down):  2.109E-03 0.000E+00

     negative rho (up, down):  2.109E-03 0.000E+00
 
     Adding external electric field

     Computed dipole along edir(3) : 
        Dipole               -0.0849 Ry au,         -0.2159 Debye
        Dipole field         -0.0002 Ry au
 
        Potential amp.        0.0189 Ry
        Total length         45.8256 bohr
 

     total cpu time spent up to now is      430.7 secs

     End of self-consistent calculation

          k = 0.0000 0.0000 0.0000 ( 19435 PWs)   bands (ev):

   -90.8478 -90.8424 -90.8423 -90.7886 -90.7404 -90.7352 -90.7351 -90.6556
   -90.6500 -90.6497 -90.6362 -90.5095 -54.3809 -54.3756 -54.3756 -54.3473
   -54.3357 -54.3356 -54.3265 -54.3095 -54.3095 -54.2925 -54.2826 -54.2741
   -54.2741 -54.2539 -54.2538 -54.2297 -54.2297 -54.2034 -54.2005 -54.1963
   -54.1942 -54.1941 -54.1680 -54.1680 -54.1394 -54.1356 -54.1354 -54.1280
   -54.1226 -54.1222 -54.1143 -54.1142 -54.1100 -54.0140 -54.0140 -53.9919
    -9.6731  -5.3601  -5.0441  -4.5760  -4.5760  -4.5629  -4.5220  -4.4442
    -4.4442  -4.4135  -4.3661  -4.3660  -4.3339  -4.2472  -4.1867  -4.1866
    -3.8120  -3.6465  -3.6465  -3.5240  -3.5075  -3.5074  -3.4126  -3.4070
    -3.4070  -3.2880  -3.2880  -3.2200  -3.2200  -3.2104  -3.1542  -3.1542
    -2.8314  -2.8313  -2.7167  -2.6234  -2.6234  -2.6117  -2.5652  -2.5475
    -2.5475  -2.4306  -2.3304  -2.3304  -2.3163  -2.3163  -2.1407  -2.1406
    -2.0940  -2.0218  -2.0218  -2.0172  -2.0172  -1.9620  -1.9275  -1.9163
    -1.9163  -1.7789  -1.7540  -1.7540  -1.7489  -1.7228  -1.7228  -1.0895
     0.5179   0.9762   0.9762   1.8015   1.8367   1.8367   2.1484   2.5964
     2.5964   2.6953   2.9800   2.9800   4.4400   4.8811

          k = 0.0000 0.0323 0.0000 ( 19455 PWs)   bands (ev):

   -90.8475 -90.8427 -90.8423 -90.7886 -90.7401 -90.7355 -90.7352 -90.6552
   -90.6502 -90.6499 -90.6363 -90.5095 -54.3775 -54.3724 -54.3717 -54.3464
   -54.3362 -54.3356 -54.3284 -54.3134 -54.3100 -54.2911 -54.2813 -54.2777
   -54.2750 -54.2541 -54.2524 -54.2295 -54.2289 -54.2050 -54.1981 -54.1945
   -54.1911 -54.1898 -54.1707 -54.1685 -54.1417 -54.1384 -54.1351 -54.1276
   -54.1228 -54.1224 -54.1193 -54.1155 -54.1101 -54.0154 -54.0144 -53.9919
    -9.6668  -5.2313  -4.9343  -4.5201  -4.4732  -4.4630  -4.4255  -4.3838
    -4.3720  -4.3340  -4.3130  -4.3031  -4.2695  -4.1540  -4.1081  -4.0777
    -3.7735  -3.6441  -3.6378  -3.5035  -3.4639  -3.4570  -3.4474  -3.4117
    -3.3461  -3.3342  -3.2641  -3.2583  -3.2188  -3.1833  -3.1770  -3.0903
    -2.8921  -2.8670  -2.8666  -2.7117  -2.6837  -2.6650  -2.6008  -2.5766
    -2.5577  -2.4932  -2.3840  -2.3734  -2.3596  -2.3375  -2.1838  -2.1819
    -2.1342  -2.1149  -2.0741  -2.0724  -2.0337  -2.0302  -2.0214  -1.9953
    -1.9846  -1.9133  -1.8900  -1.8605  -1.8438  -1.8209  -1.8207  -0.9397
     0.0670   0.5521   0.8273   1.0243   1.5336   1.5407   2.0391   2.4972
     2.8111   3.1248   3.5943   3.7058   4.6929   5.0847

          k = 0.0000 0.0645 0.0000 ( 19481 PWs)   bands (ev):

   -90.8466 -90.8435 -90.8424 -90.7886 -90.7393 -90.7362 -90.7352 -90.6543
   -90.6510 -90.6499 -90.6364 -90.5095 -54.3713 -54.3641 -54.3595 -54.3441
   -54.3376 -54.3354 -54.3348 -54.3244 -54.3102 -54.2893 -54.2863 -54.2770
   -54.2761 -54.2556 -54.2493 -54.2287 -54.2263 -54.2093 -54.1939 -54.1887
   -54.1835 -54.1778 -54.1760 -54.1693 -54.1493 -54.1461 -54.1326 -54.1323
   -54.1266 -54.1235 -54.1224 -54.1187 -54.1102 -54.0181 -54.0153 -53.9919
    -9.6541  -4.9743  -4.5976  -4.3954  -4.2618  -4.2318  -4.2292  -4.1925
    -4.1900  -4.1687  -4.1423  -4.1164  -4.0947  -3.9532  -3.8767  -3.7850
    -3.7221  -3.6670  -3.6121  -3.5774  -3.5266  -3.4252  -3.3703  -3.3659
    -3.3273  -3.2926  -3.2851  -3.1999  -3.1666  -3.1156  -3.0644  -3.0572
    -3.0467  -3.0086  -2.9837  -2.9286  -2.8303  -2.7922  -2.7008  -2.6411
    -2.6384  -2.5714  -2.5517  -2.5302  -2.5073  -2.4887  -2.4695  -2.3966
    -2.3805  -2.3509  -2.3458  -2.2846  -2.2387  -2.2246  -2.1695  -2.1265
    -2.0311  -2.0263  -2.0070  -1.9694  -1.8851  -1.8526  -1.8011  -1.5354
    -0.6468  -0.0356   0.6257   0.8606   1.3291   1.3457   1.7703   2.5615
     2.8735   3.4609   3.7932   4.7710   5.0830   5.5094

          k = 0.0000-0.0968 0.0000 ( 19500 PWs)   bands (ev):

   -90.8459 -90.8442 -90.8424 -90.7887 -90.7387 -90.7369 -90.7352 -90.6535
   -90.6517 -90.6499 -90.6365 -90.5095 -54.3682 -54.3574 -54.3453 -54.3423
   -54.3412 -54.3390 -54.3374 -54.3351 -54.3099 -54.2909 -54.2888 -54.2781
   -54.2722 -54.2575 -54.2478 -54.2282 -54.2240 -54.2127 -54.1905 -54.1849
   -54.1822 -54.1779 -54.1697 -54.1594 -54.1579 -54.1550 -54.1424 -54.1301
   -54.1257 -54.1241 -54.1224 -54.1211 -54.1103 -54.0195 -54.0157 -53.9919
    -9.6478  -4.8429  -4.3392  -4.3139  -4.1548  -4.1515  -4.1248  -4.1130
    -4.0427  -4.0181  -3.9222  -3.9196  -3.8906  -3.8733  -3.7840  -3.7770
    -3.7046  -3.6871  -3.5616  -3.5007  -3.4688  -3.4557  -3.4542  -3.4182
    -3.3465  -3.3146  -3.2222  -3.1811  -3.1161  -3.0762  -3.0691  -3.0460
    -3.0311  -2.9876  -2.9144  -2.8532  -2.8491  -2.8350  -2.8335  -2.7708
    -2.7625  -2.7470  -2.7097  -2.6127  -2.6035  -2.5961  -2.5618  -2.5337
    -2.5226  -2.4988  -2.4967  -2.4825  -2.4506  -2.3689  -2.3014  -2.2833
    -2.2776  -2.0403  -2.0284  -2.0071  -1.9913  -1.8837  -1.8486  -1.4241
    -1.1886   0.1082   0.5592   0.6948   1.0639   1.3010   1.9798   2.5970
     2.8838   3.2344   4.2685   4.7567   5.1682   5.7658

          k = 0.0279-0.0161 0.0000 ( 19455 PWs)   bands (ev):

   -90.8475 -90.8426 -90.8424 -90.7886 -90.7401 -90.7355 -90.7352 -90.6552
   -90.6504 -90.6497 -90.6363 -90.5095 -54.3775 -54.3724 -54.3717 -54.3464
   -54.3362 -54.3356 -54.3284 -54.3134 -54.3100 -54.2911 -54.2813 -54.2777
   -54.2750 -54.2541 -54.2524 -54.2295 -54.2289 -54.2050 -54.1980 -54.1944
   -54.1913 -54.1897 -54.1707 -54.1685 -54.1417 -54.1386 -54.1349 -54.1276
   -54.1229 -54.1223 -54.1193 -54.1155 -54.1101 -54.0154 -54.0144 -53.9919
    -9.6668  -5.2313  -4.9343  -4.5201  -4.4732  -4.4630  -4.4255  -4.3838
    -4.3720  -4.3340  -4.3130  -4.3032  -4.2694  -4.1540  -4.1080  -4.0777
    -3.7735  -3.6440  -3.6378  -3.5035  -3.4639  -3.4569  -3.4475  -3.4117
    -3.3461  -3.3342  -3.2641  -3.2583  -3.2188  -3.1833  -3.1770  -3.0903
    -2.8921  -2.8669  -2.8666  -2.7117  -2.6836  -2.6650  -2.6007  -2.5766
    -2.5577  -2.4932  -2.3840  -2.3734  -2.3596  -2.3375  -2.1839  -2.1819
    -2.1342  -2.1149  -2.0741  -2.0724  -2.0337  -2.0302  -2.0214  -1.9953
    -1.9846  -1.9132  -1.8900  -1.8605  -1.8438  -1.8210  -1.8207  -0.9397
     0.0670   0.5521   0.8273   1.0243   1.5336   1.5407   2.0391   2.4972
     2.8111   3.1248   3.5944   3.7058   4.6929   5.0847

          k = 0.0279 0.0161 0.0000 ( 19455 PWs)   bands (ev):

   -90.8475 -90.8427 -90.8423 -90.7886 -90.7401 -90.7355 -90.7351 -90.6552
   -90.6502 -90.6499 -90.6363 -90.5095 -54.3775 -54.3724 -54.3717 -54.3464
   -54.3362 -54.3355 -54.3284 -54.3135 -54.3100 -54.2911 -54.2813 -54.2777
   -54.2750 -54.2541 -54.2524 -54.2294 -54.2289 -54.2050 -54.1981 -54.1945
   -54.1911 -54.1898 -54.1707 -54.1684 -54.1417 -54.1384 -54.1351 -54.1276
   -54.1227 -54.1225 -54.1193 -54.1155 -54.1101 -54.0154 -54.0144 -53.9919
    -9.6668  -5.2313  -4.9343  -4.5201  -4.4732  -4.4630  -4.4255  -4.3838
    -4.3720  -4.3340  -4.3130  -4.3031  -4.2695  -4.1540  -4.1080  -4.0777
    -3.7735  -3.6441  -3.6378  -3.5035  -3.4639  -3.4570  -3.4474  -3.4117
    -3.3461  -3.3342  -3.2641  -3.2583  -3.2188  -3.1833  -3.1770  -3.0903
    -2.8921  -2.8670  -2.8666  -2.7117  -2.6837  -2.6650  -2.6007  -2.5766
    -2.5577  -2.4932  -2.3840  -2.3734  -2.3596  -2.3375  -2.1838  -2.1819
    -2.1342  -2.1149  -2.0742  -2.0724  -2.0337  -2.0302  -2.0214  -1.9952
    -1.9846  -1.9132  -1.8900  -1.8605  -1.8438  -1.8210  -1.8207  -0.9397
     0.0670   0.5521   0.8273   1.0243   1.5336   1.5407   2.0391   2.4972
     2.8111   3.1248   3.5943   3.7058   4.6929   5.0847

          k = 0.0279 0.0484 0.0000 ( 19453 PWs)   bands (ev):

   -90.8468 -90.8432 -90.8423 -90.7886 -90.7395 -90.7361 -90.7352 -90.6545
   -90.6506 -90.6500 -90.6364 -90.5095 -54.3724 -54.3663 -54.3641 -54.3448
   -54.3371 -54.3354 -54.3335 -54.3191 -54.3115 -54.2896 -54.2834 -54.2775
   -54.2771 -54.2553 -54.2500 -54.2291 -54.2269 -54.2081 -54.1950 -54.1905
   -54.1835 -54.1829 -54.1750 -54.1694 -54.1497 -54.1384 -54.1364 -54.1279
   -54.1267 -54.1230 -54.1226 -54.1181 -54.1102 -54.0172 -54.0153 -53.9919
    -9.6573  -5.0372  -4.6996  -4.3774  -4.3624  -4.2962  -4.2640  -4.2612
    -4.2324  -4.2213  -4.2054  -4.1859  -4.1257  -3.9808  -3.9684  -3.8770
    -3.7183  -3.6999  -3.5891  -3.5340  -3.4768  -3.4656  -3.4169  -3.3793
    -3.3507  -3.3050  -3.2638  -3.2371  -3.2013  -3.1579  -3.0980  -3.0610
    -3.0114  -2.9793  -2.9292  -2.8789  -2.8092  -2.7483  -2.7058  -2.6041
    -2.5956  -2.5713  -2.4916  -2.4716  -2.4395  -2.3977  -2.3849  -2.3466
    -2.3313  -2.2659  -2.2369  -2.2309  -2.1999  -2.1600  -2.0964  -2.0839
    -2.0391  -2.0174  -1.9900  -1.9413  -1.9223  -1.9049  -1.8353  -0.9179
    -0.4906  -0.1227   0.2689   0.5496   1.4343   1.8025   1.9874   2.7223
     3.0565   3.4278   3.6261   4.0374   4.9512   5.3708

          k = 0.0279-0.1129 0.0000 ( 19479 PWs)   bands (ev):

   -90.8459 -90.8441 -90.8424 -90.7887 -90.7387 -90.7369 -90.7352 -90.6535
   -90.6515 -90.6500 -90.6365 -90.5095 -54.3661 -54.3581 -54.3499 -54.3436
   -54.3425 -54.3386 -54.3352 -54.3300 -54.3126 -54.2888 -54.2882 -54.2798
   -54.2717 -54.2585 -54.2475 -54.2286 -54.2231 -54.2128 -54.1907 -54.1838
   -54.1812 -54.1752 -54.1704 -54.1681 -54.1603 -54.1485 -54.1381 -54.1318
   -54.1259 -54.1239 -54.1227 -54.1222 -54.1103 -54.0189 -54.0163 -53.9919
    -9.6478  -4.8363  -4.3158  -4.2399  -4.1618  -4.1186  -4.1033  -4.0730
    -4.0618  -4.0272  -4.0096  -3.9837  -3.9005  -3.8269  -3.7792  -3.7589
    -3.7376  -3.6606  -3.5859  -3.5559  -3.4743  -3.4268  -3.4195  -3.3884
    -3.3753  -3.3204  -3.2649  -3.1927  -3.1908  -3.1637  -3.1492  -3.1073
    -3.0856  -3.0397  -2.9885  -2.9341  -2.8679  -2.8523  -2.8175  -2.7762
    -2.7522  -2.7146  -2.6866  -2.6647  -2.6048  -2.5577  -2.5372  -2.5213
    -2.4888  -2.4646  -2.4216  -2.3590  -2.3169  -2.2688  -2.2235  -2.1919
    -2.1173  -2.0548  -2.0381  -2.0215  -1.9618  -1.9254  -1.7834  -1.4717
    -0.8775  -0.5742   0.1340   0.4473   1.0496   1.6865   2.2803   2.7307
     3.1003   3.9023   4.1186   4.5687   5.0789   5.5115

          k = 0.0279-0.0806 0.0000 ( 19479 PWs)   bands (ev):

   -90.8459 -90.8441 -90.8424 -90.7887 -90.7387 -90.7369 -90.7352 -90.6535
   -90.6516 -90.6500 -90.6365 -90.5095 -54.3661 -54.3581 -54.3499 -54.3436
   -54.3425 -54.3386 -54.3352 -54.3300 -54.3126 -54.2888 -54.2882 -54.2798
   -54.2717 -54.2585 -54.2475 -54.2286 -54.2230 -54.2128 -54.1907 -54.1838
   -54.1812 -54.1752 -54.1704 -54.1680 -54.1605 -54.1483 -54.1381 -54.1319
   -54.1258 -54.1241 -54.1227 -54.1222 -54.1103 -54.0189 -54.0163 -53.9919
    -9.6478  -4.8363  -4.3158  -4.2399  -4.1618  -4.1186  -4.1033  -4.0730
    -4.0618  -4.0272  -4.0096  -3.9837  -3.9005  -3.8269  -3.7792  -3.7589
    -3.7376  -3.6606  -3.5859  -3.5558  -3.4743  -3.4268  -3.4195  -3.3884
    -3.3753  -3.3204  -3.2649  -3.1927  -3.1908  -3.1637  -3.1492  -3.1073
    -3.0856  -3.0397  -2.9885  -2.9341  -2.8680  -2.8523  -2.8175  -2.7762
    -2.7522  -2.7146  -2.6867  -2.6647  -2.6048  -2.5578  -2.5372  -2.5213
    -2.4888  -2.4647  -2.4217  -2.3590  -2.3169  -2.2688  -2.2235  -2.1919
    -2.1173  -2.0548  -2.0381  -2.0215  -1.9618  -1.9254  -1.7834  -1.4717
    -0.8775  -0.5742   0.1340   0.4473   1.0496   1.6865   2.2803   2.7307
     3.1003   3.9023   4.1186   4.5687   5.0789   5.5115

          k = 0.0279-0.0484 0.0000 ( 19453 PWs)   bands (ev):

   -90.8469 -90.8432 -90.8424 -90.7886 -90.7395 -90.7360 -90.7352 -90.6545
   -90.6509 -90.6498 -90.6364 -90.5095 -54.3724 -54.3663 -54.3640 -54.3448
   -54.3371 -54.3354 -54.3335 -54.3191 -54.3116 -54.2896 -54.2834 -54.2775
   -54.2771 -54.2553 -54.2500 -54.2291 -54.2269 -54.2081 -54.1950 -54.1904
   -54.1836 -54.1828 -54.1749 -54.1694 -54.1498 -54.1384 -54.1362 -54.1279
   -54.1267 -54.1234 -54.1223 -54.1182 -54.1102 -54.0172 -54.0153 -53.9919
    -9.6573  -5.0372  -4.6996  -4.3774  -4.3624  -4.2962  -4.2639  -4.2612
    -4.2324  -4.2213  -4.2054  -4.1859  -4.1257  -3.9808  -3.9684  -3.8770
    -3.7183  -3.6999  -3.5891  -3.5340  -3.4768  -3.4656  -3.4169  -3.3793
    -3.3507  -3.3050  -3.2637  -3.2371  -3.2013  -3.1579  -3.0980  -3.0610
    -3.0114  -2.9793  -2.9292  -2.8789  -2.8092  -2.7483  -2.7058  -2.6040
    -2.5956  -2.5713  -2.4917  -2.4716  -2.4395  -2.3977  -2.3849  -2.3467
    -2.3312  -2.2660  -2.2368  -2.2309  -2.1999  -2.1600  -2.0964  -2.0839
    -2.0391  -2.0174  -1.9900  -1.9413  -1.9223  -1.9049  -1.8353  -0.9179
    -0.4906  -0.1227   0.2689   0.5496   1.4343   1.8025   1.9874   2.7223
     3.0565   3.4278   3.6260   4.0375   4.9512   5.3708

          k = 0.0559-0.0323 0.0000 ( 19481 PWs)   bands (ev):

   -90.8466 -90.8435 -90.8424 -90.7886 -90.7393 -90.7363 -90.7352 -90.6542
   -90.6512 -90.6497 -90.6364 -90.5095 -54.3713 -54.3641 -54.3595 -54.3441
   -54.3376 -54.3354 -54.3348 -54.3244 -54.3102 -54.2893 -54.2863 -54.2770
   -54.2761 -54.2556 -54.2493 -54.2287 -54.2264 -54.2093 -54.1939 -54.1885
   -54.1837 -54.1778 -54.1760 -54.1693 -54.1492 -54.1463 -54.1326 -54.1322
   -54.1265 -54.1237 -54.1222 -54.1188 -54.1102 -54.0181 -54.0153 -53.9919
    -9.6541  -4.9743  -4.5976  -4.3954  -4.2618  -4.2318  -4.2292  -4.1925
    -4.1900  -4.1687  -4.1423  -4.1164  -4.0947  -3.9532  -3.8766  -3.7850
    -3.7221  -3.6670  -3.6121  -3.5774  -3.5265  -3.4251  -3.3703  -3.3659
    -3.3273  -3.2926  -3.2851  -3.1999  -3.1666  -3.1156  -3.0644  -3.0572
    -3.0468  -3.0086  -2.9837  -2.9286  -2.8303  -2.7922  -2.7008  -2.6412
    -2.6383  -2.5714  -2.5516  -2.5302  -2.5074  -2.4887  -2.4695  -2.3966
    -2.3805  -2.3509  -2.3457  -2.2846  -2.2387  -2.2246  -2.1695  -2.1265
    -2.0312  -2.0263  -2.0070  -1.9694  -1.8850  -1.8526  -1.8011  -1.5354
    -0.6468  -0.0356   0.6258   0.8606   1.3291   1.3457   1.7703   2.5615
     2.8735   3.4609   3.7932   4.7709   5.0830   5.5094

          k = 0.0559 0.0000 0.0000 ( 19453 PWs)   bands (ev):

   -90.8469 -90.8432 -90.8424 -90.7886 -90.7395 -90.7361 -90.7352 -90.6545
   -90.6508 -90.6498 -90.6364 -90.5095 -54.3724 -54.3663 -54.3640 -54.3448
   -54.3371 -54.3354 -54.3335 -54.3191 -54.3116 -54.2896 -54.2834 -54.2775
   -54.2771 -54.2553 -54.2499 -54.2291 -54.2269 -54.2081 -54.1950 -54.1904
   -54.1836 -54.1828 -54.1750 -54.1694 -54.1498 -54.1384 -54.1362 -54.1279
   -54.1267 -54.1233 -54.1224 -54.1182 -54.1102 -54.0172 -54.0153 -53.9919
    -9.6573  -5.0372  -4.6996  -4.3774  -4.3624  -4.2962  -4.2640  -4.2612
    -4.2324  -4.2213  -4.2054  -4.1859  -4.1257  -3.9808  -3.9684  -3.8770
    -3.7183  -3.6999  -3.5891  -3.5340  -3.4768  -3.4656  -3.4169  -3.3793
    -3.3507  -3.3050  -3.2637  -3.2371  -3.2013  -3.1579  -3.0980  -3.0610
    -3.0114  -2.9793  -2.9292  -2.8789  -2.8092  -2.7483  -2.7058  -2.6040
    -2.5956  -2.5713  -2.4917  -2.4716  -2.4395  -2.3977  -2.3849  -2.3467
    -2.3312  -2.2660  -2.2368  -2.2309  -2.1999  -2.1600  -2.0964  -2.0839
    -2.0391  -2.0174  -1.9900  -1.9412  -1.9223  -1.9049  -1.8353  -0.9179
    -0.4906  -0.1227   0.2689   0.5496   1.4343   1.8025   1.9874   2.7223
     3.0565   3.4278   3.6261   4.0374   4.9512   5.3708

          k = 0.0559 0.0323 0.0000 ( 19481 PWs)   bands (ev):

   -90.8466 -90.8435 -90.8423 -90.7886 -90.7393 -90.7363 -90.7352 -90.6543
   -90.6509 -90.6500 -90.6364 -90.5095 -54.3713 -54.3641 -54.3595 -54.3441
   -54.3376 -54.3354 -54.3347 -54.3244 -54.3101 -54.2893 -54.2863 -54.2770
   -54.2761 -54.2557 -54.2493 -54.2287 -54.2264 -54.2093 -54.1939 -54.1886
   -54.1835 -54.1779 -54.1760 -54.1692 -54.1493 -54.1461 -54.1326 -54.1323
   -54.1266 -54.1233 -54.1225 -54.1187 -54.1102 -54.0181 -54.0153 -53.9919
    -9.6541  -4.9743  -4.5976  -4.3954  -4.2618  -4.2318  -4.2292  -4.1925
    -4.1900  -4.1687  -4.1423  -4.1164  -4.0947  -3.9532  -3.8766  -3.7850
    -3.7221  -3.6670  -3.6121  -3.5774  -3.5266  -3.4252  -3.3703  -3.3659
    -3.3273  -3.2926  -3.2851  -3.1999  -3.1666  -3.1156  -3.0644  -3.0572
    -3.0467  -3.0086  -2.9837  -2.9286  -2.8303  -2.7922  -2.7008  -2.6411
    -2.6384  -2.5714  -2.5517  -2.5302  -2.5073  -2.4887  -2.4696  -2.3966
    -2.3805  -2.3509  -2.3458  -2.2846  -2.2386  -2.2246  -2.1695  -2.1265
    -2.0311  -2.0263  -2.0070  -1.9694  -1.8850  -1.8526  -1.8011  -1.5354
    -0.6468  -0.0356   0.6258   0.8606   1.3291   1.3456   1.7703   2.5615
     2.8735   3.4609   3.7932   4.7709   5.0830   5.5094

          k = 0.0559-0.1290 0.0000 ( 19479 PWs)   bands (ev):

   -90.8459 -90.8442 -90.8424 -90.7887 -90.7386 -90.7369 -90.7352 -90.6535
   -90.6515 -90.6501 -90.6365 -90.5095 -54.3660 -54.3581 -54.3499 -54.3436
   -54.3425 -54.3387 -54.3352 -54.3300 -54.3126 -54.2888 -54.2882 -54.2798
   -54.2717 -54.2586 -54.2475 -54.2286 -54.2231 -54.2128 -54.1907 -54.1838
   -54.1812 -54.1752 -54.1704 -54.1681 -54.1603 -54.1485 -54.1381 -54.1318
   -54.1259 -54.1239 -54.1227 -54.1223 -54.1103 -54.0189 -54.0163 -53.9919
    -9.6478  -4.8362  -4.3158  -4.2399  -4.1618  -4.1186  -4.1033  -4.0730
    -4.0618  -4.0272  -4.0096  -3.9837  -3.9005  -3.8269  -3.7792  -3.7589
    -3.7376  -3.6606  -3.5859  -3.5558  -3.4743  -3.4268  -3.4195  -3.3884
    -3.3753  -3.3204  -3.2649  -3.1927  -3.1908  -3.1637  -3.1492  -3.1073
    -3.0856  -3.0397  -2.9885  -2.9341  -2.8679  -2.8523  -2.8175  -2.7762
    -2.7522  -2.7147  -2.6866  -2.6647  -2.6048  -2.5578  -2.5372  -2.5213
    -2.4888  -2.4646  -2.4217  -2.3590  -2.3169  -2.2688  -2.2235  -2.1919
    -2.1173  -2.0548  -2.0381  -2.0215  -1.9618  -1.9254  -1.7834  -1.4717
    -0.8775  -0.5742   0.1340   0.4473   1.0497   1.6865   2.2803   2.7307
     3.1003   3.9023   4.1186   4.5687   5.0789   5.5115

          k = 0.0559-0.0968 0.0000 ( 19479 PWs)   bands (ev):

   -90.8450 -90.8450 -90.8424 -90.7887 -90.7378 -90.7377 -90.7352 -90.6527
   -90.6523 -90.6500 -90.6365 -90.5095 -54.3564 -54.3562 -54.3542 -54.3413
   -54.3396 -54.3384 -54.3381 -54.3354 -54.3152 -54.2886 -54.2849 -54.2848
   -54.2666 -54.2631 -54.2466 -54.2288 -54.2179 -54.2176 -54.1873 -54.1850
   -54.1749 -54.1735 -54.1713 -54.1653 -54.1604 -54.1601 -54.1367 -54.1289
   -54.1288 -54.1251 -54.1246 -54.1225 -54.1103 -54.0180 -54.0180 -53.9919
    -9.6447  -4.7523  -4.1597  -4.0579  -4.0301  -4.0037  -3.9869  -3.9328
    -3.9248  -3.9224  -3.9177  -3.8874  -3.8790  -3.8763  -3.8426  -3.8361
    -3.7833  -3.6181  -3.6012  -3.5152  -3.4668  -3.4344  -3.4288  -3.3897
    -3.3467  -3.2840  -3.2712  -3.2434  -3.2351  -3.2158  -3.2070  -3.1554
    -3.1497  -3.0940  -3.0306  -3.0167  -3.0148  -3.0064  -2.9744  -2.9687
    -2.9591  -2.7773  -2.6500  -2.6373  -2.6090  -2.6013  -2.5615  -2.4911
    -2.4728  -2.3761  -2.3661  -2.3304  -2.2281  -2.2199  -2.1794  -2.1648
    -2.1537  -2.0695  -2.0659  -2.0623  -2.0311  -1.8108  -1.7543  -1.6846
    -1.0861  -0.6638  -0.6356   0.8375   0.8902   1.1815   2.7747   2.8748
     3.4313   4.6069   4.6253   4.7218   4.9941   5.2889

          k = 0.0559-0.0645 0.0000 ( 19479 PWs)   bands (ev):

   -90.8459 -90.8441 -90.8424 -90.7887 -90.7387 -90.7369 -90.7352 -90.6534
   -90.6519 -90.6498 -90.6365 -90.5095 -54.3661 -54.3581 -54.3499 -54.3436
   -54.3425 -54.3386 -54.3352 -54.3300 -54.3126 -54.2888 -54.2882 -54.2798
   -54.2717 -54.2585 -54.2475 -54.2286 -54.2231 -54.2128 -54.1907 -54.1837
   -54.1812 -54.1754 -54.1704 -54.1681 -54.1604 -54.1484 -54.1381 -54.1317
   -54.1257 -54.1243 -54.1227 -54.1221 -54.1103 -54.0189 -54.0163 -53.9919
    -9.6478  -4.8363  -4.3158  -4.2399  -4.1618  -4.1186  -4.1033  -4.0730
    -4.0618  -4.0272  -4.0096  -3.9837  -3.9005  -3.8269  -3.7792  -3.7589
    -3.7376  -3.6606  -3.5859  -3.5558  -3.4743  -3.4268  -3.4195  -3.3884
    -3.3753  -3.3204  -3.2649  -3.1927  -3.1908  -3.1637  -3.1492  -3.1073
    -3.0856  -3.0397  -2.9885  -2.9341  -2.8679  -2.8523  -2.8175  -2.7762
    -2.7523  -2.7146  -2.6867  -2.6647  -2.6048  -2.5578  -2.5372  -2.5213
    -2.4888  -2.4646  -2.4217  -2.3590  -2.3169  -2.2688  -2.2235  -2.1919
    -2.1173  -2.0547  -2.0381  -2.0215  -1.9618  -1.9254  -1.7834  -1.4717
    -0.8775  -0.5742   0.1340   0.4473   1.0497   1.6865   2.2803   2.7307
     3.1003   3.9023   4.1186   4.5687   5.0789   5.5115

          k =-0.0838 0.0484 0.0000 ( 19500 PWs)   bands (ev):

   -90.8459 -90.8441 -90.8424 -90.7887 -90.7386 -90.7369 -90.7352 -90.6532
   -90.6522 -90.6497 -90.6365 -90.5095 -54.3682 -54.3573 -54.3453 -54.3424
   -54.3412 -54.3390 -54.3374 -54.3351 -54.3099 -54.2909 -54.2888 -54.2781
   -54.2722 -54.2575 -54.2478 -54.2281 -54.2240 -54.2126 -54.1904 -54.1847
   -54.1822 -54.1782 -54.1697 -54.1591 -54.1583 -54.1548 -54.1424 -54.1299
   -54.1255 -54.1246 -54.1222 -54.1213 -54.1103 -54.0195 -54.0157 -53.9919
    -9.6478  -4.8429  -4.3392  -4.3139  -4.1548  -4.1515  -4.1248  -4.1129
    -4.0427  -4.0182  -3.9222  -3.9196  -3.8906  -3.8733  -3.7840  -3.7770
    -3.7047  -3.6870  -3.5617  -3.5006  -3.4688  -3.4557  -3.4543  -3.4182
    -3.3465  -3.3146  -3.2222  -3.1811  -3.1161  -3.0762  -3.0692  -3.0461
    -3.0310  -2.9877  -2.9143  -2.8531  -2.8492  -2.8349  -2.8336  -2.7707
    -2.7625  -2.7470  -2.7097  -2.6128  -2.6036  -2.5961  -2.5618  -2.5336
    -2.5226  -2.4987  -2.4967  -2.4826  -2.4506  -2.3690  -2.3014  -2.2833
    -2.2776  -2.0402  -2.0284  -2.0071  -1.9913  -1.8837  -1.8487  -1.4241
    -1.1886   0.1082   0.5592   0.6948   1.0639   1.3010   1.9798   2.5970
     2.8838   3.2344   4.2685   4.7567   5.1682   5.7658

          k =-0.0838 0.0806 0.0000 ( 19479 PWs)   bands (ev):

   -90.8459 -90.8441 -90.8424 -90.7887 -90.7386 -90.7369 -90.7352 -90.6534
   -90.6519 -90.6498 -90.6365 -90.5095 -54.3661 -54.3581 -54.3499 -54.3436
   -54.3425 -54.3386 -54.3352 -54.3300 -54.3126 -54.2888 -54.2882 -54.2798
   -54.2717 -54.2585 -54.2475 -54.2286 -54.2231 -54.2128 -54.1907 -54.1837
   -54.1812 -54.1754 -54.1704 -54.1681 -54.1604 -54.1484 -54.1381 -54.1317
   -54.1257 -54.1243 -54.1227 -54.1222 -54.1103 -54.0189 -54.0163 -53.9919
    -9.6478  -4.8362  -4.3158  -4.2399  -4.1618  -4.1186  -4.1033  -4.0730
    -4.0618  -4.0272  -4.0096  -3.9837  -3.9005  -3.8269  -3.7792  -3.7589
    -3.7376  -3.6606  -3.5859  -3.5559  -3.4743  -3.4268  -3.4195  -3.3884
    -3.3753  -3.3204  -3.2649  -3.1927  -3.1908  -3.1637  -3.1492  -3.1074
    -3.0856  -3.0397  -2.9885  -2.9341  -2.8679  -2.8523  -2.8175  -2.7762
    -2.7523  -2.7146  -2.6867  -2.6647  -2.6048  -2.5578  -2.5372  -2.5213
    -2.4888  -2.4646  -2.4217  -2.3590  -2.3169  -2.2688  -2.2235  -2.1919
    -2.1173  -2.0547  -2.0381  -2.0215  -1.9618  -1.9254  -1.7834  -1.4717
    -0.8775  -0.5742   0.1340   0.4473   1.0497   1.6865   2.2803   2.7307
     3.1003   3.9023   4.1186   4.5687   5.0789   5.5115

          k =-0.0838 0.1129 0.0000 ( 19479 PWs)   bands (ev):

   -90.8459 -90.8442 -90.8424 -90.7887 -90.7386 -90.7370 -90.7352 -90.6535
   -90.6516 -90.6500 -90.6365 -90.5095 -54.3660 -54.3581 -54.3499 -54.3436
   -54.3425 -54.3387 -54.3352 -54.3300 -54.3126 -54.2888 -54.2882 -54.2798
   -54.2717 -54.2586 -54.2475 -54.2286 -54.2231 -54.2128 -54.1907 -54.1838
   -54.1812 -54.1752 -54.1704 -54.1680 -54.1605 -54.1483 -54.1381 -54.1319
   -54.1258 -54.1240 -54.1227 -54.1222 -54.1103 -54.0189 -54.0163 -53.9919
    -9.6478  -4.8362  -4.3158  -4.2399  -4.1618  -4.1186  -4.1033  -4.0730
    -4.0618  -4.0272  -4.0096  -3.9837  -3.9005  -3.8269  -3.7792  -3.7589
    -3.7376  -3.6606  -3.5859  -3.5559  -3.4743  -3.4268  -3.4195  -3.3884
    -3.3753  -3.3204  -3.2649  -3.1927  -3.1908  -3.1637  -3.1492  -3.1073
    -3.0856  -3.0397  -2.9885  -2.9341  -2.8680  -2.8523  -2.8175  -2.7762
    -2.7522  -2.7146  -2.6867  -2.6647  -2.6048  -2.5578  -2.5372  -2.5213
    -2.4888  -2.4647  -2.4217  -2.3590  -2.3169  -2.2688  -2.2235  -2.1919
    -2.1173  -2.0548  -2.0381  -2.0215  -1.9618  -1.9254  -1.7834  -1.4717
    -0.8775  -0.5742   0.1340   0.4473   1.0497   1.6865   2.2803   2.7307
     3.1003   3.9023   4.1186   4.5687   5.0789   5.5115

          k =-0.0838-0.0484 0.0000 ( 19500 PWs)   bands (ev):

   -90.8459 -90.8442 -90.8423 -90.7887 -90.7386 -90.7370 -90.7352 -90.6535
   -90.6516 -90.6500 -90.6365 -90.5095 -54.3682 -54.3574 -54.3452 -54.3423
   -54.3412 -54.3391 -54.3374 -54.3350 -54.3099 -54.2909 -54.2888 -54.2781
   -54.2722 -54.2576 -54.2477 -54.2281 -54.2241 -54.2126 -54.1904 -54.1848
   -54.1822 -54.1779 -54.1696 -54.1593 -54.1579 -54.1550 -54.1424 -54.1301
   -54.1258 -54.1240 -54.1225 -54.1211 -54.1103 -54.0195 -54.0157 -53.9919
    -9.6478  -4.8428  -4.3392  -4.3140  -4.1548  -4.1515  -4.1248  -4.1130
    -4.0427  -4.0181  -3.9223  -3.9195  -3.8906  -3.8733  -3.7840  -3.7770
    -3.7046  -3.6871  -3.5617  -3.5007  -3.4688  -3.4557  -3.4542  -3.4182
    -3.3465  -3.3146  -3.2222  -3.1811  -3.1161  -3.0762  -3.0691  -3.0460
    -3.0311  -2.9876  -2.9143  -2.8531  -2.8491  -2.8350  -2.8336  -2.7708
    -2.7626  -2.7470  -2.7097  -2.6127  -2.6035  -2.5961  -2.5618  -2.5337
    -2.5226  -2.4988  -2.4967  -2.4825  -2.4506  -2.3689  -2.3014  -2.2833
    -2.2776  -2.0403  -2.0284  -2.0071  -1.9913  -1.8837  -1.8487  -1.4241
    -1.1886   0.1082   0.5592   0.6948   1.0639   1.3010   1.9798   2.5970
     2.8838   3.2344   4.2685   4.7567   5.1682   5.7658

     the Fermi energy is     1.2159 ev

!    total energy              =   -3572.39391095 Ry
     Harris-Foulkes estimate   =   -3572.39392300 Ry
     estimated scf accuracy    <       0.00000724 Ry

     The total energy is the sum of the following terms:

     one-electron contribution =  -26121.60142855 Ry
     hartree contribution      =   13053.19477243 Ry
     xc contribution           =    -365.21833498 Ry
     ewald contribution        =    9861.25649657 Ry
     electric field correction =       0.00001752 Ry
     smearing contrib. (-TS)   =      -0.02543395 Ry

     convergence has been achieved in  14 iterations
 
 BEEF-vdW xc energy contributions
           1 :   -316.379034891250     
           2 :    286.410622517265     
           3 :   -236.428500610615     
           4 :    181.521247026809     
           5 :   -135.389218001742     
           6 :    105.414432659995     
           7 :   -91.2783585006429     
           8 :    87.1394688100168     
           9 :   -85.7228208234903     
          10 :    81.9974869884468     
          11 :   -74.7537818200244     
          12 :    65.7865295619241     
          13 :   -57.7384747669085     
          14 :    52.1527887076492     
          15 :   -48.8049144435710     
          16 :    46.3636903452713     
          17 :   -43.6061221206373     
          18 :    40.2328325559903     
          19 :   -36.8223277340819     
          20 :    34.1434907548257     
          21 :   -32.4538396917411     
          22 :    31.3052074908513     
          23 :   -29.9332720122937     
          24 :    27.8714226803334     
          25 :   -25.3105126500755     
          26 :    22.9522037686264     
          27 :   -21.4927354305950     
          28 :    21.1271027413665     
          29 :   -21.4255489837903     
          30 :    21.6465752452099     
          31 :   -31.6755758920153     
          32 :   -23.0447156757487     

     Forces acting on atoms (Ry/au):


     negative rho (up, down):  2.109E-03 0.000E+00
     atom    1 type  1   force =    -0.00012886   -0.00007116   -0.00002850
     atom    2 type  1   force =     0.00012991   -0.00007570   -0.00027734
     atom    3 type  1   force =    -0.00000401    0.00014810   -0.00027370
     atom    4 type  1   force =     0.00000437   -0.00000065   -0.00354888
     atom    5 type  1   force =    -0.00001157    0.00221340    0.00365365
     atom    6 type  1   force =     0.00000986    0.00000281   -0.00939802
     atom    7 type  1   force =    -0.00191704   -0.00110189    0.00368109
     atom    8 type  1   force =     0.00191598   -0.00111433    0.00364653
     atom    9 type  1   force =    -0.00000049   -0.00000285    0.00217338
     atom   10 type  1   force =     0.00000207    0.00039045    0.01961277
     atom   11 type  1   force =     0.00034316   -0.00019250    0.01962054
     atom   12 type  1   force =    -0.00034590   -0.00019648    0.01959105
     atom   13 type  2   force =     0.00000139    0.00000029   -0.05030934
     atom   14 type  3   force =     0.00000114    0.00000053   -0.00814321

     Total force =     0.061286     Total SCF correction =     0.014180
     SCF correction compared to forces is large: reduce conv_thr to get better values


     entering subroutine stress ...


     negative rho (up, down):  2.109E-03 0.000E+00
          total   stress  (Ry/bohr**3)                   (kbar)     P=   -5.69
  -0.00004640  -0.00000000   0.00000000         -6.83     -0.00      0.00
  -0.00000000  -0.00004640   0.00000000         -0.00     -6.83      0.00
   0.00000000   0.00000000  -0.00002327          0.00      0.00     -3.42


     BFGS Geometry Optimization

     number of scf cycles    =   1
     number of bfgs steps    =   0

     energy   new            =   -3572.3939109485 Ry

     new trust radius        =       0.0503093381 bohr
     new conv_thr            =       0.0000099958 Ry


ATOMIC_POSITIONS (crystal)
Ag1      0.166666667   0.166666667   0.402063960    0   0   0
Ag1      0.666666667   0.166666667   0.402063960    0   0   0
Ag1      0.166666667   0.666666667   0.402063960    0   0   0
Ag1      0.666666667   0.666666667   0.402063960    0   0   0
Ag1      0.833333333   0.333333333   0.500000000    0   0   0
Ag1      0.333333333   0.333333333   0.500000000    0   0   0
Ag1      0.833333333   0.833333333   0.500000000    0   0   0
Ag1      0.333333333   0.833333333   0.500000000    0   0   0
Ag1      0.000000103  -0.000000292   0.597982282
Ag1      0.499980191   0.000039986   0.598353327
Ag1      0.000040292   0.499980285   0.598353493
Ag1      0.499979383   0.499979878   0.598352865
C1       0.333333442   0.333333363   0.654622131
H1       0.333333408   0.333333387   0.699746306



     Writing output data file calc.save
     Check: negative starting charge=   -0.002021
     NEW-OLD atomic charge density approx. for the potential
     Check: negative starting charge=   -0.002021

     negative rho (up, down):  2.118E-03 0.000E+00
 
     Adding external electric field

     Computed dipole along edir(3) : 
        Dipole               -0.0544 Ry au,         -0.1384 Debye
        Dipole field         -0.0001 Ry au
 
        Potential amp.        0.0121 Ry
        Total length         45.8256 bohr
 

     total cpu time spent up to now is      501.3 secs

     per-process dynamical memory:   127.3 Mb

     Self-consistent Calculation

     iteration #  1     ecut=    36.75 Ry     beta=0.30
     Davidson diagonalization with overlap
     ethr =  1.00E-06,  avg # of iterations =  4.9

     negative rho (up, down):  2.112E-03 0.000E+00
 
     Adding external electric field

     Computed dipole along edir(3) : 
        Dipole               -0.4097 Ry au,         -1.0412 Debye
        Dipole field         -0.0010 Ry au
 
        Potential amp.        0.0912 Ry
        Total length         45.8256 bohr
 

     total cpu time spent up to now is      538.7 secs

     total energy              =   -3572.39030708 Ry
     Harris-Foulkes estimate   =   -3572.39692454 Ry
     estimated scf accuracy    <       0.01424158 Ry

     iteration #  2     ecut=    36.75 Ry     beta=0.30
     Davidson diagonalization with overlap
     ethr =  6.11E-06,  avg # of iterations =  6.0

     negative rho (up, down):  2.109E-03 0.000E+00
 
     Adding external electric field

     Computed dipole along edir(3) : 
        Dipole               -0.0767 Ry au,         -0.1949 Debye
        Dipole field         -0.0002 Ry au
 
        Potential amp.        0.0171 Ry
        Total length         45.8256 bohr
 

     total cpu time spent up to now is      567.5 secs

     total energy              =   -3572.36398773 Ry
     Harris-Foulkes estimate   =   -3572.42830222 Ry
     estimated scf accuracy    <       1.09279973 Ry

     iteration #  3     ecut=    36.75 Ry     beta=0.30
     Davidson diagonalization with overlap
     ethr =  6.11E-06,  avg # of iterations =  6.3

     negative rho (up, down):  2.109E-03 0.000E+00
 
     Adding external electric field

     Computed dipole along edir(3) : 
        Dipole               -0.0898 Ry au,         -0.2281 Debye
        Dipole field         -0.0002 Ry au
 
        Potential amp.        0.0200 Ry
        Total length         45.8256 bohr
 

     total cpu time spent up to now is      595.6 secs

     total energy              =   -3572.39668143 Ry
     Harris-Foulkes estimate   =   -3572.39688214 Ry
     estimated scf accuracy    <       0.00132632 Ry

     iteration #  4     ecut=    36.75 Ry     beta=0.30
     Davidson diagonalization with overlap
     ethr =  5.69E-07,  avg # of iterations =  3.9

     negative rho (up, down):  2.103E-03 0.000E+00
 
     Adding external electric field

     Computed dipole along edir(3) : 
        Dipole               -0.0955 Ry au,         -0.2428 Debye
        Dipole field         -0.0002 Ry au
 
        Potential amp.        0.0213 Ry
        Total length         45.8256 bohr
 

     total cpu time spent up to now is      619.4 secs

     total energy              =   -3572.39676997 Ry
     Harris-Foulkes estimate   =   -3572.39678175 Ry
     estimated scf accuracy    <       0.00011699 Ry

     iteration #  5     ecut=    36.75 Ry     beta=0.30
     Davidson diagonalization with overlap
     ethr =  5.02E-08,  avg # of iterations =  2.0

     negative rho (up, down):  2.102E-03 0.000E+00
 
     Adding external electric field

     Computed dipole along edir(3) : 
        Dipole               -0.0957 Ry au,         -0.2431 Debye
        Dipole field         -0.0002 Ry au
 
        Potential amp.        0.0213 Ry
        Total length         45.8256 bohr
 

     total cpu time spent up to now is      641.8 secs

     total energy              =   -3572.39678012 Ry
     Harris-Foulkes estimate   =   -3572.39678077 Ry
     estimated scf accuracy    <       0.00003575 Ry

     iteration #  6     ecut=    36.75 Ry     beta=0.30
     Davidson diagonalization with overlap
     ethr =  1.53E-08,  avg # of iterations =  2.0

     negative rho (up, down):  2.101E-03 0.000E+00

     negative rho (up, down):  2.101E-03 0.000E+00

     negative rho (up, down):  2.101E-03 0.000E+00

     negative rho (up, down):  2.101E-03 0.000E+00

     negative rho (up, down):  2.101E-03 0.000E+00

     negative rho (up, down):  2.101E-03 0.000E+00

     negative rho (up, down):  2.101E-03 0.000E+00

     negative rho (up, down):  2.101E-03 0.000E+00

     negative rho (up, down):  2.101E-03 0.000E+00

     negative rho (up, down):  2.101E-03 0.000E+00

     negative rho (up, down):  2.101E-03 0.000E+00

     negative rho (up, down):  2.101E-03 0.000E+00

     negative rho (up, down):  2.101E-03 0.000E+00

     negative rho (up, down):  2.101E-03 0.000E+00

     negative rho (up, down):  2.101E-03 0.000E+00

     negative rho (up, down):  2.101E-03 0.000E+00

     negative rho (up, down):  2.101E-03 0.000E+00

     negative rho (up, down):  2.101E-03 0.000E+00

     negative rho (up, down):  2.101E-03 0.000E+00

     negative rho (up, down):  2.101E-03 0.000E+00

     negative rho (up, down):  2.101E-03 0.000E+00

     negative rho (up, down):  2.101E-03 0.000E+00

     negative rho (up, down):  2.101E-03 0.000E+00

     negative rho (up, down):  2.101E-03 0.000E+00

     negative rho (up, down):  2.101E-03 0.000E+00

     negative rho (up, down):  2.101E-03 0.000E+00

     negative rho (up, down):  2.101E-03 0.000E+00

     negative rho (up, down):  2.101E-03 0.000E+00

     negative rho (up, down):  2.101E-03 0.000E+00

     negative rho (up, down):  2.101E-03 0.000E+00

     negative rho (up, down):  2.101E-03 0.000E+00

     negative rho (up, down):  2.101E-03 0.000E+00

     negative rho (up, down):  2.101E-03 0.000E+00

     negative rho (up, down):  2.101E-03 0.000E+00

     negative rho (up, down):  2.101E-03 0.000E+00
 
     Adding external electric field

     Computed dipole along edir(3) : 
        Dipole               -0.0700 Ry au,         -0.1780 Debye
        Dipole field         -0.0002 Ry au
 
        Potential amp.        0.0156 Ry
        Total length         45.8256 bohr
 

     total cpu time spent up to now is      713.4 secs

     End of self-consistent calculation

          k = 0.0000 0.0000 0.0000 ( 19435 PWs)   bands (ev):

   -90.8372 -90.8317 -90.8317 -90.7771 -90.7539 -90.7487 -90.7487 -90.6459
   -90.6402 -90.6401 -90.6274 -90.5019 -54.3706 -54.3652 -54.3652 -54.3398
   -54.3258 -54.3258 -54.3161 -54.3038 -54.2990 -54.2990 -54.2773 -54.2704
   -54.2704 -54.2631 -54.2631 -54.2412 -54.2412 -54.2136 -54.2064 -54.1892
   -54.1848 -54.1848 -54.1777 -54.1777 -54.1298 -54.1261 -54.1261 -54.1189
   -54.1133 -54.1133 -54.1050 -54.1050 -54.1019 -54.0067 -54.0067 -53.9849
    -9.6462  -5.3434  -5.0510  -4.5641  -4.5641  -4.5531  -4.5112  -4.4372
    -4.4372  -4.4054  -4.3625  -4.3625  -4.3226  -4.2436  -4.1858  -4.1858
    -3.7983  -3.6578  -3.6578  -3.5174  -3.5042  -3.5042  -3.4088  -3.3994
    -3.3994  -3.2952  -3.2952  -3.2113  -3.2113  -3.1983  -3.1497  -3.1497
    -2.8390  -2.8390  -2.6954  -2.6255  -2.6255  -2.6039  -2.5649  -2.5410
    -2.5410  -2.4225  -2.3310  -2.3310  -2.3114  -2.3114  -2.1359  -2.1359
    -2.0930  -2.0179  -2.0179  -2.0164  -2.0164  -1.9566  -1.9186  -1.9074
    -1.9074  -1.7880  -1.7495  -1.7495  -1.7414  -1.7227  -1.7227  -1.0553
     0.5138   0.9699   0.9700   1.8104   1.8525   1.8525   2.1505   2.6095
     2.6095   2.7032   2.9864   2.9864   4.4579   4.8822

          k = 0.0000 0.0323 0.0000 ( 19455 PWs)   bands (ev):

   -90.8368 -90.8320 -90.8317 -90.7772 -90.7536 -90.7490 -90.7487 -90.6455
   -90.6405 -90.6401 -90.6275 -90.5019 -54.3672 -54.3621 -54.3614 -54.3386
   -54.3263 -54.3257 -54.3180 -54.3036 -54.3007 -54.2995 -54.2774 -54.2712
   -54.2694 -54.2669 -54.2640 -54.2406 -54.2400 -54.2152 -54.2053 -54.1861
   -54.1818 -54.1807 -54.1799 -54.1782 -54.1322 -54.1291 -54.1256 -54.1184
   -54.1136 -54.1133 -54.1101 -54.1063 -54.1020 -54.0080 -54.0071 -53.9850
    -9.6389  -5.2195  -4.9381  -4.5087  -4.4614  -4.4530  -4.4147  -4.3777
    -4.3614  -4.3276  -4.3068  -4.3018  -4.2586  -4.1505  -4.1071  -4.0775
    -3.7606  -3.6559  -3.6453  -3.4976  -3.4632  -3.4534  -3.4386  -3.4079
    -3.3471  -3.3299  -3.2582  -3.2569  -3.2120  -3.1799  -3.1674  -3.0889
    -2.8919  -2.8708  -2.8628  -2.7096  -2.6864  -2.6630  -2.5989  -2.5607
    -2.5534  -2.4896  -2.3813  -2.3702  -2.3542  -2.3369  -2.1789  -2.1769
    -2.1314  -2.1158  -2.0687  -2.0657  -2.0284  -2.0230  -2.0191  -1.9888
    -1.9780  -1.9157  -1.8874  -1.8580  -1.8391  -1.8205  -1.8174  -0.9117
     0.0679   0.5542   0.8194   1.0249   1.5486   1.5524   2.0548   2.5063
     2.8285   3.1315   3.6013   3.7112   4.7040   5.0841

          k = 0.0000 0.0645 0.0000 ( 19481 PWs)   bands (ev):

   -90.8359 -90.8328 -90.8317 -90.7772 -90.7528 -90.7498 -90.7487 -90.6445
   -90.6413 -90.6402 -90.6276 -90.5019 -54.3610 -54.3538 -54.3493 -54.3357
   -54.3279 -54.3254 -54.3244 -54.3142 -54.2997 -54.2947 -54.2778 -54.2757
   -54.2730 -54.2674 -54.2659 -54.2393 -54.2367 -54.2195 -54.2021 -54.1867
   -54.1791 -54.1790 -54.1743 -54.1671 -54.1397 -54.1368 -54.1235 -54.1228
   -54.1174 -54.1143 -54.1132 -54.1095 -54.1021 -54.0105 -54.0078 -53.9849
    -9.6245  -4.9778  -4.5909  -4.3850  -4.2597  -4.2215  -4.2169  -4.1830
    -4.1785  -4.1614  -4.1320  -4.1125  -4.0855  -3.9498  -3.8750  -3.7850
    -3.7250  -3.6704  -3.6054  -3.5675  -3.5196  -3.4213  -3.3771  -3.3614
    -3.3239  -3.2852  -3.2787  -3.2032  -3.1685  -3.1049  -3.0595  -3.0526
    -3.0435  -3.0024  -2.9793  -2.9370  -2.8302  -2.7899  -2.6946  -2.6371
    -2.6347  -2.5667  -2.5499  -2.5267  -2.5061  -2.4872  -2.4628  -2.3948
    -2.3758  -2.3454  -2.3435  -2.2802  -2.2323  -2.2228  -2.1680  -2.1214
    -2.0263  -2.0259  -2.0075  -1.9676  -1.8813  -1.8470  -1.7871  -1.5308
    -0.6292  -0.0294   0.6174   0.8649   1.3464   1.3584   1.7779   2.5739
     2.8953   3.4773   3.7961   4.7810   5.0857   5.5091

          k = 0.0000-0.0968 0.0000 ( 19500 PWs)   bands (ev):

   -90.8352 -90.8335 -90.8317 -90.7772 -90.7521 -90.7504 -90.7487 -90.6436
   -90.6421 -90.6402 -90.6277 -90.5019 -54.3579 -54.3470 -54.3354 -54.3335
   -54.3310 -54.3293 -54.3270 -54.3249 -54.2995 -54.2902 -54.2805 -54.2779
   -54.2753 -54.2672 -54.2662 -54.2384 -54.2338 -54.2229 -54.1990 -54.1914
   -54.1793 -54.1750 -54.1687 -54.1497 -54.1486 -54.1454 -54.1336 -54.1205
   -54.1165 -54.1151 -54.1132 -54.1121 -54.1022 -54.0118 -54.0082 -53.9849
    -9.6174  -4.8536  -4.3336  -4.3013  -4.1508  -4.1424  -4.1121  -4.1072
    -4.0319  -4.0092  -3.9114  -3.9098  -3.8832  -3.8624  -3.7839  -3.7736
    -3.6979  -3.6870  -3.5775  -3.4917  -3.4617  -3.4490  -3.4471  -3.4102
    -3.3419  -3.3086  -3.2337  -3.1795  -3.1120  -3.0730  -3.0690  -3.0351
    -3.0283  -2.9909  -2.9228  -2.8595  -2.8455  -2.8280  -2.8275  -2.7621
    -2.7524  -2.7413  -2.7112  -2.6081  -2.5949  -2.5917  -2.5645  -2.5340
    -2.5178  -2.4949  -2.4895  -2.4777  -2.4474  -2.3659  -2.2991  -2.2801
    -2.2722  -2.0399  -2.0248  -2.0087  -1.9880  -1.8797  -1.8434  -1.4036
    -1.1869   0.1270   0.5509   0.7011   1.0768   1.3129   1.9803   2.6130
     2.9067   3.2640   4.2680   4.7560   5.1866   5.7647

          k = 0.0279-0.0161 0.0000 ( 19455 PWs)   bands (ev):

   -90.8368 -90.8320 -90.8317 -90.7772 -90.7536 -90.7490 -90.7487 -90.6455
   -90.6405 -90.6402 -90.6275 -90.5019 -54.3672 -54.3621 -54.3614 -54.3386
   -54.3263 -54.3256 -54.3180 -54.3036 -54.3007 -54.2995 -54.2774 -54.2712
   -54.2694 -54.2669 -54.2640 -54.2406 -54.2400 -54.2152 -54.2053 -54.1861
   -54.1818 -54.1807 -54.1799 -54.1782 -54.1322 -54.1291 -54.1257 -54.1184
   -54.1136 -54.1133 -54.1101 -54.1063 -54.1020 -54.0080 -54.0071 -53.9850
    -9.6389  -5.2195  -4.9381  -4.5087  -4.4614  -4.4530  -4.4147  -4.3777
    -4.3614  -4.3276  -4.3068  -4.3018  -4.2587  -4.1505  -4.1071  -4.0774
    -3.7606  -3.6559  -3.6452  -3.4976  -3.4632  -3.4534  -3.4386  -3.4079
    -3.3471  -3.3299  -3.2582  -3.2569  -3.2120  -3.1799  -3.1674  -3.0889
    -2.8919  -2.8708  -2.8628  -2.7096  -2.6864  -2.6630  -2.5989  -2.5607
    -2.5534  -2.4896  -2.3813  -2.3702  -2.3542  -2.3369  -2.1789  -2.1769
    -2.1314  -2.1157  -2.0687  -2.0657  -2.0284  -2.0230  -2.0191  -1.9888
    -1.9780  -1.9157  -1.8874  -1.8580  -1.8391  -1.8205  -1.8174  -0.9117
     0.0679   0.5542   0.8194   1.0249   1.5486   1.5524   2.0548   2.5063
     2.8285   3.1315   3.6013   3.7112   4.7040   5.0841

          k = 0.0279 0.0161 0.0000 ( 19455 PWs)   bands (ev):

   -90.8368 -90.8320 -90.8317 -90.7772 -90.7536 -90.7490 -90.7487 -90.6455
   -90.6405 -90.6401 -90.6275 -90.5019 -54.3672 -54.3621 -54.3614 -54.3386
   -54.3263 -54.3257 -54.3180 -54.3036 -54.3007 -54.2995 -54.2774 -54.2712
   -54.2694 -54.2669 -54.2640 -54.2406 -54.2400 -54.2152 -54.2053 -54.1861
   -54.1818 -54.1807 -54.1799 -54.1782 -54.1322 -54.1291 -54.1256 -54.1184
   -54.1136 -54.1133 -54.1101 -54.1063 -54.1020 -54.0080 -54.0071 -53.9850
    -9.6389  -5.2195  -4.9381  -4.5087  -4.4614  -4.4530  -4.4147  -4.3777
    -4.3614  -4.3276  -4.3068  -4.3018  -4.2586  -4.1505  -4.1071  -4.0775
    -3.7606  -3.6559  -3.6453  -3.4976  -3.4632  -3.4534  -3.4386  -3.4079
    -3.3471  -3.3299  -3.2582  -3.2569  -3.2120  -3.1799  -3.1674  -3.0889
    -2.8919  -2.8708  -2.8628  -2.7096  -2.6864  -2.6630  -2.5989  -2.5607
    -2.5534  -2.4896  -2.3813  -2.3702  -2.3542  -2.3369  -2.1789  -2.1769
    -2.1314  -2.1157  -2.0687  -2.0657  -2.0284  -2.0230  -2.0191  -1.9888
    -1.9780  -1.9157  -1.8874  -1.8580  -1.8391  -1.8205  -1.8174  -0.9117
     0.0679   0.5542   0.8194   1.0249   1.5486   1.5524   2.0548   2.5063
     2.8285   3.1315   3.6013   3.7112   4.7040   5.0841

          k = 0.0279 0.0484 0.0000 ( 19453 PWs)   bands (ev):

   -90.8362 -90.8326 -90.8317 -90.7772 -90.7530 -90.7495 -90.7487 -90.6448
   -90.6410 -90.6402 -90.6276 -90.5019 -54.3621 -54.3561 -54.3537 -54.3365
   -54.3272 -54.3255 -54.3231 -54.3089 -54.3013 -54.2963 -54.2777 -54.2730
   -54.2723 -54.2676 -54.2661 -54.2397 -54.2375 -54.2183 -54.2031 -54.1847
   -54.1810 -54.1791 -54.1741 -54.1734 -54.1403 -54.1289 -54.1269 -54.1188
   -54.1175 -54.1140 -54.1133 -54.1089 -54.1021 -54.0096 -54.0079 -53.9849
    -9.6281  -5.0365  -4.6956  -4.3660  -4.3526  -4.2921  -4.2531  -4.2518
    -4.2211  -4.2133  -4.1966  -4.1809  -4.1178  -3.9809  -3.9641  -3.8767
    -3.7240  -3.6920  -3.5933  -3.5241  -3.4718  -3.4614  -3.4137  -3.3785
    -3.3484  -3.2980  -3.2675  -3.2393  -3.1909  -3.1478  -3.0966  -3.0566
    -3.0089  -2.9796  -2.9258  -2.8765  -2.8089  -2.7501  -2.7007  -2.5990
    -2.5912  -2.5675  -2.4887  -2.4685  -2.4377  -2.3941  -2.3830  -2.3442
    -2.3266  -2.2597  -2.2301  -2.2269  -2.1959  -2.1561  -2.0971  -2.0783
    -2.0370  -2.0165  -1.9872  -1.9397  -1.9184  -1.8995  -1.8234  -0.9040
    -0.4889  -0.1029   0.2673   0.5468   1.4353   1.8209   2.0137   2.7341
     3.0588   3.4343   3.6311   4.0518   4.9622   5.3749

          k = 0.0279-0.1129 0.0000 ( 19479 PWs)   bands (ev):

   -90.8352 -90.8335 -90.8317 -90.7772 -90.7521 -90.7504 -90.7487 -90.6437
   -90.6420 -90.6402 -90.6277 -90.5019 -54.3558 -54.3479 -54.3397 -54.3339
   -54.3331 -54.3288 -54.3253 -54.3197 -54.3024 -54.2898 -54.2783 -54.2775
   -54.2759 -54.2688 -54.2660 -54.2388 -54.2331 -54.2230 -54.1993 -54.1904
   -54.1800 -54.1740 -54.1659 -54.1587 -54.1510 -54.1389 -54.1289 -54.1224
   -54.1166 -54.1149 -54.1136 -54.1130 -54.1021 -54.0112 -54.0088 -53.9849
    -9.6174  -4.8460  -4.3099  -4.2319  -4.1583  -4.1097  -4.0921  -4.0645
    -4.0504  -4.0156  -4.0010  -3.9736  -3.8907  -3.8243  -3.7802  -3.7522
    -3.7266  -3.6575  -3.5856  -3.5582  -3.4737  -3.4192  -3.4135  -3.3823
    -3.3700  -3.3172  -3.2712  -3.1911  -3.1856  -3.1596  -3.1436  -3.1029
    -3.0814  -3.0372  -2.9978  -2.9330  -2.8659  -2.8483  -2.8129  -2.7698
    -2.7492  -2.7170  -2.6845  -2.6610  -2.6010  -2.5531  -2.5346  -2.5179
    -2.4854  -2.4578  -2.4191  -2.3538  -2.3126  -2.2636  -2.2207  -2.1910
    -2.1140  -2.0544  -2.0363  -2.0182  -1.9583  -1.9200  -1.7769  -1.4585
    -0.8704  -0.5709   0.1476   0.4492   1.0614   1.7027   2.2938   2.7414
     3.1144   3.9158   4.1288   4.5782   5.0881   5.5137

          k = 0.0279-0.0806 0.0000 ( 19479 PWs)   bands (ev):

   -90.8352 -90.8335 -90.8317 -90.7772 -90.7521 -90.7504 -90.7487 -90.6437
   -90.6420 -90.6402 -90.6277 -90.5019 -54.3558 -54.3479 -54.3397 -54.3339
   -54.3331 -54.3288 -54.3253 -54.3197 -54.3024 -54.2898 -54.2783 -54.2775
   -54.2759 -54.2688 -54.2660 -54.2388 -54.2331 -54.2230 -54.1993 -54.1904
   -54.1800 -54.1740 -54.1659 -54.1587 -54.1510 -54.1389 -54.1289 -54.1224
   -54.1166 -54.1149 -54.1136 -54.1130 -54.1021 -54.0112 -54.0088 -53.9849
    -9.6174  -4.8460  -4.3099  -4.2319  -4.1583  -4.1097  -4.0921  -4.0644
    -4.0504  -4.0156  -4.0010  -3.9736  -3.8907  -3.8243  -3.7802  -3.7522
    -3.7266  -3.6575  -3.5856  -3.5582  -3.4737  -3.4192  -3.4135  -3.3823
    -3.3700  -3.3172  -3.2712  -3.1911  -3.1856  -3.1596  -3.1436  -3.1029
    -3.0814  -3.0372  -2.9978  -2.9330  -2.8659  -2.8483  -2.8129  -2.7698
    -2.7492  -2.7170  -2.6845  -2.6610  -2.6010  -2.5531  -2.5346  -2.5179
    -2.4854  -2.4578  -2.4191  -2.3538  -2.3126  -2.2636  -2.2207  -2.1910
    -2.1140  -2.0544  -2.0363  -2.0182  -1.9583  -1.9200  -1.7769  -1.4585
    -0.8704  -0.5709   0.1476   0.4492   1.0614   1.7027   2.2938   2.7414
     3.1144   3.9158   4.1288   4.5782   5.0881   5.5137

          k = 0.0279-0.0484 0.0000 ( 19453 PWs)   bands (ev):

   -90.8362 -90.8326 -90.8317 -90.7772 -90.7530 -90.7495 -90.7487 -90.6448
   -90.6410 -90.6402 -90.6276 -90.5019 -54.3621 -54.3561 -54.3537 -54.3365
   -54.3272 -54.3255 -54.3231 -54.3089 -54.3013 -54.2963 -54.2777 -54.2730
   -54.2723 -54.2676 -54.2661 -54.2397 -54.2375 -54.2183 -54.2031 -54.1847
   -54.1810 -54.1791 -54.1741 -54.1734 -54.1403 -54.1289 -54.1269 -54.1188
   -54.1175 -54.1140 -54.1133 -54.1089 -54.1021 -54.0096 -54.0079 -53.9849
    -9.6281  -5.0365  -4.6956  -4.3660  -4.3526  -4.2921  -4.2531  -4.2518
    -4.2211  -4.2133  -4.1966  -4.1809  -4.1178  -3.9809  -3.9641  -3.8767
    -3.7240  -3.6920  -3.5933  -3.5241  -3.4718  -3.4614  -3.4137  -3.3785
    -3.3484  -3.2980  -3.2675  -3.2393  -3.1909  -3.1478  -3.0966  -3.0566
    -3.0089  -2.9796  -2.9258  -2.8765  -2.8089  -2.7501  -2.7007  -2.5990
    -2.5912  -2.5675  -2.4887  -2.4685  -2.4377  -2.3941  -2.3830  -2.3442
    -2.3266  -2.2597  -2.2302  -2.2269  -2.1959  -2.1561  -2.0971  -2.0783
    -2.0370  -2.0165  -1.9872  -1.9397  -1.9184  -1.8995  -1.8234  -0.9040
    -0.4889  -0.1029   0.2673   0.5468   1.4353   1.8209   2.0137   2.7341
     3.0588   3.4343   3.6311   4.0518   4.9622   5.3749

          k = 0.0559-0.0323 0.0000 ( 19481 PWs)   bands (ev):

   -90.8359 -90.8328 -90.8317 -90.7772 -90.7528 -90.7498 -90.7487 -90.6445
   -90.6413 -90.6402 -90.6276 -90.5019 -54.3610 -54.3538 -54.3493 -54.3357
   -54.3279 -54.3254 -54.3244 -54.3142 -54.2997 -54.2947 -54.2778 -54.2757
   -54.2730 -54.2674 -54.2659 -54.2393 -54.2367 -54.2195 -54.2021 -54.1867
   -54.1791 -54.1790 -54.1742 -54.1671 -54.1397 -54.1367 -54.1235 -54.1228
   -54.1174 -54.1143 -54.1132 -54.1095 -54.1021 -54.0105 -54.0078 -53.9849
    -9.6245  -4.9778  -4.5909  -4.3850  -4.2597  -4.2215  -4.2169  -4.1830
    -4.1785  -4.1614  -4.1320  -4.1125  -4.0855  -3.9498  -3.8750  -3.7850
    -3.7250  -3.6704  -3.6054  -3.5675  -3.5196  -3.4213  -3.3771  -3.3614
    -3.3239  -3.2852  -3.2787  -3.2032  -3.1685  -3.1049  -3.0595  -3.0526
    -3.0435  -3.0024  -2.9793  -2.9370  -2.8302  -2.7899  -2.6946  -2.6371
    -2.6347  -2.5667  -2.5499  -2.5267  -2.5061  -2.4872  -2.4628  -2.3948
    -2.3758  -2.3454  -2.3435  -2.2802  -2.2323  -2.2227  -2.1680  -2.1214
    -2.0263  -2.0259  -2.0075  -1.9676  -1.8813  -1.8470  -1.7871  -1.5308
    -0.6292  -0.0294   0.6174   0.8649   1.3464   1.3584   1.7779   2.5739
     2.8953   3.4773   3.7961   4.7810   5.0857   5.5091

          k = 0.0559 0.0000 0.0000 ( 19453 PWs)   bands (ev):

   -90.8362 -90.8326 -90.8317 -90.7772 -90.7530 -90.7495 -90.7487 -90.6448
   -90.6410 -90.6402 -90.6276 -90.5019 -54.3621 -54.3561 -54.3537 -54.3365
   -54.3272 -54.3255 -54.3231 -54.3089 -54.3013 -54.2963 -54.2777 -54.2730
   -54.2723 -54.2676 -54.2661 -54.2397 -54.2375 -54.2183 -54.2031 -54.1847
   -54.1810 -54.1791 -54.1741 -54.1734 -54.1403 -54.1289 -54.1269 -54.1188
   -54.1175 -54.1140 -54.1133 -54.1089 -54.1021 -54.0096 -54.0079 -53.9849
    -9.6281  -5.0365  -4.6956  -4.3660  -4.3526  -4.2921  -4.2531  -4.2518
    -4.2211  -4.2133  -4.1966  -4.1809  -4.1178  -3.9809  -3.9641  -3.8767
    -3.7240  -3.6920  -3.5933  -3.5241  -3.4718  -3.4614  -3.4137  -3.3785
    -3.3484  -3.2980  -3.2675  -3.2393  -3.1909  -3.1478  -3.0966  -3.0566
    -3.0089  -2.9796  -2.9258  -2.8765  -2.8089  -2.7501  -2.7007  -2.5990
    -2.5912  -2.5675  -2.4887  -2.4685  -2.4377  -2.3941  -2.3830  -2.3442
    -2.3266  -2.2597  -2.2302  -2.2269  -2.1959  -2.1561  -2.0971  -2.0783
    -2.0370  -2.0165  -1.9872  -1.9397  -1.9184  -1.8995  -1.8234  -0.9040
    -0.4889  -0.1029   0.2673   0.5468   1.4353   1.8209   2.0137   2.7341
     3.0588   3.4343   3.6311   4.0518   4.9622   5.3749

          k = 0.0559 0.0323 0.0000 ( 19481 PWs)   bands (ev):

   -90.8359 -90.8328 -90.8317 -90.7772 -90.7528 -90.7498 -90.7487 -90.6445
   -90.6413 -90.6402 -90.6276 -90.5019 -54.3610 -54.3538 -54.3493 -54.3357
   -54.3279 -54.3254 -54.3244 -54.3142 -54.2997 -54.2947 -54.2778 -54.2757
   -54.2730 -54.2674 -54.2659 -54.2393 -54.2367 -54.2195 -54.2021 -54.1867
   -54.1791 -54.1790 -54.1743 -54.1671 -54.1397 -54.1368 -54.1235 -54.1228
   -54.1174 -54.1143 -54.1132 -54.1095 -54.1021 -54.0105 -54.0078 -53.9849
    -9.6245  -4.9778  -4.5909  -4.3850  -4.2597  -4.2215  -4.2169  -4.1830
    -4.1785  -4.1614  -4.1320  -4.1125  -4.0855  -3.9498  -3.8750  -3.7850
    -3.7250  -3.6704  -3.6054  -3.5675  -3.5196  -3.4213  -3.3771  -3.3614
    -3.3239  -3.2852  -3.2787  -3.2032  -3.1685  -3.1049  -3.0595  -3.0526
    -3.0435  -3.0024  -2.9793  -2.9370  -2.8302  -2.7899  -2.6946  -2.6371
    -2.6347  -2.5667  -2.5499  -2.5267  -2.5061  -2.4872  -2.4628  -2.3948
    -2.3758  -2.3454  -2.3435  -2.2802  -2.2323  -2.2228  -2.1680  -2.1214
    -2.0263  -2.0259  -2.0075  -1.9676  -1.8813  -1.8470  -1.7871  -1.5308
    -0.6292  -0.0294   0.6174   0.8649   1.3464   1.3584   1.7779   2.5739
     2.8953   3.4773   3.7961   4.7810   5.0857   5.5091

          k = 0.0559-0.1290 0.0000 ( 19479 PWs)   bands (ev):

   -90.8352 -90.8335 -90.8317 -90.7772 -90.7521 -90.7504 -90.7487 -90.6437
   -90.6420 -90.6402 -90.6277 -90.5019 -54.3558 -54.3479 -54.3397 -54.3339
   -54.3331 -54.3288 -54.3253 -54.3197 -54.3024 -54.2898 -54.2783 -54.2775
   -54.2759 -54.2688 -54.2660 -54.2388 -54.2331 -54.2230 -54.1993 -54.1904
   -54.1800 -54.1740 -54.1659 -54.1587 -54.1510 -54.1389 -54.1289 -54.1224
   -54.1166 -54.1149 -54.1136 -54.1130 -54.1021 -54.0112 -54.0088 -53.9849
    -9.6174  -4.8460  -4.3099  -4.2319  -4.1583  -4.1097  -4.0921  -4.0645
    -4.0504  -4.0156  -4.0010  -3.9736  -3.8907  -3.8243  -3.7802  -3.7522
    -3.7266  -3.6575  -3.5856  -3.5582  -3.4737  -3.4192  -3.4135  -3.3823
    -3.3700  -3.3172  -3.2712  -3.1911  -3.1856  -3.1596  -3.1436  -3.1029
    -3.0814  -3.0372  -2.9978  -2.9330  -2.8659  -2.8483  -2.8129  -2.7698
    -2.7492  -2.7170  -2.6845  -2.6610  -2.6010  -2.5531  -2.5346  -2.5179
    -2.4854  -2.4578  -2.4191  -2.3538  -2.3126  -2.2636  -2.2207  -2.1910
    -2.1140  -2.0544  -2.0363  -2.0182  -1.9583  -1.9200  -1.7769  -1.4585
    -0.8704  -0.5709   0.1476   0.4492   1.0614   1.7027   2.2938   2.7414
     3.1144   3.9158   4.1288   4.5782   5.0881   5.5137

          k = 0.0559-0.0968 0.0000 ( 19479 PWs)   bands (ev):

   -90.8343 -90.8343 -90.8317 -90.7772 -90.7513 -90.7513 -90.7487 -90.6428
   -90.6428 -90.6403 -90.6277 -90.5019 -54.3461 -54.3459 -54.3442 -54.3326
   -54.3296 -54.3280 -54.3275 -54.3256 -54.3051 -54.2852 -54.2807 -54.2777
   -54.2739 -54.2739 -54.2654 -54.2388 -54.2282 -54.2276 -54.1963 -54.1935
   -54.1810 -54.1652 -54.1641 -54.1558 -54.1511 -54.1508 -54.1271 -54.1197
   -54.1197 -54.1158 -54.1155 -54.1134 -54.1022 -54.0104 -54.0104 -53.9849
    -9.6138  -4.7642  -4.1750  -4.0507  -4.0181  -3.9931  -3.9767  -3.9204
    -3.9139  -3.9092  -3.9076  -3.8785  -3.8682  -3.8659  -3.8320  -3.8293
    -3.7664  -3.6160  -3.5941  -3.5297  -3.4703  -3.4288  -3.4211  -3.3862
    -3.3427  -3.2771  -3.2716  -3.2345  -3.2309  -3.2096  -3.2047  -3.1636
    -3.1504  -3.1031  -3.0220  -3.0124  -3.0082  -3.0007  -2.9733  -2.9701
    -2.9543  -2.7930  -2.6409  -2.6393  -2.6035  -2.5951  -2.5551  -2.4903
    -2.4678  -2.3652  -2.3614  -2.3242  -2.2280  -2.2168  -2.1839  -2.1616
    -2.1475  -2.0672  -2.0643  -2.0602  -2.0240  -1.8042  -1.7533  -1.6785
    -1.0641  -0.6645  -0.6351   0.8383   0.9245   1.1902   2.7932   2.8804
     3.4561   4.6148   4.6309   4.7310   4.9978   5.2896

          k = 0.0559-0.0645 0.0000 ( 19479 PWs)   bands (ev):

   -90.8352 -90.8335 -90.8317 -90.7772 -90.7521 -90.7504 -90.7487 -90.6437
   -90.6419 -90.6403 -90.6277 -90.5019 -54.3558 -54.3479 -54.3397 -54.3339
   -54.3331 -54.3288 -54.3253 -54.3197 -54.3024 -54.2898 -54.2783 -54.2775
   -54.2759 -54.2688 -54.2660 -54.2388 -54.2331 -54.2230 -54.1993 -54.1904
   -54.1800 -54.1740 -54.1659 -54.1587 -54.1510 -54.1389 -54.1289 -54.1225
   -54.1166 -54.1149 -54.1136 -54.1130 -54.1021 -54.0112 -54.0088 -53.9849
    -9.6174  -4.8460  -4.3099  -4.2319  -4.1583  -4.1097  -4.0921  -4.0645
    -4.0504  -4.0156  -4.0010  -3.9736  -3.8907  -3.8243  -3.7802  -3.7522
    -3.7266  -3.6575  -3.5856  -3.5582  -3.4737  -3.4192  -3.4135  -3.3823
    -3.3700  -3.3172  -3.2712  -3.1911  -3.1856  -3.1596  -3.1436  -3.1029
    -3.0814  -3.0372  -2.9978  -2.9330  -2.8659  -2.8483  -2.8129  -2.7698
    -2.7492  -2.7170  -2.6845  -2.6610  -2.6010  -2.5531  -2.5346  -2.5179
    -2.4854  -2.4578  -2.4191  -2.3538  -2.3126  -2.2636  -2.2207  -2.1910
    -2.1140  -2.0544  -2.0363  -2.0182  -1.9583  -1.9200  -1.7769  -1.4585
    -0.8704  -0.5709   0.1476   0.4492   1.0614   1.7027   2.2938   2.7414
     3.1144   3.9158   4.1288   4.5782   5.0881   5.5137

          k =-0.0838 0.0484 0.0000 ( 19500 PWs)   bands (ev):

   -90.8352 -90.8335 -90.8317 -90.7772 -90.7521 -90.7504 -90.7487 -90.6436
   -90.6421 -90.6402 -90.6277 -90.5019 -54.3579 -54.3470 -54.3354 -54.3335
   -54.3310 -54.3293 -54.3271 -54.3249 -54.2995 -54.2902 -54.2805 -54.2779
   -54.2753 -54.2672 -54.2662 -54.2384 -54.2338 -54.2229 -54.1990 -54.1914
   -54.1793 -54.1750 -54.1687 -54.1497 -54.1485 -54.1454 -54.1336 -54.1205
   -54.1165 -54.1150 -54.1132 -54.1120 -54.1022 -54.0118 -54.0082 -53.9849
    -9.6174  -4.8536  -4.3336  -4.3013  -4.1508  -4.1424  -4.1121  -4.1072
    -4.0319  -4.0092  -3.9114  -3.9098  -3.8832  -3.8624  -3.7839  -3.7736
    -3.6979  -3.6870  -3.5775  -3.4917  -3.4617  -3.4490  -3.4471  -3.4102
    -3.3419  -3.3086  -3.2337  -3.1795  -3.1120  -3.0730  -3.0690  -3.0350
    -3.0283  -2.9909  -2.9228  -2.8595  -2.8455  -2.8280  -2.8275  -2.7621
    -2.7524  -2.7413  -2.7112  -2.6081  -2.5949  -2.5917  -2.5645  -2.5340
    -2.5178  -2.4949  -2.4895  -2.4777  -2.4474  -2.3659  -2.2991  -2.2801
[...]

   -90.8304 -90.8258 -90.8249 -90.8008 -90.7978 -90.7967 -90.7287 -90.6032
   -90.6000 -90.5988 -90.5873 -90.4791 -54.4191 -54.3841 -54.3758 -54.3262
   -54.3193 -54.3159 -54.3059 -54.3037 -54.2945 -54.2920 -54.2859 -54.2825
   -54.2787 -54.2769 -54.2649 -54.2598 -54.2447 -54.2363 -54.2276 -54.2203
   -54.2147 -54.1387 -54.1336 -54.1265 -54.0989 -54.0965 -54.0832 -54.0824
   -54.0749 -54.0718 -54.0709 -54.0688 -54.0610 -53.9876 -53.9857 -53.9653
    -9.9710  -5.1301  -4.5682  -4.3946  -4.3084  -4.2017  -4.1758  -4.1689
    -4.1485  -4.1313  -4.1252  -4.0955  -4.0375  -3.9407  -3.8743  -3.8255
    -3.7799  -3.6789  -3.6008  -3.5120  -3.4730  -3.4506  -3.4231  -3.3312
    -3.3189  -3.2664  -3.2628  -3.2165  -3.2158  -3.0686  -3.0677  -3.0306
    -3.0207  -2.9736  -2.9634  -2.9558  -2.8582  -2.8032  -2.7060  -2.6418
    -2.6175  -2.5746  -2.5430  -2.5075  -2.4956  -2.4813  -2.4402  -2.3871
    -2.3545  -2.3320  -2.3255  -2.2688  -2.2113  -2.2107  -2.1647  -2.0950
    -2.0202  -2.0022  -2.0009  -1.9585  -1.8589  -1.8336  -1.7088  -1.5491
    -0.5455   0.0008   0.5108   0.8331   1.4415   1.4577   1.7858   2.6438
     3.0446   3.5200   3.8045   4.7840   5.1311   5.5361

          k = 0.0559-0.1290 0.0000 ( 19479 PWs)   bands (ev):

   -90.8300 -90.8261 -90.8249 -90.8001 -90.7984 -90.7967 -90.7287 -90.6024
   -90.6006 -90.5989 -90.5874 -90.4791 -54.4144 -54.3878 -54.3749 -54.3211
   -54.3142 -54.3090 -54.3039 -54.3022 -54.2982 -54.2927 -54.2878 -54.2841
   -54.2820 -54.2791 -54.2675 -54.2576 -54.2477 -54.2378 -54.2288 -54.2224
   -54.2142 -54.1335 -54.1253 -54.1181 -54.1104 -54.0983 -54.0887 -54.0820
   -54.0742 -54.0729 -54.0724 -54.0706 -54.0611 -53.9881 -53.9864 -53.9653
    -9.9600  -4.9915  -4.4147  -4.2224  -4.1543  -4.1010  -4.0539  -4.0455
    -4.0122  -4.0078  -3.9638  -3.9087  -3.8714  -3.8389  -3.8124  -3.7294
    -3.7021  -3.6520  -3.6072  -3.5614  -3.4685  -3.4336  -3.4070  -3.3611
    -3.3484  -3.3183  -3.2922  -3.2079  -3.1731  -3.1577  -3.1296  -3.0912
    -3.0674  -3.0576  -2.9991  -2.9809  -2.8918  -2.8436  -2.7962  -2.7460
    -2.7370  -2.7183  -2.6731  -2.6416  -2.5813  -2.5515  -2.5390  -2.5045
    -2.4662  -2.4279  -2.4117  -2.3328  -2.3027  -2.2357  -2.2091  -2.1865
    -2.0862  -2.0526  -2.0277  -2.0057  -1.9399  -1.9055  -1.7612  -1.3956
    -0.8471  -0.5995   0.2038   0.4666   1.1413   1.7785   2.3541   2.7721
     3.1918   3.9680   4.1964   4.6382   5.1199   5.5333

          k = 0.0559-0.0968 0.0000 ( 19479 PWs)   bands (ev):

   -90.8298 -90.8264 -90.8249 -90.7993 -90.7992 -90.7967 -90.7287 -90.6015
   -90.6015 -90.5990 -90.5874 -90.4791 -54.4113 -54.3905 -54.3743 -54.3119
   -54.3118 -54.3115 -54.3072 -54.2994 -54.2951 -54.2934 -54.2922 -54.2846
   -54.2821 -54.2806 -54.2703 -54.2558 -54.2493 -54.2391 -54.2270 -54.2257
   -54.2139 -54.1247 -54.1235 -54.1148 -54.1106 -54.1104 -54.0869 -54.0793
   -54.0793 -54.0734 -54.0729 -54.0709 -54.0611 -53.9876 -53.9875 -53.9653
    -9.9545  -4.8862  -4.4313  -4.0715  -3.9849  -3.9527  -3.9389  -3.8788
    -3.8767  -3.8651  -3.8618  -3.8504  -3.8371  -3.8197  -3.8188  -3.8016
    -3.6884  -3.6579  -3.6336  -3.5359  -3.5310  -3.4142  -3.4011  -3.3798
    -3.2911  -3.2712  -3.2634  -3.2360  -3.2289  -3.2105  -3.1983  -3.1976
    -3.1770  -3.1625  -3.0073  -2.9929  -2.9868  -2.9813  -2.9807  -2.9685
    -2.9210  -2.8802  -2.6430  -2.5893  -2.5709  -2.5630  -2.5197  -2.5009
    -2.4679  -2.3507  -2.3138  -2.3048  -2.2724  -2.1890  -2.1787  -2.1687
    -2.1102  -2.0585  -2.0582  -2.0487  -2.0100  -1.7850  -1.7719  -1.6610
    -0.9348  -0.6880  -0.6677   0.8377   1.1620   1.2513   2.8234   2.8636
     3.6658   4.6295   4.6322   4.7940   5.0265   5.2108

          k = 0.0559-0.0645 0.0000 ( 19479 PWs)   bands (ev):

   -90.8300 -90.8261 -90.8249 -90.8001 -90.7984 -90.7967 -90.7287 -90.6024
   -90.6006 -90.5989 -90.5874 -90.4791 -54.4144 -54.3878 -54.3749 -54.3211
   -54.3142 -54.3090 -54.3039 -54.3022 -54.2982 -54.2927 -54.2878 -54.2841
   -54.2820 -54.2791 -54.2675 -54.2576 -54.2477 -54.2378 -54.2288 -54.2224
   -54.2142 -54.1335 -54.1253 -54.1181 -54.1104 -54.0983 -54.0887 -54.0820
   -54.0742 -54.0729 -54.0724 -54.0706 -54.0611 -53.9881 -53.9864 -53.9653
    -9.9600  -4.9915  -4.4147  -4.2224  -4.1543  -4.1010  -4.0539  -4.0455
    -4.0122  -4.0078  -3.9638  -3.9087  -3.8714  -3.8389  -3.8124  -3.7294
    -3.7021  -3.6520  -3.6072  -3.5614  -3.4685  -3.4336  -3.4070  -3.3612
    -3.3484  -3.3183  -3.2922  -3.2079  -3.1731  -3.1577  -3.1296  -3.0912
    -3.0674  -3.0576  -2.9991  -2.9809  -2.8918  -2.8436  -2.7962  -2.7460
    -2.7370  -2.7183  -2.6732  -2.6416  -2.5813  -2.5515  -2.5390  -2.5045
    -2.4662  -2.4279  -2.4117  -2.3328  -2.3027  -2.2357  -2.2091  -2.1865
    -2.0862  -2.0526  -2.0277  -2.0057  -1.9399  -1.9055  -1.7612  -1.3956
    -0.8471  -0.5995   0.2038   0.4666   1.1413   1.7785   2.3540   2.7721
     3.1918   3.9680   4.1964   4.6382   5.1199   5.5332

          k =-0.0838 0.0484 0.0000 ( 19500 PWs)   bands (ev):

   -90.8300 -90.8262 -90.8249 -90.8001 -90.7984 -90.7967 -90.7287 -90.6023
   -90.6008 -90.5988 -90.5874 -90.4791 -54.4146 -54.3874 -54.3751 -54.3233
   -54.3126 -54.3086 -54.3039 -54.2998 -54.2958 -54.2933 -54.2919 -54.2856
   -54.2817 -54.2800 -54.2649 -54.2575 -54.2490 -54.2367 -54.2310 -54.2210
   -54.2142 -54.1345 -54.1281 -54.1089 -54.1082 -54.1046 -54.0935 -54.0801
   -54.0740 -54.0726 -54.0716 -54.0706 -54.0611 -53.9886 -53.9860 -53.9653
    -9.9600  -5.0063  -4.4136  -4.2517  -4.1960  -4.1263  -4.0939  -4.0542
    -4.0051  -3.9555  -3.9161  -3.8655  -3.8643  -3.8078  -3.8013  -3.7678
    -3.7371  -3.6795  -3.6471  -3.5093  -3.4398  -3.4385  -3.3974  -3.3585
    -3.3296  -3.3277  -3.2976  -3.1603  -3.1399  -3.1170  -3.0602  -3.0575
    -3.0019  -3.0002  -2.9546  -2.8954  -2.8588  -2.7993  -2.7957  -2.7369
    -2.7143  -2.7110  -2.7052  -2.6091  -2.5944  -2.5697  -2.5544  -2.5354
    -2.5154  -2.5046  -2.4621  -2.4557  -2.4254  -2.3448  -2.2784  -2.2548
    -2.2496  -2.0263  -2.0110  -2.0048  -1.9768  -1.8577  -1.8278  -1.2808
    -1.2089   0.1901   0.4427   0.7562   1.1392   1.3898   1.9326   2.6716
     3.0714   3.5247   4.2562   4.6171   5.2701   5.8776

          k =-0.0838 0.0806 0.0000 ( 19479 PWs)   bands (ev):

   -90.8300 -90.8261 -90.8249 -90.8001 -90.7984 -90.7967 -90.7287 -90.6024
   -90.6006 -90.5989 -90.5874 -90.4791 -54.4144 -54.3878 -54.3749 -54.3211
   -54.3142 -54.3090 -54.3039 -54.3023 -54.2982 -54.2927 -54.2878 -54.2841
   -54.2820 -54.2791 -54.2675 -54.2576 -54.2477 -54.2378 -54.2288 -54.2224
   -54.2142 -54.1335 -54.1253 -54.1181 -54.1104 -54.0983 -54.0887 -54.0820
   -54.0742 -54.0729 -54.0724 -54.0706 -54.0611 -53.9881 -53.9864 -53.9653
    -9.9600  -4.9915  -4.4147  -4.2224  -4.1543  -4.1009  -4.0539  -4.0455
    -4.0122  -4.0077  -3.9638  -3.9087  -3.8714  -3.8389  -3.8124  -3.7294
    -3.7021  -3.6520  -3.6072  -3.5614  -3.4685  -3.4336  -3.4070  -3.3612
    -3.3484  -3.3183  -3.2922  -3.2079  -3.1731  -3.1577  -3.1296  -3.0911
    -3.0674  -3.0576  -2.9991  -2.9809  -2.8918  -2.8436  -2.7962  -2.7460
    -2.7370  -2.7183  -2.6732  -2.6416  -2.5813  -2.5515  -2.5391  -2.5045
    -2.4662  -2.4279  -2.4117  -2.3328  -2.3027  -2.2357  -2.2091  -2.1865
    -2.0862  -2.0526  -2.0277  -2.0057  -1.9399  -1.9055  -1.7612  -1.3956
    -0.8471  -0.5995   0.2038   0.4666   1.1413   1.7785   2.3541   2.7721
     3.1918   3.9680   4.1964   4.6382   5.1199   5.5332

          k =-0.0838 0.1129 0.0000 ( 19479 PWs)   bands (ev):

   -90.8300 -90.8261 -90.8249 -90.8001 -90.7984 -90.7967 -90.7287 -90.6024
   -90.6006 -90.5989 -90.5874 -90.4791 -54.4144 -54.3878 -54.3749 -54.3211
   -54.3142 -54.3090 -54.3039 -54.3023 -54.2982 -54.2927 -54.2878 -54.2841
   -54.2820 -54.2791 -54.2675 -54.2576 -54.2477 -54.2378 -54.2288 -54.2224
   -54.2142 -54.1335 -54.1253 -54.1181 -54.1104 -54.0983 -54.0887 -54.0820
   -54.0742 -54.0729 -54.0724 -54.0706 -54.0611 -53.9881 -53.9864 -53.9653
    -9.9600  -4.9915  -4.4147  -4.2224  -4.1543  -4.1010  -4.0539  -4.0455
    -4.0122  -4.0078  -3.9638  -3.9087  -3.8714  -3.8389  -3.8124  -3.7294
    -3.7021  -3.6520  -3.6072  -3.5614  -3.4685  -3.4336  -3.4070  -3.3611
    -3.3484  -3.3183  -3.2922  -3.2079  -3.1731  -3.1577  -3.1296  -3.0912
    -3.0673  -3.0576  -2.9991  -2.9809  -2.8918  -2.8436  -2.7962  -2.7460
    -2.7370  -2.7183  -2.6732  -2.6416  -2.5813  -2.5515  -2.5390  -2.5045
    -2.4662  -2.4279  -2.4117  -2.3328  -2.3027  -2.2357  -2.2091  -2.1865
    -2.0862  -2.0526  -2.0277  -2.0057  -1.9399  -1.9055  -1.7612  -1.3956
    -0.8471  -0.5995   0.2038   0.4666   1.1413   1.7785   2.3541   2.7721
     3.1918   3.9680   4.1964   4.6382   5.1199   5.5333

          k =-0.0838-0.0484 0.0000 ( 19500 PWs)   bands (ev):

   -90.8300 -90.8262 -90.8249 -90.8001 -90.7984 -90.7967 -90.7287 -90.6023
   -90.6008 -90.5988 -90.5874 -90.4791 -54.4146 -54.3874 -54.3751 -54.3233
   -54.3126 -54.3086 -54.3039 -54.2998 -54.2958 -54.2933 -54.2919 -54.2856
   -54.2817 -54.2800 -54.2649 -54.2575 -54.2490 -54.2367 -54.2310 -54.2210
   -54.2142 -54.1345 -54.1281 -54.1089 -54.1082 -54.1046 -54.0935 -54.0801
   -54.0740 -54.0726 -54.0716 -54.0706 -54.0611 -53.9886 -53.9860 -53.9653
    -9.9600  -5.0063  -4.4136  -4.2517  -4.1960  -4.1263  -4.0939  -4.0542
    -4.0051  -3.9555  -3.9161  -3.8655  -3.8643  -3.8078  -3.8013  -3.7678
    -3.7371  -3.6795  -3.6471  -3.5093  -3.4398  -3.4385  -3.3974  -3.3585
    -3.3297  -3.3277  -3.2976  -3.1603  -3.1398  -3.1170  -3.0602  -3.0575
    -3.0019  -3.0002  -2.9546  -2.8954  -2.8587  -2.7993  -2.7957  -2.7369
    -2.7143  -2.7110  -2.7052  -2.6091  -2.5944  -2.5696  -2.5544  -2.5354
    -2.5154  -2.5046  -2.4621  -2.4556  -2.4254  -2.3448  -2.2784  -2.2548
    -2.2496  -2.0263  -2.0110  -2.0048  -1.9768  -1.8577  -1.8278  -1.2808
    -1.2089   0.1901   0.4428   0.7562   1.1392   1.3898   1.9326   2.6716
     3.0714   3.5248   4.2562   4.6171   5.2701   5.8776

     the Fermi energy is     1.2759 ev

!    total energy              =   -3572.41025247 Ry
     Harris-Foulkes estimate   =   -3572.41025261 Ry
     estimated scf accuracy    <       0.00000001 Ry

     The total energy is the sum of the following terms:

     one-electron contribution =  -26062.64997649 Ry
     hartree contribution      =   13023.64016089 Ry
     xc contribution           =    -365.27367775 Ry
     ewald contribution        =    9831.89673082 Ry
     electric field correction =       0.00000842 Ry
     smearing contrib. (-TS)   =      -0.02349837 Ry

     convergence has been achieved in   6 iterations
 
 BEEF-vdW xc energy contributions
           1 :   -316.442469962155     
           2 :    286.508836050251     
           3 :   -236.560570666644     
           4 :    181.650511253118     
           5 :   -135.469537532688     
           6 :    105.418482854178     
           7 :   -91.2136686483638     
           8 :    87.0441489608800     
           9 :   -85.6443071657726     
          10 :    81.9675903177307     
          11 :   -74.7736726277384     
          12 :    65.8291696201015     
          13 :   -57.7666743710944     
          14 :    52.1416281373419     
          15 :   -48.7557835444977     
          16 :    46.3025900918493     
          17 :   -43.5686764935834     
          18 :    40.2454628086544     
          19 :   -36.8887013306660     
          20 :    34.2426087977996     
          21 :   -32.5506609478914     
          22 :    31.3685723487062     
          23 :   -29.9522159991905     
          24 :    27.8603301246311     
          25 :   -25.2995971772961     
          26 :    22.9687001919754     
          27 :   -21.5436610563805     
          28 :    21.1937047594067     
          29 :   -21.4726197330255     
          30 :    21.6403414180290     
          31 :   -31.6808424978930     
          32 :   -23.0562741822989     

     Forces acting on atoms (Ry/au):


     negative rho (up, down):  2.188E-03 0.000E+00
     atom    1 type  1   force =    -0.00058626   -0.00033846   -0.00029498
     atom    2 type  1   force =     0.00058631   -0.00033847   -0.00029481
     atom    3 type  1   force =     0.00000002    0.00067701   -0.00029484
     atom    4 type  1   force =     0.00000006    0.00000003   -0.00406038
     atom    5 type  1   force =    -0.00000062    0.00127255    0.00338614
     atom    6 type  1   force =     0.00000064    0.00000030   -0.00550884
     atom    7 type  1   force =    -0.00110207   -0.00063630    0.00338675
     atom    8 type  1   force =     0.00110155   -0.00063671    0.00338679
     atom    9 type  1   force =    -0.00000196   -0.00000313   -0.00002067
     atom   10 type  1   force =     0.00000336    0.00000551    0.00011814
     atom   11 type  1   force =     0.00000679    0.00000136    0.00011846
     atom   12 type  1   force =    -0.00000659   -0.00000241    0.00011353
     atom   13 type  2   force =     0.00000110   -0.00000086    0.00175139
     atom   14 type  3   force =    -0.00000233   -0.00000043   -0.00178666

     Total force =     0.002510     Total SCF correction =     0.000288
     SCF correction compared to forces is large: reduce conv_thr to get better values


     entering subroutine stress ...


     negative rho (up, down):  2.188E-03 0.000E+00
          total   stress  (Ry/bohr**3)                   (kbar)     P=   -5.65
  -0.00004926   0.00000000  -0.00000000         -7.25      0.00     -0.00
   0.00000000  -0.00004926  -0.00000000          0.00     -7.25     -0.00
  -0.00000000  -0.00000000  -0.00001661         -0.00     -0.00     -2.44


     bfgs converged in  16 scf cycles and  15 bfgs steps
     (criteria: energy <  1.0E+00, force <  1.9E-03)

     End of BFGS Geometry Optimization

     Final energy   =   -3572.4102524715 Ry
Begin final coordinates

ATOMIC_POSITIONS (crystal)
Ag1      0.166666667   0.166666667   0.402063960    0   0   0
Ag1      0.666666667   0.166666667   0.402063960    0   0   0
Ag1      0.166666667   0.666666667   0.402063960    0   0   0
Ag1      0.666666667   0.666666667   0.402063960    0   0   0
Ag1      0.833333333   0.333333333   0.500000000    0   0   0
Ag1      0.333333333   0.333333333   0.500000000    0   0   0
Ag1      0.833333333   0.833333333   0.500000000    0   0   0
Ag1      0.333333333   0.833333333   0.500000000    0   0   0
Ag1     -0.000001852   0.000001226   0.598979783
Ag1      0.506636207  -0.013279165   0.599738636
Ag1     -0.013278977   0.506635494   0.599738383
Ag1      0.506641251   0.506640005   0.599740009
C1       0.333332590   0.333334289   0.645811983
H1       0.333338395   0.333334573   0.689887532
End final coordinates



     Writing output data file calc.save
 
     init_run     :     12.71s CPU     13.09s WALL (       1 calls)
     electrons    :   4135.91s CPU   4361.92s WALL (      16 calls)
     update_pot   :     50.41s CPU     52.58s WALL (      15 calls)
     forces       :    253.54s CPU    267.74s WALL (      16 calls)
     stress       :    800.43s CPU    830.30s WALL (      16 calls)

     Called by init_run:
     wfcinit      :      5.36s CPU      5.45s WALL (       1 calls)
     potinit      :      2.04s CPU      2.19s WALL (       1 calls)

     Called by electrons:
     c_bands      :   1819.18s CPU   1879.80s WALL (     131 calls)
     sum_band     :    723.49s CPU    762.46s WALL (     131 calls)
     v_of_rho     :    245.75s CPU    275.54s WALL (     146 calls)
     newd         :    614.99s CPU    633.90s WALL (     146 calls)
     mix_rho      :      7.48s CPU      7.66s WALL (     131 calls)
     vdW_energy   :    161.05s CPU    177.68s WALL (     722 calls)
     vdW_ffts     :    391.36s CPU    406.12s WALL (    1476 calls)
     vdW_v        :    148.72s CPU    153.15s WALL (     722 calls)

     Called by c_bands:
     init_us_2    :      8.74s CPU      8.74s WALL (    1475 calls)
     cegterg      :   1736.76s CPU   1778.46s WALL (     655 calls)

     Called by *egterg:
     h_psi        :   1047.16s CPU   1068.93s WALL (    3159 calls)
     s_psi        :     92.24s CPU     92.38s WALL (    3159 calls)
     g_psi        :      5.85s CPU      5.91s WALL (    2499 calls)
     cdiaghg      :    225.82s CPU    227.34s WALL (    3074 calls)

     Called by h_psi:
     add_vuspsi   :     94.16s CPU     94.23s WALL (    3159 calls)

     General routines
     calbec       :    149.42s CPU    152.57s WALL (    3974 calls)
     fft          :    598.67s CPU    637.56s WALL (   43303 calls)
     ffts         :      0.55s CPU      0.60s WALL (     277 calls)
     fftw         :    672.20s CPU    695.36s WALL (  480168 calls)
     interpolate  :      4.99s CPU      5.15s WALL (     277 calls)
     davcio       :      0.00s CPU      0.05s WALL (       5 calls)
 
     Parallel routines
     fft_scatter  :    737.22s CPU    797.55s WALL (  523748 calls)
 
     PWSCF        :     1h28m CPU        1h33m WALL

 
   This run was terminated on:  11:30:36  16Apr2018            

=------------------------------------------------------------------------------=
   JOB DONE.
=------------------------------------------------------------------------------=
Job  /afs/slac/g/suncat/bin/suncat-tsmpirun -x LD_LIBRARY_PATH -wdir /scratch/qe98208_mcmgG pw.x -npool 4 -in pw.inp

TID   HOST_NAME   COMMAND_LINE            STATUS            TERMINATION_TIME
===== ========== ================  =======================  ===================
00000 suncat0005 pw.x -npool 4 -i  Done                     04/16/2018 11:30:36
00001 suncat0005 pw.x -npool 4 -i  Done                     04/16/2018 11:30:36
00002 suncat0005 pw.x -npool 4 -i  Done                     04/16/2018 11:30:36
00003 suncat0005 pw.x -npool 4 -i  Done                     04/16/2018 11:30:36
00004 suncat0005 pw.x -npool 4 -i  Done                     04/16/2018 11:30:36
00005 suncat0005 pw.x -npool 4 -i  Done                     04/16/2018 11:30:36
00006 suncat0005 pw.x -npool 4 -i  Done                     04/16/2018 11:30:36
00007 suncat0005 pw.x -npool 4 -i  Done                     04/16/2018 11:30:36
00008 suncat0161 pw.x -npool 4 -i  Done                     04/16/2018 11:30:36
00009 suncat0161 pw.x -npool 4 -i  Done                     04/16/2018 11:30:36
00010 suncat0161 pw.x -npool 4 -i  Done                     04/16/2018 11:30:36
00011 suncat0161 pw.x -npool 4 -i  Done                     04/16/2018 11:30:36
00012 suncat0161 pw.x -npool 4 -i  Done                     04/16/2018 11:30:36
00013 suncat0161 pw.x -npool 4 -i  Done                     04/16/2018 11:30:36
00014 suncat0161 pw.x -npool 4 -i  Done                     04/16/2018 11:30:36
00015 suncat0161 pw.x -npool 4 -i  Done                     04/16/2018 11:30:36
00016 suncat0156 pw.x -npool 4 -i  Done                     04/16/2018 11:30:36
00017 suncat0156 pw.x -npool 4 -i  Done                     04/16/2018 11:30:36
00018 suncat0156 pw.x -npool 4 -i  Done                     04/16/2018 11:30:36
00019 suncat0156 pw.x -npool 4 -i  Done                     04/16/2018 11:30:36
00020 suncat0156 pw.x -npool 4 -i  Done                     04/16/2018 11:30:36
00021 suncat0156 pw.x -npool 4 -i  Done                     04/16/2018 11:30:36
00022 suncat0156 pw.x -npool 4 -i  Done                     04/16/2018 11:30:36
00023 suncat0156 pw.x -npool 4 -i  Done                     04/16/2018 11:30:36
00024 suncat0279 pw.x -npool 4 -i  Done                     04/16/2018 11:30:36
00025 suncat0279 pw.x -npool 4 -i  Done                     04/16/2018 11:30:36
00026 suncat0279 pw.x -npool 4 -i  Done                     04/16/2018 11:30:36
00027 suncat0279 pw.x -npool 4 -i  Done                     04/16/2018 11:30:36
00028 suncat0279 pw.x -npool 4 -i  Done                     04/16/2018 11:30:36
00029 suncat0279 pw.x -npool 4 -i  Done                     04/16/2018 11:30:36
00030 suncat0279 pw.x -npool 4 -i  Done                     04/16/2018 11:30:36
00031 suncat0279 pw.x -npool 4 -i  Done                     04/16/2018 11:30:36
