  python dir          : /u/if/mamunm/src/espresso
  espresso dir        : /nfs/slac/g/suncatfs/sw/espv18/espresso-dynpy-beef/bin
  pseudo dir          : /u/if/mamunm/psp/gbrv1.5pbe
  ase-espresso py git : GITVERSION



     Program PWSCF v.5.1rc2 (svn rev. 11289) starts on  2May2018 at 15:57:35 

     This program is part of the open-source Quantum ESPRESSO suite
     for quantum simulation of materials; please cite
         "P. Giannozzi et al., J. Phys.:Condens. Matter 21 395502 (2009);
          URL http://www.quantum-espresso.org", 
     in publications or presentations arising from this work. More details at
     http://www.quantum-espresso.org/quote

     Parallel version (MPI), running on    32 processors
     K-points division:     npool     =       4
     R & G space division:  proc/nbgrp/npool/nimage =       8
     Reading input from pw.inp
     Message from routine read_cards :
     DEPRECATED: no units specified in CELL_PARAMETERS card

     Current dimensions of program PWSCF are:
     Max number of different atomic species (ntypx) = 10
     Max number of k-points (npk) =  40000
     Max angular momentum in pseudopotentials (lmaxx) =  3
     Presently stress not available with electric field


     **************************************************************************
     Initializing libbeef V0.1.1 with the BEEF-vdW functional.
     Citation: Wellendorff et al., PRB 85, 235149 (2012).
     **************************************************************************


     IMPORTANT: XC functional enforced from input :
     Exchange-correlation      = BEEF-VDW ( 1  4 27 13 2)
     Any further DFT definition will be discarded
     Please, verify this is what you really want


     Subspace diagonalization in iterative solution of the eigenvalue problem:
     a serial algorithm will be used

 
     Parallelization info
     --------------------
     sticks:   dense  smooth     PW     G-vecs:    dense   smooth      PW
     Min         339     133     39                63987    16111    2561
     Max         340     134     40                64016    16172    2582
     Sum        2713    1069    313               511963   129143   20533
 


     bravais-lattice index     =            0
     lattice parameter (alat)  =       1.8897  a.u.
     unit-cell volume          =    4301.6107 (a.u.)^3
     number of atoms/cell      =           13
     number of atomic types    =            2
     number of electrons       =       184.00
     number of Kohn-Sham states=          102
     kinetic-energy cutoff     =      36.7493  Ry
     charge density cutoff     =     367.4932  Ry
     convergence threshold     =      1.0E-05
     mixing beta               =       0.3000
     number of iterations used =           10  plain     mixing
     Exchange-correlation      = BEEF-VDW ( 1  4 27 13 2)
     nstep                     =           50


     celldm(1)=   1.889726  celldm(2)=   0.000000  celldm(3)=   0.000000
     celldm(4)=   0.000000  celldm(5)=   0.000000  celldm(6)=   0.000000

     crystal axes: (cart. coord. in units of alat)
               a(1) = (   5.483647   0.000000   0.000000 )  
               a(2) = (   2.741823   4.748977   0.000000 )  
               a(3) = (   0.000000   0.000000  24.477379 )  

     reciprocal axes: (cart. coord. in units 2 pi/alat)
               b(1) = (  0.182360 -0.105286  0.000000 )  
               b(2) = (  0.000000  0.210572  0.000000 )  
               b(3) = (  0.000000  0.000000  0.040854 )  


     PseudoPot. # 1 for Tc read from file:
     /u/if/mamunm/psp/gbrv1.5pbe/Tc.UPF
     MD5 check sum: 9eb49e5b028550b2339a02317eb7b844
     Pseudo is Ultrasoft + core correction, Zval = 15.0
     Generated by new atomic code, or converted to UPF format
     Using radial grid of  965 points,  6 beta functions with: 
                l(1) =   0
                l(2) =   0
                l(3) =   1
                l(4) =   1
                l(5) =   2
                l(6) =   2
     Q(r) pseudized with  8 coefficients,  rinner =    1.300   1.300   1.300
                                                       1.300   1.300

     PseudoPot. # 2 for C  read from file:
     /u/if/mamunm/psp/gbrv1.5pbe/C.UPF
     MD5 check sum: d1aef80898a10debaa0f26306b886e00
     Pseudo is Ultrasoft + core correction, Zval =  4.0
     Generated by new atomic code, or converted to UPF format
     Using radial grid of  721 points,  4 beta functions with: 
                l(1) =   0
                l(2) =   0
                l(3) =   1
                l(4) =   1
     Q(r) pseudized with  8 coefficients,  rinner =    1.100   1.100   1.100


     vdW kernel table read from file vdW_kernel_table
     MD5 check sum: 095c7af220d748ca6e76c0b4c6cfb241

     atomic species   valence    mass     pseudopotential
        Tc1           15.00    97.90721     Tc( 1.00)
        C1             4.00    12.01100     C ( 1.00)

     No symmetry found



   Cartesian axes

     site n.     atom                  positions (alat units)
         1           Tc1 tau(   1) = (   1.3709117   0.7914962  10.0000000  )
         2           Tc1 tau(   2) = (   4.1127351   0.7914962  10.0000000  )
         3           Tc1 tau(   3) = (   2.7418234   3.1659850  10.0000000  )
         4           Tc1 tau(   4) = (   5.4836469   3.1659850  10.0000000  )
         5           Tc1 tau(   5) = (   5.4836469   1.5829925  12.2386895  )
         6           Tc1 tau(   6) = (   2.7418234   1.5829925  12.2386895  )
         7           Tc1 tau(   7) = (   6.8545586   3.9574812  12.2386895  )
         8           Tc1 tau(   8) = (   4.1127351   3.9574812  12.2386895  )
         9           Tc1 tau(   9) = (   0.0000000   0.0000000  14.4773789  )
        10           Tc1 tau(  10) = (   2.7418234   0.0000000  14.4773789  )
        11           Tc1 tau(  11) = (   1.3709117   2.3744887  14.4773789  )
        12           Tc1 tau(  12) = (   4.1127351   2.3744887  14.4773789  )
        13           C1  tau(  13) = (   0.0000000   0.0000000  16.3728789  )

     number of k points=    20  Fermi-Dirac smearing, width (Ry)=  0.0110
                       cart. coord. in units 2pi/alat
        k(    1) = (   0.0000000   0.0000000   0.0000000), wk =   0.0555556
        k(    2) = (   0.0000000   0.0350953   0.0000000), wk =   0.1111111
        k(    3) = (   0.0000000   0.0701905   0.0000000), wk =   0.1111111
        k(    4) = (   0.0000000  -0.1052858   0.0000000), wk =   0.0555556
        k(    5) = (   0.0303934  -0.0175476   0.0000000), wk =   0.1111111
        k(    6) = (   0.0303934   0.0175476   0.0000000), wk =   0.1111111
        k(    7) = (   0.0303934   0.0526429   0.0000000), wk =   0.1111111
        k(    8) = (   0.0303934  -0.1228335   0.0000000), wk =   0.1111111
        k(    9) = (   0.0303934  -0.0877382   0.0000000), wk =   0.1111111
        k(   10) = (   0.0303934  -0.0526429   0.0000000), wk =   0.1111111
        k(   11) = (   0.0607868  -0.0350953   0.0000000), wk =   0.1111111
        k(   12) = (   0.0607868   0.0000000   0.0000000), wk =   0.1111111
        k(   13) = (   0.0607868   0.0350953   0.0000000), wk =   0.1111111
        k(   14) = (   0.0607868  -0.1403811   0.0000000), wk =   0.1111111
        k(   15) = (   0.0607868  -0.1052858   0.0000000), wk =   0.1111111
        k(   16) = (   0.0607868  -0.0701905   0.0000000), wk =   0.1111111
        k(   17) = (  -0.0911802   0.0526429   0.0000000), wk =   0.0555556
        k(   18) = (  -0.0911802   0.0877382   0.0000000), wk =   0.1111111
        k(   19) = (  -0.0911802   0.1228335   0.0000000), wk =   0.1111111
        k(   20) = (  -0.0911802  -0.0526429   0.0000000), wk =   0.0555556

     Dense  grid:   511963 G-vectors     FFT dimensions: (  64,  64, 288)

     Smooth grid:   129143 G-vectors     FFT dimensions: (  40,  40, 180)

     Largest allocated arrays     est. size (Mb)     dimensions
        Kohn-Sham Wavefunctions         3.18 Mb     (    2045,  102)
        NL pseudopotentials             6.99 Mb     (    2045,  224)
        Each V/rho on FFT grid          2.25 Mb     (  147456)
        Each G-vector array             0.49 Mb     (   63995)
        G-vector shells                 0.13 Mb     (   17029)
     Largest temporary arrays     est. size (Mb)     dimensions
        Auxiliary wavefunctions        12.73 Mb     (    2045,  408)
        Each subspace H/S matrix        2.54 Mb     (     408,  408)
        Each <psi_i|beta_j> matrix      0.35 Mb     (     224,  102)
        Arrays for rho mixing          22.50 Mb     (  147456,   10)

     Check: negative/imaginary core charge=   -0.000022    0.000000

     Initial potential from superposition of free atoms
     Check: negative starting charge=   -1.504811

     starting charge  171.99963, renormalised to  184.00000

     negative rho (up, down):  1.610E+00 0.000E+00


     ************************************************************************
     *
     * You are using vdW-DF for exchange-correlation in this calculation.
     * Please cite the following three references that made this development
     * possible:
     *
     *   M. Dion, H. Rydberg, E. Schroder, D. C. Langreth, and
     *   B. I. Lundqvist, Phys. Rev. Lett. 92, 246401 (2004).
     *
     *   T. Thonhauser, V. R. Cooper, S. Li, A. Puzder, P. Hyldgaard, and
     *   D. C. Langreth, Phys. Rev. B 76, 125112 (2007).
     *
     *   G. Roman-Perez and J. M. Soler, Phys. Rev. Lett. 103, 096102 (2009).
     *
     *
     * If you are using vdW-DF2, please also cite:
     *
     *   K. Lee, E. D. Murray, L. Kong, B. I. Lundqvist, and
     *   D. C. Langreth, Phys. Rev. B 82, 081101(R) (2010).
     *
     *
     * If you are calculating the stress with vdW-DF, please also cite:
     *
     *   R. Sabatini, E. Kucukbenli, B. Kolb, T. Thonhauser, and
     *   S. de Gironcoli, J. Phys.: Condens. Matter 24, 424209 (2012).
     *
     ************************************************************************

     Carrying out vdW-DF run using the following parameters:

     Nqs =      20    Nr_points =    1024   r_max =   100.000
     q_mesh =
               0.00001000     0.04494208     0.09755937     0.15916263
               0.23128650     0.31572767     0.41458969     0.53033537
               0.66584808     0.82450364     1.01025438     1.22772762
               1.48234092     1.78043706     2.12944203     2.53805004
               3.01644009     3.57652955     4.23227104     5.00000000

     Gradients computed in reciprocal space

     ************************************************************************


 
     Adding external electric field

     Computed dipole along edir(3) : 
        Dipole               -2.1800 Ry au,         -5.5409 Debye
        Dipole field         -0.0064 Ry au
 
        Potential amp.        0.5744 Ry
        Total length         45.0992 bohr
 
     Starting wfc are  160 randomized atomic wfcs

     total cpu time spent up to now is       10.4 secs

     per-process dynamical memory:    74.2 Mb

     Self-consistent Calculation

     iteration #  1     ecut=    36.75 Ry     beta=0.30
     Davidson diagonalization with overlap
     ethr =  1.00E-02,  avg # of iterations =  4.2

     negative rho (up, down):  1.601E+00 0.000E+00
 
     Adding external electric field

     Computed dipole along edir(3) : 
        Dipole               36.0429 Ry au,         91.6120 Debye
        Dipole field          0.1053 Ry au
 
        Potential amp.       -9.4972 Ry
        Total length         45.0992 bohr
 

     total cpu time spent up to now is       28.3 secs

     total energy              =   -2032.80283222 Ry
     Harris-Foulkes estimate   =   -2117.49880549 Ry
     estimated scf accuracy    <     177.27021590 Ry

     iteration #  2     ecut=    36.75 Ry     beta=0.30
     Davidson diagonalization with overlap
     ethr =  1.00E-02,  avg # of iterations = 14.7

     negative rho (up, down):  1.584E+00 0.000E+00
 
     Adding external electric field

     Computed dipole along edir(3) : 
        Dipole                0.0144 Ry au,          0.0367 Debye
        Dipole field          0.0000 Ry au
 
        Potential amp.       -0.0038 Ry
        Total length         45.0992 bohr
 

     total cpu time spent up to now is       69.9 secs

     total energy              =   -1917.73675599 Ry
     Harris-Foulkes estimate   =   -2528.84295804 Ry
     estimated scf accuracy    <   11965.82619154 Ry

     iteration #  3     ecut=    36.75 Ry     beta=0.30
     Davidson diagonalization with overlap
     ethr =  1.00E-02,  avg # of iterations =  8.9

     negative rho (up, down):  1.590E+00 0.000E+00
 
     Adding external electric field

     Computed dipole along edir(3) : 
        Dipole                2.3363 Ry au,          5.9382 Debye
        Dipole field          0.0068 Ry au
 
        Potential amp.       -0.6156 Ry
        Total length         45.0992 bohr
 

     total cpu time spent up to now is      101.6 secs

     total energy              =   -2110.53344909 Ry
     Harris-Foulkes estimate   =   -2183.19987288 Ry
     estimated scf accuracy    <     841.91283899 Ry

     iteration #  4     ecut=    36.75 Ry     beta=0.30
     Davidson diagonalization with overlap
     ethr =  1.00E-02,  avg # of iterations =  5.2

     negative rho (up, down):  1.627E+00 0.000E+00
 
     Adding external electric field

     Computed dipole along edir(3) : 
        Dipole                2.6383 Ry au,          6.7060 Debye
        Dipole field          0.0077 Ry au
 
        Potential amp.       -0.6952 Ry
        Total length         45.0992 bohr
 

     total cpu time spent up to now is      121.5 secs

     total energy              =   -2107.05042376 Ry
     Harris-Foulkes estimate   =   -2120.65736916 Ry
     estimated scf accuracy    <     299.93991246 Ry

     iteration #  5     ecut=    36.75 Ry     beta=0.30
     Davidson diagonalization with overlap
     ethr =  1.00E-02,  avg # of iterations =  5.0

     negative rho (up, down):  1.588E+00 0.000E+00
 
     Adding external electric field

     Computed dipole along edir(3) : 
        Dipole                1.5824 Ry au,          4.0221 Debye
        Dipole field          0.0046 Ry au
 
        Potential amp.       -0.4170 Ry
        Total length         45.0992 bohr
 

     total cpu time spent up to now is      142.4 secs

     total energy              =   -2112.42757909 Ry
     Harris-Foulkes estimate   =   -2117.41738795 Ry
     estimated scf accuracy    <     103.50238181 Ry

     iteration #  6     ecut=    36.75 Ry     beta=0.30
     Davidson diagonalization with overlap
     ethr =  1.00E-02,  avg # of iterations =  4.8

     negative rho (up, down):  1.587E+00 0.000E+00
 
     Adding external electric field

     Computed dipole along edir(3) : 
        Dipole                0.5966 Ry au,          1.5163 Debye
        Dipole field          0.0017 Ry au
 
        Potential amp.       -0.1572 Ry
        Total length         45.0992 bohr
 

     total cpu time spent up to now is      159.1 secs

     total energy              =   -2114.80183848 Ry
     Harris-Foulkes estimate   =   -2115.61212161 Ry
     estimated scf accuracy    <      20.42464249 Ry

     iteration #  7     ecut=    36.75 Ry     beta=0.30
     Davidson diagonalization with overlap
     ethr =  1.00E-02,  avg # of iterations =  1.1

     negative rho (up, down):  1.586E+00 0.000E+00
 
     Adding external electric field

     Computed dipole along edir(3) : 
        Dipole               -0.8084 Ry au,         -2.0547 Debye
        Dipole field         -0.0024 Ry au
 
        Potential amp.        0.2130 Ry
        Total length         45.0992 bohr
 

     total cpu time spent up to now is      173.5 secs

     total energy              =   -2114.50469767 Ry
     Harris-Foulkes estimate   =   -2115.14454229 Ry
     estimated scf accuracy    <      16.33673055 Ry

     iteration #  8     ecut=    36.75 Ry     beta=0.30
     Davidson diagonalization with overlap
     ethr =  8.88E-03,  avg # of iterations =  1.1

     negative rho (up, down):  1.589E+00 0.000E+00
 
     Adding external electric field

     Computed dipole along edir(3) : 
        Dipole               -0.4405 Ry au,         -1.1196 Debye
        Dipole field         -0.0013 Ry au
 
        Potential amp.        0.1161 Ry
        Total length         45.0992 bohr
 

     total cpu time spent up to now is      188.5 secs

     total energy              =   -2114.44417834 Ry
     Harris-Foulkes estimate   =   -2114.77259523 Ry
     estimated scf accuracy    <       4.88953598 Ry

     iteration #  9     ecut=    36.75 Ry     beta=0.30
     Davidson diagonalization with overlap
     ethr =  2.66E-03,  avg # of iterations =  3.0

     negative rho (up, down):  1.589E+00 0.000E+00
 
     Adding external electric field

     Computed dipole along edir(3) : 
        Dipole               -0.3401 Ry au,         -0.8644 Debye
        Dipole field         -0.0010 Ry au
 
        Potential amp.        0.0896 Ry
        Total length         45.0992 bohr
 

     total cpu time spent up to now is      204.5 secs

     total energy              =   -2114.56857627 Ry
     Harris-Foulkes estimate   =   -2114.77117529 Ry
     estimated scf accuracy    <       5.58287291 Ry

     iteration # 10     ecut=    36.75 Ry     beta=0.30
     Davidson diagonalization with overlap
     ethr =  2.66E-03,  avg # of iterations =  1.9

     negative rho (up, down):  1.589E+00 0.000E+00
 
     Adding external electric field

     Computed dipole along edir(3) : 
        Dipole               -0.4846 Ry au,         -1.2317 Debye
        Dipole field         -0.0014 Ry au
 
        Potential amp.        0.1277 Ry
        Total length         45.0992 bohr
 

     total cpu time spent up to now is      219.3 secs

     total energy              =   -2114.72351231 Ry
     Harris-Foulkes estimate   =   -2114.71311440 Ry
     estimated scf accuracy    <       0.19654740 Ry

     iteration # 11     ecut=    36.75 Ry     beta=0.30
     Davidson diagonalization with overlap
     ethr =  1.07E-04,  avg # of iterations =  6.2

     negative rho (up, down):  1.588E+00 0.000E+00
 
     Adding external electric field

     Computed dipole along edir(3) : 
        Dipole               -0.6616 Ry au,         -1.6817 Debye
        Dipole field         -0.0019 Ry au
 
        Potential amp.        0.1743 Ry
        Total length         45.0992 bohr
 

     total cpu time spent up to now is      239.0 secs

     total energy              =   -2114.65381895 Ry
     Harris-Foulkes estimate   =   -2114.79878358 Ry
     estimated scf accuracy    <       6.51695231 Ry

     iteration # 12     ecut=    36.75 Ry     beta=0.30
     Davidson diagonalization with overlap
     ethr =  1.07E-04,  avg # of iterations =  5.0

     negative rho (up, down):  1.588E+00 0.000E+00
 
     Adding external electric field

     Computed dipole along edir(3) : 
        Dipole               -0.6985 Ry au,         -1.7753 Debye
        Dipole field         -0.0020 Ry au
 
        Potential amp.        0.1840 Ry
        Total length         45.0992 bohr
 

     total cpu time spent up to now is      257.0 secs

     total energy              =   -2114.70774384 Ry
     Harris-Foulkes estimate   =   -2114.71366405 Ry
     estimated scf accuracy    <       0.18806884 Ry

     iteration # 13     ecut=    36.75 Ry     beta=0.30
     Davidson diagonalization with overlap
     ethr =  1.02E-04,  avg # of iterations =  1.0

     negative rho (up, down):  1.587E+00 0.000E+00
 
     Adding external electric field

     Computed dipole along edir(3) : 
        Dipole               -0.6518 Ry au,         -1.6566 Debye
        Dipole field         -0.0019 Ry au
 
        Potential amp.        0.1717 Ry
        Total length         45.0992 bohr
 

     total cpu time spent up to now is      271.5 secs

     total energy              =   -2114.70692551 Ry
     Harris-Foulkes estimate   =   -2114.71124619 Ry
     estimated scf accuracy    <       0.02154136 Ry

     iteration # 14     ecut=    36.75 Ry     beta=0.30
     Davidson diagonalization with overlap
     ethr =  1.17E-05,  avg # of iterations =  5.5

     negative rho (up, down):  1.587E+00 0.000E+00
 
     Adding external electric field

     Computed dipole along edir(3) : 
        Dipole               -0.5117 Ry au,         -1.3006 Debye
        Dipole field         -0.0015 Ry au
 
        Potential amp.        0.1348 Ry
        Total length         45.0992 bohr
 

     total cpu time spent up to now is      292.0 secs

     total energy              =   -2114.70034792 Ry
     Harris-Foulkes estimate   =   -2114.71900191 Ry
     estimated scf accuracy    <       0.58651010 Ry

     iteration # 15     ecut=    36.75 Ry     beta=0.30
     Davidson diagonalization with overlap
     ethr =  1.17E-05,  avg # of iterations =  5.1

     negative rho (up, down):  1.587E+00 0.000E+00
 
     Adding external electric field

     Computed dipole along edir(3) : 
        Dipole               -0.4023 Ry au,         -1.0225 Debye
        Dipole field         -0.0012 Ry au
 
        Potential amp.        0.1060 Ry
        Total length         45.0992 bohr
 

     total cpu time spent up to now is      311.3 secs

     total energy              =   -2114.70844410 Ry
     Harris-Foulkes estimate   =   -2114.71001499 Ry
     estimated scf accuracy    <       0.00910228 Ry

     iteration # 16     ecut=    36.75 Ry     beta=0.30
     Davidson diagonalization with overlap
     ethr =  4.95E-06,  avg # of iterations =  3.8

     negative rho (up, down):  1.587E+00 0.000E+00
 
     Adding external electric field

     Computed dipole along edir(3) : 
        Dipole               -0.3752 Ry au,         -0.9536 Debye
        Dipole field         -0.0011 Ry au
 
        Potential amp.        0.0989 Ry
        Total length         45.0992 bohr
 

     total cpu time spent up to now is      327.8 secs

     total energy              =   -2114.70846208 Ry
     Harris-Foulkes estimate   =   -2114.70959221 Ry
     estimated scf accuracy    <       0.02242130 Ry

     iteration # 17     ecut=    36.75 Ry     beta=0.30
     Davidson diagonalization with overlap
     ethr =  4.95E-06,  avg # of iterations =  1.1

     negative rho (up, down):  1.587E+00 0.000E+00
 
     Adding external electric field

     Computed dipole along edir(3) : 
        Dipole               -0.3414 Ry au,         -0.8678 Debye
        Dipole field         -0.0010 Ry au
 
        Potential amp.        0.0900 Ry
        Total length         45.0992 bohr
 

     total cpu time spent up to now is      342.5 secs

     total energy              =   -2114.70855691 Ry
     Harris-Foulkes estimate   =   -2114.70887832 Ry
     estimated scf accuracy    <       0.00358657 Ry

     iteration # 18     ecut=    36.75 Ry     beta=0.30
     Davidson diagonalization with overlap
     ethr =  1.95E-06,  avg # of iterations =  4.0

     negative rho (up, down):  1.588E+00 0.000E+00
 
     Adding external electric field

     Computed dipole along edir(3) : 
        Dipole               -0.3096 Ry au,         -0.7870 Debye
        Dipole field         -0.0009 Ry au
 
        Potential amp.        0.0816 Ry
        Total length         45.0992 bohr
 

     total cpu time spent up to now is      359.6 secs

     total energy              =   -2114.70866921 Ry
     Harris-Foulkes estimate   =   -2114.70883130 Ry
     estimated scf accuracy    <       0.00044584 Ry

     iteration # 19     ecut=    36.75 Ry     beta=0.30
     Davidson diagonalization with overlap
     ethr =  2.42E-07,  avg # of iterations =  5.1

     negative rho (up, down):  1.588E+00 0.000E+00
 
     Adding external electric field

     Computed dipole along edir(3) : 
        Dipole               -0.3040 Ry au,         -0.7728 Debye
        Dipole field         -0.0009 Ry au
 
        Potential amp.        0.0801 Ry
        Total length         45.0992 bohr
 

     total cpu time spent up to now is      379.6 secs

     total energy              =   -2114.70875393 Ry
     Harris-Foulkes estimate   =   -2114.70882831 Ry
     estimated scf accuracy    <       0.00083658 Ry

     iteration # 20     ecut=    36.75 Ry     beta=0.30
     Davidson diagonalization with overlap
     ethr =  2.42E-07,  avg # of iterations =  1.2

     negative rho (up, down):  1.588E+00 0.000E+00
 
     Adding external electric field

     Computed dipole along edir(3) : 
        Dipole               -0.2911 Ry au,         -0.7399 Debye
        Dipole field         -0.0009 Ry au
 
        Potential amp.        0.0767 Ry
        Total length         45.0992 bohr
 

     total cpu time spent up to now is      394.7 secs

     total energy              =   -2114.70870639 Ry
     Harris-Foulkes estimate   =   -2114.70879441 Ry
     estimated scf accuracy    <       0.00044228 Ry

     iteration # 21     ecut=    36.75 Ry     beta=0.30
     Davidson diagonalization with overlap
     ethr =  2.40E-07,  avg # of iterations =  3.9

     negative rho (up, down):  1.588E+00 0.000E+00
 
     Adding external electric field

     Computed dipole along edir(3) : 
        Dipole               -0.2854 Ry au,         -0.7255 Debye
        Dipole field         -0.0008 Ry au
 
        Potential amp.        0.0752 Ry
        Total length         45.0992 bohr
 

     total cpu time spent up to now is      411.8 secs

     total energy              =   -2114.70875378 Ry
     Harris-Foulkes estimate   =   -2114.70876933 Ry
     estimated scf accuracy    <       0.00009877 Ry

     iteration # 22     ecut=    36.75 Ry     beta=0.30
     Davidson diagonalization with overlap
     ethr =  5.37E-08,  avg # of iterations =  2.6

     negative rho (up, down):  1.588E+00 0.000E+00
 
     Adding external electric field

     Computed dipole along edir(3) : 
        Dipole               -0.2805 Ry au,         -0.7130 Debye
        Dipole field         -0.0008 Ry au
 
        Potential amp.        0.0739 Ry
        Total length         45.0992 bohr
 

     total cpu time spent up to now is      427.7 secs

     total energy              =   -2114.70874754 Ry
     Harris-Foulkes estimate   =   -2114.70876722 Ry
     estimated scf accuracy    <       0.00011596 Ry

     iteration # 23     ecut=    36.75 Ry     beta=0.30
     Davidson diagonalization with overlap
     ethr =  5.37E-08,  avg # of iterations =  1.2

     negative rho (up, down):  1.588E+00 0.000E+00
 
     Adding external electric field

     Computed dipole along edir(3) : 
        Dipole               -0.2792 Ry au,         -0.7097 Debye
        Dipole field         -0.0008 Ry au
 
        Potential amp.        0.0736 Ry
        Total length         45.0992 bohr
 

     total cpu time spent up to now is      442.8 secs

     total energy              =   -2114.70874854 Ry
     Harris-Foulkes estimate   =   -2114.70875363 Ry
     estimated scf accuracy    <       0.00002395 Ry

     iteration # 24     ecut=    36.75 Ry     beta=0.30
     Davidson diagonalization with overlap
     ethr =  1.30E-08,  avg # of iterations =  4.2

     negative rho (up, down):  1.588E+00 0.000E+00

     negative rho (up, down):  1.588E+00 0.000E+00

     negative rho (up, down):  1.588E+00 0.000E+00

     negative rho (up, down):  1.588E+00 0.000E+00

     negative rho (up, down):  1.588E+00 0.000E+00

     negative rho (up, down):  1.588E+00 0.000E+00

     negative rho (up, down):  1.588E+00 0.000E+00

     negative rho (up, down):  1.588E+00 0.000E+00

     negative rho (up, down):  1.588E+00 0.000E+00

     negative rho (up, down):  1.588E+00 0.000E+00

     negative rho (up, down):  1.588E+00 0.000E+00

     negative rho (up, down):  1.588E+00 0.000E+00

     negative rho (up, down):  1.588E+00 0.000E+00

     negative rho (up, down):  1.588E+00 0.000E+00

     negative rho (up, down):  1.588E+00 0.000E+00

     negative rho (up, down):  1.588E+00 0.000E+00

     negative rho (up, down):  1.588E+00 0.000E+00

     negative rho (up, down):  1.588E+00 0.000E+00

     negative rho (up, down):  1.588E+00 0.000E+00

     negative rho (up, down):  1.588E+00 0.000E+00

     negative rho (up, down):  1.588E+00 0.000E+00

     negative rho (up, down):  1.588E+00 0.000E+00

     negative rho (up, down):  1.588E+00 0.000E+00

     negative rho (up, down):  1.588E+00 0.000E+00

     negative rho (up, down):  1.588E+00 0.000E+00

     negative rho (up, down):  1.588E+00 0.000E+00

     negative rho (up, down):  1.588E+00 0.000E+00

     negative rho (up, down):  1.588E+00 0.000E+00

     negative rho (up, down):  1.588E+00 0.000E+00

     negative rho (up, down):  1.588E+00 0.000E+00

     negative rho (up, down):  1.588E+00 0.000E+00

     negative rho (up, down):  1.588E+00 0.000E+00

     negative rho (up, down):  1.588E+00 0.000E+00

     negative rho (up, down):  1.588E+00 0.000E+00

     negative rho (up, down):  1.588E+00 0.000E+00
 
     Adding external electric field

     Computed dipole along edir(3) : 
        Dipole               -0.2809 Ry au,         -0.7140 Debye
        Dipole field         -0.0008 Ry au
 
        Potential amp.        0.0740 Ry
        Total length         45.0992 bohr
 

     total cpu time spent up to now is      502.5 secs

     End of self-consistent calculation

          k = 0.0000 0.0000 0.0000 ( 16073 PWs)   bands (ev):

   -65.1097 -64.9783 -64.9230 -64.9219 -64.8873 -64.8558 -64.7607 -64.7590
   -64.7575 -64.7475 -64.7346 -64.7339 -37.5442 -37.5438 -37.5225 -37.4312
   -37.3733 -37.3596 -37.3592 -37.2395 -37.2391 -37.2339 -36.9645 -36.9074
   -36.8690 -36.8685 -36.8361 -36.8148 -36.8145 -36.7955 -36.7835 -36.7827
   -36.6849 -36.6389 -36.6382 -36.5790 -36.5759 -36.5738 -36.5737 -36.5644
   -36.5638 -36.5209 -36.5206 -36.5200 -36.3627 -36.3627 -36.3299 -36.3298
    -6.7113  -4.2565  -3.0697  -3.0694  -3.0316  -2.9660  -2.9008  -2.5907
    -2.5905  -2.5561  -2.4521  -2.4519  -2.4177  -2.0747  -2.0745  -2.0683
    -1.1483  -1.1481  -0.8823  -0.1605  -0.1544  -0.1543   0.1623   0.3570
     0.4839   0.4840   0.7906   0.7908   0.8208   0.8210   0.8213   0.9009
     1.0455   1.0455   1.3841   1.3844   1.6896   1.6897   2.1846   2.4918
     2.5248   2.5250   2.5285   2.8736   2.8736   2.9184   3.2613   3.2615
     3.6391   3.6827   3.6828   3.9404   3.9408   4.2250

          k = 0.0000 0.0351 0.0000 ( 16137 PWs)   bands (ev):

   -65.1007 -64.9809 -64.9288 -64.9230 -64.8787 -64.8483 -64.7677 -64.7595
   -64.7585 -64.7514 -64.7380 -64.7345 -37.5121 -37.5012 -37.4767 -37.4126
   -37.3470 -37.3326 -37.3249 -37.2081 -37.2051 -37.1804 -36.9717 -36.9233
   -36.9034 -36.8925 -36.8667 -36.8377 -36.7940 -36.7936 -36.7626 -36.7530
   -36.6886 -36.6572 -36.6374 -36.6236 -36.5933 -36.5900 -36.5867 -36.5849
   -36.5554 -36.5550 -36.5514 -36.5083 -36.4174 -36.3877 -36.3765 -36.3430
    -6.6970  -4.0195  -2.9351  -2.8702  -2.8341  -2.7382  -2.6565  -2.4882
    -2.4114  -2.3904  -2.3287  -2.2932  -2.2687  -1.9474  -1.8255  -1.8194
    -1.1053  -1.0546  -0.8247  -0.1313  -0.0668  -0.0450   0.0652   0.1624
     0.3026   0.5147   0.6169   0.6885   0.7634   0.8832   0.9039   0.9539
     0.9633   1.1739   1.2439   1.2580   1.4314   1.5935   1.8751   2.1742
     2.2656   2.3245   2.5257   2.5995   2.7174   2.7300   2.9790   3.0752
     3.2807   3.3876   3.4981   3.8035   3.8179   3.9022

          k = 0.0000 0.0702 0.0000 ( 16149 PWs)   bands (ev):

   -65.0783 -64.9914 -64.9417 -64.9231 -64.8550 -64.8276 -64.7906 -64.7699
   -64.7595 -64.7586 -64.7412 -64.7345 -37.4343 -37.4142 -37.3638 -37.3303
   -37.2925 -37.2719 -37.2643 -37.1330 -37.1311 -37.0249 -37.0105 -36.9845
   -36.9791 -36.9296 -36.8639 -36.8359 -36.7925 -36.7549 -36.7498 -36.7382
   -36.7308 -36.7217 -36.7124 -36.6525 -36.6508 -36.6469 -36.6299 -36.6215
   -36.6010 -36.5950 -36.5691 -36.5169 -36.5059 -36.4741 -36.4141 -36.3785
    -6.6707  -3.3965  -2.6523  -2.4030  -2.3538  -2.3066  -2.2206  -2.0298
    -1.9625  -1.9497  -1.9226  -1.8537  -1.8399  -1.6113  -1.2358  -1.1923
    -0.9465  -0.8436  -0.6941  -0.5238  -0.2624  -0.0854  -0.0116   0.0423
     0.1808   0.2709   0.3231   0.5558   0.6389   0.6566   0.7499   0.8845
     0.9806   1.1009   1.2086   1.3037   1.3234   1.3561   1.5091   1.6793
     1.8468   1.8650   1.8890   1.9884   2.1066   2.1466   2.4194   2.4331
     2.5839   2.8751   3.0651   3.1347   3.1907   3.2963

          k = 0.0000-0.1053 0.0000 ( 16164 PWs)   bands (ev):

   -65.0617 -65.0030 -64.9471 -64.9231 -64.8231 -64.8224 -64.8022 -64.7949
   -64.7595 -64.7586 -64.7418 -64.7345 -37.3812 -37.3532 -37.3150 -37.2899
   -37.2476 -37.2378 -37.1478 -37.1151 -37.0805 -37.0738 -37.0660 -37.0473
   -36.8560 -36.8380 -36.8303 -36.8148 -36.8134 -36.7998 -36.7725 -36.7654
   -36.7589 -36.7409 -36.7405 -36.7297 -36.7160 -36.7020 -36.6929 -36.6756
   -36.6259 -36.6023 -36.5757 -36.5627 -36.4676 -36.4640 -36.4287 -36.4240
    -6.6586  -2.7593  -2.7299  -2.0763  -2.0701  -2.0458  -2.0095  -1.8315
    -1.7407  -1.5829  -1.5265  -1.3541  -1.3446  -1.2151  -1.1331  -1.0047
    -0.9870  -0.6637  -0.4790  -0.4777  -0.4039  -0.3305  -0.3123  -0.1667
     0.0859   0.1412   0.2963   0.5240   0.6073   0.6126   0.7006   0.7800
     0.8235   0.8974   0.9162   0.9314   1.1003   1.1323   1.1846   1.3028
     1.3290   1.5460   1.9502   1.9914   2.0808   2.0840   2.1220   2.3024
     2.5547   2.6101   2.7607   2.7736   2.7889   2.8992

          k = 0.0304-0.0175 0.0000 ( 16137 PWs)   bands (ev):

   -65.1008 -64.9808 -64.9294 -64.9224 -64.8787 -64.8483 -64.7675 -64.7606
   -64.7576 -64.7513 -64.7386 -64.7341 -37.5123 -37.5009 -37.4767 -37.4126
   -37.3469 -37.3328 -37.3248 -37.2084 -37.2047 -37.1805 -36.9717 -36.9233
   -36.9035 -36.8922 -36.8671 -36.8372 -36.7941 -36.7937 -36.7632 -36.7525
   -36.6889 -36.6566 -36.6378 -36.6235 -36.5930 -36.5901 -36.5867 -36.5854
   -36.5556 -36.5549 -36.5512 -36.5083 -36.4174 -36.3877 -36.3765 -36.3430
    -6.6970  -4.0195  -2.9350  -2.8703  -2.8340  -2.7382  -2.6565  -2.4882
    -2.4115  -2.3904  -2.3287  -2.2933  -2.2686  -1.9474  -1.8256  -1.8192
    -1.1055  -1.0544  -0.8247  -0.1313  -0.0669  -0.0450   0.0652   0.1624
     0.3026   0.5145   0.6172   0.6884   0.7634   0.8832   0.9038   0.9539
     0.9634   1.1737   1.2441   1.2581   1.4313   1.5937   1.8750   2.1741
     2.2655   2.3247   2.5256   2.5995   2.7174   2.7301   2.9790   3.0753
     3.2808   3.3876   3.4979   3.8033   3.8182   3.9022

          k = 0.0304 0.0175 0.0000 ( 16137 PWs)   bands (ev):

   -65.1008 -64.9807 -64.9298 -64.9221 -64.8787 -64.8483 -64.7677 -64.7591
   -64.7589 -64.7512 -64.7388 -64.7339 -37.5125 -37.5007 -37.4768 -37.4126
   -37.3471 -37.3324 -37.3250 -37.2081 -37.2050 -37.1804 -36.9717 -36.9233
   -36.9035 -36.8922 -36.8671 -36.8371 -36.7942 -36.7938 -36.7625 -36.7529
   -36.6888 -36.6570 -36.6376 -36.6235 -36.5933 -36.5900 -36.5867 -36.5849
   -36.5556 -36.5548 -36.5513 -36.5083 -36.4174 -36.3877 -36.3765 -36.3430
    -6.6970  -4.0195  -2.9350  -2.8703  -2.8340  -2.7382  -2.6566  -2.4882
    -2.4116  -2.3903  -2.3288  -2.2931  -2.2687  -1.9474  -1.8255  -1.8193
    -1.1053  -1.0546  -0.8247  -0.1313  -0.0669  -0.0450   0.0652   0.1624
     0.3026   0.5146   0.6171   0.6885   0.7633   0.8832   0.9040   0.9538
     0.9633   1.1738   1.2440   1.2580   1.4314   1.5936   1.8750   2.1742
     2.2656   2.3245   2.5258   2.5995   2.7173   2.7300   2.9789   3.0753
     3.2808   3.3877   3.4980   3.8035   3.8181   3.9021

          k = 0.0304 0.0526 0.0000 ( 16202 PWs)   bands (ev):

   -65.0850 -64.9860 -64.9427 -64.9204 -64.8625 -64.8341 -64.7759 -64.7735
   -64.7591 -64.7519 -64.7495 -64.7302 -37.4644 -37.4083 -37.3995 -37.3775
   -37.3060 -37.2852 -37.2769 -37.1712 -37.1065 -37.1029 -36.9966 -36.9762
   -36.9460 -36.9372 -36.8713 -36.8055 -36.8021 -36.7861 -36.7519 -36.7421
   -36.7237 -36.6961 -36.6634 -36.6596 -36.6489 -36.6362 -36.6202 -36.6006
   -36.5656 -36.5562 -36.5269 -36.5262 -36.5187 -36.4729 -36.4039 -36.3724
    -6.6770  -3.5815  -2.6266  -2.6074  -2.4923  -2.3307  -2.2578  -2.2534
    -2.1955  -2.0837  -2.0698  -1.9954  -1.9046  -1.5863  -1.5760  -1.3246
    -1.0062  -0.9104  -0.7425  -0.3509  -0.1665  -0.0290  -0.0029   0.0915
     0.1757   0.1834   0.4966   0.5740   0.7133   0.7543   0.7876   0.9037
     0.9476   1.0862   1.1321   1.2311   1.3757   1.5739   1.6982   1.7021
     1.8252   2.0495   2.1377   2.2653   2.2885   2.3721   2.4055   2.4997
     2.6771   2.8846   3.2152   3.3621   3.4299   3.4488

          k = 0.0304-0.1228 0.0000 ( 16203 PWs)   bands (ev):

   -65.0635 -64.9952 -64.9584 -64.9179 -64.8345 -64.8100 -64.8020 -64.7807
   -64.7783 -64.7572 -64.7478 -64.7266 -37.3800 -37.3270 -37.3161 -37.2769
   -37.2441 -37.2319 -37.2305 -37.1431 -37.0629 -37.0556 -37.0264 -36.9848
   -36.9312 -36.9056 -36.8966 -36.8281 -36.8048 -36.7920 -36.7699 -36.7506
   -36.7475 -36.7380 -36.7336 -36.7098 -36.6996 -36.6795 -36.6567 -36.6487
   -36.6059 -36.5996 -36.5576 -36.5490 -36.5131 -36.4785 -36.4556 -36.4224
    -6.6586  -2.8828  -2.4253  -2.0995  -2.0534  -2.0185  -1.9068  -1.8509
    -1.6646  -1.6127  -1.5814  -1.5471  -1.3047  -1.2326  -1.1755  -0.9842
    -0.8810  -0.7275  -0.6454  -0.5514  -0.3815  -0.3404  -0.2542  -0.1683
     0.0196   0.1059   0.1990   0.3775   0.4788   0.5231   0.5908   0.6699
     0.7038   0.7799   0.8910   1.0079   1.1262   1.2374   1.3368   1.4077
     1.4995   1.5601   1.7421   1.9545   2.0733   2.1098   2.2225   2.3174
     2.4559   2.5978   2.7653   2.8348   3.0594   3.1170

          k = 0.0304-0.0877 0.0000 ( 16203 PWs)   bands (ev):

   -65.0634 -64.9953 -64.9583 -64.9179 -64.8345 -64.8100 -64.8020 -64.7806
   -64.7784 -64.7571 -64.7477 -64.7266 -37.3800 -37.3271 -37.3161 -37.2770
   -37.2440 -37.2319 -37.2306 -37.1432 -37.0629 -37.0555 -37.0264 -36.9847
   -36.9311 -36.9056 -36.8968 -36.8281 -36.8046 -36.7919 -36.7700 -36.7511
   -36.7472 -36.7380 -36.7335 -36.7097 -36.6996 -36.6795 -36.6567 -36.6488
   -36.6059 -36.5995 -36.5575 -36.5492 -36.5131 -36.4785 -36.4556 -36.4224
    -6.6586  -2.8828  -2.4253  -2.0995  -2.0534  -2.0185  -1.9068  -1.8509
    -1.6646  -1.6128  -1.5815  -1.5470  -1.3046  -1.2326  -1.1755  -0.9842
    -0.8810  -0.7275  -0.6454  -0.5514  -0.3815  -0.3404  -0.2542  -0.1682
     0.0197   0.1057   0.1989   0.3775   0.4786   0.5231   0.5908   0.6700
     0.7040   0.7800   0.8909   1.0079   1.1262   1.2374   1.3368   1.4077
     1.4995   1.5602   1.7421   1.9544   2.0733   2.1097   2.2226   2.3172
     2.4560   2.5977   2.7653   2.8348   3.0593   3.1171

          k = 0.0304-0.0526 0.0000 ( 16202 PWs)   bands (ev):

   -65.0849 -64.9862 -64.9424 -64.9206 -64.8625 -64.8341 -64.7750 -64.7745
   -64.7593 -64.7518 -64.7492 -64.7303 -37.4644 -37.4084 -37.3995 -37.3775
   -37.3059 -37.2856 -37.2767 -37.1712 -37.1063 -37.1031 -36.9965 -36.9764
   -36.9462 -36.9368 -36.8713 -36.8055 -36.8020 -36.7862 -36.7518 -36.7424
   -36.7235 -36.6961 -36.6632 -36.6595 -36.6490 -36.6365 -36.6201 -36.6007
   -36.5659 -36.5559 -36.5269 -36.5262 -36.5188 -36.4729 -36.4039 -36.3724
    -6.6771  -3.5815  -2.6265  -2.6074  -2.4923  -2.3307  -2.2578  -2.2534
    -2.1956  -2.0837  -2.0698  -1.9954  -1.9046  -1.5862  -1.5761  -1.3246
    -1.0063  -0.9104  -0.7425  -0.3509  -0.1664  -0.0289  -0.0030   0.0916
     0.1756   0.1834   0.4967   0.5738   0.7134   0.7543   0.7876   0.9037
     0.9476   1.0862   1.1321   1.2312   1.3758   1.5739   1.6981   1.7021
     1.8253   2.0493   2.1380   2.2651   2.2887   2.3721   2.4055   2.4998
     2.6769   2.8847   3.2149   3.3621   3.4300   3.4488

          k = 0.0608-0.0351 0.0000 ( 16149 PWs)   bands (ev):

   -65.0783 -64.9911 -64.9425 -64.9225 -64.8550 -64.8276 -64.7905 -64.7698
   -64.7605 -64.7576 -64.7418 -64.7342 -37.4345 -37.4138 -37.3639 -37.3303
   -37.2924 -37.2721 -37.2643 -37.1334 -37.1306 -37.0249 -37.0106 -36.9846
   -36.9788 -36.9294 -36.8642 -36.8356 -36.7927 -36.7550 -36.7504 -36.7378
   -36.7307 -36.7221 -36.7118 -36.6521 -36.6511 -36.6470 -36.6299 -36.6218
   -36.6013 -36.5945 -36.5691 -36.5168 -36.5059 -36.4741 -36.4141 -36.3785
    -6.6707  -3.3965  -2.6523  -2.4032  -2.3536  -2.3066  -2.2206  -2.0298
    -1.9625  -1.9497  -1.9225  -1.8538  -1.8398  -1.6113  -1.2360  -1.1921
    -0.9467  -0.8435  -0.6941  -0.5237  -0.2625  -0.0853  -0.0115   0.0422
     0.1808   0.2708   0.3232   0.5559   0.6390   0.6566   0.7499   0.8844
     0.9807   1.1008   1.2086   1.3038   1.3234   1.3561   1.5088   1.6792
     1.8469   1.8651   1.8889   1.9883   2.1069   2.1465   2.4194   2.4327
     2.5841   2.8751   3.0652   3.1345   3.1909   3.2961

          k = 0.0608 0.0000 0.0000 ( 16202 PWs)   bands (ev):

   -65.0850 -64.9858 -64.9433 -64.9201 -64.8625 -64.8341 -64.7751 -64.7745
   -64.7589 -64.7518 -64.7498 -64.7301 -37.4645 -37.4082 -37.3996 -37.3775
   -37.3060 -37.2852 -37.2770 -37.1712 -37.1063 -37.1031 -36.9966 -36.9762
   -36.9460 -36.9369 -36.8713 -36.8056 -36.8021 -36.7863 -36.7519 -36.7422
   -36.7236 -36.6960 -36.6634 -36.6595 -36.6489 -36.6365 -36.6200 -36.6007
   -36.5658 -36.5560 -36.5268 -36.5263 -36.5187 -36.4728 -36.4039 -36.3724
    -6.6770  -3.5815  -2.6264  -2.6076  -2.4922  -2.3307  -2.2578  -2.2534
    -2.1955  -2.0837  -2.0698  -1.9954  -1.9046  -1.5862  -1.5761  -1.3246
    -1.0063  -0.9103  -0.7425  -0.3509  -0.1664  -0.0289  -0.0029   0.0915
     0.1757   0.1834   0.4968   0.5739   0.7133   0.7543   0.7877   0.9036
     0.9475   1.0863   1.1321   1.2312   1.3758   1.5738   1.6981   1.7021
     1.8252   2.0494   2.1378   2.2651   2.2888   2.3721   2.4055   2.4997
     2.6769   2.8846   3.2151   3.3621   3.4299   3.4488

          k = 0.0608 0.0351 0.0000 ( 16149 PWs)   bands (ev):

   -65.0784 -64.9909 -64.9430 -64.9222 -64.8550 -64.8276 -64.7906 -64.7697
   -64.7591 -64.7590 -64.7420 -64.7339 -37.4348 -37.4136 -37.3639 -37.3303
   -37.2926 -37.2717 -37.2646 -37.1330 -37.1310 -37.0249 -37.0108 -36.9844
   -36.9787 -36.9296 -36.8643 -36.8355 -36.7929 -36.7551 -36.7497 -36.7382
   -36.7307 -36.7218 -36.7125 -36.6523 -36.6508 -36.6469 -36.6298 -36.6217
   -36.6012 -36.5946 -36.5691 -36.5169 -36.5059 -36.4742 -36.4140 -36.3784
    -6.6707  -3.3965  -2.6523  -2.4032  -2.3536  -2.3066  -2.2206  -2.0298
    -1.9625  -1.9498  -1.9225  -1.8537  -1.8399  -1.6113  -1.2358  -1.1923
    -0.9465  -0.8436  -0.6940  -0.5238  -0.2625  -0.0854  -0.0116   0.0423
     0.1808   0.2710   0.3232   0.5558   0.6390   0.6565   0.7498   0.8845
     0.9806   1.1010   1.2085   1.3037   1.3235   1.3560   1.5091   1.6792
     1.8469   1.8650   1.8890   1.9886   2.1066   2.1465   2.4194   2.4331
     2.5839   2.8750   3.0651   3.1348   3.1909   3.2961

          k = 0.0608-0.1404 0.0000 ( 16203 PWs)   bands (ev):

   -65.0636 -64.9947 -64.9592 -64.9176 -64.8345 -64.8101 -64.8020 -64.7805
   -64.7783 -64.7574 -64.7478 -64.7265 -37.3802 -37.3270 -37.3160 -37.2768
   -37.2444 -37.2319 -37.2304 -37.1432 -37.0629 -37.0555 -37.0264 -36.9846
   -36.9312 -36.9056 -36.8968 -36.8282 -36.8050 -36.7918 -36.7697 -36.7508
   -36.7475 -36.7381 -36.7334 -36.7098 -36.6995 -36.6798 -36.6565 -36.6486
   -36.6059 -36.5997 -36.5575 -36.5491 -36.5132 -36.4786 -36.4555 -36.4224
    -6.6586  -2.8828  -2.4253  -2.0996  -2.0532  -2.0186  -1.9068  -1.8509
    -1.6647  -1.6127  -1.5816  -1.5470  -1.3047  -1.2326  -1.1755  -0.9842
    -0.8810  -0.7275  -0.6454  -0.5514  -0.3815  -0.3404  -0.2542  -0.1682
     0.0196   0.1058   0.1989   0.3775   0.4788   0.5230   0.5909   0.6700
     0.7038   0.7800   0.8909   1.0080   1.1262   1.2375   1.3368   1.4077
     1.4995   1.5600   1.7420   1.9546   2.0734   2.1097   2.2224   2.3173
     2.4559   2.5978   2.7653   2.8348   3.0592   3.1172

          k = 0.0608-0.1053 0.0000 ( 16272 PWs)   bands (ev):

   -65.0554 -64.9833 -64.9824 -64.9141 -64.8078 -64.8067 -64.8058 -64.7910
   -64.7807 -64.7788 -64.7436 -64.7226 -37.2936 -37.2810 -37.2760 -37.2658
   -37.2473 -37.1945 -37.1896 -37.1812 -37.1642 -36.9773 -36.9694 -36.9482
   -36.9232 -36.9059 -36.8955 -36.8761 -36.8680 -36.8661 -36.7972 -36.7549
   -36.7413 -36.7337 -36.7208 -36.7185 -36.7090 -36.7018 -36.6954 -36.6115
   -36.6073 -36.5976 -36.5295 -36.5277 -36.5259 -36.4948 -36.4945 -36.4864
    -6.6528  -2.2598  -2.2525  -2.2461  -1.7019  -1.6459  -1.6367  -1.6340
    -1.6235  -1.4137  -1.2577  -1.2320  -1.2213  -1.1980  -1.1791  -1.1716
    -0.7041  -0.6589  -0.6576  -0.5791  -0.3319  -0.3129  -0.2910  -0.2310
    -0.1516  -0.1487   0.0151   0.0278   0.0431   0.1547   0.2973   0.4481
     0.5079   0.7057   0.7294   0.9442   1.0524   1.0611   1.1600   1.2587
     1.2649   1.6012   1.6688   1.8208   2.0682   2.1280   2.3415   2.3720
     2.4476   2.7186   2.8249   2.8688   3.0780   3.4349

          k = 0.0608-0.0702 0.0000 ( 16203 PWs)   bands (ev):

   -65.0635 -64.9950 -64.9588 -64.9177 -64.8345 -64.8101 -64.8019 -64.7805
   -64.7785 -64.7573 -64.7477 -64.7265 -37.3801 -37.3270 -37.3161 -37.2769
   -37.2441 -37.2319 -37.2307 -37.1432 -37.0630 -37.0555 -37.0264 -36.9847
   -36.9311 -36.9055 -36.8967 -36.8282 -36.8047 -36.7920 -36.7699 -36.7508
   -36.7472 -36.7384 -36.7334 -36.7096 -36.6996 -36.6796 -36.6567 -36.6487
   -36.6060 -36.5996 -36.5575 -36.5491 -36.5131 -36.4785 -36.4556 -36.4224
    -6.6586  -2.8828  -2.4253  -2.0997  -2.0532  -2.0185  -1.9068  -1.8510
    -1.6646  -1.6128  -1.5814  -1.5470  -1.3046  -1.2326  -1.1755  -0.9842
    -0.8810  -0.7275  -0.6454  -0.5514  -0.3815  -0.3405  -0.2542  -0.1681
     0.0197   0.1058   0.1988   0.3775   0.4786   0.5231   0.5909   0.6700
     0.7040   0.7800   0.8909   1.0078   1.1263   1.2373   1.3369   1.4076
     1.4996   1.5602   1.7420   1.9544   2.0734   2.1097   2.2224   2.3172
     2.4560   2.5978   2.7654   2.8348   3.0592   3.1173

          k =-0.0912 0.0526 0.0000 ( 16164 PWs)   bands (ev):

   -65.0618 -65.0025 -64.9481 -64.9225 -64.8236 -64.8219 -64.8024 -64.7946
   -64.7606 -64.7576 -64.7423 -64.7342 -37.3816 -37.3528 -37.3151 -37.2897
   -37.2476 -37.2380 -37.1481 -37.1146 -37.0806 -37.0744 -37.0658 -37.0468
   -36.8561 -36.8381 -36.8298 -36.8154 -36.8132 -36.7994 -36.7733 -36.7647
   -36.7595 -36.7413 -36.7400 -36.7296 -36.7161 -36.7024 -36.6929 -36.6751
   -36.6264 -36.6018 -36.5757 -36.5627 -36.4668 -36.4648 -36.4290 -36.4237
    -6.6586  -2.7594  -2.7298  -2.0763  -2.0701  -2.0461  -2.0094  -1.8317
    -1.7406  -1.5829  -1.5265  -1.3542  -1.3445  -1.2153  -1.1329  -1.0048
    -0.9869  -0.6636  -0.4791  -0.4779  -0.4042  -0.3301  -0.3121  -0.1666
     0.0858   0.1412   0.2963   0.5241   0.6074   0.6126   0.7004   0.7802
     0.8235   0.8972   0.9162   0.9313   1.1000   1.1325   1.1848   1.3028
     1.3290   1.5459   1.9504   1.9913   2.0810   2.0837   2.1220   2.3020
     2.5551   2.6101   2.7605   2.7737   2.7888   2.8992

          k =-0.0912 0.0877 0.0000 ( 16203 PWs)   bands (ev):

   -65.0635 -64.9947 -64.9591 -64.9176 -64.8345 -64.8101 -64.8019 -64.7804
   -64.7785 -64.7574 -64.7477 -64.7265 -37.3801 -37.3270 -37.3160 -37.2768
   -37.2443 -37.2319 -37.2306 -37.1430 -37.0630 -37.0555 -37.0264 -36.9848
   -36.9311 -36.9056 -36.8966 -36.8281 -36.8049 -36.7922 -36.7699 -36.7507
   -36.7472 -36.7383 -36.7336 -36.7096 -36.6995 -36.6797 -36.6567 -36.6487
   -36.6058 -36.5997 -36.5575 -36.5490 -36.5131 -36.4785 -36.4556 -36.4224
    -6.6586  -2.8828  -2.4253  -2.0997  -2.0532  -2.0185  -1.9068  -1.8509
    -1.6646  -1.6128  -1.5814  -1.5471  -1.3047  -1.2326  -1.1755  -0.9842
    -0.8810  -0.7275  -0.6454  -0.5514  -0.3815  -0.3404  -0.2542  -0.1681
     0.0196   0.1058   0.1989   0.3775   0.4787   0.5231   0.5909   0.6699
     0.7039   0.7799   0.8910   1.0078   1.1263   1.2373   1.3369   1.4076
     1.4996   1.5602   1.7419   1.9543   2.0733   2.1099   2.2225   2.3173
     2.4560   2.5978   2.7653   2.8348   3.0593   3.1171

          k =-0.0912 0.1228 0.0000 ( 16203 PWs)   bands (ev):

   -65.0636 -64.9945 -64.9594 -64.9175 -64.8345 -64.8101 -64.8019 -64.7803
   -64.7784 -64.7575 -64.7477 -64.7265 -37.3802 -37.3271 -37.3159 -37.2767
   -37.2445 -37.2319 -37.2303 -37.1431 -37.0629 -37.0555 -37.0264 -36.9846
   -36.9312 -36.9056 -36.8968 -36.8281 -36.8050 -36.7919 -36.7698 -36.7512
   -36.7472 -36.7380 -36.7334 -36.7097 -36.6995 -36.6798 -36.6565 -36.6487
   -36.6058 -36.5997 -36.5575 -36.5492 -36.5132 -36.4786 -36.4555 -36.4224
    -6.6586  -2.8828  -2.4253  -2.0996  -2.0532  -2.0185  -1.9068  -1.8509
    -1.6647  -1.6127  -1.5816  -1.5470  -1.3047  -1.2326  -1.1755  -0.9842
    -0.8810  -0.7275  -0.6454  -0.5514  -0.3815  -0.3403  -0.2542  -0.1682
     0.0197   0.1057   0.1989   0.3775   0.4787   0.5230   0.5909   0.6700
     0.7039   0.7799   0.8909   1.0080   1.1261   1.2375   1.3368   1.4077
     1.4996   1.5601   1.7419   1.9545   2.0732   2.1099   2.2226   2.3173
     2.4560   2.5977   2.7653   2.8347   3.0593   3.1172

          k =-0.0912-0.0526 0.0000 ( 16164 PWs)   bands (ev):

   -65.0619 -65.0022 -64.9486 -64.9223 -64.8233 -64.8222 -64.8026 -64.7944
   -64.7591 -64.7590 -64.7425 -64.7339 -37.3819 -37.3526 -37.3152 -37.2895
   -37.2481 -37.2375 -37.1481 -37.1146 -37.0810 -37.0738 -37.0660 -37.0468
   -36.8563 -36.8383 -36.8304 -36.8147 -36.8130 -36.7995 -36.7727 -36.7655
   -36.7588 -36.7410 -36.7404 -36.7297 -36.7163 -36.7022 -36.6933 -36.6748
   -36.6262 -36.6019 -36.5758 -36.5626 -36.4680 -36.4638 -36.4290 -36.4236
    -6.6586  -2.7595  -2.7297  -2.0763  -2.0701  -2.0461  -2.0093  -1.8314
    -1.7408  -1.5830  -1.5264  -1.3544  -1.3444  -1.2152  -1.1329  -1.0046
    -0.9871  -0.6636  -0.4792  -0.4776  -0.4041  -0.3305  -0.3121  -0.1666
     0.0858   0.1413   0.2961   0.5241   0.6073   0.6126   0.7008   0.7800
     0.8235   0.8972   0.9163   0.9314   1.1003   1.1323   1.1846   1.3031
     1.3287   1.5459   1.9502   1.9914   2.0809   2.0841   2.1217   2.3023
     2.5550   2.6101   2.7603   2.7734   2.7892   2.8992

     the Fermi energy is     2.1579 ev

!    total energy              =   -2114.70874322 Ry
     Harris-Foulkes estimate   =   -2114.70874956 Ry
     estimated scf accuracy    <       0.00000976 Ry

     The total energy is the sum of the following terms:

     one-electron contribution =  -18862.89432252 Ry
     hartree contribution      =    9430.11673307 Ry
     xc contribution           =    -400.38072939 Ry
     ewald contribution        =    7718.54166167 Ry
     electric field correction =       0.00023052 Ry
     smearing contrib. (-TS)   =      -0.09231657 Ry

     convergence has been achieved in  24 iterations
 
 BEEF-vdW xc energy contributions
           1 :   -350.735912818546     
           2 :    322.429700553445     
           3 :   -272.126543159472     
           4 :    209.950428085378     
           5 :   -146.657899234750     
           6 :    90.6836028138428     
           7 :   -46.5253623521814     
           8 :    14.6512721185534     
           9 :    7.25245689583772     
          10 :   -22.4609091079191     
          11 :    33.5533180259247     
          12 :   -41.5542054525010     
          13 :    45.9925963459291     
          14 :   -45.6939674620473     
          15 :    39.8155908851460     
          16 :   -28.6637291906692     
          17 :    13.9427908689424     
          18 :    1.62248615161815     
          19 :   -15.1101260770008     
          20 :    24.2823850618781     
          21 :   -28.1650078639856     
          22 :    27.1107250943189     
          23 :   -22.3982297414503     
          24 :    15.5970413490950     
          25 :   -8.01363907864572     
          26 :   0.435079188210580     
          27 :    6.78379705778622     
          28 :   -13.4259339834415     
          29 :    19.1192172842661     
          30 :   -23.2267163398172     
          31 :   -33.4537922097684     
          32 :   -24.5482724414688     

     Forces acting on atoms (Ry/au):


     negative rho (up, down):  1.588E+00 0.000E+00
     atom    1 type  1   force =    -0.00036449   -0.00025244    0.02794923
     atom    2 type  1   force =     0.00036345   -0.00028107    0.02795703
     atom    3 type  1   force =    -0.00002090    0.00047679    0.02805657
     atom    4 type  1   force =     0.00002176    0.00005666    0.04028378
     atom    5 type  1   force =     0.00013171    0.02132821   -0.01733417
     atom    6 type  1   force =    -0.00011607   -0.00000619    0.00128311
     atom    7 type  1   force =    -0.01846178   -0.01072522   -0.01726690
     atom    8 type  1   force =     0.01846630   -0.01058766   -0.01742145
     atom    9 type  1   force =    -0.00002701   -0.00005446    0.12273597
     atom   10 type  1   force =     0.00002388    0.00084260   -0.02827839
     atom   11 type  1   force =     0.00076880   -0.00037777   -0.02814253
     atom   12 type  1   force =    -0.00078718   -0.00041568   -0.02824185
     atom   13 type  2   force =     0.00000152   -0.00000378   -0.11158040

     Total force =     0.172933     Total SCF correction =     0.009290


     entering subroutine stress ...


     negative rho (up, down):  1.588E+00 0.000E+00
          total   stress  (Ry/bohr**3)                   (kbar)     P=  -35.68
  -0.00020652  -0.00000006   0.00000000        -30.38     -0.01      0.00
  -0.00000006  -0.00020658   0.00000001         -0.01    -30.39      0.00
   0.00000000   0.00000001  -0.00031461          0.00      0.00    -46.28


     BFGS Geometry Optimization

     number of scf cycles    =   1
     number of bfgs steps    =   0

     energy   new            =   -2114.7087432199 Ry

     new trust radius        =       0.1227359881 bohr
     new conv_thr            =       0.0000099958 Ry


ATOMIC_POSITIONS (crystal)
Tc1      0.166666667   0.166666667   0.408540475    0   0   0
Tc1      0.666666667   0.166666667   0.408540475    0   0   0
Tc1      0.166666667   0.666666667   0.408540475    0   0   0
Tc1      0.666666667   0.666666667   0.408540475    0   0   0
Tc1      0.833333333   0.333333333   0.500000000    0   0   0
Tc1      0.333333333   0.333333333   0.500000000    0   0   0
Tc1      0.833333333   0.833333333   0.500000000    0   0   0
Tc1      0.333333333   0.833333333   0.500000000    0   0   0
Tc1      0.000000428  -0.000006069   0.594112958
Tc1      0.499955359   0.000093891   0.590848174
Tc1      0.000095237   0.499957905   0.590851111
Tc1      0.499947196   0.499953681   0.590848964
C1       0.000000357  -0.000000421   0.666486112



     Writing output data file calc.save
     Check: negative starting charge=   -1.504811
     NEW-OLD atomic charge density approx. for the potential

     Check: negative/imaginary core charge=   -0.000022    0.000000
     Check: negative starting charge=   -1.510118

     negative rho (up, down):  1.592E+00 0.000E+00
 
     Adding external electric field

     Computed dipole along edir(3) : 
        Dipole               -0.2428 Ry au,         -0.6172 Debye
        Dipole field         -0.0007 Ry au
 
        Potential amp.        0.0640 Ry
        Total length         45.0992 bohr
 

     total cpu time spent up to now is      558.6 secs

     per-process dynamical memory:   101.3 Mb

     Self-consistent Calculation

     iteration #  1     ecut=    36.75 Ry     beta=0.30
     Davidson diagonalization with overlap
     c_bands:  1 eigenvalues not converged
     c_bands:  1 eigenvalues not converged
     ethr =  1.00E-06,  avg # of iterations = 13.1

     negative rho (up, down):  1.593E+00 0.000E+00
 
     Adding external electric field

     Computed dipole along edir(3) : 
        Dipole               -1.5296 Ry au,         -3.8880 Debye
        Dipole field         -0.0045 Ry au
 
        Potential amp.        0.4031 Ry
        Total length         45.0992 bohr
 

     total cpu time spent up to now is      592.9 secs

     total energy              =   -2114.62003196 Ry
     Harris-Foulkes estimate   =   -2114.73230068 Ry
     estimated scf accuracy    <       0.24011298 Ry

     iteration #  2     ecut=    36.75 Ry     beta=0.30
     Davidson diagonalization with overlap
     ethr =  1.30E-04,  avg # of iterations =  6.8

     negative rho (up, down):  1.593E+00 0.000E+00
 
     Adding external electric field

     Computed dipole along edir(3) : 
        Dipole               -0.3508 Ry au,         -0.8916 Debye
        Dipole field         -0.0010 Ry au
 
        Potential amp.        0.0924 Ry
        Total length         45.0992 bohr
 

     total cpu time spent up to now is      616.4 secs

     total energy              =   -2113.26619889 Ry
     Harris-Foulkes estimate   =   -2116.17348198 Ry
     estimated scf accuracy    <     131.16832778 Ry

     iteration #  3     ecut=    36.75 Ry     beta=0.30
     Davidson diagonalization with overlap
     ethr =  1.30E-04,  avg # of iterations =  6.0

     negative rho (up, down):  1.593E+00 0.000E+00
 
     Adding external electric field

     Computed dipole along edir(3) : 
        Dipole               -0.3029 Ry au,         -0.7699 Debye
        Dipole field         -0.0009 Ry au
 
        Potential amp.        0.0798 Ry
        Total length         45.0992 bohr
 

     total cpu time spent up to now is      639.4 secs

     total energy              =   -2114.69943942 Ry
     Harris-Foulkes estimate   =   -2114.75627501 Ry
     estimated scf accuracy    <       0.63811166 Ry

     iteration #  4     ecut=    36.75 Ry     beta=0.30
     Davidson diagonalization with overlap
     ethr =  1.30E-04,  avg # of iterations =  3.9

     negative rho (up, down):  1.593E+00 0.000E+00
 
     Adding external electric field

     Computed dipole along edir(3) : 
        Dipole               -0.2605 Ry au,         -0.6621 Debye
        Dipole field         -0.0008 Ry au
 
        Potential amp.        0.0686 Ry
        Total length         45.0992 bohr
 

     total cpu time spent up to now is      657.1 secs

     total energy              =   -2114.72539353 Ry
     Harris-Foulkes estimate   =   -2114.73413076 Ry
     estimated scf accuracy    <       0.08367201 Ry

     iteration #  5     ecut=    36.75 Ry     beta=0.30
     Davidson diagonalization with overlap
     ethr =  4.55E-05,  avg # of iterations =  2.2

     negative rho (up, down):  1.592E+00 0.000E+00
 
     Adding external electric field

     Computed dipole along edir(3) : 
        Dipole               -0.2462 Ry au,         -0.6257 Debye
        Dipole field         -0.0007 Ry au
 
        Potential amp.        0.0649 Ry
        Total length         45.0992 bohr
 

     total cpu time spent up to now is      673.3 secs

     total energy              =   -2114.72909631 Ry
     Harris-Foulkes estimate   =   -2114.72966498 Ry
     estimated scf accuracy    <       0.00395242 Ry

     iteration #  6     ecut=    36.75 Ry     beta=0.30
     Davidson diagonalization with overlap
     ethr =  2.15E-06,  avg # of iterations =  5.3

     negative rho (up, down):  1.593E+00 0.000E+00
 
     Adding external electric field

     Computed dipole along edir(3) : 
        Dipole               -0.2498 Ry au,         -0.6349 Debye
        Dipole field         -0.0007 Ry au
 
        Potential amp.        0.0658 Ry
        Total length         45.0992 bohr
 

     total cpu time spent up to now is      694.7 secs

     total energy              =   -2114.73042809 Ry
     Harris-Foulkes estimate   =   -2114.73117891 Ry
     estimated scf accuracy    <       0.01186616 Ry

     iteration #  7     ecut=    36.75 Ry     beta=0.30
     Davidson diagonalization with overlap
     ethr =  2.15E-06,  avg # of iterations =  1.7

     negative rho (up, down):  1.593E+00 0.000E+00
 
     Adding external electric field

     Computed dipole along edir(3) : 
        Dipole               -0.2574 Ry au,         -0.6543 Debye
        Dipole field         -0.0008 Ry au
 
        Potential amp.        0.0678 Ry
        Total length         45.0992 bohr
 

     total cpu time spent up to now is      710.0 secs

     total energy              =   -2114.73014983 Ry
     Harris-Foulkes estimate   =   -2114.73068202 Ry
     estimated scf accuracy    <       0.00570680 Ry

     iteration #  8     ecut=    36.75 Ry     beta=0.30
     Davidson diagonalization with overlap
     ethr =  2.15E-06,  avg # of iterations =  3.9

     negative rho (up, down):  1.593E+00 0.000E+00
 
     Adding external electric field

     Computed dipole along edir(3) : 
        Dipole               -0.2602 Ry au,         -0.6614 Debye
        Dipole field         -0.0008 Ry au
 
        Potential amp.        0.0686 Ry
        Total length         45.0992 bohr
 

     total cpu time spent up to now is      727.2 secs

     total energy              =   -2114.73050077 Ry
     Harris-Foulkes estimate   =   -2114.73053774 Ry
     estimated scf accuracy    <       0.00043801 Ry

     iteration #  9     ecut=    36.75 Ry     beta=0.30
     Davidson diagonalization with overlap
     ethr =  2.38E-07,  avg # of iterations =  4.5

     negative rho (up, down):  1.593E+00 0.000E+00
 
     Adding external electric field

     Computed dipole along edir(3) : 
        Dipole               -0.2562 Ry au,         -0.6511 Debye
        Dipole field         -0.0007 Ry au
 
        Potential amp.        0.0675 Ry
        Total length         45.0992 bohr
 

     total cpu time spent up to now is      746.0 secs

     total energy              =   -2114.73050219 Ry
     Harris-Foulkes estimate   =   -2114.73061262 Ry
     estimated scf accuracy    <       0.00144700 Ry

     iteration # 10     ecut=    36.75 Ry     beta=0.30
     Davidson diagonalization with overlap
     ethr =  2.38E-07,  avg # of iterations =  3.3

     negative rho (up, down):  1.593E+00 0.000E+00
 
     Adding external electric field

     Computed dipole along edir(3) : 
        Dipole               -0.2550 Ry au,         -0.6481 Debye
        Dipole field         -0.0007 Ry au
 
        Potential amp.        0.0672 Ry
        Total length         45.0992 bohr
 

     total cpu time spent up to now is      762.4 secs

     total energy              =   -2114.73051337 Ry
     Harris-Foulkes estimate   =   -2114.73054318 Ry
     estimated scf accuracy    <       0.00029072 Ry

     iteration # 11     ecut=    36.75 Ry     beta=0.30
     Davidson diagonalization with overlap
     ethr =  1.58E-07,  avg # of iterations =  3.9

     negative rho (up, down):  1.593E+00 0.000E+00
 
     Adding external electric field

     Computed dipole along edir(3) : 
        Dipole               -0.2550 Ry au,         -0.6482 Debye
        Dipole field         -0.0007 Ry au
 
        Potential amp.        0.0672 Ry
        Total length         45.0992 bohr
 

     total cpu time spent up to now is      779.3 secs

     total energy              =   -2114.73053640 Ry
     Harris-Foulkes estimate   =   -2114.73053802 Ry
     estimated scf accuracy    <       0.00002162 Ry

     iteration # 12     ecut=    36.75 Ry     beta=0.30
     Davidson diagonalization with overlap
     ethr =  1.18E-08,  avg # of iterations =  4.7

     negative rho (up, down):  1.593E+00 0.000E+00
 
     Adding external electric field

     Computed dipole along edir(3) : 
        Dipole               -0.2552 Ry au,         -0.6486 Debye
        Dipole field         -0.0007 Ry au
 
        Potential amp.        0.0672 Ry
        Total length         45.0992 bohr
 

     total cpu time spent up to now is      799.6 secs

     total energy              =   -2114.73053917 Ry
     Harris-Foulkes estimate   =   -2114.73054171 Ry
     estimated scf accuracy    <       0.00003177 Ry

     iteration # 13     ecut=    36.75 Ry     beta=0.30
     Davidson diagonalization with overlap
     ethr =  1.18E-08,  avg # of iterations =  2.1

     negative rho (up, down):  1.593E+00 0.000E+00

     negative rho (up, down):  1.593E+00 0.000E+00

     negative rho (up, down):  1.593E+00 0.000E+00

     negative rho (up, down):  1.593E+00 0.000E+00

     negative rho (up, down):  1.593E+00 0.000E+00

     negative rho (up, down):  1.593E+00 0.000E+00

     negative rho (up, down):  1.593E+00 0.000E+00

     negative rho (up, down):  1.593E+00 0.000E+00

     negative rho (up, down):  1.593E+00 0.000E+00

     negative rho (up, down):  1.593E+00 0.000E+00

     negative rho (up, down):  1.593E+00 0.000E+00

     negative rho (up, down):  1.593E+00 0.000E+00

     negative rho (up, down):  1.593E+00 0.000E+00

     negative rho (up, down):  1.593E+00 0.000E+00

     negative rho (up, down):  1.593E+00 0.000E+00

     negative rho (up, down):  1.593E+00 0.000E+00

     negative rho (up, down):  1.593E+00 0.000E+00

     negative rho (up, down):  1.593E+00 0.000E+00

     negative rho (up, down):  1.593E+00 0.000E+00

     negative rho (up, down):  1.593E+00 0.000E+00

     negative rho (up, down):  1.593E+00 0.000E+00

     negative rho (up, down):  1.593E+00 0.000E+00

     negative rho (up, down):  1.593E+00 0.000E+00

     negative rho (up, down):  1.593E+00 0.000E+00

     negative rho (up, down):  1.593E+00 0.000E+00

     negative rho (up, down):  1.593E+00 0.000E+00

     negative rho (up, down):  1.593E+00 0.000E+00

     negative rho (up, down):  1.593E+00 0.000E+00

     negative rho (up, down):  1.593E+00 0.000E+00

     negative rho (up, down):  1.593E+00 0.000E+00

     negative rho (up, down):  1.593E+00 0.000E+00

     negative rho (up, down):  1.593E+00 0.000E+00

     negative rho (up, down):  1.593E+00 0.000E+00

     negative rho (up, down):  1.593E+00 0.000E+00

     negative rho (up, down):  1.593E+00 0.000E+00
 
     Adding external electric field

     Computed dipole along edir(3) : 
        Dipole               -0.2563 Ry au,         -0.6515 Debye
        Dipole field         -0.0007 Ry au
 
        Potential amp.        0.0675 Ry
        Total length         45.0992 bohr
 

     total cpu time spent up to now is      856.4 secs

     End of self-consistent calculation

          k = 0.0000 0.0000 0.0000 ( 16073 PWs)   bands (ev):

   -65.0900 -64.9581 -64.9077 -64.9075 -64.8435 -64.8199 -64.7144 -64.7143
   -64.7134 -64.7111 -64.7103 -64.6714 -37.5267 -37.5265 -37.5004 -37.4105
   -37.3456 -37.3181 -37.3178 -37.2032 -37.1943 -37.1938 -36.9745 -36.8763
   -36.8452 -36.8451 -36.8182 -36.7944 -36.7944 -36.7783 -36.7525 -36.7516
   -36.6636 -36.6079 -36.6073 -36.5550 -36.5550 -36.5498 -36.5352 -36.5158
   -36.5154 -36.4937 -36.4844 -36.4839 -36.3105 -36.3104 -36.2972 -36.2971
    -6.7288  -4.2289  -3.0427  -3.0426  -3.0186  -2.9473  -2.8819  -2.5718
    -2.5716  -2.5207  -2.4328  -2.4326  -2.3969  -2.0477  -2.0391  -2.0389
    -1.2150  -1.2148  -0.8588  -0.2005  -0.1591  -0.1590   0.1700   0.3884
     0.5048   0.5048   0.7981   0.7981   0.8325   0.8326   0.8329   0.9065
     1.0792   1.0792   1.3825   1.3829   1.6583   1.6584   2.2599   2.5122
     2.5528   2.5543   2.5544   2.8850   2.8850   2.9997   3.2669   3.2670
     3.6958   3.7821   3.7821   3.9646   3.9650   4.2650

          k = 0.0000 0.0351 0.0000 ( 16137 PWs)   bands (ev):

   -65.0811 -64.9610 -64.9141 -64.9077 -64.8348 -64.8124 -64.7223 -64.7181
   -64.7135 -64.7134 -64.7104 -64.6737 -37.4949 -37.4827 -37.4553 -37.3920
   -37.3200 -37.2914 -37.2858 -37.1700 -37.1627 -37.1396 -36.9775 -36.8936
   -36.8779 -36.8688 -36.8432 -36.8173 -36.7863 -36.7744 -36.7286 -36.7229
   -36.6647 -36.6240 -36.6100 -36.5998 -36.5708 -36.5599 -36.5484 -36.5394
   -36.5265 -36.5191 -36.5050 -36.4750 -36.3644 -36.3562 -36.3246 -36.3100
    -6.7151  -3.9913  -2.9116  -2.8444  -2.8206  -2.7170  -2.6362  -2.4638
    -2.3965  -2.3606  -2.3085  -2.2719  -2.2472  -1.9183  -1.7954  -1.7884
    -1.1685  -1.1257  -0.8042  -0.1932  -0.0820  -0.0574   0.1005   0.1749
     0.3292   0.5421   0.6189   0.7064   0.7375   0.8957   0.9157   0.9801
     0.9939   1.1720   1.2472   1.2912   1.4472   1.5971   1.9107   2.1972
     2.3074   2.3267   2.5451   2.6187   2.7413   2.7852   3.0032   3.1168
     3.3276   3.3841   3.5365   3.8232   3.8500   3.9221

          k = 0.0000 0.0702 0.0000 ( 16149 PWs)   bands (ev):

   -65.0584 -64.9726 -64.9261 -64.9078 -64.8110 -64.7920 -64.7455 -64.7357
   -64.7137 -64.7134 -64.7103 -64.6773 -37.4172 -37.3936 -37.3433 -37.3106
   -37.2695 -37.2333 -37.2307 -37.0971 -37.0866 -36.9994 -36.9831 -36.9644
   -36.9572 -36.9000 -36.8391 -36.8133 -36.8013 -36.7349 -36.7120 -36.7072
   -36.7059 -36.6803 -36.6757 -36.6199 -36.6193 -36.6115 -36.6063 -36.5887
   -36.5687 -36.5636 -36.5251 -36.4701 -36.4698 -36.4420 -36.3628 -36.3444
    -6.6899  -3.3672  -2.6308  -2.3842  -2.3419  -2.2771  -2.1941  -2.0003
    -1.9551  -1.9350  -1.8946  -1.8389  -1.8123  -1.5885  -1.2103  -1.1829
    -0.9697  -0.8996  -0.7043  -0.5069  -0.3039  -0.0964  -0.0493   0.0346
     0.2106   0.2936   0.3140   0.5519   0.6384   0.6730   0.7645   0.9145
     1.0069   1.1061   1.2120   1.3196   1.3652   1.3874   1.5310   1.7370
     1.8718   1.8875   1.9138   2.0127   2.0906   2.1463   2.4081   2.4807
     2.5930   2.9478   3.0806   3.1700   3.2259   3.3057

          k = 0.0000-0.1053 0.0000 ( 16164 PWs)   bands (ev):

   -65.0413 -64.9854 -64.9309 -64.9079 -64.7813 -64.7762 -64.7680 -64.7576
   -64.7137 -64.7134 -64.7103 -64.6786 -37.3646 -37.3321 -37.2958 -37.2667
   -37.2232 -37.1958 -37.1293 -37.0956 -37.0542 -37.0372 -37.0291 -37.0229
   -36.8669 -36.8101 -36.7933 -36.7893 -36.7747 -36.7646 -36.7525 -36.7295
   -36.7090 -36.7085 -36.6999 -36.6978 -36.6950 -36.6649 -36.6589 -36.6557
   -36.5962 -36.5707 -36.5491 -36.5274 -36.4276 -36.4118 -36.3991 -36.3815
    -6.6781  -2.7344  -2.6994  -2.0618  -2.0327  -2.0239  -1.9964  -1.8303
    -1.7239  -1.5567  -1.5054  -1.3478  -1.3222  -1.2168  -1.1143  -0.9937
    -0.9584  -0.7262  -0.5110  -0.4469  -0.3964  -0.3165  -0.2915  -0.2121
     0.0541   0.1076   0.3170   0.5062   0.5952   0.6408   0.7105   0.8141
     0.8372   0.9226   0.9348   0.9536   1.1354   1.1385   1.1711   1.3036
     1.3432   1.6066   1.9771   1.9838   2.0960   2.1240   2.1617   2.3253
     2.5782   2.6014   2.7999   2.8194   2.8377   2.9130

          k = 0.0304-0.0175 0.0000 ( 16137 PWs)   bands (ev):

   -65.0811 -64.9610 -64.9142 -64.9076 -64.8348 -64.8124 -64.7221 -64.7174
   -64.7142 -64.7129 -64.7111 -64.6736 -37.4950 -37.4825 -37.4554 -37.3920
   -37.3201 -37.2911 -37.2861 -37.1704 -37.1622 -37.1397 -36.9775 -36.8936
   -36.8779 -36.8689 -36.8431 -36.8174 -36.7863 -36.7745 -36.7280 -36.7236
   -36.6645 -36.6245 -36.6097 -36.5997 -36.5708 -36.5599 -36.5486 -36.5390
   -36.5267 -36.5186 -36.5052 -36.4751 -36.3644 -36.3563 -36.3246 -36.3099
    -6.7151  -3.9913  -2.9117  -2.8443  -2.8207  -2.7170  -2.6362  -2.4637
    -2.3967  -2.3604  -2.3087  -2.2717  -2.2473  -1.9183  -1.7956  -1.7882
    -1.1682  -1.1259  -0.8043  -0.1932  -0.0820  -0.0574   0.1006   0.1749
     0.3292   0.5422   0.6187   0.7064   0.7374   0.8958   0.9156   0.9800
     0.9939   1.1722   1.2470   1.2911   1.4473   1.5970   1.9108   2.1973
     2.3075   2.3265   2.5452   2.6186   2.7412   2.7853   3.0032   3.1167
     3.3275   3.3841   3.5367   3.8235   3.8498   3.9220

          k = 0.0304 0.0175 0.0000 ( 16137 PWs)   bands (ev):

   -65.0811 -64.9610 -64.9142 -64.9076 -64.8348 -64.8124 -64.7222 -64.7177
   -64.7138 -64.7133 -64.7107 -64.6736 -37.4949 -37.4826 -37.4554 -37.3920
   -37.3201 -37.2912 -37.2860 -37.1702 -37.1624 -37.1397 -36.9776 -36.8936
   -36.8779 -36.8688 -36.8432 -36.8173 -36.7863 -36.7745 -36.7283 -36.7232
   -36.6646 -36.6242 -36.6099 -36.5998 -36.5708 -36.5599 -36.5485 -36.5392
   -36.5266 -36.5188 -36.5051 -36.4751 -36.3644 -36.3562 -36.3246 -36.3100
    -6.7151  -3.9913  -2.9117  -2.8443  -2.8207  -2.7170  -2.6362  -2.4638
    -2.3966  -2.3605  -2.3086  -2.2718  -2.2473  -1.9183  -1.7955  -1.7883
    -1.1683  -1.1258  -0.8043  -0.1932  -0.0820  -0.0574   0.1005   0.1749
     0.3292   0.5421   0.6188   0.7064   0.7374   0.8958   0.9157   0.9800
     0.9939   1.1721   1.2472   1.2911   1.4472   1.5970   1.9107   2.1972
     2.3074   2.3266   2.5452   2.6186   2.7412   2.7852   3.0032   3.1168
     3.3276   3.3841   3.5366   3.8234   3.8499   3.9221

          k = 0.0304 0.0526 0.0000 ( 16202 PWs)   bands (ev):

   -65.0651 -64.9669 -64.9272 -64.9054 -64.8185 -64.7984 -64.7315 -64.7282
   -64.7258 -64.7152 -64.7054 -64.6758 -37.4462 -37.3912 -37.3766 -37.3582
   -37.2809 -37.2462 -37.2419 -37.1318 -37.0652 -37.0622 -36.9892 -36.9576
   -36.9170 -36.9111 -36.8444 -36.7986 -36.7815 -36.7771 -36.7154 -36.7095
   -36.6889 -36.6703 -36.6379 -36.6275 -36.6216 -36.6030 -36.5872 -36.5731
   -36.5213 -36.5096 -36.4986 -36.4921 -36.4717 -36.4363 -36.3513 -36.3403
    -6.6960  -3.5524  -2.6053  -2.5873  -2.4786  -2.3054  -2.2326  -2.2246
    -2.1722  -2.0754  -2.0484  -1.9713  -1.8820  -1.5561  -1.5510  -1.3053
    -1.0447  -0.9875  -0.7308  -0.3220  -0.2650  -0.0465  -0.0010   0.0817
     0.1985   0.2282   0.4999   0.5730   0.7082   0.7745   0.8026   0.9162
     0.9603   1.1025   1.1567   1.2477   1.4074   1.6046   1.7250   1.7360
     1.8829   2.0682   2.1279   2.2602   2.3069   2.3797   2.4270   2.5344
     2.7115   2.9152   3.2512   3.3615   3.4703   3.4734

          k = 0.0304-0.1228 0.0000 ( 16203 PWs)   bands (ev):

   -65.0431 -64.9773 -64.9423 -64.9026 -64.7905 -64.7750 -64.7573 -64.7464
   -64.7328 -64.7198 -64.7013 -64.6761 -37.3619 -37.3045 -37.2987 -37.2542
   -37.2213 -37.2103 -37.1919 -37.1195 -37.0381 -37.0266 -36.9847 -36.9604
   -36.8897 -36.8827 -36.8594 -36.8263 -36.7802 -36.7681 -36.7366 -36.7217
   -36.7179 -36.7063 -36.7032 -36.6795 -36.6637 -36.6490 -36.6281 -36.6180
   -36.5744 -36.5579 -36.5283 -36.5123 -36.4662 -36.4477 -36.4035 -36.3883
    -6.6782  -2.8534  -2.4019  -2.0886  -2.0369  -1.9919  -1.8803  -1.8229
    -1.6464  -1.6038  -1.5606  -1.5244  -1.2895  -1.2260  -1.1536  -0.9818
    -0.8783  -0.7607  -0.6550  -0.5545  -0.4017  -0.3345  -0.2765  -0.1493
     0.0267   0.0833   0.1959   0.3967   0.4817   0.5001   0.5979   0.6745
     0.7297   0.7983   0.9227   1.0186   1.1426   1.2415   1.3481   1.4384
     1.5197   1.6005   1.7859   1.9603   2.0684   2.1346   2.2444   2.3497
     2.4984   2.6332   2.8113   2.8663   3.1072   3.1754

          k = 0.0304-0.0877 0.0000 ( 16203 PWs)   bands (ev):

   -65.0431 -64.9773 -64.9424 -64.9026 -64.7905 -64.7750 -64.7573 -64.7462
   -64.7328 -64.7199 -64.7013 -64.6761 -37.3619 -37.3045 -37.2986 -37.2542
   -37.2213 -37.2103 -37.1919 -37.1194 -37.0381 -37.0265 -36.9847 -36.9605
   -36.8897 -36.8828 -36.8593 -36.8264 -36.7801 -36.7681 -36.7365 -36.7215
   -36.7181 -36.7062 -36.7034 -36.6794 -36.6638 -36.6490 -36.6281 -36.6180
   -36.5744 -36.5578 -36.5284 -36.5122 -36.4662 -36.4477 -36.4035 -36.3883
    -6.6782  -2.8534  -2.4019  -2.0886  -2.0369  -1.9919  -1.8803  -1.8229
    -1.6463  -1.6039  -1.5606  -1.5244  -1.2895  -1.2260  -1.1536  -0.9818
    -0.8783  -0.7607  -0.6550  -0.5545  -0.4016  -0.3344  -0.2765  -0.1494
     0.0267   0.0833   0.1959   0.3967   0.4818   0.5001   0.5979   0.6745
     0.7296   0.7984   0.9227   1.0186   1.1427   1.2414   1.3481   1.4384
     1.5197   1.6004   1.7858   1.9604   2.0685   2.1346   2.2444   2.3498
     2.4984   2.6332   2.8113   2.8663   3.1072   3.1754

          k = 0.0304-0.0526 0.0000 ( 16202 PWs)   bands (ev):

   -65.0651 -64.9669 -64.9272 -64.9054 -64.8185 -64.7984 -64.7315 -64.7279
   -64.7258 -64.7156 -64.7054 -64.6757 -37.4462 -37.3912 -37.3766 -37.3582
   -37.2809 -37.2462 -37.2419 -37.1318 -37.0652 -37.0623 -36.9893 -36.9575
   -36.9169 -36.9114 -36.8444 -36.7985 -36.7815 -36.7770 -36.7154 -36.7095
   -36.6890 -36.6703 -36.6378 -36.6274 -36.6217 -36.6029 -36.5873 -36.5730
   -36.5213 -36.5096 -36.4987 -36.4922 -36.4717 -36.4363 -36.3513 -36.3403
    -6.6960  -3.5524  -2.6053  -2.5873  -2.4786  -2.3054  -2.2326  -2.2246
    -2.1722  -2.0753  -2.0485  -1.9713  -1.8820  -1.5561  -1.5511  -1.3053
    -1.0446  -0.9875  -0.7308  -0.3220  -0.2650  -0.0465  -0.0011   0.0817
     0.1986   0.2282   0.4999   0.5730   0.7082   0.7745   0.8026   0.9162
     0.9603   1.1025   1.1567   1.2477   1.4074   1.6047   1.7251   1.7360
     1.8829   2.0682   2.1278   2.2602   2.3069   2.3797   2.4271   2.5343
     2.7115   2.9152   3.2512   3.3614   3.4703   3.4735

          k = 0.0608-0.0351 0.0000 ( 16149 PWs)   bands (ev):

   -65.0584 -64.9725 -64.9263 -64.9077 -64.8110 -64.7921 -64.7453 -64.7350
   -64.7143 -64.7132 -64.7111 -64.6769 -37.4174 -37.3934 -37.3433 -37.3106
   -37.2696 -37.2336 -37.2303 -37.0976 -37.0860 -36.9995 -36.9831 -36.9642
   -36.9573 -36.9003 -36.8391 -36.8133 -36.8012 -36.7350 -36.7113 -36.7078
   -36.7058 -36.6799 -36.6764 -36.6197 -36.6195 -36.6115 -36.6063 -36.5882
   -36.5685 -36.5640 -36.5252 -36.4702 -36.4700 -36.4421 -36.3627 -36.3442
    -6.6899  -3.3672  -2.6308  -2.3841  -2.3420  -2.2772  -2.1940  -2.0002
    -1.9550  -1.9350  -1.8946  -1.8388  -1.8124  -1.5885  -1.2100  -1.1831
    -0.9695  -0.8998  -0.7044  -0.5069  -0.3039  -0.0964  -0.0494   0.0348
     0.2106   0.2937   0.3138   0.5519   0.6383   0.6729   0.7645   0.9146
     1.0068   1.1063   1.2118   1.3196   1.3653   1.3874   1.5313   1.7370
     1.8718   1.8874   1.9137   2.0129   2.0902   2.1464   2.4087   2.4808
     2.5927   2.9478   3.0805   3.1702   3.2258   3.3059

          k = 0.0608 0.0000 0.0000 ( 16202 PWs)   bands (ev):

   -65.0652 -64.9668 -64.9274 -64.9053 -64.8185 -64.7984 -64.7313 -64.7278
   -64.7254 -64.7163 -64.7055 -64.6756 -37.4462 -37.3911 -37.3767 -37.3582
   -37.2810 -37.2460 -37.2420 -37.1318 -37.0650 -37.0624 -36.9893 -36.9573
   -36.9168 -36.9116 -36.8444 -36.7985 -36.7816 -36.7769 -36.7154 -36.7094
   -36.6891 -36.6703 -36.6379 -36.6273 -36.6218 -36.6028 -36.5874 -36.5729
   -36.5212 -36.5097 -36.4987 -36.4924 -36.4716 -36.4363 -36.3512 -36.3402
    -6.6960  -3.5524  -2.6053  -2.5872  -2.4786  -2.3054  -2.2326  -2.2246
    -2.1721  -2.0754  -2.0485  -1.9713  -1.8820  -1.5560  -1.5511  -1.3052
    -1.0446  -0.9875  -0.7309  -0.3220  -0.2651  -0.0465  -0.0011   0.0817
     0.1986   0.2282   0.4998   0.5731   0.7083   0.7744   0.8026   0.9162
     0.9604   1.1025   1.1568   1.2476   1.4074   1.6047   1.7252   1.7360
     1.8829   2.0682   2.1278   2.2602   2.3069   2.3796   2.4271   2.5343
     2.7116   2.9152   3.2514   3.3614   3.4704   3.4735

          k = 0.0608 0.0351 0.0000 ( 16149 PWs)   bands (ev):

   -65.0584 -64.9725 -64.9263 -64.9077 -64.8110 -64.7920 -64.7454 -64.7353
   -64.7139 -64.7135 -64.7107 -64.6771 -37.4173 -37.3935 -37.3433 -37.3106
   -37.2696 -37.2335 -37.2304 -37.0974 -37.0862 -36.9995 -36.9831 -36.9643
   -36.9572 -36.9002 -36.8391 -36.8132 -36.8013 -36.7349 -36.7116 -36.7075
   -36.7058 -36.6802 -36.6761 -36.6197 -36.6194 -36.6115 -36.6063 -36.5884
   -36.5686 -36.5638 -36.5252 -36.4702 -36.4699 -36.4421 -36.3627 -36.3443
    -6.6899  -3.3672  -2.6308  -2.3842  -2.3419  -2.2771  -2.1941  -2.0003
    -1.9551  -1.9350  -1.8946  -1.8389  -1.8124  -1.5885  -1.2102  -1.1830
    -0.9696  -0.8997  -0.7043  -0.5069  -0.3039  -0.0964  -0.0493   0.0347
     0.2106   0.2936   0.3140   0.5519   0.6384   0.6729   0.7645   0.9146
     1.0069   1.1062   1.2119   1.3196   1.3653   1.3874   1.5312   1.7370
     1.8718   1.8874   1.9137   2.0128   2.0904   2.1463   2.4084   2.4807
     2.5929   2.9477   3.0806   3.1701   3.2259   3.3058

          k = 0.0608-0.1404 0.0000 ( 16203 PWs)   bands (ev):

   -65.0432 -64.9773 -64.9424 -64.9026 -64.7906 -64.7751 -64.7571 -64.7460
   -64.7328 -64.7202 -64.7013 -64.6760 -37.3619 -37.3046 -37.2986 -37.2541
   -37.2215 -37.2103 -37.1917 -37.1195 -37.0381 -37.0266 -36.9846 -36.9603
   -36.8897 -36.8826 -36.8596 -36.8262 -36.7804 -36.7679 -36.7366 -36.7218
   -36.7178 -36.7063 -36.7031 -36.6796 -36.6637 -36.6490 -36.6280 -36.6181
   -36.5743 -36.5578 -36.5282 -36.5124 -36.4663 -36.4478 -36.4035 -36.3882
    -6.6782  -2.8534  -2.4019  -2.0886  -2.0369  -1.9919  -1.8803  -1.8229
    -1.6464  -1.6038  -1.5607  -1.5244  -1.2895  -1.2260  -1.1536  -0.9817
    -0.8783  -0.7607  -0.6550  -0.5545  -0.4017  -0.3344  -0.2765  -0.1494
     0.0267   0.0832   0.1960   0.3967   0.4817   0.5000   0.5979   0.6745
     0.7297   0.7983   0.9227   1.0187   1.1425   1.2416   1.3480   1.4385
     1.5197   1.6004   1.7859   1.9603   2.0684   2.1347   2.2445   2.3497
     2.4985   2.6332   2.8113   2.8663   3.1072   3.1753

[...]
   -64.7792 -64.7707 -64.7517 -64.5544 -37.5537 -37.5341 -37.4801 -37.4264
   -37.3553 -37.3452 -37.3224 -37.1719 -37.1353 -37.0821 -37.0540 -37.0483
   -37.0156 -36.9363 -36.8790 -36.8732 -36.8497 -36.8465 -36.7995 -36.7942
   -36.7657 -36.7395 -36.7353 -36.7233 -36.6942 -36.6621 -36.6483 -36.6151
   -36.5978 -36.5975 -36.5496 -36.5428 -36.4702 -36.4404 -36.4388 -36.3299
    -6.4738  -3.4760  -2.7963  -2.5523  -2.4578  -2.4089  -2.3029  -2.1405
    -2.1159  -2.0519  -2.0046  -1.9228  -1.8728  -1.6089  -1.3347  -1.2012
    -0.9401  -0.9144  -0.7642  -0.6315  -0.4741  -0.2346  -0.1564  -0.0717
     0.1685   0.1784   0.2805   0.4610   0.5551   0.5839   0.7183   0.8373
     0.8919   0.9470   1.0420   1.1843   1.2547   1.2979   1.4442   1.6901
     1.7639   1.7846   1.8332   1.9646   1.9835   2.0377   2.2625   2.4602
     2.4922   2.9740   2.9984   3.1664   3.1974   3.2218

          k = 0.0608 0.0000 0.0000 ( 16202 PWs)   bands (ev):

   -65.1634 -65.0636 -65.0383 -65.0150 -64.8997 -64.8291 -64.8201 -64.8092
   -64.7772 -64.7659 -64.7523 -64.5538 -37.5826 -37.5311 -37.5261 -37.4585
   -37.3682 -37.3485 -37.3381 -37.1945 -37.1207 -37.1180 -37.0684 -37.0169
   -36.9809 -36.9497 -36.8915 -36.8810 -36.8670 -36.8466 -36.8006 -36.7764
   -36.7683 -36.7416 -36.7228 -36.7121 -36.6588 -36.6444 -36.6230 -36.6093
   -36.5888 -36.5766 -36.5462 -36.5151 -36.5025 -36.4312 -36.4054 -36.3271
    -6.4796  -3.6625  -2.7904  -2.7387  -2.6095  -2.4383  -2.3876  -2.3237
    -2.2824  -2.1934  -2.1585  -2.0098  -1.9853  -1.6125  -1.5606  -1.3532
    -1.0196  -0.9502  -0.8061  -0.5304  -0.3211  -0.2056  -0.1158  -0.0109
     0.1795   0.1888   0.3638   0.4340   0.5911   0.6630   0.7882   0.8071
     0.8418   0.9426   1.0434   1.1804   1.3257   1.5022   1.6468   1.6992
     1.8346   1.8811   1.9891   2.1450   2.2147   2.2690   2.3664   2.4266
     2.6834   2.8966   3.1769   3.2725   3.4002   3.4909

          k = 0.0608 0.0351 0.0000 ( 16149 PWs)   bands (ev):

   -65.1553 -65.0736 -65.0330 -65.0188 -64.8926 -64.8307 -64.8232 -64.8047
   -64.7792 -64.7708 -64.7516 -64.5544 -37.5537 -37.5340 -37.4801 -37.4264
   -37.3553 -37.3452 -37.3223 -37.1719 -37.1353 -37.0821 -37.0541 -37.0484
   -37.0156 -36.9363 -36.8790 -36.8731 -36.8497 -36.8465 -36.7995 -36.7943
   -36.7657 -36.7396 -36.7353 -36.7233 -36.6941 -36.6621 -36.6483 -36.6151
   -36.5978 -36.5975 -36.5496 -36.5428 -36.4701 -36.4404 -36.4388 -36.3299
    -6.4738  -3.4760  -2.7963  -2.5523  -2.4578  -2.4090  -2.3029  -2.1405
    -2.1159  -2.0519  -2.0046  -1.9228  -1.8729  -1.6089  -1.3348  -1.2012
    -0.9401  -0.9144  -0.7642  -0.6315  -0.4741  -0.2347  -0.1564  -0.0717
     0.1684   0.1784   0.2805   0.4610   0.5551   0.5840   0.7183   0.8374
     0.8918   0.9470   1.0420   1.1843   1.2547   1.2979   1.4442   1.6901
     1.7639   1.7846   1.8332   1.9646   1.9834   2.0378   2.2626   2.4602
     2.4922   2.9740   2.9984   3.1663   3.1974   3.2218

          k = 0.0608-0.1404 0.0000 ( 16203 PWs)   bands (ev):

   -65.1351 -65.0842 -65.0511 -65.0110 -64.8737 -64.8415 -64.8159 -64.8098
   -64.7818 -64.7756 -64.7533 -64.5556 -37.4986 -37.4524 -37.4277 -37.3638
   -37.3406 -37.3103 -37.2915 -37.2287 -37.1336 -37.0942 -37.0533 -37.0076
   -36.9639 -36.9307 -36.9033 -36.8602 -36.8518 -36.8364 -36.8195 -36.8034
   -36.7890 -36.7768 -36.7533 -36.7480 -36.7173 -36.7025 -36.6792 -36.6557
   -36.6146 -36.5883 -36.5535 -36.5376 -36.5015 -36.4825 -36.4509 -36.3626
    -6.4627  -2.9592  -2.5356  -2.2517  -2.1778  -2.1430  -2.0064  -1.9413
    -1.8222  -1.7304  -1.7138  -1.5878  -1.4570  -1.3448  -1.1849  -1.0597
    -1.0066  -0.7846  -0.7527  -0.6396  -0.4599  -0.4311  -0.3485  -0.2300
    -0.0531   0.0303   0.1086   0.2719   0.3395   0.4348   0.4998   0.5462
     0.6720   0.7405   0.9043   0.9389   1.0291   1.0935   1.2222   1.3309
     1.3494   1.4893   1.7884   1.8822   1.9648   2.0542   2.2167   2.3018
     2.4749   2.5871   2.7810   2.8754   3.0638   3.1983

          k = 0.0608-0.1053 0.0000 ( 16272 PWs)   bands (ev):

   -65.1210 -65.0808 -65.0735 -65.0064 -64.8525 -64.8512 -64.8296 -64.7964
   -64.7929 -64.7733 -64.7552 -64.5562 -37.4106 -37.4097 -37.3966 -37.3671
   -37.3387 -37.2856 -37.2682 -37.2606 -37.2305 -37.0040 -37.0037 -36.9784
   -36.9500 -36.9439 -36.9349 -36.9248 -36.8677 -36.8451 -36.8438 -36.7917
   -36.7887 -36.7790 -36.7511 -36.7509 -36.7274 -36.7222 -36.7215 -36.6331
   -36.6003 -36.5878 -36.5566 -36.5420 -36.5349 -36.5144 -36.4201 -36.4158
    -6.4573  -2.3483  -2.3311  -2.3162  -1.9463  -1.7784  -1.7759  -1.7501
    -1.7253  -1.5276  -1.5237  -1.5035  -1.3316  -1.2949  -1.2461  -1.1875
    -0.8516  -0.7819  -0.5832  -0.5668  -0.5019  -0.3677  -0.3370  -0.3007
    -0.1759  -0.1619  -0.0495  -0.0350   0.0247   0.0527   0.1309   0.3802
     0.4539   0.4733   0.6490   0.6719   0.9879   1.0680   1.2129   1.2132
     1.2283   1.5730   1.5949   1.7817   2.0066   2.0171   2.3172   2.4029
     2.6669   2.6692   2.7979   2.8155   3.1325   3.5496

          k = 0.0608-0.0702 0.0000 ( 16203 PWs)   bands (ev):

   -65.1351 -65.0842 -65.0511 -65.0110 -64.8737 -64.8416 -64.8158 -64.8099
   -64.7817 -64.7756 -64.7534 -64.5556 -37.4987 -37.4524 -37.4277 -37.3638
   -37.3406 -37.3103 -37.2915 -37.2287 -37.1336 -37.0942 -37.0534 -37.0075
   -36.9639 -36.9308 -36.9033 -36.8602 -36.8518 -36.8364 -36.8195 -36.8034
   -36.7890 -36.7768 -36.7533 -36.7480 -36.7173 -36.7025 -36.6792 -36.6557
   -36.6146 -36.5883 -36.5535 -36.5376 -36.5016 -36.4826 -36.4510 -36.3626
    -6.4627  -2.9592  -2.5356  -2.2517  -2.1778  -2.1430  -2.0064  -1.9413
    -1.8222  -1.7303  -1.7138  -1.5878  -1.4570  -1.3448  -1.1848  -1.0597
    -1.0066  -0.7846  -0.7527  -0.6395  -0.4599  -0.4311  -0.3484  -0.2300
    -0.0531   0.0304   0.1085   0.2719   0.3395   0.4348   0.4999   0.5461
     0.6720   0.7404   0.9042   0.9389   1.0291   1.0935   1.2222   1.3309
     1.3494   1.4893   1.7884   1.8822   1.9648   2.0542   2.2167   2.3018
     2.4749   2.5871   2.7810   2.8754   3.0638   3.1983

          k =-0.0912 0.0526 0.0000 ( 16164 PWs)   bands (ev):

   -65.1312 -65.0963 -65.0350 -65.0189 -64.8676 -64.8544 -64.8092 -64.8046
   -64.7851 -64.7790 -64.7517 -64.5557 -37.5004 -37.4752 -37.4315 -37.3537
   -37.3476 -37.2908 -37.2448 -37.2174 -37.1575 -37.1146 -37.1063 -37.0450
   -36.8957 -36.8641 -36.8593 -36.8443 -36.8404 -36.8351 -36.8145 -36.8119
   -36.8071 -36.7876 -36.7650 -36.7592 -36.7458 -36.7366 -36.7091 -36.6732
   -36.6034 -36.5893 -36.5756 -36.5012 -36.4986 -36.4852 -36.4500 -36.3479
    -6.4626  -2.8513  -2.8162  -2.2738  -2.2063  -2.1211  -2.0470  -1.9112
    -1.8847  -1.6691  -1.6523  -1.5391  -1.4255  -1.2687  -1.2273  -1.1790
    -0.9915  -0.8335  -0.6679  -0.5795  -0.4528  -0.3651  -0.3072  -0.2739
    -0.0065   0.0257   0.3132   0.3791   0.4029   0.5868   0.6344   0.7533
     0.7729   0.8514   0.8612   0.9015   0.9173   1.0635   1.0705   1.1010
     1.1691   1.5670   1.8097   1.8989   1.9745   2.1411   2.1533   2.3448
     2.4243   2.5980   2.7114   2.7641   2.8010   2.8541

          k =-0.0912 0.0877 0.0000 ( 16203 PWs)   bands (ev):

   -65.1351 -65.0842 -65.0511 -65.0110 -64.8737 -64.8416 -64.8158 -64.8099
   -64.7818 -64.7756 -64.7533 -64.5556 -37.4987 -37.4524 -37.4278 -37.3638
   -37.3406 -37.3103 -37.2915 -37.2287 -37.1336 -37.0942 -37.0534 -37.0076
   -36.9639 -36.9307 -36.9033 -36.8602 -36.8518 -36.8364 -36.8195 -36.8034
   -36.7890 -36.7768 -36.7533 -36.7480 -36.7173 -36.7025 -36.6792 -36.6557
   -36.6146 -36.5883 -36.5534 -36.5376 -36.5015 -36.4826 -36.4510 -36.3626
    -6.4627  -2.9592  -2.5356  -2.2517  -2.1778  -2.1430  -2.0064  -1.9413
    -1.8222  -1.7303  -1.7138  -1.5878  -1.4570  -1.3448  -1.1849  -1.0597
    -1.0066  -0.7846  -0.7527  -0.6395  -0.4600  -0.4311  -0.3484  -0.2300
    -0.0531   0.0304   0.1085   0.2719   0.3395   0.4348   0.4999   0.5461
     0.6720   0.7404   0.9042   0.9389   1.0291   1.0935   1.2222   1.3309
     1.3494   1.4893   1.7884   1.8822   1.9648   2.0542   2.2167   2.3018
     2.4749   2.5871   2.7810   2.8755   3.0638   3.1982

          k =-0.0912 0.1228 0.0000 ( 16203 PWs)   bands (ev):

   -65.1351 -65.0842 -65.0511 -65.0110 -64.8737 -64.8415 -64.8158 -64.8098
   -64.7818 -64.7756 -64.7533 -64.5556 -37.4987 -37.4524 -37.4278 -37.3638
   -37.3406 -37.3103 -37.2915 -37.2287 -37.1336 -37.0942 -37.0533 -37.0076
   -36.9639 -36.9308 -36.9033 -36.8602 -36.8518 -36.8364 -36.8195 -36.8034
   -36.7890 -36.7768 -36.7533 -36.7480 -36.7173 -36.7025 -36.6792 -36.6557
   -36.6146 -36.5883 -36.5535 -36.5376 -36.5015 -36.4825 -36.4509 -36.3626
    -6.4627  -2.9592  -2.5356  -2.2517  -2.1778  -2.1430  -2.0064  -1.9413
    -1.8222  -1.7303  -1.7138  -1.5879  -1.4570  -1.3448  -1.1849  -1.0597
    -1.0066  -0.7846  -0.7527  -0.6395  -0.4600  -0.4311  -0.3484  -0.2300
    -0.0530   0.0303   0.1086   0.2719   0.3395   0.4348   0.4999   0.5462
     0.6720   0.7404   0.9042   0.9389   1.0291   1.0935   1.2222   1.3309
     1.3493   1.4893   1.7884   1.8823   1.9648   2.0542   2.2166   2.3018
     2.4748   2.5871   2.7810   2.8755   3.0638   3.1982

          k =-0.0912-0.0526 0.0000 ( 16164 PWs)   bands (ev):

   -65.1312 -65.0963 -65.0350 -65.0189 -64.8677 -64.8543 -64.8091 -64.8047
   -64.7852 -64.7789 -64.7516 -64.5557 -37.5004 -37.4751 -37.4315 -37.3537
   -37.3476 -37.2907 -37.2447 -37.2174 -37.1575 -37.1146 -37.1063 -37.0450
   -36.8957 -36.8642 -36.8593 -36.8443 -36.8404 -36.8350 -36.8146 -36.8119
   -36.8071 -36.7876 -36.7650 -36.7592 -36.7458 -36.7366 -36.7091 -36.6732
   -36.6033 -36.5893 -36.5756 -36.5013 -36.4985 -36.4851 -36.4500 -36.3479
    -6.4626  -2.8513  -2.8162  -2.2739  -2.2064  -2.1211  -2.0470  -1.9112
    -1.8847  -1.6691  -1.6522  -1.5392  -1.4255  -1.2688  -1.2274  -1.1790
    -0.9914  -0.8335  -0.6677  -0.5796  -0.4528  -0.3651  -0.3073  -0.2739
    -0.0066   0.0257   0.3133   0.3790   0.4028   0.5868   0.6345   0.7533
     0.7729   0.8514   0.8612   0.9018   0.9173   1.0634   1.0704   1.1009
     1.1692   1.5670   1.8097   1.8989   1.9746   2.1412   2.1532   2.3447
     2.4243   2.5981   2.7114   2.7641   2.8010   2.8540

     the Fermi energy is     2.0938 ev

!    total energy              =   -2114.74710990 Ry
     Harris-Foulkes estimate   =   -2114.74710818 Ry
     estimated scf accuracy    <       0.00000005 Ry

     The total energy is the sum of the following terms:

     one-electron contribution =  -18933.88608651 Ry
     hartree contribution      =    9465.53699547 Ry
     xc contribution           =    -400.67233270 Ry
     ewald contribution        =    7754.36382670 Ry
     electric field correction =       0.00025619 Ry
     smearing contrib. (-TS)   =      -0.08976904 Ry

     convergence has been achieved in  15 iterations
 
 BEEF-vdW xc energy contributions
           1 :   -351.018608046977     
           2 :    322.741047164067     
           3 :   -272.483993671068     
           4 :    210.336625634458     
           5 :   -147.011452824995     
           6 :    90.9249313337778     
           7 :   -46.5983076499855     
           8 :    14.5557742440674     
           9 :    7.45599311294103     
          10 :   -22.6797290212652     
          11 :    33.7047560468037     
          12 :   -41.5972603704846     
          13 :    45.9385140994984     
          14 :   -45.5961492795263     
          15 :    39.7448583041093     
          16 :   -28.6785143738969     
          17 :    14.0627239265372     
          18 :    1.42939438626712     
          19 :   -14.9202637870158     
          20 :    24.1857898831019     
          21 :   -28.2226476858701     
          22 :    27.3200711441849     
          23 :   -22.6874270613229     
          24 :    15.8531925575176     
          25 :   -8.13258526260842     
          26 :   0.370292387840834     
          27 :    6.99730064588647     
          28 :   -13.6865307855147     
          29 :    19.3054668988597     
          30 :   -23.2542256391415     
          31 :   -33.4702091293065     
          32 :   -24.5689206622329     

     Forces acting on atoms (Ry/au):


     negative rho (up, down):  1.590E+00 0.000E+00
     atom    1 type  1   force =    -0.00084434   -0.00048827    0.02217548
     atom    2 type  1   force =     0.00084404   -0.00048796    0.02218044
     atom    3 type  1   force =     0.00000004    0.00097509    0.02217661
     atom    4 type  1   force =    -0.00000013    0.00000097    0.03725063
     atom    5 type  1   force =    -0.00001467    0.01872993   -0.02614957
     atom    6 type  1   force =     0.00001606   -0.00000726   -0.02294245
     atom    7 type  1   force =    -0.01622738   -0.00935393   -0.02614885
     atom    8 type  1   force =     0.01622770   -0.00937115   -0.02612934
     atom    9 type  1   force =    -0.00000103    0.00000105    0.00044713
     atom   10 type  1   force =     0.00000135    0.00011575   -0.00079838
     atom   11 type  1   force =     0.00010005   -0.00005610   -0.00073626
     atom   12 type  1   force =    -0.00010146   -0.00005875   -0.00077890
     atom   13 type  2   force =    -0.00000023    0.00000063   -0.00054653

     Total force =     0.001525     Total SCF correction =     0.000519
     SCF correction compared to forces is large: reduce conv_thr to get better values


     entering subroutine stress ...


     negative rho (up, down):  1.590E+00 0.000E+00
          total   stress  (Ry/bohr**3)                   (kbar)     P=  -22.26
  -0.00016626  -0.00000000  -0.00000000        -24.46     -0.00     -0.00
  -0.00000000  -0.00016626   0.00000000         -0.00    -24.46      0.00
  -0.00000000   0.00000000  -0.00012136         -0.00      0.00    -17.85


     bfgs converged in  13 scf cycles and  12 bfgs steps
     (criteria: energy <  1.0E+00, force <  1.9E-03)

     End of BFGS Geometry Optimization

     Final energy   =   -2114.7471098962 Ry
Begin final coordinates

ATOMIC_POSITIONS (crystal)
Tc1      0.166666667   0.166666667   0.408540475    0   0   0
Tc1      0.666666667   0.166666667   0.408540475    0   0   0
Tc1      0.166666667   0.666666667   0.408540475    0   0   0
Tc1      0.666666667   0.666666667   0.408540475    0   0   0
Tc1      0.833333333   0.333333333   0.500000000    0   0   0
Tc1      0.333333333   0.333333333   0.500000000    0   0   0
Tc1      0.833333333   0.833333333   0.500000000    0   0   0
Tc1      0.333333333   0.833333333   0.500000000    0   0   0
Tc1      0.000001309  -0.000001938   0.601419383
Tc1      0.500785139  -0.001571472   0.586215427
Tc1     -0.001572772   0.500785532   0.586207732
Tc1      0.500786012   0.500786598   0.586212661
C1       0.000003197  -0.000000646   0.671506874
End final coordinates



     Writing output data file calc.save
 
     init_run     :      9.64s CPU     10.00s WALL (       1 calls)
     electrons    :   4561.40s CPU   4943.73s WALL (      13 calls)
     update_pot   :     29.92s CPU     31.36s WALL (      12 calls)
     forces       :    171.01s CPU    185.20s WALL (      13 calls)
     stress       :    517.75s CPU    551.22s WALL (      13 calls)

     Called by init_run:
     wfcinit      :      4.03s CPU      4.11s WALL (       1 calls)
     potinit      :      1.67s CPU      1.86s WALL (       1 calls)

     Called by electrons:
     c_bands      :   2043.14s CPU   2179.00s WALL (     214 calls)
     sum_band     :    873.36s CPU    961.90s WALL (     214 calls)
     v_of_rho     :    294.07s CPU    318.23s WALL (     227 calls)
     newd         :    711.80s CPU    721.94s WALL (     227 calls)
     mix_rho      :     10.61s CPU     10.95s WALL (     214 calls)
     vdW_energy   :    138.79s CPU    151.86s WALL (     695 calls)
     vdW_ffts     :    285.21s CPU    297.26s WALL (    1416 calls)
     vdW_v        :    115.59s CPU    119.57s WALL (     695 calls)

     Called by c_bands:
     init_us_2    :     10.02s CPU     10.08s WALL (    2275 calls)
     cegterg      :   1829.96s CPU   1878.55s WALL (    1070 calls)

     Called by *egterg:
     h_psi        :   1041.89s CPU   1068.71s WALL (    5572 calls)
     s_psi        :    115.56s CPU    115.89s WALL (    5572 calls)
     g_psi        :      7.77s CPU      7.80s WALL (    4497 calls)
     cdiaghg      :    255.21s CPU    257.05s WALL (    5507 calls)

     Called by h_psi:
     add_vuspsi   :    119.02s CPU    119.41s WALL (    5572 calls)

     General routines
     calbec       :    178.98s CPU    181.40s WALL (    6772 calls)
     fft          :    427.53s CPU    453.03s WALL (   42333 calls)
     ffts         :      0.64s CPU      0.68s WALL (     441 calls)
     fftw         :    608.26s CPU    636.48s WALL (  670018 calls)
     interpolate  :      5.79s CPU      5.94s WALL (     441 calls)
     davcio       :      0.00s CPU      0.03s WALL (       5 calls)
 
     Parallel routines
     fft_scatter  :    594.29s CPU    644.47s WALL (  712792 calls)
 
     PWSCF        :     1h28m CPU        1h36m WALL

 
   This run was terminated on:  17:33:46   2May2018            

=------------------------------------------------------------------------------=
   JOB DONE.
=------------------------------------------------------------------------------=
Job  /afs/slac/g/suncat/bin/suncat-tsmpirun -x LD_LIBRARY_PATH -wdir /scratch/qe789865_edXHq pw.x -npool 4 -in pw.inp

TID   HOST_NAME   COMMAND_LINE            STATUS            TERMINATION_TIME
===== ========== ================  =======================  ===================
00000 suncat0188 pw.x -npool 4 -i  Done                     05/02/2018 17:33:46
00001 suncat0188 pw.x -npool 4 -i  Done                     05/02/2018 17:33:46
00002 suncat0188 pw.x -npool 4 -i  Done                     05/02/2018 17:33:46
00003 suncat0188 pw.x -npool 4 -i  Done                     05/02/2018 17:33:46
00004 suncat0188 pw.x -npool 4 -i  Done                     05/02/2018 17:33:46
00005 suncat0188 pw.x -npool 4 -i  Done                     05/02/2018 17:33:46
00006 suncat0188 pw.x -npool 4 -i  Done                     05/02/2018 17:33:46
00007 suncat0188 pw.x -npool 4 -i  Done                     05/02/2018 17:33:46
00008 suncat0147 pw.x -npool 4 -i  Done                     05/02/2018 17:33:46
00009 suncat0147 pw.x -npool 4 -i  Done                     05/02/2018 17:33:46
00010 suncat0147 pw.x -npool 4 -i  Done                     05/02/2018 17:33:46
00011 suncat0147 pw.x -npool 4 -i  Done                     05/02/2018 17:33:46
00012 suncat0147 pw.x -npool 4 -i  Done                     05/02/2018 17:33:46
00013 suncat0147 pw.x -npool 4 -i  Done                     05/02/2018 17:33:46
00014 suncat0147 pw.x -npool 4 -i  Done                     05/02/2018 17:33:46
00015 suncat0147 pw.x -npool 4 -i  Done                     05/02/2018 17:33:46
00016 suncat0135 pw.x -npool 4 -i  Done                     05/02/2018 17:33:46
00017 suncat0135 pw.x -npool 4 -i  Done                     05/02/2018 17:33:46
00018 suncat0135 pw.x -npool 4 -i  Done                     05/02/2018 17:33:46
00019 suncat0135 pw.x -npool 4 -i  Done                     05/02/2018 17:33:46
00020 suncat0135 pw.x -npool 4 -i  Done                     05/02/2018 17:33:46
00021 suncat0135 pw.x -npool 4 -i  Done                     05/02/2018 17:33:46
00022 suncat0135 pw.x -npool 4 -i  Done                     05/02/2018 17:33:46
00023 suncat0135 pw.x -npool 4 -i  Done                     05/02/2018 17:33:46
00024 suncat0282 pw.x -npool 4 -i  Done                     05/02/2018 17:33:46
00025 suncat0282 pw.x -npool 4 -i  Done                     05/02/2018 17:33:46
00026 suncat0282 pw.x -npool 4 -i  Done                     05/02/2018 17:33:46
00027 suncat0282 pw.x -npool 4 -i  Done                     05/02/2018 17:33:46
00028 suncat0282 pw.x -npool 4 -i  Done                     05/02/2018 17:33:46
00029 suncat0282 pw.x -npool 4 -i  Done                     05/02/2018 17:33:46
00030 suncat0282 pw.x -npool 4 -i  Done                     05/02/2018 17:33:46
00031 suncat0282 pw.x -npool 4 -i  Done                     05/02/2018 17:33:46
