  python dir          : /u/if/mamunm/src/espresso
  espresso dir        : /nfs/slac/g/suncatfs/sw/espv18/espresso-dynpy-beef/bin
  pseudo dir          : /u/if/mamunm/psp/gbrv1.5pbe
  ase-espresso py git : GITVERSION



     Program PWSCF v.5.1rc2 (svn rev. 11289) starts on  3May2018 at 14:28: 0 

     This program is part of the open-source Quantum ESPRESSO suite
     for quantum simulation of materials; please cite
         "P. Giannozzi et al., J. Phys.:Condens. Matter 21 395502 (2009);
          URL http://www.quantum-espresso.org", 
     in publications or presentations arising from this work. More details at
     http://www.quantum-espresso.org/quote

     Parallel version (MPI), running on    32 processors
     K-points division:     npool     =       4
     R & G space division:  proc/nbgrp/npool/nimage =       8
     Reading input from pw.inp
     Message from routine read_cards :
     DEPRECATED: no units specified in CELL_PARAMETERS card

     Current dimensions of program PWSCF are:
     Max number of different atomic species (ntypx) = 10
     Max number of k-points (npk) =  40000
     Max angular momentum in pseudopotentials (lmaxx) =  3
     Presently stress not available with electric field


     **************************************************************************
     Initializing libbeef V0.1.1 with the BEEF-vdW functional.
     Citation: Wellendorff et al., PRB 85, 235149 (2012).
     **************************************************************************


     IMPORTANT: XC functional enforced from input :
     Exchange-correlation      = BEEF-VDW ( 1  4 27 13 2)
     Any further DFT definition will be discarded
     Please, verify this is what you really want


     Subspace diagonalization in iterative solution of the eigenvalue problem:
     a serial algorithm will be used

 
     Parallelization info
     --------------------
     sticks:   dense  smooth     PW     G-vecs:    dense   smooth      PW
     Min         459     185     53                89541    22651    3500
     Max         460     186     56                89564    22694    3507
     Sum        3679    1483    433               716469   181389   28035
 


     bravais-lattice index     =            0
     lattice parameter (alat)  =       1.8897  a.u.
     unit-cell volume          =    6024.3322 (a.u.)^3
     number of atoms/cell      =           13
     number of atomic types    =            2
     number of electrons       =       149.00
     number of Kohn-Sham states=           84
     kinetic-energy cutoff     =      36.7493  Ry
     charge density cutoff     =     367.4932  Ry
     convergence threshold     =      1.0E-05
     mixing beta               =       0.3000
     number of iterations used =           10  plain     mixing
     Exchange-correlation      = BEEF-VDW ( 1  4 27 13 2)
     nstep                     =           50


     celldm(1)=   1.889726  celldm(2)=   0.000000  celldm(3)=   0.000000
     celldm(4)=   0.000000  celldm(5)=   0.000000  celldm(6)=   0.000000

     crystal axes: (cart. coord. in units of alat)
               a(1) = (   6.393197   0.000000   0.000000 )  
               a(2) = (   3.196599   5.536671   0.000000 )  
               a(3) = (   0.000000   0.000000  25.220024 )  

     reciprocal axes: (cart. coord. in units 2 pi/alat)
               b(1) = (  0.156416 -0.090307  0.000000 )  
               b(2) = (  0.000000  0.180614  0.000000 )  
               b(3) = (  0.000000  0.000000  0.039651 )  


     PseudoPot. # 1 for Hf read from file:
     /u/if/mamunm/psp/gbrv1.5pbe/Hf.UPF
     MD5 check sum: 8ee9378dfe14276e333edf04c5e4aa26
     Pseudo is Ultrasoft + core correction, Zval = 12.0
     Generated by new atomic code, or converted to UPF format
     Using radial grid of  921 points,  8 beta functions with: 
                l(1) =   0
                l(2) =   0
                l(3) =   0
                l(4) =   1
                l(5) =   1
                l(6) =   2
                l(7) =   2
                l(8) =   3
     Q(r) pseudized with  6 coefficients,  rinner =    1.200   1.200   1.200
                                                       1.200   1.200   1.200
                                                       1.200

     PseudoPot. # 2 for N  read from file:
     /u/if/mamunm/psp/gbrv1.5pbe/N.UPF
     MD5 check sum: 95339753478d7afb44899504a8723017
     Pseudo is Ultrasoft + core correction, Zval =  5.0
     Generated by new atomic code, or converted to UPF format
     Using radial grid of  729 points,  4 beta functions with: 
                l(1) =   0
                l(2) =   0
                l(3) =   1
                l(4) =   1
     Q(r) pseudized with  8 coefficients,  rinner =    0.900   0.900   0.900


     vdW kernel table read from file vdW_kernel_table
     MD5 check sum: 095c7af220d748ca6e76c0b4c6cfb241

     atomic species   valence    mass     pseudopotential
        Hf1           12.00   178.49000     Hf( 1.00)
        N1             5.00    14.00700     N ( 1.00)

     No symmetry found



   Cartesian axes

     site n.     atom                  positions (alat units)
         1           Hf1 tau(   1) = (   1.5982993   0.9227785  10.0000000  )
         2           Hf1 tau(   2) = (   4.7948978   0.9227785  10.0000000  )
         3           Hf1 tau(   3) = (   3.1965986   3.6911141  10.0000000  )
         4           Hf1 tau(   4) = (   6.3931971   3.6911141  10.0000000  )
         5           Hf1 tau(   5) = (   6.3931971   1.8455570  12.6100118  )
         6           Hf1 tau(   6) = (   3.1965986   1.8455570  12.6100118  )
         7           Hf1 tau(   7) = (   7.9914964   4.6138926  12.6100118  )
         8           Hf1 tau(   8) = (   4.7948978   4.6138926  12.6100118  )
         9           Hf1 tau(   9) = (   0.0000000   0.0000000  15.2200236  )
        10           Hf1 tau(  10) = (   3.1965986   0.0000000  15.2200236  )
        11           Hf1 tau(  11) = (   1.5982993   2.7683356  15.2200236  )
        12           Hf1 tau(  12) = (   4.7948978   2.7683356  15.2200236  )
        13           N1  tau(  13) = (   0.0000000   0.0000000  17.3110236  )

     number of k points=    20  Fermi-Dirac smearing, width (Ry)=  0.0110
                       cart. coord. in units 2pi/alat
        k(    1) = (   0.0000000   0.0000000   0.0000000), wk =   0.0555556
        k(    2) = (   0.0000000   0.0301023   0.0000000), wk =   0.1111111
        k(    3) = (   0.0000000   0.0602046   0.0000000), wk =   0.1111111
        k(    4) = (   0.0000000  -0.0903070   0.0000000), wk =   0.0555556
        k(    5) = (   0.0260694  -0.0150512   0.0000000), wk =   0.1111111
        k(    6) = (   0.0260694   0.0150512   0.0000000), wk =   0.1111111
        k(    7) = (   0.0260694   0.0451535   0.0000000), wk =   0.1111111
        k(    8) = (   0.0260694  -0.1053581   0.0000000), wk =   0.1111111
        k(    9) = (   0.0260694  -0.0752558   0.0000000), wk =   0.1111111
        k(   10) = (   0.0260694  -0.0451535   0.0000000), wk =   0.1111111
        k(   11) = (   0.0521388  -0.0301023   0.0000000), wk =   0.1111111
        k(   12) = (   0.0521388   0.0000000   0.0000000), wk =   0.1111111
        k(   13) = (   0.0521388   0.0301023   0.0000000), wk =   0.1111111
        k(   14) = (   0.0521388  -0.1204093   0.0000000), wk =   0.1111111
        k(   15) = (   0.0521388  -0.0903070   0.0000000), wk =   0.1111111
        k(   16) = (   0.0521388  -0.0602046   0.0000000), wk =   0.1111111
        k(   17) = (  -0.0782081   0.0451535   0.0000000), wk =   0.0555556
        k(   18) = (  -0.0782081   0.0752558   0.0000000), wk =   0.1111111
        k(   19) = (  -0.0782081   0.1053581   0.0000000), wk =   0.1111111
        k(   20) = (  -0.0782081  -0.0451535   0.0000000), wk =   0.0555556

     Dense  grid:   716469 G-vectors     FFT dimensions: (  75,  75, 300)

     Smooth grid:   181389 G-vectors     FFT dimensions: (  48,  48, 192)

     Largest allocated arrays     est. size (Mb)     dimensions
        Kohn-Sham Wavefunctions         3.69 Mb     (    2881,   84)
        NL pseudopotentials            14.07 Mb     (    2881,  320)
        Each V/rho on FFT grid          3.26 Mb     (  213750)
        Each G-vector array             0.68 Mb     (   89541)
        G-vector shells                 0.18 Mb     (   23330)
     Largest temporary arrays     est. size (Mb)     dimensions
        Auxiliary wavefunctions        14.77 Mb     (    2881,  336)
        Each subspace H/S matrix        1.72 Mb     (     336,  336)
        Each <psi_i|beta_j> matrix      0.41 Mb     (     320,   84)
        Arrays for rho mixing          32.62 Mb     (  213750,   10)

     Check: negative/imaginary core charge=   -0.000003    0.000000

     Initial potential from superposition of free atoms
     Check: negative starting charge=   -1.301358

     starting charge  124.99997, renormalised to  149.00000

     negative rho (up, down):  1.551E+00 0.000E+00


     ************************************************************************
     *
     * You are using vdW-DF for exchange-correlation in this calculation.
     * Please cite the following three references that made this development
     * possible:
     *
     *   M. Dion, H. Rydberg, E. Schroder, D. C. Langreth, and
     *   B. I. Lundqvist, Phys. Rev. Lett. 92, 246401 (2004).
     *
     *   T. Thonhauser, V. R. Cooper, S. Li, A. Puzder, P. Hyldgaard, and
     *   D. C. Langreth, Phys. Rev. B 76, 125112 (2007).
     *
     *   G. Roman-Perez and J. M. Soler, Phys. Rev. Lett. 103, 096102 (2009).
     *
     *
     * If you are using vdW-DF2, please also cite:
     *
     *   K. Lee, E. D. Murray, L. Kong, B. I. Lundqvist, and
     *   D. C. Langreth, Phys. Rev. B 82, 081101(R) (2010).
     *
     *
     * If you are calculating the stress with vdW-DF, please also cite:
     *
     *   R. Sabatini, E. Kucukbenli, B. Kolb, T. Thonhauser, and
     *   S. de Gironcoli, J. Phys.: Condens. Matter 24, 424209 (2012).
     *
     ************************************************************************

     Carrying out vdW-DF run using the following parameters:

     Nqs =      20    Nr_points =    1024   r_max =   100.000
     q_mesh =
               0.00001000     0.04494208     0.09755937     0.15916263
               0.23128650     0.31572767     0.41458969     0.53033537
               0.66584808     0.82450364     1.01025438     1.22772762
               1.48234092     1.78043706     2.12944203     2.53805004
               3.01644009     3.57652955     4.23227104     5.00000000

     Gradients computed in reciprocal space

     ************************************************************************


 
     Adding external electric field

     Computed dipole along edir(3) : 
        Dipole               -8.5282 Ry au,        -21.6765 Debye
        Dipole field         -0.0178 Ry au
 
        Potential amp.        1.6532 Ry
        Total length         46.4675 bohr
 
     Starting wfc are  160 randomized atomic wfcs

     total cpu time spent up to now is       21.1 secs

     per-process dynamical memory:   102.5 Mb

     Self-consistent Calculation

     iteration #  1     ecut=    36.75 Ry     beta=0.30
     Davidson diagonalization with overlap
     ethr =  1.00E-02,  avg # of iterations =  9.7

     negative rho (up, down):  1.437E+00 0.000E+00
 
     Adding external electric field

     Computed dipole along edir(3) : 
        Dipole              151.0116 Ry au,        383.8331 Debye
        Dipole field          0.3150 Ry au
 
        Potential amp.      -29.2745 Ry
        Total length         46.4675 bohr
 

     total cpu time spent up to now is       64.4 secs

     total energy              =   -1333.50471830 Ry
     Harris-Foulkes estimate   =   -1935.88580803 Ry
     estimated scf accuracy    <    1296.06399172 Ry

     iteration #  2     ecut=    36.75 Ry     beta=0.30
     Davidson diagonalization with overlap
     ethr =  1.00E-02,  avg # of iterations = 21.9

     negative rho (up, down):  1.383E+00 0.000E+00
 
     Adding external electric field

     Computed dipole along edir(3) : 
        Dipole               47.3292 Ry au,        120.2987 Debye
        Dipole field          0.0987 Ry au
 
        Potential amp.       -9.1751 Ry
        Total length         46.4675 bohr
 

     total cpu time spent up to now is      164.9 secs

     total energy              =   -1452.57624103 Ry
     Harris-Foulkes estimate   =   -3006.88760231 Ry
     estimated scf accuracy    <   14801.77020895 Ry

     iteration #  3     ecut=    36.75 Ry     beta=0.30
     Davidson diagonalization with overlap
     ethr =  1.00E-02,  avg # of iterations = 16.4

     negative rho (up, down):  1.334E+00 0.000E+00
 
     Adding external electric field

     Computed dipole along edir(3) : 
        Dipole               40.1655 Ry au,        102.0906 Debye
        Dipole field          0.0838 Ry au
 
        Potential amp.       -7.7863 Ry
        Total length         46.4675 bohr
 

     total cpu time spent up to now is      236.9 secs

     total energy              =   -1885.33297224 Ry
     Harris-Foulkes estimate   =   -2234.68433214 Ry
     estimated scf accuracy    <    2176.61039666 Ry

     iteration #  4     ecut=    36.75 Ry     beta=0.30
     Davidson diagonalization with overlap
     ethr =  1.00E-02,  avg # of iterations = 12.1

     negative rho (up, down):  1.331E+00 0.000E+00
 
     Adding external electric field

     Computed dipole along edir(3) : 
        Dipole               32.2441 Ry au,         81.9562 Debye
        Dipole field          0.0673 Ry au
 
        Potential amp.       -6.2507 Ry
        Total length         46.4675 bohr
 

     total cpu time spent up to now is      293.8 secs

     total energy              =   -1967.78448737 Ry
     Harris-Foulkes estimate   =   -2012.96803361 Ry
     estimated scf accuracy    <     184.61961914 Ry

     iteration #  5     ecut=    36.75 Ry     beta=0.30
     Davidson diagonalization with overlap
     ethr =  1.00E-02,  avg # of iterations =  9.6

     negative rho (up, down):  1.355E+00 0.000E+00
 
     Adding external electric field

     Computed dipole along edir(3) : 
        Dipole               28.4973 Ry au,         72.4329 Debye
        Dipole field          0.0594 Ry au
 
        Potential amp.       -5.5244 Ry
        Total length         46.4675 bohr
 

     total cpu time spent up to now is      336.9 secs

     total energy              =   -1954.61876321 Ry
     Harris-Foulkes estimate   =   -1990.63892540 Ry
     estimated scf accuracy    <     415.22435153 Ry

     iteration #  6     ecut=    36.75 Ry     beta=0.30
     Davidson diagonalization with overlap
     ethr =  1.00E-02,  avg # of iterations =  7.7

     negative rho (up, down):  1.361E+00 0.000E+00
 
     Adding external electric field

     Computed dipole along edir(3) : 
        Dipole               25.0526 Ry au,         63.6772 Debye
        Dipole field          0.0523 Ry au
 
        Potential amp.       -4.8566 Ry
        Total length         46.4675 bohr
 

     total cpu time spent up to now is      375.0 secs

     total energy              =   -1961.06091539 Ry
     Harris-Foulkes estimate   =   -1969.70985729 Ry
     estimated scf accuracy    <      82.97532905 Ry

     iteration #  7     ecut=    36.75 Ry     beta=0.30
     Davidson diagonalization with overlap
     ethr =  1.00E-02,  avg # of iterations =  3.2

     negative rho (up, down):  1.373E+00 0.000E+00
 
     Adding external electric field

     Computed dipole along edir(3) : 
        Dipole               20.6825 Ry au,         52.5698 Debye
        Dipole field          0.0431 Ry au
 
        Potential amp.       -4.0094 Ry
        Total length         46.4675 bohr
 

     total cpu time spent up to now is      405.9 secs

     total energy              =   -1955.41073741 Ry
     Harris-Foulkes estimate   =   -1962.63175961 Ry
     estimated scf accuracy    <      39.30877974 Ry

     iteration #  8     ecut=    36.75 Ry     beta=0.30
     Davidson diagonalization with overlap
     ethr =  1.00E-02,  avg # of iterations =  1.4

     negative rho (up, down):  1.388E+00 0.000E+00
 
     Adding external electric field

     Computed dipole along edir(3) : 
        Dipole               12.4607 Ry au,         31.6718 Debye
        Dipole field          0.0260 Ry au
 
        Potential amp.       -2.4156 Ry
        Total length         46.4675 bohr
 

     total cpu time spent up to now is      435.9 secs

     total energy              =   -1947.63711696 Ry
     Harris-Foulkes estimate   =   -1956.40684213 Ry
     estimated scf accuracy    <      24.44214743 Ry

     iteration #  9     ecut=    36.75 Ry     beta=0.30
     Davidson diagonalization with overlap
     ethr =  1.00E-02,  avg # of iterations =  4.4

     negative rho (up, down):  1.383E+00 0.000E+00
 
     Adding external electric field

     Computed dipole along edir(3) : 
        Dipole               13.1334 Ry au,         33.3818 Debye
        Dipole field          0.0274 Ry au
 
        Potential amp.       -2.5460 Ry
        Total length         46.4675 bohr
 

     total cpu time spent up to now is      469.3 secs

     total energy              =   -1949.89503460 Ry
     Harris-Foulkes estimate   =   -1949.67142439 Ry
     estimated scf accuracy    <       6.01660246 Ry

     iteration # 10     ecut=    36.75 Ry     beta=0.30
     Davidson diagonalization with overlap
     ethr =  4.04E-03,  avg # of iterations =  2.5

     negative rho (up, down):  1.623E+00 0.000E+00
 
     Adding external electric field

     Computed dipole along edir(3) : 
        Dipole                4.0025 Ry au,         10.1733 Debye
        Dipole field          0.0083 Ry au
 
        Potential amp.       -0.7759 Ry
        Total length         46.4675 bohr
 

     total cpu time spent up to now is      499.9 secs

     total energy              =   -1945.16938255 Ry
     Harris-Foulkes estimate   =   -1950.47100266 Ry
     estimated scf accuracy    <      11.25196530 Ry

     iteration # 11     ecut=    36.75 Ry     beta=0.30
     Davidson diagonalization with overlap
     ethr =  4.04E-03,  avg # of iterations =  4.7

     negative rho (up, down):  1.511E+00 0.000E+00
 
     Adding external electric field

     Computed dipole along edir(3) : 
        Dipole                4.9397 Ry au,         12.5553 Debye
        Dipole field          0.0103 Ry au
 
        Potential amp.       -0.9576 Ry
        Total length         46.4675 bohr
 

     total cpu time spent up to now is      535.7 secs

     total energy              =   -1948.03632755 Ry
     Harris-Foulkes estimate   =   -1953.77604391 Ry
     estimated scf accuracy    <     342.34434407 Ry

     iteration # 12     ecut=    36.75 Ry     beta=0.30
     Davidson diagonalization with overlap
     ethr =  4.04E-03,  avg # of iterations =  4.8

     negative rho (up, down):  1.689E+00 0.000E+00
 
     Adding external electric field

     Computed dipole along edir(3) : 
        Dipole               -0.9138 Ry au,         -2.3227 Debye
        Dipole field         -0.0019 Ry au
 
        Potential amp.        0.1771 Ry
        Total length         46.4675 bohr
 

     total cpu time spent up to now is      568.2 secs

     total energy              =   -1950.09141178 Ry
     Harris-Foulkes estimate   =   -1949.40489781 Ry
     estimated scf accuracy    <     131.20426429 Ry

     iteration # 13     ecut=    36.75 Ry     beta=0.30
     Davidson diagonalization with overlap
     ethr =  4.04E-03,  avg # of iterations =  9.7

     negative rho (up, down):  1.382E+00 0.000E+00
 
     Adding external electric field

     Computed dipole along edir(3) : 
        Dipole                7.1579 Ry au,         18.1937 Debye
        Dipole field          0.0149 Ry au
 
        Potential amp.       -1.3876 Ry
        Total length         46.4675 bohr
 

     total cpu time spent up to now is      611.1 secs

     total energy              =   -1914.97017120 Ry
     Harris-Foulkes estimate   =   -1955.09814956 Ry
     estimated scf accuracy    <     612.43401326 Ry

     iteration # 14     ecut=    36.75 Ry     beta=0.30
     Davidson diagonalization with overlap
     ethr =  4.04E-03,  avg # of iterations =  8.9

     negative rho (up, down):  1.383E+00 0.000E+00
 
     Adding external electric field

     Computed dipole along edir(3) : 
        Dipole                6.0818 Ry au,         15.4585 Debye
        Dipole field          0.0127 Ry au
 
        Potential amp.       -1.1790 Ry
        Total length         46.4675 bohr
 

     total cpu time spent up to now is      654.3 secs

     total energy              =   -1947.46587119 Ry
     Harris-Foulkes estimate   =   -1947.84723878 Ry
     estimated scf accuracy    <       5.23428891 Ry

     iteration # 15     ecut=    36.75 Ry     beta=0.30
     Davidson diagonalization with overlap
     ethr =  3.51E-03,  avg # of iterations =  2.5

     negative rho (up, down):  1.380E+00 0.000E+00
 
     Adding external electric field

     Computed dipole along edir(3) : 
        Dipole                4.9490 Ry au,         12.5792 Debye
        Dipole field          0.0103 Ry au
 
        Potential amp.       -0.9594 Ry
        Total length         46.4675 bohr
 

     total cpu time spent up to now is      686.0 secs

     total energy              =   -1947.27763948 Ry
     Harris-Foulkes estimate   =   -1947.69183587 Ry
     estimated scf accuracy    <       2.14996247 Ry

     iteration # 16     ecut=    36.75 Ry     beta=0.30
     Davidson diagonalization with overlap
     ethr =  1.44E-03,  avg # of iterations =  4.5

     negative rho (up, down):  1.381E+00 0.000E+00
 
     Adding external electric field

     Computed dipole along edir(3) : 
        Dipole                4.7606 Ry au,         12.1003 Debye
        Dipole field          0.0099 Ry au
 
        Potential amp.       -0.9229 Ry
        Total length         46.4675 bohr
 

     total cpu time spent up to now is      719.7 secs

     total energy              =   -1947.34792662 Ry
     Harris-Foulkes estimate   =   -1947.49529143 Ry
     estimated scf accuracy    <       7.53712878 Ry

     iteration # 17     ecut=    36.75 Ry     beta=0.30
     Davidson diagonalization with overlap
     ethr =  1.44E-03,  avg # of iterations =  1.0

     negative rho (up, down):  1.381E+00 0.000E+00
 
     Adding external electric field

     Computed dipole along edir(3) : 
        Dipole                3.9043 Ry au,          9.9237 Debye
        Dipole field          0.0081 Ry au
 
        Potential amp.       -0.7569 Ry
        Total length         46.4675 bohr
 

     total cpu time spent up to now is      750.9 secs

     total energy              =   -1947.24715312 Ry
     Harris-Foulkes estimate   =   -1947.47234816 Ry
     estimated scf accuracy    <       1.22515587 Ry

     iteration # 18     ecut=    36.75 Ry     beta=0.30
     Davidson diagonalization with overlap
     ethr =  8.22E-04,  avg # of iterations =  1.2

     negative rho (up, down):  1.380E+00 0.000E+00
 
     Adding external electric field

     Computed dipole along edir(3) : 
        Dipole                3.6283 Ry au,          9.2223 Debye
        Dipole field          0.0076 Ry au
 
        Potential amp.       -0.7034 Ry
        Total length         46.4675 bohr
 

     total cpu time spent up to now is      782.1 secs

     total energy              =   -1947.27482036 Ry
     Harris-Foulkes estimate   =   -1947.27407904 Ry
     estimated scf accuracy    <       1.19104839 Ry

     iteration # 19     ecut=    36.75 Ry     beta=0.30
     Davidson diagonalization with overlap
     ethr =  7.99E-04,  avg # of iterations =  1.0

     negative rho (up, down):  1.380E+00 0.000E+00
 
     Adding external electric field

     Computed dipole along edir(3) : 
        Dipole                3.6435 Ry au,          9.2607 Debye
        Dipole field          0.0076 Ry au
 
        Potential amp.       -0.7063 Ry
        Total length         46.4675 bohr
 

     total cpu time spent up to now is      813.8 secs

     total energy              =   -1947.28028940 Ry
     Harris-Foulkes estimate   =   -1947.28769943 Ry
     estimated scf accuracy    <       1.95231679 Ry

     iteration # 20     ecut=    36.75 Ry     beta=0.30
     Davidson diagonalization with overlap
     ethr =  7.99E-04,  avg # of iterations =  1.0

     negative rho (up, down):  1.380E+00 0.000E+00
 
     Adding external electric field

     Computed dipole along edir(3) : 
        Dipole                3.2332 Ry au,          8.2181 Debye
        Dipole field          0.0067 Ry au
 
        Potential amp.       -0.6268 Ry
        Total length         46.4675 bohr
 

     total cpu time spent up to now is      844.9 secs

     total energy              =   -1947.22264240 Ry
     Harris-Foulkes estimate   =   -1947.29250088 Ry
     estimated scf accuracy    <       1.53185047 Ry

     iteration # 21     ecut=    36.75 Ry     beta=0.30
     Davidson diagonalization with overlap
     ethr =  7.99E-04,  avg # of iterations =  1.0

     negative rho (up, down):  1.380E+00 0.000E+00
 
     Adding external electric field

     Computed dipole along edir(3) : 
        Dipole                2.8685 Ry au,          7.2910 Debye
        Dipole field          0.0060 Ry au
 
        Potential amp.       -0.5561 Ry
        Total length         46.4675 bohr
 

     total cpu time spent up to now is      875.9 secs

     total energy              =   -1947.16983862 Ry
     Harris-Foulkes estimate   =   -1947.23070899 Ry
     estimated scf accuracy    <       1.00100947 Ry

     iteration # 22     ecut=    36.75 Ry     beta=0.30
     Davidson diagonalization with overlap
     ethr =  6.72E-04,  avg # of iterations =  1.0

     negative rho (up, down):  1.380E+00 0.000E+00
 
     Adding external electric field

     Computed dipole along edir(3) : 
        Dipole                3.0280 Ry au,          7.6965 Debye
        Dipole field          0.0063 Ry au
 
        Potential amp.       -0.5870 Ry
        Total length         46.4675 bohr
 

     total cpu time spent up to now is      907.1 secs

     total energy              =   -1947.19595870 Ry
     Harris-Foulkes estimate   =   -1947.16928370 Ry
     estimated scf accuracy    <       0.91071883 Ry

     iteration # 23     ecut=    36.75 Ry     beta=0.30
     Davidson diagonalization with overlap
     ethr =  6.11E-04,  avg # of iterations =  1.0

     negative rho (up, down):  1.379E+00 0.000E+00
 
     Adding external electric field

     Computed dipole along edir(3) : 
        Dipole                3.0779 Ry au,          7.8232 Debye
        Dipole field          0.0064 Ry au
 
        Potential amp.       -0.5967 Ry
        Total length         46.4675 bohr
 

     total cpu time spent up to now is      938.5 secs

     total energy              =   -1947.17540865 Ry
     Harris-Foulkes estimate   =   -1947.19599603 Ry
     estimated scf accuracy    <       0.93464699 Ry

     iteration # 24     ecut=    36.75 Ry     beta=0.30
     Davidson diagonalization with overlap
     ethr =  6.11E-04,  avg # of iterations =  1.0

     negative rho (up, down):  1.390E+00 0.000E+00
 
     Adding external electric field

     Computed dipole along edir(3) : 
        Dipole               -1.5801 Ry au,         -4.0161 Debye
        Dipole field         -0.0033 Ry au
 
        Potential amp.        0.3063 Ry
        Total length         46.4675 bohr
 

     total cpu time spent up to now is      969.7 secs

     total energy              =   -1946.70735338 Ry
     Harris-Foulkes estimate   =   -1947.19136750 Ry
     estimated scf accuracy    <       1.05811784 Ry

     iteration # 25     ecut=    36.75 Ry     beta=0.30
     Davidson diagonalization with overlap
     ethr =  6.11E-04,  avg # of iterations =  4.6

     negative rho (up, down):  1.380E+00 0.000E+00
 
     Adding external electric field

     Computed dipole along edir(3) : 
        Dipole               -0.7438 Ry au,         -1.8905 Debye
        Dipole field         -0.0016 Ry au
 
        Potential amp.        0.1442 Ry
        Total length         46.4675 bohr
 

     total cpu time spent up to now is     1004.2 secs

     total energy              =   -1946.79405540 Ry
     Harris-Foulkes estimate   =   -1946.87461970 Ry
     estimated scf accuracy    <       1.25968196 Ry

     iteration # 26     ecut=    36.75 Ry     beta=0.30
     Davidson diagonalization with overlap
     ethr =  6.11E-04,  avg # of iterations =  2.1

     negative rho (up, down):  1.383E+00 0.000E+00
 
     Adding external electric field

     Computed dipole along edir(3) : 
        Dipole               -0.7071 Ry au,         -1.7972 Debye
        Dipole field         -0.0015 Ry au
 
        Potential amp.        0.1371 Ry
        Total length         46.4675 bohr
 

     total cpu time spent up to now is     1035.8 secs

     total energy              =   -1946.81007364 Ry
     Harris-Foulkes estimate   =   -1946.82094628 Ry
     estimated scf accuracy    <       0.10962594 Ry

     iteration # 27     ecut=    36.75 Ry     beta=0.30
     Davidson diagonalization with overlap
     ethr =  7.36E-05,  avg # of iterations =  4.5

     negative rho (up, down):  1.384E+00 0.000E+00
 
     Adding external electric field

     Computed dipole along edir(3) : 
        Dipole               -0.7633 Ry au,         -1.9400 Debye
        Dipole field         -0.0016 Ry au
 
        Potential amp.        0.1480 Ry
        Total length         46.4675 bohr
 

     total cpu time spent up to now is     1069.7 secs

     total energy              =   -1946.81679886 Ry
     Harris-Foulkes estimate   =   -1946.82025333 Ry
     estimated scf accuracy    <       0.04254273 Ry

     iteration # 28     ecut=    36.75 Ry     beta=0.30
     Davidson diagonalization with overlap
     ethr =  2.86E-05,  avg # of iterations =  3.4

     negative rho (up, down):  1.382E+00 0.000E+00
 
     Adding external electric field

     Computed dipole along edir(3) : 
        Dipole               -0.7340 Ry au,         -1.8656 Debye
        Dipole field         -0.0015 Ry au
 
        Potential amp.        0.1423 Ry
        Total length         46.4675 bohr
 

     total cpu time spent up to now is     1102.7 secs

     total energy              =   -1946.81720927 Ry
     Harris-Foulkes estimate   =   -1946.81882943 Ry
     estimated scf accuracy    <       0.02192516 Ry

     iteration # 29     ecut=    36.75 Ry     beta=0.30
     Davidson diagonalization with overlap
     ethr =  1.47E-05,  avg # of iterations =  3.2

     negative rho (up, down):  1.380E+00 0.000E+00
 
     Adding external electric field

     Computed dipole along edir(3) : 
        Dipole               -0.5309 Ry au,         -1.3495 Debye
        Dipole field         -0.0011 Ry au
 
        Potential amp.        0.1029 Ry
        Total length         46.4675 bohr
 

     total cpu time spent up to now is     1135.7 secs

     total energy              =   -1946.81657521 Ry
     Harris-Foulkes estimate   =   -1946.81903313 Ry
     estimated scf accuracy    <       0.01507812 Ry

     iteration # 30     ecut=    36.75 Ry     beta=0.30
     Davidson diagonalization with overlap
     ethr =  1.01E-05,  avg # of iterations =  4.2

     negative rho (up, down):  1.380E+00 0.000E+00
 
     Adding external electric field

     Computed dipole along edir(3) : 
        Dipole               -0.6418 Ry au,         -1.6314 Debye
        Dipole field         -0.0013 Ry au
 
        Potential amp.        0.1244 Ry
        Total length         46.4675 bohr
 

     total cpu time spent up to now is     1169.2 secs

     total energy              =   -1946.81747583 Ry
     Harris-Foulkes estimate   =   -1946.81750897 Ry
     estimated scf accuracy    <       0.00158766 Ry

     iteration # 31     ecut=    36.75 Ry     beta=0.30
     Davidson diagonalization with overlap
     ethr =  1.07E-06,  avg # of iterations =  6.5

     negative rho (up, down):  1.380E+00 0.000E+00
 
     Adding external electric field

     Computed dipole along edir(3) : 
        Dipole               -0.5746 Ry au,         -1.4606 Debye
        Dipole field         -0.0012 Ry au
 
        Potential amp.        0.1114 Ry
        Total length         46.4675 bohr
 

     total cpu time spent up to now is     1206.1 secs

     total energy              =   -1946.81749844 Ry
     Harris-Foulkes estimate   =   -1946.81842708 Ry
     estimated scf accuracy    <       0.01565380 Ry

     iteration # 32     ecut=    36.75 Ry     beta=0.30
     Davidson diagonalization with overlap
     ethr =  1.07E-06,  avg # of iterations =  4.1

     negative rho (up, down):  1.380E+00 0.000E+00
 
     Adding external electric field

     Computed dipole along edir(3) : 
        Dipole               -0.5738 Ry au,         -1.4584 Debye
        Dipole field         -0.0012 Ry au
 
        Potential amp.        0.1112 Ry
        Total length         46.4675 bohr
 

     total cpu time spent up to now is     1239.5 secs

     total energy              =   -1946.81776339 Ry
     Harris-Foulkes estimate   =   -1946.81780659 Ry
     estimated scf accuracy    <       0.00055321 Ry

     iteration # 33     ecut=    36.75 Ry     beta=0.30
     Davidson diagonalization with overlap
     ethr =  3.71E-07,  avg # of iterations =  3.5

     negative rho (up, down):  1.379E+00 0.000E+00
 
     Adding external electric field

     Computed dipole along edir(3) : 
        Dipole               -0.5605 Ry au,         -1.4247 Debye
        Dipole field         -0.0012 Ry au
 
        Potential amp.        0.1087 Ry
        Total length         46.4675 bohr
 

     total cpu time spent up to now is     1271.9 secs

     total energy              =   -1946.81778316 Ry
     Harris-Foulkes estimate   =   -1946.81781801 Ry
     estimated scf accuracy    <       0.00004860 Ry

     iteration # 34     ecut=    36.75 Ry     beta=0.30
     Davidson diagonalization with overlap
     ethr =  3.26E-08,  avg # of iterations =  6.0

     negative rho (up, down):  1.379E+00 0.000E+00
 
     Adding external electric field

     Computed dipole along edir(3) : 
        Dipole               -0.5682 Ry au,         -1.4441 Debye
        Dipole field         -0.0012 Ry au
 
        Potential amp.        0.1101 Ry
        Total length         46.4675 bohr
 

     total cpu time spent up to now is     1309.0 secs

     total energy              =   -1946.81778960 Ry
     Harris-Foulkes estimate   =   -1946.81777494 Ry
     estimated scf accuracy    <       0.00001574 Ry

     iteration # 35     ecut=    36.75 Ry     beta=0.30
     Davidson diagonalization with overlap
     ethr =  1.06E-08,  avg # of iterations =  4.5

     negative rho (up, down):  1.379E+00 0.000E+00
 
     Adding external electric field

     Computed dipole along edir(3) : 
        Dipole               -0.5674 Ry au,         -1.4422 Debye
        Dipole field         -0.0012 Ry au
 
        Potential amp.        0.1100 Ry
        Total length         46.4675 bohr
 

     total cpu time spent up to now is     1343.2 secs

     total energy              =   -1946.81778990 Ry
     Harris-Foulkes estimate   =   -1946.81779313 Ry
     estimated scf accuracy    <       0.00002232 Ry

     iteration # 36     ecut=    36.75 Ry     beta=0.30
     Davidson diagonalization with overlap
     ethr =  1.06E-08,  avg # of iterations =  3.1

     negative rho (up, down):  1.379E+00 0.000E+00

     negative rho (up, down):  1.379E+00 0.000E+00

     negative rho (up, down):  1.379E+00 0.000E+00

     negative rho (up, down):  1.379E+00 0.000E+00

     negative rho (up, down):  1.379E+00 0.000E+00

     negative rho (up, down):  1.379E+00 0.000E+00

     negative rho (up, down):  1.379E+00 0.000E+00

     negative rho (up, down):  1.379E+00 0.000E+00

     negative rho (up, down):  1.379E+00 0.000E+00

     negative rho (up, down):  1.379E+00 0.000E+00

     negative rho (up, down):  1.379E+00 0.000E+00

     negative rho (up, down):  1.379E+00 0.000E+00

     negative rho (up, down):  1.379E+00 0.000E+00

     negative rho (up, down):  1.379E+00 0.000E+00

     negative rho (up, down):  1.379E+00 0.000E+00

     negative rho (up, down):  1.379E+00 0.000E+00

     negative rho (up, down):  1.379E+00 0.000E+00

     negative rho (up, down):  1.379E+00 0.000E+00

     negative rho (up, down):  1.379E+00 0.000E+00

     negative rho (up, down):  1.379E+00 0.000E+00

     negative rho (up, down):  1.379E+00 0.000E+00

     negative rho (up, down):  1.379E+00 0.000E+00

     negative rho (up, down):  1.379E+00 0.000E+00

     negative rho (up, down):  1.379E+00 0.000E+00

     negative rho (up, down):  1.379E+00 0.000E+00

     negative rho (up, down):  1.379E+00 0.000E+00

     negative rho (up, down):  1.379E+00 0.000E+00

     negative rho (up, down):  1.379E+00 0.000E+00

     negative rho (up, down):  1.379E+00 0.000E+00

     negative rho (up, down):  1.379E+00 0.000E+00

     negative rho (up, down):  1.379E+00 0.000E+00

     negative rho (up, down):  1.379E+00 0.000E+00

     negative rho (up, down):  1.379E+00 0.000E+00

     negative rho (up, down):  1.379E+00 0.000E+00

     negative rho (up, down):  1.379E+00 0.000E+00
 
     Adding external electric field

     Computed dipole along edir(3) : 
        Dipole               -0.5665 Ry au,         -1.4400 Debye
        Dipole field         -0.0012 Ry au
 
        Potential amp.        0.1098 Ry
        Total length         46.4675 bohr
 

     total cpu time spent up to now is     1438.4 secs

     End of self-consistent calculation

          k = 0.0000 0.0000 0.0000 ( 22729 PWs)   bands (ev):

   -61.9351 -61.9095 -61.9093 -61.7965 -61.7666 -61.7581 -61.7576 -61.4287
   -61.4002 -61.4000 -61.3586 -60.9132 -30.6276 -30.6013 -30.5692 -30.5690
   -30.5386 -30.5374 -30.5372 -30.5269 -30.5268 -30.4335 -30.3715 -30.3414
   -30.3410 -30.2795 -30.1672 -30.1533 -30.1532 -30.1332 -30.1330 -30.1301
   -30.1109 -30.1107 -30.0041 -30.0040 -29.9155 -29.8929 -29.8927 -29.8465
   -29.7847 -29.7846 -29.7762 -29.6525 -29.6525 -29.5060 -29.5059 -29.3097
   -10.7461  -5.6555  -4.3080  -3.0530  -2.2191  -2.2034  -2.2034  -1.9403
    -1.9403  -1.9328  -1.5100  -1.4980  -1.4980  -0.9387  -0.9072  -0.9072
    -0.4650  -0.4649  -0.1583   0.0538   0.3515   0.3516   0.8471   1.0528
     1.1859   1.2697   1.2697   1.4893   1.5873   1.5873   1.6140   1.9137
     1.9818   2.0547   2.0549   2.1210

          k = 0.0000 0.0301 0.0000 ( 22708 PWs)   bands (ev):

   -61.9335 -61.9110 -61.9094 -61.7943 -61.7674 -61.7594 -61.7576 -61.4267
   -61.4016 -61.4001 -61.3590 -60.9133 -30.6053 -30.5947 -30.5513 -30.5500
   -30.5284 -30.5246 -30.5193 -30.5179 -30.5050 -30.4270 -30.3672 -30.3429
   -30.3398 -30.2913 -30.1823 -30.1617 -30.1578 -30.1530 -30.1469 -30.1237
   -30.0963 -30.0916 -30.0440 -30.0125 -29.9111 -29.8943 -29.8921 -29.8441
   -29.8035 -29.7989 -29.7737 -29.6868 -29.6603 -29.5190 -29.5095 -29.3091
   -10.7449  -5.4557  -4.1097  -2.8436  -2.4671  -2.1253  -2.1156  -1.9852
    -1.8104  -1.8088  -1.3793  -1.2932  -1.2909  -0.8326  -0.8002  -0.7923
    -0.4284  -0.4216  -0.1088   0.0634   0.2998   0.3399   0.8327   0.9309
     1.0375   1.1632   1.2089   1.3708   1.4888   1.5322   1.6358   1.7376
     1.7765   1.8016   1.8474   1.9314

          k = 0.0000 0.0602 0.0000 ( 22648 PWs)   bands (ev):

   -61.9296 -61.9148 -61.9094 -61.7887 -61.7707 -61.7617 -61.7577 -61.4216
   -61.4058 -61.4001 -61.3598 -60.9133 -30.5790 -30.5653 -30.5360 -30.5212
   -30.4975 -30.4884 -30.4734 -30.4717 -30.4162 -30.4099 -30.3638 -30.3450
   -30.3439 -30.3227 -30.2605 -30.2104 -30.2047 -30.1644 -30.1476 -30.1124
   -30.1004 -30.0578 -30.0361 -30.0292 -29.9079 -29.8977 -29.8945 -29.8477
   -29.8429 -29.8396 -29.7767 -29.7546 -29.6808 -29.5455 -29.5166 -29.3079
   -10.7425  -4.8894  -3.5632  -3.1630  -2.2920  -2.1919  -1.9279  -1.9210
    -1.4770  -1.4675  -1.2403  -0.8173  -0.7554  -0.5760  -0.4899  -0.4815
    -0.3256  -0.2790  -0.0028   0.0694   0.2872   0.2908   0.5419   0.7170
     0.7605   0.7625   0.9166   0.9676   1.1392   1.2023   1.2719   1.3771
     1.4677   1.5352   1.5937   1.6316

          k = 0.0000-0.0903 0.0000 ( 22668 PWs)   bands (ev):

   -61.9264 -61.9180 -61.9094 -61.7839 -61.7748 -61.7624 -61.7577 -61.4171
   -61.4099 -61.4001 -61.3603 -60.9134 -30.5668 -30.5501 -30.5426 -30.5182
   -30.4577 -30.4419 -30.4352 -30.4165 -30.3973 -30.3776 -30.3719 -30.3562
   -30.3308 -30.3281 -30.2838 -30.2777 -30.2446 -30.2388 -30.1667 -30.0879
   -30.0709 -30.0659 -30.0273 -29.9564 -29.9167 -29.9074 -29.8937 -29.8817
   -29.8647 -29.8530 -29.8378 -29.7387 -29.6973 -29.5590 -29.5202 -29.3073
   -10.7413  -4.0713  -4.0520  -2.8768  -2.7736  -1.8215  -1.8090  -1.6061
    -1.4884  -1.2384  -1.2184  -0.6150  -0.4417  -0.3756  -0.2225  -0.1541
    -0.1236  -0.0536   0.0135   0.0929   0.2851   0.3395   0.3470   0.3992
     0.4742   0.5729   0.6273   0.7785   0.8043   0.8275   0.9664   1.1045
     1.2316   1.3294   1.3613   1.5901

          k = 0.0261-0.0151 0.0000 ( 22708 PWs)   bands (ev):

   -61.9335 -61.9109 -61.9095 -61.7943 -61.7674 -61.7589 -61.7581 -61.4267
   -61.4018 -61.4000 -61.3590 -60.9133 -30.6054 -30.5947 -30.5514 -30.5499
   -30.5283 -30.5247 -30.5195 -30.5177 -30.5049 -30.4270 -30.3672 -30.3425
   -30.3401 -30.2913 -30.1822 -30.1616 -30.1579 -30.1532 -30.1467 -30.1237
   -30.0965 -30.0915 -30.0440 -30.0126 -29.9111 -29.8945 -29.8919 -29.8441
   -29.8036 -29.7988 -29.7737 -29.6868 -29.6603 -29.5190 -29.5095 -29.3091
   -10.7449  -5.4557  -4.1097  -2.8436  -2.4671  -2.1253  -2.1156  -1.9852
    -1.8104  -1.8088  -1.3793  -1.2931  -1.2909  -0.8326  -0.8001  -0.7923
    -0.4284  -0.4216  -0.1088   0.0634   0.2997   0.3399   0.8327   0.9310
     1.0375   1.1632   1.2089   1.3708   1.4888   1.5322   1.6358   1.7376
     1.7765   1.8017   1.8474   1.9314

          k = 0.0261 0.0151 0.0000 ( 22708 PWs)   bands (ev):

   -61.9335 -61.9110 -61.9094 -61.7943 -61.7674 -61.7594 -61.7577 -61.4267
   -61.4016 -61.4001 -61.3590 -60.9133 -30.6053 -30.5947 -30.5513 -30.5501
   -30.5285 -30.5246 -30.5193 -30.5179 -30.5050 -30.4270 -30.3672 -30.3428
   -30.3398 -30.2913 -30.1823 -30.1617 -30.1578 -30.1530 -30.1468 -30.1237
   -30.0964 -30.0916 -30.0440 -30.0125 -29.9111 -29.8943 -29.8921 -29.8441
   -29.8035 -29.7989 -29.7737 -29.6868 -29.6603 -29.5190 -29.5095 -29.3091
   -10.7449  -5.4557  -4.1097  -2.8436  -2.4671  -2.1253  -2.1156  -1.9852
    -1.8104  -1.8088  -1.3793  -1.2932  -1.2909  -0.8326  -0.8002  -0.7923
    -0.4284  -0.4216  -0.1088   0.0634   0.2998   0.3399   0.8327   0.9309
     1.0375   1.1632   1.2089   1.3708   1.4888   1.5322   1.6358   1.7376
     1.7765   1.8016   1.8474   1.9314

          k = 0.0261 0.0452 0.0000 ( 22675 PWs)   bands (ev):

   -61.9307 -61.9138 -61.9094 -61.7904 -61.7689 -61.7624 -61.7570 -61.4232
   -61.4042 -61.4004 -61.3596 -60.9133 -30.5836 -30.5695 -30.5341 -30.5280
   -30.5188 -30.5047 -30.4910 -30.4619 -30.4588 -30.4159 -30.3631 -30.3467
   -30.3392 -30.3172 -30.2277 -30.2214 -30.1693 -30.1411 -30.1361 -30.1222
   -30.1104 -30.0640 -30.0554 -30.0310 -29.9084 -29.8985 -29.8917 -29.8557
   -29.8411 -29.7882 -29.7842 -29.7445 -29.6772 -29.5363 -29.5172 -29.3082
   -10.7431  -5.0716  -3.7344  -2.6475  -2.6276  -2.4328  -1.9265  -1.9104
    -1.6262  -1.4324  -1.1318  -1.1034  -0.8765  -0.6493  -0.6099  -0.5707
    -0.3529  -0.3396  -0.0137   0.0605   0.2452   0.3375   0.6988   0.7579
     0.8247   0.8801   1.0018   1.0832   1.2275   1.3412   1.3774   1.4991
     1.5127   1.5807   1.6754   1.7333

          k = 0.0261-0.1054 0.0000 ( 22643 PWs)   bands (ev):

   -61.9264 -61.9180 -61.9094 -61.7846 -61.7725 -61.7654 -61.7563 -61.4176
   -61.4088 -61.4008 -61.3602 -60.9134 -30.5673 -30.5439 -30.5308 -30.5187
   -30.4775 -30.4485 -30.4243 -30.4107 -30.4005 -30.3859 -30.3729 -30.3533
   -30.3439 -30.3264 -30.2978 -30.2959 -30.2255 -30.1806 -30.1685 -30.1044
   -30.0821 -30.0640 -30.0168 -29.9876 -29.9365 -29.8997 -29.8944 -29.8858
   -29.8543 -29.8384 -29.8049 -29.7548 -29.7045 -29.5522 -29.5266 -29.3073
   -10.7413  -4.3656  -3.4764  -3.0730  -2.6728  -2.3525  -1.7820  -1.7105
    -1.1927  -1.1371  -0.9757  -0.6873  -0.4717  -0.4156  -0.3470  -0.2785
    -0.1658  -0.1152  -0.0363   0.1580   0.2535   0.2980   0.3848   0.4579
     0.5318   0.6027   0.6935   0.7494   0.8057   0.9313   1.0337   1.0725
     1.1662   1.2031   1.3322   1.4843

          k = 0.0261-0.0753 0.0000 ( 22643 PWs)   bands (ev):

   -61.9264 -61.9179 -61.9095 -61.7845 -61.7726 -61.7653 -61.7564 -61.4176
   -61.4089 -61.4007 -61.3602 -60.9134 -30.5673 -30.5438 -30.5308 -30.5187
   -30.4776 -30.4485 -30.4243 -30.4107 -30.4005 -30.3858 -30.3730 -30.3533
   -30.3438 -30.3264 -30.2979 -30.2960 -30.2255 -30.1806 -30.1686 -30.1044
   -30.0821 -30.0640 -30.0168 -29.9876 -29.9367 -29.8996 -29.8943 -29.8859
   -29.8542 -29.8384 -29.8049 -29.7548 -29.7046 -29.5522 -29.5266 -29.3073
   -10.7413  -4.3656  -3.4764  -3.0730  -2.6728  -2.3525  -1.7820  -1.7105
    -1.1927  -1.1371  -0.9757  -0.6873  -0.4717  -0.4156  -0.3470  -0.2785
    -0.1658  -0.1151  -0.0363   0.1580   0.2535   0.2981   0.3848   0.4579
     0.5318   0.6026   0.6936   0.7494   0.8057   0.9314   1.0337   1.0725
     1.1662   1.2031   1.3322   1.4843

          k = 0.0261-0.0452 0.0000 ( 22675 PWs)   bands (ev):

   -61.9307 -61.9136 -61.9095 -61.7904 -61.7691 -61.7620 -61.7572 -61.4231
   -61.4044 -61.4003 -61.3596 -60.9133 -30.5837 -30.5695 -30.5340 -30.5281
   -30.5189 -30.5046 -30.4909 -30.4620 -30.4587 -30.4158 -30.3632 -30.3464
   -30.3393 -30.3172 -30.2277 -30.2214 -30.1694 -30.1410 -30.1361 -30.1221
   -30.1104 -30.0641 -30.0554 -30.0310 -29.9085 -29.8986 -29.8915 -29.8558
   -29.8411 -29.7881 -29.7842 -29.7445 -29.6772 -29.5363 -29.5172 -29.3082
   -10.7431  -5.0716  -3.7344  -2.6475  -2.6276  -2.4328  -1.9265  -1.9105
    -1.6262  -1.4324  -1.1318  -1.1034  -0.8765  -0.6493  -0.6099  -0.5707
    -0.3529  -0.3396  -0.0137   0.0604   0.2452   0.3375   0.6988   0.7579
     0.8247   0.8802   1.0018   1.0832   1.2275   1.3412   1.3774   1.4991
     1.5127   1.5807   1.6753   1.7333

          k = 0.0521-0.0301 0.0000 ( 22648 PWs)   bands (ev):

   -61.9296 -61.9147 -61.9095 -61.7887 -61.7710 -61.7611 -61.7581 -61.4215
   -61.4061 -61.4000 -61.3598 -60.9133 -30.5791 -30.5654 -30.5359 -30.5213
   -30.4974 -30.4884 -30.4737 -30.4715 -30.4162 -30.4099 -30.3640 -30.3445
   -30.3441 -30.3228 -30.2604 -30.2102 -30.2050 -30.1645 -30.1475 -30.1123
   -30.1004 -30.0579 -30.0361 -30.0292 -29.9080 -29.8977 -29.8944 -29.8478
   -29.8428 -29.8396 -29.7767 -29.7545 -29.6808 -29.5455 -29.5166 -29.3079
   -10.7425  -4.8894  -3.5632  -3.1630  -2.2920  -2.1918  -1.9279  -1.9209
    -1.4770  -1.4676  -1.2403  -0.8173  -0.7554  -0.5760  -0.4899  -0.4816
    -0.3256  -0.2790  -0.0028   0.0694   0.2872   0.2908   0.5419   0.7170
     0.7605   0.7625   0.9166   0.9675   1.1393   1.2023   1.2719   1.3771
     1.4677   1.5352   1.5937   1.6316

          k = 0.0521 0.0000 0.0000 ( 22675 PWs)   bands (ev):

   -61.9307 -61.9137 -61.9094 -61.7904 -61.7691 -61.7620 -61.7572 -61.4231
   -61.4044 -61.4003 -61.3596 -60.9133 -30.5836 -30.5695 -30.5340 -30.5281
   -30.5189 -30.5047 -30.4910 -30.4620 -30.4587 -30.4158 -30.3633 -30.3464
   -30.3393 -30.3172 -30.2277 -30.2214 -30.1694 -30.1410 -30.1361 -30.1221
   -30.1104 -30.0641 -30.0554 -30.0310 -29.9085 -29.8986 -29.8915 -29.8558
   -29.8411 -29.7881 -29.7842 -29.7445 -29.6772 -29.5363 -29.5172 -29.3082
   -10.7431  -5.0716  -3.7344  -2.6474  -2.6276  -2.4328  -1.9265  -1.9105
    -1.6262  -1.4324  -1.1318  -1.1034  -0.8765  -0.6493  -0.6099  -0.5707
    -0.3529  -0.3396  -0.0137   0.0604   0.2452   0.3375   0.6988   0.7579
     0.8247   0.8802   1.0018   1.0832   1.2275   1.3412   1.3774   1.4991
     1.5127   1.5807   1.6753   1.7333

          k = 0.0521 0.0301 0.0000 ( 22648 PWs)   bands (ev):

   -61.9295 -61.9149 -61.9094 -61.7887 -61.7707 -61.7616 -61.7577 -61.4216
   -61.4059 -61.4001 -61.3598 -60.9133 -30.5790 -30.5653 -30.5360 -30.5212
   -30.4975 -30.4884 -30.4734 -30.4717 -30.4162 -30.4099 -30.3638 -30.3449
   -30.3440 -30.3227 -30.2605 -30.2104 -30.2048 -30.1644 -30.1476 -30.1124
   -30.1004 -30.0578 -30.0361 -30.0292 -29.9079 -29.8977 -29.8945 -29.8477
   -29.8429 -29.8396 -29.7767 -29.7546 -29.6808 -29.5455 -29.5166 -29.3079
   -10.7425  -4.8894  -3.5632  -3.1630  -2.2920  -2.1919  -1.9279  -1.9210
    -1.4770  -1.4675  -1.2403  -0.8173  -0.7554  -0.5760  -0.4899  -0.4815
    -0.3256  -0.2790  -0.0028   0.0694   0.2872   0.2908   0.5419   0.7170
     0.7605   0.7625   0.9166   0.9676   1.1392   1.2023   1.2719   1.3771
     1.4677   1.5352   1.5937   1.6316

          k = 0.0521-0.1204 0.0000 ( 22643 PWs)   bands (ev):

   -61.9264 -61.9181 -61.9094 -61.7846 -61.7725 -61.7654 -61.7563 -61.4176
   -61.4089 -61.4008 -61.3602 -60.9134 -30.5673 -30.5439 -30.5308 -30.5186
   -30.4776 -30.4485 -30.4244 -30.4107 -30.4005 -30.3858 -30.3729 -30.3533
   -30.3439 -30.3264 -30.2978 -30.2959 -30.2255 -30.1805 -30.1685 -30.1044
   -30.0821 -30.0640 -30.0168 -29.9876 -29.9365 -29.8997 -29.8944 -29.8858
   -29.8543 -29.8384 -29.8049 -29.7548 -29.7046 -29.5522 -29.5266 -29.3073
   -10.7413  -4.3656  -3.4764  -3.0730  -2.6728  -2.3525  -1.7820  -1.7105
    -1.1927  -1.1371  -0.9757  -0.6873  -0.4717  -0.4156  -0.3470  -0.2785
    -0.1658  -0.1152  -0.0363   0.1580   0.2535   0.2980   0.3848   0.4579
     0.5318   0.6027   0.6935   0.7494   0.8057   0.9313   1.0337   1.0725
     1.1662   1.2031   1.3322   1.4843

          k = 0.0521-0.0903 0.0000 ( 22614 PWs)   bands (ev):

   -61.9223 -61.9221 -61.9095 -61.7819 -61.7709 -61.7704 -61.7555 -61.4131
   -61.4126 -61.4014 -61.3604 -60.9134 -30.5539 -30.5536 -30.5185 -30.4714
   -30.4703 -30.4614 -30.3906 -30.3901 -30.3792 -30.3776 -30.3727 -30.3407
   -30.3357 -30.3234 -30.3189 -30.3180 -30.3151 -30.1978 -30.1188 -30.1150
   -30.1113 -30.0437 -30.0100 -29.9511 -29.9437 -29.9392 -29.8939 -29.8880
   -29.8878 -29.8376 -29.7848 -29.7439 -29.7435 -29.5434 -29.5434 -29.3070
   -10.7408  -3.5811  -3.5774  -3.5667  -2.4177  -2.4063  -2.3077  -1.0983
    -1.0909  -0.9056  -0.7249  -0.5624  -0.5340  -0.3901  -0.3601  -0.3121
    -0.0832   0.0720   0.0993   0.1000   0.1567   0.2645   0.2699   0.3178
     0.4524   0.4617   0.6305   0.7135   0.7467   0.7652   0.9071   0.9566
     0.9863   1.0293   1.1334   1.2506

          k = 0.0521-0.0602 0.0000 ( 22643 PWs)   bands (ev):

   -61.9265 -61.9178 -61.9095 -61.7845 -61.7728 -61.7650 -61.7565 -61.4175
   -61.4091 -61.4006 -61.3602 -60.9134 -30.5674 -30.5438 -30.5309 -30.5187
   -30.4775 -30.4485 -30.4243 -30.4107 -30.4004 -30.3858 -30.3731 -30.3532
   -30.3438 -30.3265 -30.2978 -30.2959 -30.2255 -30.1807 -30.1685 -30.1043
   -30.0820 -30.0640 -30.0169 -29.9877 -29.9365 -29.8997 -29.8943 -29.8858
   -29.8543 -29.8384 -29.8049 -29.7547 -29.7046 -29.5522 -29.5266 -29.3073
   -10.7413  -4.3656  -3.4764  -3.0730  -2.6728  -2.3525  -1.7820  -1.7105
    -1.1927  -1.1371  -0.9757  -0.6873  -0.4717  -0.4156  -0.3470  -0.2786
    -0.1658  -0.1152  -0.0363   0.1580   0.2536   0.2981   0.3848   0.4579
     0.5318   0.6027   0.6935   0.7494   0.8057   0.9313   1.0337   1.0725
     1.1662   1.2031   1.3322   1.4843

          k =-0.0782 0.0452 0.0000 ( 22668 PWs)   bands (ev):

   -61.9265 -61.9178 -61.9095 -61.7837 -61.7752 -61.7618 -61.7581 -61.4170
   -61.4103 -61.4000 -61.3603 -60.9134 -30.5668 -30.5501 -30.5425 -30.5183
   -30.4574 -30.4423 -30.4350 -30.4166 -30.3971 -30.3777 -30.3721 -30.3560
   -30.3304 -30.3285 -30.2836 -30.2781 -30.2442 -30.2392 -30.1668 -30.0877
   -30.0705 -30.0663 -30.0275 -29.9566 -29.9166 -29.9072 -29.8935 -29.8820
   -29.8646 -29.8530 -29.8378 -29.7385 -29.6975 -29.5590 -29.5202 -29.3073
   -10.7413  -4.0713  -4.0520  -2.8768  -2.7737  -1.8215  -1.8090  -1.6061
    -1.4884  -1.2383  -1.2184  -0.6150  -0.4417  -0.3756  -0.2225  -0.1542
    -0.1235  -0.0537   0.0135   0.0929   0.2851   0.3395   0.3470   0.3993
     0.4742   0.5729   0.6273   0.7785   0.8042   0.8275   0.9664   1.1045
     1.2317   1.3295   1.3613   1.5901

          k =-0.0782 0.0753 0.0000 ( 22643 PWs)   bands (ev):

   -61.9265 -61.9179 -61.9095 -61.7845 -61.7728 -61.7650 -61.7565 -61.4175
   -61.4091 -61.4006 -61.3602 -60.9134 -30.5674 -30.5438 -30.5309 -30.5187
   -30.4775 -30.4485 -30.4244 -30.4107 -30.4004 -30.3858 -30.3731 -30.3532
   -30.3438 -30.3265 -30.2978 -30.2959 -30.2255 -30.1806 -30.1685 -30.1043
   -30.0820 -30.0640 -30.0169 -29.9876 -29.9366 -29.8997 -29.8943 -29.8858
   -29.8543 -29.8384 -29.8049 -29.7547 -29.7046 -29.5522 -29.5266 -29.3073
   -10.7413  -4.3656  -3.4764  -3.0730  -2.6728  -2.3525  -1.7820  -1.7105
    -1.1927  -1.1371  -0.9757  -0.6873  -0.4717  -0.4156  -0.3470  -0.2786
    -0.1658  -0.1152  -0.0363   0.1580   0.2535   0.2981   0.3848   0.4579
     0.5318   0.6026   0.6935   0.7494   0.8057   0.9313   1.0337   1.0725
     1.1662   1.2031   1.3322   1.4843

          k =-0.0782 0.1054 0.0000 ( 22643 PWs)   bands (ev):

   -61.9264 -61.9180 -61.9094 -61.7845 -61.7726 -61.7652 -61.7564 -61.4176
   -61.4089 -61.4007 -61.3602 -60.9134 -30.5673 -30.5439 -30.5308 -30.5186
   -30.4776 -30.4485 -30.4243 -30.4107 -30.4005 -30.3858 -30.3730 -30.3533
   -30.3438 -30.3264 -30.2979 -30.2960 -30.2255 -30.1805 -30.1686 -30.1044
   -30.0821 -30.0640 -30.0168 -29.9876 -29.9367 -29.8996 -29.8943 -29.8859
   -29.8542 -29.8384 -29.8049 -29.7548 -29.7046 -29.5522 -29.5266 -29.3073
   -10.7413  -4.3656  -3.4764  -3.0730  -2.6728  -2.3525  -1.7820  -1.7105
    -1.1927  -1.1371  -0.9757  -0.6873  -0.4717  -0.4156  -0.3470  -0.2785
    -0.1658  -0.1151  -0.0363   0.1580   0.2535   0.2981   0.3848   0.4579
     0.5318   0.6026   0.6936   0.7494   0.8057   0.9314   1.0337   1.0724
     1.1662   1.2031   1.3322   1.4843

          k =-0.0782-0.0452 0.0000 ( 22668 PWs)   bands (ev):

   -61.9263 -61.9181 -61.9094 -61.7839 -61.7749 -61.7623 -61.7577 -61.4171
   -61.4099 -61.4001 -61.3603 -60.9134 -30.5667 -30.5501 -30.5427 -30.5182
   -30.4577 -30.4420 -30.4353 -30.4164 -30.3972 -30.3775 -30.3719 -30.3562
   -30.3308 -30.3282 -30.2837 -30.2778 -30.2446 -30.2389 -30.1666 -30.0879
   -30.0708 -30.0660 -30.0274 -29.9564 -29.9167 -29.9073 -29.8937 -29.8817
   -29.8647 -29.8530 -29.8378 -29.7387 -29.6973 -29.5590 -29.5202 -29.3073
   -10.7413  -4.0713  -4.0520  -2.8768  -2.7737  -1.8215  -1.8090  -1.6061
    -1.4884  -1.2384  -1.2184  -0.6150  -0.4417  -0.3756  -0.2225  -0.1541
    -0.1236  -0.0536   0.0135   0.0929   0.2851   0.3395   0.3470   0.3992
     0.4742   0.5729   0.6273   0.7785   0.8043   0.8275   0.9664   1.1046
     1.2316   1.3294   1.3613   1.5901

     the Fermi energy is     0.8424 ev

!    total energy              =   -1946.81778989 Ry
     Harris-Foulkes estimate   =   -1946.81779290 Ry
     estimated scf accuracy    <       0.00000138 Ry

     The total energy is the sum of the following terms:

     one-electron contribution =   -8471.29689771 Ry
     hartree contribution      =    4218.31843582 Ry
     xc contribution           =    -932.97460635 Ry
     ewald contribution        =    3239.24572764 Ry
     electric field correction =       0.00066952 Ry
     smearing contrib. (-TS)   =      -0.11111880 Ry

     convergence has been achieved in  36 iterations
 
 BEEF-vdW xc energy contributions
           1 :   -843.465443638291     
           2 :    783.737567497594     
           3 :   -677.991033986925     
           4 :    548.166233659082     
           5 :   -416.859596615662     
           6 :    301.018268750187     
           7 :   -209.235652849160     
           8 :    142.686740701357     
           9 :   -98.1438484830869     
          10 :    70.9269739661445     
          11 :   -56.4839579273147     
          12 :    50.5253289690027     
          13 :   -48.6329675383463     
          14 :    46.3066723131016     
          15 :   -39.8363755495125     
          16 :    27.5325085885672     
          17 :   -10.4630916715196     
          18 :   -7.94294859851175     
          19 :    23.3489260414227     
          20 :   -32.3262705843892     
          21 :    33.6294439168822     
          22 :   -28.3946806949986     
          23 :    19.3385197141329     
          24 :   -9.54874478474801     
          25 :    1.52043829168429     
          26 :    3.22136802546117     
          27 :   -4.03142451172857     
          28 :   0.943133181448843     
          29 :    5.37011902031327     
          30 :   -13.5090853627919     
          31 :   -60.7422284972798     
          32 :   -43.6432944680931     

     Forces acting on atoms (Ry/au):


     negative rho (up, down):  1.379E+00 0.000E+00
     atom    1 type  1   force =     0.00117528    0.00064886    0.02578516
     atom    2 type  1   force =    -0.00117508    0.00068185    0.02573747
     atom    3 type  1   force =     0.00002942   -0.00134131    0.02579773
     atom    4 type  1   force =    -0.00002976    0.00001425    0.02678430
     atom    5 type  1   force =     0.00002730    0.01601143   -0.01116169
     atom    6 type  1   force =    -0.00002461    0.00003316    0.00063368
     atom    7 type  1   force =    -0.01383707   -0.00803937   -0.01116261
     atom    8 type  1   force =     0.01383958   -0.00800780   -0.01119520
     atom    9 type  1   force =     0.00002818   -0.00002080    0.09669617
     atom   10 type  1   force =    -0.00002855   -0.00382827   -0.00686064
     atom   11 type  1   force =    -0.00330152    0.00190869   -0.00682902
     atom   12 type  1   force =     0.00329698    0.00193982   -0.00684860
     atom   13 type  2   force =    -0.00000015   -0.00000050   -0.14737675

     Total force =     0.176789     Total SCF correction =     0.001589


     entering subroutine stress ...


     negative rho (up, down):  1.379E+00 0.000E+00
          total   stress  (Ry/bohr**3)                   (kbar)     P=  -27.79
  -0.00014975  -0.00000000   0.00000000        -22.03     -0.00      0.00
  -0.00000000  -0.00014974  -0.00000000         -0.00    -22.03     -0.00
   0.00000000  -0.00000000  -0.00026734          0.00     -0.00    -39.33


     BFGS Geometry Optimization

     number of scf cycles    =   1
     number of bfgs steps    =   0

     energy   new            =   -1946.8177898872 Ry

     new trust radius        =       0.1473767505 bohr
     new conv_thr            =       0.0000099958 Ry


ATOMIC_POSITIONS (crystal)
Hf1      0.166666667   0.166666667   0.396510335    0   0   0
Hf1      0.666666667   0.166666667   0.396510335    0   0   0
Hf1      0.166666667   0.666666667   0.396510335    0   0   0
Hf1      0.666666667   0.666666667   0.396510335    0   0   0
Hf1      0.833333333   0.333333333   0.500000000    0   0   0
Hf1      0.333333333   0.333333333   0.500000000    0   0   0
Hf1      0.833333333   0.833333333   0.500000000    0   0   0
Hf1      0.333333333   0.833333333   0.500000000    0   0   0
Hf1      0.000003326  -0.000001988   0.605518585
Hf1      0.500180584  -0.000365894   0.603345712
Hf1     -0.000364487   0.500182427   0.603346376
Hf1      0.500180197   0.500185402   0.603345965
N1       0.000000011  -0.000000047   0.683307655



     Writing output data file calc.save
     Check: negative starting charge=   -1.301358
     NEW-OLD atomic charge density approx. for the potential

     Check: negative/imaginary core charge=   -0.000003    0.000000
     Check: negative starting charge=   -1.301494

     negative rho (up, down):  1.378E+00 0.000E+00
 
     Adding external electric field

     Computed dipole along edir(3) : 
        Dipole               -0.4142 Ry au,         -1.0529 Debye
        Dipole field         -0.0009 Ry au
 
        Potential amp.        0.0803 Ry
        Total length         46.4675 bohr
 

     total cpu time spent up to now is     1612.9 secs

     per-process dynamical memory:   124.8 Mb

     Self-consistent Calculation

     iteration #  1     ecut=    36.75 Ry     beta=0.30
     Davidson diagonalization with overlap
     ethr =  1.00E-06,  avg # of iterations = 13.9

     negative rho (up, down):  1.379E+00 0.000E+00
 
     Adding external electric field

     Computed dipole along edir(3) : 
        Dipole               -4.0941 Ry au,        -10.4061 Debye
        Dipole field         -0.0085 Ry au
 
        Potential amp.        0.7937 Ry
        Total length         46.4675 bohr
 

     total cpu time spent up to now is     1667.1 secs

     total energy              =   -1946.29891608 Ry
     Harris-Foulkes estimate   =   -1946.82997992 Ry
     estimated scf accuracy    <       1.12621064 Ry

     iteration #  2     ecut=    36.75 Ry     beta=0.30
     Davidson diagonalization with overlap
     ethr =  7.56E-04,  avg # of iterations = 10.8

     negative rho (up, down):  1.378E+00 0.000E+00
 
     Adding external electric field

     Computed dipole along edir(3) : 
        Dipole               -0.6747 Ry au,         -1.7150 Debye
        Dipole field         -0.0014 Ry au
 
        Potential amp.        0.1308 Ry
        Total length         46.4675 bohr
 

     total cpu time spent up to now is     1711.9 secs

     total energy              =   -1943.16225896 Ry
     Harris-Foulkes estimate   =   -1953.15897219 Ry
     estimated scf accuracy    <     309.78420614 Ry

     iteration #  3     ecut=    36.75 Ry     beta=0.30
     Davidson diagonalization with overlap
     ethr =  7.56E-04,  avg # of iterations =  7.0

     negative rho (up, down):  1.378E+00 0.000E+00
 
     Adding external electric field

     Computed dipole along edir(3) : 
        Dipole               -0.5849 Ry au,         -1.4867 Debye
        Dipole field         -0.0012 Ry au
 
        Potential amp.        0.1134 Ry
        Total length         46.4675 bohr
 

     total cpu time spent up to now is     1758.2 secs

     total energy              =   -1946.71139738 Ry
     Harris-Foulkes estimate   =   -1946.95582231 Ry
     estimated scf accuracy    <       3.03985589 Ry

     iteration #  4     ecut=    36.75 Ry     beta=0.30
     Davidson diagonalization with overlap
     ethr =  7.56E-04,  avg # of iterations =  2.8

     negative rho (up, down):  1.378E+00 0.000E+00
 
     Adding external electric field

     Computed dipole along edir(3) : 
        Dipole               -0.5555 Ry au,         -1.4120 Debye
        Dipole field         -0.0012 Ry au
 
        Potential amp.        0.1077 Ry
        Total length         46.4675 bohr
 

     total cpu time spent up to now is     1795.1 secs

     total energy              =   -1946.83734665 Ry
     Harris-Foulkes estimate   =   -1946.84132054 Ry
     estimated scf accuracy    <       0.15363753 Ry

     iteration #  5     ecut=    36.75 Ry     beta=0.30
     Davidson diagonalization with overlap
     ethr =  1.03E-04,  avg # of iterations =  4.8

     negative rho (up, down):  1.378E+00 0.000E+00
 
     Adding external electric field

     Computed dipole along edir(3) : 
        Dipole               -0.5142 Ry au,         -1.3071 Debye
        Dipole field         -0.0011 Ry au
 
        Potential amp.        0.0997 Ry
        Total length         46.4675 bohr
 

     total cpu time spent up to now is     1832.8 secs

     total energy              =   -1946.84157874 Ry
     Harris-Foulkes estimate   =   -1946.84284564 Ry
     estimated scf accuracy    <       0.03265049 Ry

     iteration #  6     ecut=    36.75 Ry     beta=0.30
     Davidson diagonalization with overlap
     ethr =  2.19E-05,  avg # of iterations =  4.8

     negative rho (up, down):  1.379E+00 0.000E+00
 
     Adding external electric field

     Computed dipole along edir(3) : 
        Dipole               -0.5151 Ry au,         -1.3093 Debye
        Dipole field         -0.0011 Ry au
 
        Potential amp.        0.0999 Ry
        Total length         46.4675 bohr
 

     total cpu time spent up to now is     1871.3 secs

     total energy              =   -1946.84225353 Ry
     Harris-Foulkes estimate   =   -1946.84289504 Ry
     estimated scf accuracy    <       0.00566689 Ry

     iteration #  7     ecut=    36.75 Ry     beta=0.30
     Davidson diagonalization with overlap
     ethr =  3.80E-06,  avg # of iterations =  5.1

     negative rho (up, down):  1.379E+00 0.000E+00
 
     Adding external electric field

     Computed dipole along edir(3) : 
        Dipole               -0.5252 Ry au,         -1.3349 Debye
        Dipole field         -0.0011 Ry au
 
        Potential amp.        0.1018 Ry
        Total length         46.4675 bohr
 

     total cpu time spent up to now is     1911.0 secs

     total energy              =   -1946.84278467 Ry
     Harris-Foulkes estimate   =   -1946.84293823 Ry
     estimated scf accuracy    <       0.00278032 Ry

     iteration #  8     ecut=    36.75 Ry     beta=0.30
     Davidson diagonalization with overlap
     ethr =  1.87E-06,  avg # of iterations =  2.0

     negative rho (up, down):  1.379E+00 0.000E+00
 
     Adding external electric field

     Computed dipole along edir(3) : 
        Dipole               -0.5323 Ry au,         -1.3530 Debye
        Dipole field         -0.0011 Ry au
 
        Potential amp.        0.1032 Ry
        Total length         46.4675 bohr
 

     total cpu time spent up to now is     1945.7 secs

     total energy              =   -1946.84287761 Ry
     Harris-Foulkes estimate   =   -1946.84287287 Ry
     estimated scf accuracy    <       0.00024496 Ry

     iteration #  9     ecut=    36.75 Ry     beta=0.30
     Davidson diagonalization with overlap
     ethr =  1.64E-07,  avg # of iterations =  5.2

     negative rho (up, down):  1.379E+00 0.000E+00
 
     Adding external electric field

     Computed dipole along edir(3) : 
        Dipole               -0.5325 Ry au,         -1.3536 Debye
        Dipole field         -0.0011 Ry au
 
        Potential amp.        0.1032 Ry
        Total length         46.4675 bohr
 

     total cpu time spent up to now is     1983.1 secs

     total energy              =   -1946.84288003 Ry
     Harris-Foulkes estimate   =   -1946.84296008 Ry
     estimated scf accuracy    <       0.00120622 Ry

     iteration # 10     ecut=    36.75 Ry     beta=0.30
     Davidson diagonalization with overlap
     ethr =  1.64E-07,  avg # of iterations =  3.4

     negative rho (up, down):  1.379E+00 0.000E+00
 
     Adding external electric field

     Computed dipole along edir(3) : 
        Dipole               -0.5309 Ry au,         -1.3493 Debye
        Dipole field         -0.0011 Ry au
 
        Potential amp.        0.1029 Ry
        Total length         46.4675 bohr
 

     total cpu time spent up to now is     2016.9 secs

     total energy              =   -1946.84290173 Ry
     Harris-Foulkes estimate   =   -1946.84291523 Ry
     estimated scf accuracy    <       0.00034625 Ry

     iteration # 11     ecut=    36.75 Ry     beta=0.30
     Davidson diagonalization with overlap
     ethr =  1.64E-07,  avg # of iterations =  1.0

     negative rho (up, down):  1.379E+00 0.000E+00
 
     Adding external electric field

     Computed dipole along edir(3) : 
        Dipole               -0.5300 Ry au,         -1.3471 Debye
        Dipole field         -0.0011 Ry au
 
        Potential amp.        0.1027 Ry
        Total length         46.4675 bohr
 

     total cpu time spent up to now is     2048.8 secs

     total energy              =   -1946.84290422 Ry
     Harris-Foulkes estimate   =   -1946.84290872 Ry
     estimated scf accuracy    <       0.00005280 Ry

     iteration # 12     ecut=    36.75 Ry     beta=0.30
     Davidson diagonalization with overlap
     ethr =  3.54E-08,  avg # of iterations =  4.7

     negative rho (up, down):  1.379E+00 0.000E+00
 
     Adding external electric field

     Computed dipole along edir(3) : 
        Dipole               -0.5304 Ry au,         -1.3481 Debye
        Dipole field         -0.0011 Ry au
 
        Potential amp.        0.1028 Ry
        Total length         46.4675 bohr
 

     total cpu time spent up to now is     2084.2 secs

     total energy              =   -1946.84290684 Ry
     Harris-Foulkes estimate   =   -1946.84290808 Ry
     estimated scf accuracy    <       0.00001316 Ry

     iteration # 13     ecut=    36.75 Ry     beta=0.30
     Davidson diagonalization with overlap
     ethr =  8.83E-09,  avg # of iterations =  2.6

     negative rho (up, down):  1.379E+00 0.000E+00

     negative rho (up, down):  1.379E+00 0.000E+00

     negative rho (up, down):  1.379E+00 0.000E+00

     negative rho (up, down):  1.379E+00 0.000E+00

     negative rho (up, down):  1.379E+00 0.000E+00

     negative rho (up, down):  1.379E+00 0.000E+00

     negative rho (up, down):  1.379E+00 0.000E+00

     negative rho (up, down):  1.379E+00 0.000E+00

     negative rho (up, down):  1.379E+00 0.000E+00

     negative rho (up, down):  1.379E+00 0.000E+00

     negative rho (up, down):  1.379E+00 0.000E+00

     negative rho (up, down):  1.379E+00 0.000E+00

     negative rho (up, down):  1.379E+00 0.000E+00

     negative rho (up, down):  1.379E+00 0.000E+00

     negative rho (up, down):  1.379E+00 0.000E+00

     negative rho (up, down):  1.379E+00 0.000E+00

     negative rho (up, down):  1.379E+00 0.000E+00

     negative rho (up, down):  1.379E+00 0.000E+00

     negative rho (up, down):  1.379E+00 0.000E+00

     negative rho (up, down):  1.379E+00 0.000E+00

     negative rho (up, down):  1.379E+00 0.000E+00

     negative rho (up, down):  1.379E+00 0.000E+00

     negative rho (up, down):  1.379E+00 0.000E+00

     negative rho (up, down):  1.379E+00 0.000E+00

     negative rho (up, down):  1.379E+00 0.000E+00

     negative rho (up, down):  1.379E+00 0.000E+00

     negative rho (up, down):  1.379E+00 0.000E+00

     negative rho (up, down):  1.379E+00 0.000E+00

     negative rho (up, down):  1.379E+00 0.000E+00

     negative rho (up, down):  1.379E+00 0.000E+00

     negative rho (up, down):  1.379E+00 0.000E+00

     negative rho (up, down):  1.379E+00 0.000E+00

     negative rho (up, down):  1.379E+00 0.000E+00

     negative rho (up, down):  1.379E+00 0.000E+00

     negative rho (up, down):  1.379E+00 0.000E+00
 
     Adding external electric field

     Computed dipole along edir(3) : 
        Dipole               -0.5315 Ry au,         -1.3508 Debye
        Dipole field         -0.0011 Ry au
 
        Potential amp.        0.1030 Ry
        Total length         46.4675 bohr
 

     total cpu time spent up to now is     2179.7 secs

     End of self-consistent calculation

          k = 0.0000 0.0000 0.0000 ( 22729 PWs)   bands (ev):

   -61.8959 -61.8704 -61.8702 -61.7692 -61.7394 -61.7301 -61.7298 -61.4090
   -61.3815 -61.3812 -61.3154 -60.6490 -30.5867 -30.5664 -30.5310 -30.5309
   -30.5088 -30.5042 -30.5041 -30.4919 -30.4917 -30.4067 -30.3452 -30.3128
   -30.3126 -30.2442 -30.1438 -30.1122 -30.1121 -30.1038 -30.1038 -30.1020
   -30.0823 -30.0821 -29.9756 -29.9756 -29.8894 -29.8719 -29.8717 -29.8038
   -29.7570 -29.7568 -29.7543 -29.6219 -29.6218 -29.2958 -29.2958 -29.1469
   -10.7557  -5.6138  -4.2657  -3.0216  -2.1772  -2.1691  -2.1691  -1.9024
    -1.9024  -1.8977  -1.4633  -1.4558  -1.4558  -0.9128  -0.9078  -0.9078
    -0.5488  -0.5487  -0.1454   0.0296   0.3628   0.3628   0.8836   1.0859
     1.2172   1.3005   1.3005   1.5583   1.6239   1.6239   1.6436   1.9407
     2.0235   2.0868   2.0868   2.1612

          k = 0.0000 0.0301 0.0000 ( 22708 PWs)   bands (ev):

   -61.8944 -61.8719 -61.8703 -61.7670 -61.7401 -61.7314 -61.7299 -61.4071
   -61.3828 -61.3814 -61.3157 -60.6491 -30.5644 -30.5598 -30.5124 -30.5122
   -30.4936 -30.4891 -30.4887 -30.4850 -30.4748 -30.4002 -30.3409 -30.3146
   -30.3114 -30.2560 -30.1410 -30.1359 -30.1249 -30.1206 -30.1159 -30.0952
   -30.0677 -30.0635 -30.0156 -29.9841 -29.8847 -29.8726 -29.8709 -29.8015
   -29.7757 -29.7745 -29.7488 -29.6556 -29.6295 -29.3074 -29.2991 -29.1466
   -10.7544  -5.4142  -4.0676  -2.8129  -2.4285  -2.0858  -2.0820  -1.9445
    -1.7722  -1.7709  -1.3447  -1.2573  -1.2495  -0.8208  -0.7996  -0.7969
    -0.5032  -0.4978  -0.0988   0.0468   0.3203   0.3574   0.8690   0.9659
     1.0720   1.1950   1.2461   1.4245   1.5057   1.5655   1.6734   1.7736
     1.8104   1.8320   1.8810   1.9746

          k = 0.0000 0.0602 0.0000 ( 22648 PWs)   bands (ev):

   -61.8904 -61.8758 -61.8703 -61.7615 -61.7433 -61.7338 -61.7299 -61.4023
   -61.3869 -61.3814 -61.3164 -60.6491 -30.5437 -30.5256 -30.5005 -30.4855
   -30.4613 -30.4501 -30.4441 -30.4382 -30.3882 -30.3821 -30.3370 -30.3172
   -30.3133 -30.2893 -30.2199 -30.1821 -30.1765 -30.1232 -30.1192 -30.0891
   -30.0720 -30.0283 -30.0076 -30.0031 -29.8827 -29.8737 -29.8728 -29.8203
   -29.8190 -29.7974 -29.7425 -29.7303 -29.6488 -29.3310 -29.3058 -29.1460
   -10.7519  -4.8486  -3.5230  -3.1227  -2.2633  -2.1478  -1.8876  -1.8875
    -1.4405  -1.4307  -1.2146  -0.8465  -0.7246  -0.6173  -0.4985  -0.4845
    -0.3298  -0.3126   0.0220   0.0629   0.3152   0.3235   0.5826   0.7485
     0.7942   0.7988   0.9617   1.0072   1.1482   1.2353   1.3004   1.4160
     1.5005   1.5702   1.6115   1.6694

          k = 0.0000-0.0903 0.0000 ( 22668 PWs)   bands (ev):

   -61.8872 -61.8789 -61.8703 -61.7569 -61.7470 -61.7346 -61.7299 -61.3983
   -61.3906 -61.3814 -61.3167 -60.6491 -30.5312 -30.5121 -30.5070 -30.4824
   -30.4258 -30.4129 -30.3976 -30.3821 -30.3697 -30.3425 -30.3413 -30.3244
   -30.2994 -30.2950 -30.2555 -30.2493 -30.2158 -30.2105 -30.1259 -30.0651
   -30.0429 -30.0371 -29.9960 -29.9338 -29.8952 -29.8879 -29.8672 -29.8558
   -29.8410 -29.8105 -29.7953 -29.7166 -29.6632 -29.3431 -29.3092 -29.1458
   -10.7506  -4.0373  -4.0064  -2.8458  -2.7210  -1.7837  -1.7752  -1.5811
    -1.4567  -1.2013  -1.1817  -0.7348  -0.5159  -0.3948  -0.1986  -0.1338
    -0.0715  -0.0602   0.0517   0.1359   0.3198   0.3697   0.3798   0.4402
     0.4895   0.6024   0.6606   0.8092   0.8123   0.8623   1.0252   1.1348
     1.2887   1.3598   1.3657   1.5872

          k = 0.0261-0.0151 0.0000 ( 22708 PWs)   bands (ev):

   -61.8944 -61.8717 -61.8704 -61.7670 -61.7401 -61.7312 -61.7301 -61.4071
   -61.3830 -61.3812 -61.3157 -60.6491 -30.5644 -30.5598 -30.5124 -30.5122
   -30.4935 -30.4892 -30.4888 -30.4849 -30.4748 -30.4002 -30.3409 -30.3144
   -30.3116 -30.2560 -30.1409 -30.1359 -30.1250 -30.1206 -30.1160 -30.0952
   -30.0678 -30.0634 -30.0156 -29.9841 -29.8847 -29.8727 -29.8708 -29.8015
   -29.7759 -29.7744 -29.7487 -29.6556 -29.6295 -29.3074 -29.2991 -29.1466
   -10.7544  -5.4142  -4.0676  -2.8129  -2.4285  -2.0859  -2.0820  -1.9445
    -1.7722  -1.7709  -1.3447  -1.2573  -1.2495  -0.8208  -0.7996  -0.7969
    -0.5031  -0.4979  -0.0989   0.0468   0.3203   0.3574   0.8690   0.9659
     1.0720   1.1950   1.2460   1.4245   1.5057   1.5655   1.6734   1.7736
     1.8104   1.8321   1.8810   1.9746

          k = 0.0261 0.0151 0.0000 ( 22708 PWs)   bands (ev):

   -61.8944 -61.8719 -61.8703 -61.7670 -61.7401 -61.7314 -61.7299 -61.4071
   -61.3828 -61.3814 -61.3157 -60.6491 -30.5644 -30.5598 -30.5124 -30.5122
   -30.4936 -30.4891 -30.4887 -30.4850 -30.4748 -30.4002 -30.3409 -30.3146
   -30.3114 -30.2560 -30.1411 -30.1359 -30.1249 -30.1206 -30.1159 -30.0952
   -30.0677 -30.0635 -30.0156 -29.9841 -29.8847 -29.8726 -29.8709 -29.8015
   -29.7757 -29.7745 -29.7488 -29.6557 -29.6295 -29.3074 -29.2991 -29.1466
   -10.7544  -5.4142  -4.0676  -2.8129  -2.4285  -2.0858  -2.0820  -1.9445
    -1.7722  -1.7709  -1.3447  -1.2573  -1.2495  -0.8208  -0.7996  -0.7969
    -0.5032  -0.4978  -0.0988   0.0468   0.3203   0.3574   0.8690   0.9659
     1.0720   1.1950   1.2461   1.4245   1.5057   1.5655   1.6734   1.7736
     1.8104   1.8320   1.8810   1.9746

          k = 0.0261 0.0452 0.0000 ( 22675 PWs)   bands (ev):

   -61.8916 -61.8747 -61.8702 -61.7632 -61.7416 -61.7344 -61.7292 -61.4038
   -61.3854 -61.3816 -61.3162 -60.6491 -30.5484 -30.5288 -30.4983 -30.4907
   -30.4824 -30.4722 -30.4542 -30.4333 -30.4285 -30.3889 -30.3367 -30.3185
   -30.3101 -30.2822 -30.1930 -30.1874 -30.1277 -30.1146 -30.1076 -30.0965
   -30.0825 -30.0351 -30.0283 -30.0025 -29.8831 -29.8745 -29.8703 -29.8293
   -29.7985 -29.7619 -29.7615 -29.7108 -29.6460 -29.3229 -29.3062 -29.1462
   -10.7525  -5.0305  -3.6930  -2.6098  -2.5909  -2.3993  -1.8875  -1.8662
    -1.5940  -1.3978  -1.1118  -1.0817  -0.8421  -0.6607  -0.6427  -0.5704
    -0.3926  -0.3836  -0.0068   0.0628   0.2721   0.3642   0.7397   0.7907
     0.8570   0.9130   1.0613   1.1166   1.2365   1.3708   1.4037   1.5269
     1.5545   1.6289   1.6961   1.7603

          k = 0.0261-0.1054 0.0000 ( 22643 PWs)   bands (ev):

   -61.8872 -61.8789 -61.8703 -61.7575 -61.7448 -61.7375 -61.7286 -61.3986
   -61.3899 -61.3818 -61.3167 -60.6491 -30.5318 -30.5081 -30.4924 -30.4827
   -30.4406 -30.4192 -30.3908 -30.3769 -30.3729 -30.3505 -30.3427 -30.3255
   -30.3156 -30.2983 -30.2676 -30.2587 -30.1970 -30.1402 -30.1393 -30.0764
   -30.0585 -30.0356 -29.9874 -29.9635 -29.9114 -29.8756 -29.8696 -29.8605
   -29.8275 -29.7960 -29.7742 -29.7285 -29.6719 -29.3372 -29.3148 -29.1458
   -10.7506  -4.3254  -3.4380  -3.0322  -2.6341  -2.3108  -1.7544  -1.6684
    -1.1710  -1.1121  -0.9445  -0.7512  -0.5200  -0.4438  -0.3548  -0.2587
    -0.1344  -0.1024  -0.0047   0.1690   0.2847   0.3358   0.4174   0.4860
     0.5631   0.6410   0.7300   0.7767   0.8279   0.9763   1.0603   1.1109
     1.1885   1.2379   1.3604   1.5106

          k = 0.0261-0.0753 0.0000 ( 22643 PWs)   bands (ev):

   -61.8873 -61.8788 -61.8703 -61.7575 -61.7449 -61.7374 -61.7286 -61.3986
   -61.3900 -61.3817 -61.3167 -60.6491 -30.5319 -30.5080 -30.4925 -30.4827
   -30.4407 -30.4192 -30.3908 -30.3768 -30.3729 -30.3504 -30.3427 -30.3255
   -30.3155 -30.2983 -30.2676 -30.2587 -30.1970 -30.1402 -30.1393 -30.0764
   -30.0585 -30.0356 -29.9874 -29.9635 -29.9117 -29.8754 -29.8696 -29.8606
   -29.8274 -29.7960 -29.7742 -29.7286 -29.6719 -29.3372 -29.3148 -29.1458
   -10.7506  -4.3254  -3.4380  -3.0322  -2.6341  -2.3108  -1.7544  -1.6684
    -1.1710  -1.1121  -0.9445  -0.7512  -0.5200  -0.4438  -0.3548  -0.2587
    -0.1344  -0.1024  -0.0047   0.1690   0.2847   0.3359   0.4174   0.4860
     0.5632   0.6410   0.7300   0.7767   0.8279   0.9763   1.0603   1.1108
     1.1885   1.2379   1.3605   1.5106

          k = 0.0261-0.0452 0.0000 ( 22675 PWs)   bands (ev):

   -61.8916 -61.8745 -61.8703 -61.7632 -61.7417 -61.7342 -61.7293 -61.4038
   -61.3857 -61.3814 -61.3162 -60.6491 -30.5484 -30.5289 -30.4982 -30.4908
   -30.4825 -30.4722 -30.4541 -30.4333 -30.4284 -30.3889 -30.3367 -30.3184
   -30.3102 -30.2822 -30.1931 -30.1874 -30.1278 -30.1145 -30.1076 -30.0965
   -30.0824 -30.0353 -30.0283 -30.0025 -29.8832 -29.8746 -29.8701 -29.8294
   -29.7985 -29.7618 -29.7613 -29.7108 -29.6461 -29.3229 -29.3062 -29.1462
   -10.7525  -5.0305  -3.6930  -2.6098  -2.5909  -2.3993  -1.8874  -1.8662
    -1.5940  -1.3978  -1.1119  -1.0816  -0.8421  -0.6607  -0.6427  -0.5704
    -0.3926  -0.3836  -0.0068   0.0628   0.2721   0.3642   0.7397   0.7907
     0.8570   0.9130   1.0613   1.1166   1.2365   1.3708   1.4037   1.5269
     1.5545   1.6289   1.6960   1.7603

          k = 0.0521-0.0301 0.0000 ( 22648 PWs)   bands (ev):

   -61.8905 -61.8756 -61.8704 -61.7615 -61.7434 -61.7335 -61.7301 -61.4023
   -61.3872 -61.3812 -61.3164 -60.6491 -30.5438 -30.5258 -30.5003 -30.4856
   -30.4612 -30.4501 -30.4443 -30.4381 -30.3882 -30.3821 -30.3371 -30.3169
   -30.3135 -30.2894 -30.2198 -30.1820 -30.1766 -30.1233 -30.1192 -30.0890
   -30.0720 -30.0284 -30.0076 -30.0031 -29.8828 -29.8735 -29.8729 -29.8205
   -29.8189 -29.7974 -29.7424 -29.7302 -29.6489 -29.3310 -29.3058 -29.1460
   -10.7519  -4.8486  -3.5230  -3.1227  -2.2634  -2.1478  -1.8876  -1.8875
    -1.4404  -1.4308  -1.2146  -0.8465  -0.7246  -0.6173  -0.4985  -0.4845
    -0.3297  -0.3126   0.0219   0.0629   0.3152   0.3236   0.5827   0.7485
     0.7942   0.7988   0.9616   1.0072   1.1482   1.2353   1.3004   1.4160
[...]
   -30.2373 -30.2080 -30.1881 -30.1713 -30.1602 -30.1387 -30.1210 -30.1156
   -30.1070 -30.0880 -30.0565 -30.0291 -29.9858 -29.9283 -29.9060 -29.8647
   -29.8268 -29.8077 -29.7198 -29.6942 -29.6406 -29.5984 -29.5822 -29.5778
   -29.5709 -29.5376 -29.4953 -29.4413 -29.4028 -28.9223 -28.8849 -28.8666
   -10.8365  -4.1602  -3.2774  -2.8307  -2.4808  -2.1301  -1.6421  -1.5053
    -1.2017  -1.0284  -0.9228  -0.7977  -0.6184  -0.4335  -0.1988  -0.1503
    -0.0024   0.0293   0.1460   0.3047   0.4297   0.4971   0.5968   0.6924
     0.7493   0.8558   0.9105   0.9961   1.0291   1.1857   1.2947   1.3479
     1.4155   1.4854   1.5770   1.7353

          k = 0.0261-0.0452 0.0000 ( 22675 PWs)   bands (ev):

   -61.6601 -61.6415 -61.6374 -61.5537 -61.5323 -61.5275 -61.5223 -61.1001
   -61.0788 -61.0703 -61.0654 -60.1843 -30.3478 -30.3130 -30.2947 -30.2868
   -30.2730 -30.2614 -30.2462 -30.2211 -30.2169 -30.1768 -30.1238 -30.1090
   -30.1001 -30.0711 -29.9819 -29.9571 -29.8995 -29.8972 -29.8928 -29.8758
   -29.8488 -29.7926 -29.7655 -29.7535 -29.6162 -29.5919 -29.5886 -29.5811
   -29.5369 -29.4786 -29.4623 -29.4442 -29.3734 -28.9247 -28.8734 -28.8597
   -10.8391  -4.8640  -3.4768  -2.4726  -2.4361  -2.2120  -1.7613  -1.6908
    -1.5037  -1.3321  -1.0758  -1.0574  -0.7303  -0.7028  -0.6063  -0.5085
    -0.3025  -0.2840   0.1082   0.2140   0.4275   0.5025   0.9105   1.0214
     1.0564   1.0894   1.2723   1.3205   1.4249   1.5870   1.5966   1.7255
     1.7795   1.8557   1.9531   2.1051

          k = 0.0521-0.0301 0.0000 ( 22648 PWs)   bands (ev):

   -61.6590 -61.6426 -61.6374 -61.5518 -61.5346 -61.5261 -61.5231 -61.0985
   -61.0801 -61.0700 -61.0660 -60.1843 -30.3429 -30.3128 -30.2938 -30.2793
   -30.2551 -30.2416 -30.2334 -30.2275 -30.1757 -30.1706 -30.1260 -30.1068
   -30.1043 -30.0786 -29.9876 -29.9694 -29.9658 -29.9081 -29.8909 -29.8617
   -29.8404 -29.7979 -29.7581 -29.7290 -29.6170 -29.5971 -29.5858 -29.5799
   -29.5332 -29.5188 -29.4752 -29.4398 -29.3780 -28.9239 -28.8799 -28.8593
   -10.8382  -4.6824  -3.3112  -2.9643  -2.1136  -1.9591  -1.7585  -1.7555
    -1.3405  -1.3246  -1.1259  -1.0014  -0.7410  -0.5992  -0.3944  -0.3880
    -0.2142  -0.2049   0.1369   0.2259   0.4612   0.4791   0.7671   0.9267
     0.9715   1.0256   1.1534   1.2159   1.3585   1.4265   1.4846   1.5997
     1.7367   1.8301   1.9174   1.9375

          k = 0.0521 0.0000 0.0000 ( 22675 PWs)   bands (ev):

   -61.6601 -61.6415 -61.6374 -61.5537 -61.5323 -61.5275 -61.5223 -61.1001
   -61.0788 -61.0703 -61.0654 -60.1843 -30.3478 -30.3130 -30.2947 -30.2868
   -30.2730 -30.2614 -30.2462 -30.2211 -30.2169 -30.1768 -30.1238 -30.1090
   -30.1001 -30.0711 -29.9819 -29.9571 -29.8995 -29.8972 -29.8928 -29.8758
   -29.8488 -29.7926 -29.7655 -29.7535 -29.6162 -29.5919 -29.5886 -29.5811
   -29.5369 -29.4786 -29.4623 -29.4442 -29.3734 -28.9247 -28.8734 -28.8597
   -10.8391  -4.8640  -3.4768  -2.4726  -2.4361  -2.2120  -1.7613  -1.6908
    -1.5037  -1.3321  -1.0758  -1.0574  -0.7303  -0.7028  -0.6063  -0.5085
    -0.3025  -0.2840   0.1082   0.2140   0.4275   0.5025   0.9105   1.0214
     1.0564   1.0894   1.2723   1.3205   1.4249   1.5870   1.5966   1.7255
     1.7795   1.8557   1.9531   2.1051

          k = 0.0521 0.0301 0.0000 ( 22648 PWs)   bands (ev):

   -61.6590 -61.6425 -61.6374 -61.5518 -61.5346 -61.5261 -61.5232 -61.0985
   -61.0801 -61.0700 -61.0660 -60.1843 -30.3429 -30.3128 -30.2938 -30.2794
   -30.2551 -30.2416 -30.2335 -30.2275 -30.1757 -30.1706 -30.1260 -30.1068
   -30.1043 -30.0786 -29.9876 -29.9694 -29.9658 -29.9081 -29.8909 -29.8617
   -29.8404 -29.7979 -29.7582 -29.7290 -29.6171 -29.5971 -29.5858 -29.5799
   -29.5332 -29.5188 -29.4752 -29.4398 -29.3780 -28.9239 -28.8799 -28.8593
   -10.8382  -4.6824  -3.3112  -2.9643  -2.1136  -1.9591  -1.7585  -1.7555
    -1.3405  -1.3246  -1.1259  -1.0014  -0.7410  -0.5992  -0.3944  -0.3880
    -0.2142  -0.2049   0.1369   0.2259   0.4612   0.4791   0.7671   0.9267
     0.9715   1.0256   1.1535   1.2159   1.3585   1.4265   1.4846   1.5997
     1.7367   1.8301   1.9175   1.9375

          k = 0.0521-0.1204 0.0000 ( 22643 PWs)   bands (ev):

   -61.6563 -61.6452 -61.6374 -61.5470 -61.5371 -61.5301 -61.5214 -61.0949
   -61.0813 -61.0736 -61.0648 -60.1844 -30.3306 -30.2996 -30.2841 -30.2739
   -30.2374 -30.2080 -30.1881 -30.1713 -30.1602 -30.1387 -30.1210 -30.1156
   -30.1070 -30.0880 -30.0565 -30.0291 -29.9858 -29.9283 -29.9060 -29.8647
   -29.8268 -29.8077 -29.7198 -29.6942 -29.6406 -29.5984 -29.5822 -29.5778
   -29.5709 -29.5376 -29.4953 -29.4413 -29.4028 -28.9223 -28.8849 -28.8666
   -10.8365  -4.1602  -3.2774  -2.8307  -2.4808  -2.1301  -1.6421  -1.5053
    -1.2017  -1.0284  -0.9228  -0.7976  -0.6184  -0.4335  -0.1988  -0.1503
    -0.0024   0.0293   0.1460   0.3047   0.4298   0.4971   0.5968   0.6924
     0.7493   0.8558   0.9105   0.9961   1.0291   1.1857   1.2947   1.3479
     1.4155   1.4854   1.5770   1.7353

          k = 0.0521-0.0903 0.0000 ( 22614 PWs)   bands (ev):

   -61.6543 -61.6472 -61.6374 -61.5433 -61.5360 -61.5360 -61.5204 -61.0928
   -61.0793 -61.0785 -61.0640 -60.1844 -30.3215 -30.3045 -30.2758 -30.2358
   -30.2266 -30.2137 -30.1494 -30.1472 -30.1421 -30.1385 -30.1350 -30.0978
   -30.0860 -30.0835 -30.0787 -30.0773 -30.0543 -29.9213 -29.8791 -29.8750
   -29.8720 -29.7764 -29.7162 -29.6574 -29.6514 -29.6209 -29.5955 -29.5768
   -29.5726 -29.5627 -29.4642 -29.4417 -29.4410 -28.9214 -28.8795 -28.8779
   -10.8356  -3.3791  -3.3768  -3.3657  -2.2179  -2.2055  -2.0301  -1.1925
    -1.1911  -0.8438  -0.5791  -0.5125  -0.4228  -0.4163  -0.3275  -0.2754
     0.1480   0.2199   0.2702   0.2725   0.2737   0.4549   0.4607   0.6036
     0.6600   0.6778   0.8661   0.9395   0.9706   1.1488   1.1490   1.1616
     1.2627   1.3144   1.3335   1.5059

          k = 0.0521-0.0602 0.0000 ( 22643 PWs)   bands (ev):

   -61.6563 -61.6452 -61.6374 -61.5470 -61.5371 -61.5301 -61.5214 -61.0949
   -61.0813 -61.0736 -61.0648 -60.1844 -30.3305 -30.2997 -30.2840 -30.2739
   -30.2374 -30.2080 -30.1881 -30.1713 -30.1602 -30.1387 -30.1210 -30.1156
   -30.1070 -30.0880 -30.0565 -30.0291 -29.9858 -29.9283 -29.9060 -29.8647
   -29.8268 -29.8077 -29.7198 -29.6942 -29.6406 -29.5984 -29.5823 -29.5778
   -29.5709 -29.5376 -29.4953 -29.4413 -29.4028 -28.9223 -28.8849 -28.8666
   -10.8365  -4.1602  -3.2774  -2.8307  -2.4808  -2.1301  -1.6421  -1.5053
    -1.2017  -1.0284  -0.9228  -0.7977  -0.6184  -0.4335  -0.1988  -0.1503
    -0.0024   0.0293   0.1460   0.3047   0.4298   0.4971   0.5968   0.6924
     0.7494   0.8558   0.9105   0.9961   1.0291   1.1857   1.2947   1.3479
     1.4155   1.4854   1.5770   1.7353

          k =-0.0782 0.0452 0.0000 ( 22668 PWs)   bands (ev):

   -61.6563 -61.6453 -61.6374 -61.5457 -61.5403 -61.5265 -61.5231 -61.0944
   -61.0832 -61.0710 -61.0660 -60.1844 -30.3306 -30.3005 -30.2998 -30.2745
   -30.2213 -30.2030 -30.1923 -30.1810 -30.1565 -30.1373 -30.1270 -30.1084
   -30.0904 -30.0585 -30.0419 -30.0384 -30.0034 -29.9996 -29.8941 -29.8318
   -29.8283 -29.8138 -29.7288 -29.6763 -29.6103 -29.6030 -29.5835 -29.5769
   -29.5708 -29.5511 -29.5379 -29.4191 -29.4000 -28.9224 -28.8896 -28.8620
   -10.8365  -3.8705  -3.8453  -2.6695  -2.5018  -1.6751  -1.6344  -1.5199
    -1.2788  -1.0745  -1.0443  -1.0044  -0.6593  -0.4478  -0.0642   0.0293
     0.0320   0.0910   0.2190   0.2881   0.4368   0.5338   0.5922   0.6318
     0.6923   0.7774   0.8602   1.0016   1.0407   1.0773   1.2343   1.4430
     1.4745   1.5199   1.6567   1.9719

          k =-0.0782 0.0753 0.0000 ( 22643 PWs)   bands (ev):

   -61.6563 -61.6452 -61.6374 -61.5470 -61.5371 -61.5301 -61.5214 -61.0949
   -61.0813 -61.0736 -61.0648 -60.1844 -30.3305 -30.2997 -30.2840 -30.2739
   -30.2374 -30.2080 -30.1881 -30.1713 -30.1602 -30.1387 -30.1210 -30.1156
   -30.1070 -30.0880 -30.0565 -30.0291 -29.9858 -29.9283 -29.9060 -29.8647
   -29.8268 -29.8077 -29.7198 -29.6942 -29.6406 -29.5984 -29.5823 -29.5778
   -29.5709 -29.5376 -29.4953 -29.4413 -29.4028 -28.9223 -28.8849 -28.8666
   -10.8365  -4.1602  -3.2774  -2.8307  -2.4808  -2.1301  -1.6421  -1.5053
    -1.2017  -1.0284  -0.9228  -0.7977  -0.6184  -0.4335  -0.1988  -0.1503
    -0.0024   0.0293   0.1460   0.3047   0.4298   0.4971   0.5968   0.6924
     0.7493   0.8558   0.9105   0.9961   1.0291   1.1857   1.2947   1.3479
     1.4155   1.4854   1.5770   1.7353

          k =-0.0782 0.1054 0.0000 ( 22643 PWs)   bands (ev):

   -61.6563 -61.6452 -61.6374 -61.5470 -61.5371 -61.5301 -61.5214 -61.0949
   -61.0813 -61.0736 -61.0648 -60.1844 -30.3305 -30.2996 -30.2841 -30.2739
   -30.2373 -30.2080 -30.1881 -30.1713 -30.1602 -30.1387 -30.1210 -30.1156
   -30.1070 -30.0880 -30.0565 -30.0291 -29.9858 -29.9283 -29.9060 -29.8647
   -29.8268 -29.8077 -29.7198 -29.6942 -29.6406 -29.5984 -29.5822 -29.5778
   -29.5709 -29.5376 -29.4953 -29.4413 -29.4028 -28.9223 -28.8849 -28.8666
   -10.8365  -4.1602  -3.2774  -2.8307  -2.4808  -2.1301  -1.6421  -1.5053
    -1.2017  -1.0284  -0.9228  -0.7977  -0.6184  -0.4335  -0.1988  -0.1503
    -0.0024   0.0293   0.1460   0.3047   0.4297   0.4971   0.5968   0.6924
     0.7493   0.8558   0.9105   0.9961   1.0291   1.1857   1.2947   1.3479
     1.4155   1.4854   1.5770   1.7353

          k =-0.0782-0.0452 0.0000 ( 22668 PWs)   bands (ev):

   -61.6563 -61.6452 -61.6374 -61.5457 -61.5403 -61.5265 -61.5232 -61.0944
   -61.0832 -61.0710 -61.0660 -60.1844 -30.3306 -30.3005 -30.2999 -30.2745
   -30.2213 -30.2030 -30.1923 -30.1810 -30.1565 -30.1373 -30.1270 -30.1084
   -30.0904 -30.0584 -30.0419 -30.0384 -30.0034 -29.9996 -29.8942 -29.8318
   -29.8283 -29.8138 -29.7288 -29.6763 -29.6103 -29.6030 -29.5835 -29.5769
   -29.5708 -29.5511 -29.5378 -29.4191 -29.4000 -28.9224 -28.8896 -28.8620
   -10.8365  -3.8705  -3.8453  -2.6695  -2.5018  -1.6751  -1.6344  -1.5199
    -1.2788  -1.0745  -1.0443  -1.0044  -0.6593  -0.4478  -0.0642   0.0293
     0.0320   0.0910   0.2190   0.2882   0.4368   0.5338   0.5922   0.6318
     0.6923   0.7774   0.8602   1.0016   1.0407   1.0773   1.2343   1.4430
     1.4745   1.5199   1.6567   1.9719

     the Fermi energy is     1.0811 ev

!    total energy              =   -1946.87214346 Ry
     Harris-Foulkes estimate   =   -1946.87214372 Ry
     estimated scf accuracy    <       0.00000010 Ry

     The total energy is the sum of the following terms:

     one-electron contribution =   -8699.89174285 Ry
     hartree contribution      =    4334.06617568 Ry
     xc contribution           =    -933.42964104 Ry
     ewald contribution        =    3352.48892137 Ry
     electric field correction =       0.00020663 Ry
     smearing contrib. (-TS)   =      -0.10606324 Ry

     convergence has been achieved in  12 iterations
 
 BEEF-vdW xc energy contributions
           1 :   -843.916640631893     
           2 :    784.297331636912     
           3 :   -678.652160796014     
           4 :    548.794608150504     
           5 :   -417.279398157735     
           6 :    301.125064073347     
           7 :   -209.065047468861     
           8 :    142.396603725007     
           9 :   -97.9194939118770     
          10 :    70.8711939511794     
          11 :   -56.5657709185067     
          12 :    50.6216864729138     
          13 :   -48.6320994915548     
          14 :    46.1955579380642     
          15 :   -39.7049079276662     
          16 :    27.4938639423037     
          17 :   -10.5563567034042     
          18 :   -7.78760953900087     
          19 :    23.2570379240708     
          20 :   -32.3820848887926     
          21 :    33.8097278948637     
          22 :   -28.5833977570687     
          23 :    19.4111917987364     
          24 :   -9.46167298364367     
          25 :    1.33877822807949     
          26 :    3.37623353708591     
          27 :   -4.07370437620909     
          28 :   0.883512891377222     
          29 :    5.43991804529401     
          30 :   -13.4943676135005     
          31 :   -60.7728891908671     
          32 :   -43.6913282027525     

     Forces acting on atoms (Ry/au):


     negative rho (up, down):  1.376E+00 0.000E+00
     atom    1 type  1   force =     0.00191493    0.00110689    0.02250013
     atom    2 type  1   force =    -0.00191500    0.00110541    0.02250189
     atom    3 type  1   force =    -0.00000126   -0.00221168    0.02250028
     atom    4 type  1   force =     0.00000110   -0.00000045    0.02313373
     atom    5 type  1   force =     0.00000072    0.03178797   -0.03101179
     atom    6 type  1   force =    -0.00000002   -0.00000042    0.00490322
     atom    7 type  1   force =    -0.02752915   -0.01589453   -0.03101142
     atom    8 type  1   force =     0.02752850   -0.01589339   -0.03101249
     atom    9 type  1   force =     0.00000165   -0.00000120    0.00054824
     atom   10 type  1   force =    -0.00000122   -0.00030572   -0.00119547
     atom   11 type  1   force =    -0.00026577    0.00015365   -0.00120285
     atom   12 type  1   force =     0.00026414    0.00015416   -0.00119554
     atom   13 type  2   force =     0.00000140   -0.00000070    0.00054206

     Total force =     0.002276     Total SCF correction =     0.000359
     SCF correction compared to forces is large: reduce conv_thr to get better values


     entering subroutine stress ...


     negative rho (up, down):  1.376E+00 0.000E+00
          total   stress  (Ry/bohr**3)                   (kbar)     P=  -16.83
  -0.00012048   0.00000000   0.00000000        -17.72      0.00      0.00
   0.00000000  -0.00012048  -0.00000000          0.00    -17.72     -0.00
   0.00000000  -0.00000000  -0.00010227          0.00     -0.00    -15.04


     bfgs converged in  11 scf cycles and  10 bfgs steps
     (criteria: energy <  1.0E+00, force <  1.9E-03)

     End of BFGS Geometry Optimization

     Final energy   =   -1946.8721434623 Ry
Begin final coordinates

ATOMIC_POSITIONS (crystal)
Hf1      0.166666667   0.166666667   0.396510335    0   0   0
Hf1      0.666666667   0.166666667   0.396510335    0   0   0
Hf1      0.166666667   0.666666667   0.396510335    0   0   0
Hf1      0.666666667   0.666666667   0.396510335    0   0   0
Hf1      0.833333333   0.333333333   0.500000000    0   0   0
Hf1      0.333333333   0.333333333   0.500000000    0   0   0
Hf1      0.833333333   0.833333333   0.500000000    0   0   0
Hf1      0.333333333   0.833333333   0.500000000    0   0   0
Hf1     -0.000002899   0.000001402   0.594436734
Hf1      0.503463579  -0.006927535   0.599583680
Hf1     -0.006927918   0.503463771   0.599584933
Hf1      0.503463672   0.503463678   0.599583711
N1       0.000002780  -0.000001368   0.668008921
End final coordinates



     Writing output data file calc.save
 
     init_run     :     19.75s CPU     20.17s WALL (       1 calls)
     electrons    :   8739.04s CPU   9414.91s WALL (      11 calls)
     update_pot   :     37.40s CPU     39.91s WALL (      10 calls)
     forces       :    408.45s CPU    434.33s WALL (      11 calls)
     stress       :   1204.30s CPU   1311.21s WALL (      11 calls)

     Called by init_run:
     wfcinit      :      6.56s CPU      6.66s WALL (       1 calls)
     potinit      :      2.36s CPU      2.51s WALL (       1 calls)

     Called by electrons:
     c_bands      :   2667.22s CPU   2841.80s WALL (     210 calls)
     sum_band     :   2258.53s CPU   2439.26s WALL (     210 calls)
     v_of_rho     :    451.92s CPU    495.43s WALL (     221 calls)
     newd         :   2542.71s CPU   2630.96s WALL (     221 calls)
     mix_rho      :     16.95s CPU     17.48s WALL (     210 calls)
     vdW_energy   :    160.84s CPU    177.38s WALL (     617 calls)
     vdW_ffts     :    407.32s CPU    421.87s WALL (    1256 calls)
     vdW_v        :    169.09s CPU    174.25s WALL (     617 calls)

     Called by c_bands:
     init_us_2    :     21.43s CPU     21.52s WALL (    2215 calls)
     cegterg      :   2264.92s CPU   2322.78s WALL (    1055 calls)

     Called by *egterg:
     h_psi        :   1510.80s CPU   1546.47s WALL (    5638 calls)
     s_psi        :    185.42s CPU    185.76s WALL (    5638 calls)
     g_psi        :      8.53s CPU      8.54s WALL (    4578 calls)
     cdiaghg      :    163.29s CPU    164.43s WALL (    5583 calls)

     Called by h_psi:
     add_vuspsi   :    187.88s CPU    188.27s WALL (    5638 calls)

     General routines
     calbec       :    283.20s CPU    290.01s WALL (    6798 calls)
     fft          :    713.06s CPU    790.08s WALL (   37729 calls)
     ffts         :      1.01s CPU      1.08s WALL (     431 calls)
     fftw         :    848.62s CPU    885.58s WALL (  550386 calls)
     interpolate  :     10.59s CPU     10.86s WALL (     431 calls)
     davcio       :      0.00s CPU      0.04s WALL (       5 calls)
 
     Parallel routines
     fft_scatter  :    950.80s CPU   1062.73s WALL (  588546 calls)
 
     PWSCF        :     2h55m CPU        3h 9m WALL

 
   This run was terminated on:  17:37: 4   3May2018            

=------------------------------------------------------------------------------=
   JOB DONE.
=------------------------------------------------------------------------------=
Job  /afs/slac/g/suncat/bin/suncat-tsmpirun -x LD_LIBRARY_PATH -wdir /scratch/qe775158_5v3Gb pw.x -npool 4 -in pw.inp

TID   HOST_NAME   COMMAND_LINE            STATUS            TERMINATION_TIME
===== ========== ================  =======================  ===================
00000 suncat0170 pw.x -npool 4 -i  Done                     05/03/2018 17:37:04
00001 suncat0170 pw.x -npool 4 -i  Done                     05/03/2018 17:37:04
00002 suncat0170 pw.x -npool 4 -i  Done                     05/03/2018 17:37:04
00003 suncat0170 pw.x -npool 4 -i  Done                     05/03/2018 17:37:04
00004 suncat0170 pw.x -npool 4 -i  Done                     05/03/2018 17:37:04
00005 suncat0170 pw.x -npool 4 -i  Done                     05/03/2018 17:37:04
00006 suncat0170 pw.x -npool 4 -i  Done                     05/03/2018 17:37:04
00007 suncat0170 pw.x -npool 4 -i  Done                     05/03/2018 17:37:04
00008 suncat0169 pw.x -npool 4 -i  Done                     05/03/2018 17:37:04
00009 suncat0169 pw.x -npool 4 -i  Done                     05/03/2018 17:37:04
00010 suncat0169 pw.x -npool 4 -i  Done                     05/03/2018 17:37:04
00011 suncat0169 pw.x -npool 4 -i  Done                     05/03/2018 17:37:04
00012 suncat0169 pw.x -npool 4 -i  Done                     05/03/2018 17:37:04
00013 suncat0169 pw.x -npool 4 -i  Done                     05/03/2018 17:37:04
00014 suncat0169 pw.x -npool 4 -i  Done                     05/03/2018 17:37:04
00015 suncat0169 pw.x -npool 4 -i  Done                     05/03/2018 17:37:04
00016 suncat0273 pw.x -npool 4 -i  Done                     05/03/2018 17:37:04
00017 suncat0273 pw.x -npool 4 -i  Done                     05/03/2018 17:37:04
00018 suncat0273 pw.x -npool 4 -i  Done                     05/03/2018 17:37:04
00019 suncat0273 pw.x -npool 4 -i  Done                     05/03/2018 17:37:04
00020 suncat0273 pw.x -npool 4 -i  Done                     05/03/2018 17:37:04
00021 suncat0273 pw.x -npool 4 -i  Done                     05/03/2018 17:37:04
00022 suncat0273 pw.x -npool 4 -i  Done                     05/03/2018 17:37:04
00023 suncat0273 pw.x -npool 4 -i  Done                     05/03/2018 17:37:04
00024 suncat0272 pw.x -npool 4 -i  Done                     05/03/2018 17:37:04
00025 suncat0272 pw.x -npool 4 -i  Done                     05/03/2018 17:37:04
00026 suncat0272 pw.x -npool 4 -i  Done                     05/03/2018 17:37:04
00027 suncat0272 pw.x -npool 4 -i  Done                     05/03/2018 17:37:04
00028 suncat0272 pw.x -npool 4 -i  Done                     05/03/2018 17:37:04
00029 suncat0272 pw.x -npool 4 -i  Done                     05/03/2018 17:37:04
00030 suncat0272 pw.x -npool 4 -i  Done                     05/03/2018 17:37:04
00031 suncat0272 pw.x -npool 4 -i  Done                     05/03/2018 17:37:04
