  python dir          : /u/if/mamunm/src/espresso
  espresso dir        : /nfs/slac/g/suncatfs/sw/espv18/espresso-dynpy-beef/bin
  pseudo dir          : /u/if/mamunm/psp/gbrv1.5pbe
  ase-espresso py git : GITVERSION



     Program PWSCF v.5.1rc2 (svn rev. 11289) starts on 23Apr2018 at  5: 4: 0 

     This program is part of the open-source Quantum ESPRESSO suite
     for quantum simulation of materials; please cite
         "P. Giannozzi et al., J. Phys.:Condens. Matter 21 395502 (2009);
          URL http://www.quantum-espresso.org", 
     in publications or presentations arising from this work. More details at
     http://www.quantum-espresso.org/quote

     Parallel version (MPI), running on    32 processors
     K-points division:     npool     =       4
     R & G space division:  proc/nbgrp/npool/nimage =       8
     Reading input from pw.inp
     Message from routine read_cards :
     DEPRECATED: no units specified in CELL_PARAMETERS card

     Current dimensions of program PWSCF are:
     Max number of different atomic species (ntypx) = 10
     Max number of k-points (npk) =  40000
     Max angular momentum in pseudopotentials (lmaxx) =  3
     Presently stress not available with electric field


     **************************************************************************
     Initializing libbeef V0.1.1 with the BEEF-vdW functional.
     Citation: Wellendorff et al., PRB 85, 235149 (2012).
     **************************************************************************


     IMPORTANT: XC functional enforced from input :
     Exchange-correlation      = BEEF-VDW ( 1  4 27 13 2)
     Any further DFT definition will be discarded
     Please, verify this is what you really want


     Subspace diagonalization in iterative solution of the eigenvalue problem:
     a serial algorithm will be used

 
     Parallelization info
     --------------------
     sticks:   dense  smooth     PW     G-vecs:    dense   smooth      PW
     Min         510     204     57               100238    25367    3855
     Max         511     205     58               100257    25401    3866
     Sum        4081    1639    463               801953   203051   30885
 


     bravais-lattice index     =            0
     lattice parameter (alat)  =       1.8897  a.u.
     unit-cell volume          =    6741.9070 (a.u.)^3
     number of atoms/cell      =           14
     number of atomic types    =            3
     number of electrons       =       175.00
     number of Kohn-Sham states=           97
     kinetic-energy cutoff     =      36.7493  Ry
     charge density cutoff     =     367.4932  Ry
     convergence threshold     =      1.0E-05
     mixing beta               =       0.3000
     number of iterations used =           10  plain     mixing
     Exchange-correlation      = BEEF-VDW ( 1  4 27 13 2)
     nstep                     =           50


     celldm(1)=   1.889726  celldm(2)=   0.000000  celldm(3)=   0.000000
     celldm(4)=   0.000000  celldm(5)=   0.000000  celldm(6)=   0.000000

     crystal axes: (cart. coord. in units of alat)
               a(1) = (   6.726993   0.000000   0.000000 )  
               a(2) = (   3.363497   5.825747   0.000000 )  
               a(3) = (   0.000000   0.000000  25.492567 )  

     reciprocal axes: (cart. coord. in units 2 pi/alat)
               b(1) = (  0.148655 -0.085826  0.000000 )  
               b(2) = (  0.000000  0.171652  0.000000 )  
               b(3) = (  0.000000  0.000000  0.039227 )  


     PseudoPot. # 1 for Sn read from file:
     /u/if/mamunm/psp/gbrv1.5pbe/Sn.UPF
     MD5 check sum: 469debedee59599fedebd795477fea03
     Pseudo is Ultrasoft + core correction, Zval = 14.0
     Generated by new atomic code, or converted to UPF format
     Using radial grid of  891 points,  6 beta functions with: 
                l(1) =   0
                l(2) =   0
                l(3) =   1
                l(4) =   1
                l(5) =   2
                l(6) =   2
     Q(r) pseudized with  8 coefficients,  rinner =    1.350   1.350   1.350
                                                       1.350   1.350

     PseudoPot. # 2 for S  read from file:
     /u/if/mamunm/psp/gbrv1.5pbe/S.UPF
     MD5 check sum: 88d86576ff6df21479756cfb9bdac1df
     Pseudo is Ultrasoft + core correction, Zval =  6.0
     Generated by new atomic code, or converted to UPF format
     Using radial grid of  907 points,  6 beta functions with: 
                l(1) =   0
                l(2) =   0
                l(3) =   1
                l(4) =   1
                l(5) =   2
                l(6) =   2
     Q(r) pseudized with  8 coefficients,  rinner =    1.300   1.300   1.300
                                                       1.300   1.300

     PseudoPot. # 3 for H  read from file:
     /u/if/mamunm/psp/gbrv1.5pbe/H.UPF
     MD5 check sum: 761ae9a214b05c3daf00ab9f6b793d6f
     Pseudo is Ultrasoft, Zval =  1.0
     Generated by new atomic code, or converted to UPF format
     Using radial grid of  615 points,  2 beta functions with: 
                l(1) =   0
                l(2) =   0
     Q(r) pseudized with  8 coefficients,  rinner =    0.700

     vdW kernel table read from file vdW_kernel_table
     MD5 check sum: 095c7af220d748ca6e76c0b4c6cfb241

     atomic species   valence    mass     pseudopotential
        Sn1           14.00   118.71000     Sn( 1.00)
        S1             6.00    32.06000     S ( 1.00)
        H1             1.00     1.00800     H ( 1.00)

     No symmetry found



   Cartesian axes

     site n.     atom                  positions (alat units)
         1           Sn1 tau(   1) = (   1.6817483   0.9709578  10.0000000  )
         2           Sn1 tau(   2) = (   5.0452448   0.9709578  10.0000000  )
         3           Sn1 tau(   3) = (   3.3634965   3.8838312  10.0000000  )
         4           Sn1 tau(   4) = (   6.7269931   3.8838312  10.0000000  )
         5           Sn1 tau(   5) = (   6.7269931   1.9419156  12.7462834  )
         6           Sn1 tau(   6) = (   3.3634965   1.9419156  12.7462834  )
         7           Sn1 tau(   7) = (   8.4087413   4.8547891  12.7462834  )
         8           Sn1 tau(   8) = (   5.0452448   4.8547891  12.7462834  )
         9           Sn1 tau(   9) = (   0.0000000   0.0000000  15.4925668  )
        10           Sn1 tau(  10) = (   3.3634965   0.0000000  15.4925668  )
        11           Sn1 tau(  11) = (   1.6817483   2.9128734  15.4925668  )
        12           Sn1 tau(  12) = (   5.0452448   2.9128734  15.4925668  )
        13           S1  tau(  13) = (   3.3634965   1.9419156  17.0785668  )
        14           H1  tau(  14) = (   3.3634965   1.9419156  18.3285668  )

     number of k points=    20  Fermi-Dirac smearing, width (Ry)=  0.0110
                       cart. coord. in units 2pi/alat
        k(    1) = (   0.0000000   0.0000000   0.0000000), wk =   0.0555556
        k(    2) = (   0.0000000   0.0286086   0.0000000), wk =   0.1111111
        k(    3) = (   0.0000000   0.0572173   0.0000000), wk =   0.1111111
        k(    4) = (   0.0000000  -0.0858259   0.0000000), wk =   0.0555556
        k(    5) = (   0.0247758  -0.0143043   0.0000000), wk =   0.1111111
        k(    6) = (   0.0247758   0.0143043   0.0000000), wk =   0.1111111
        k(    7) = (   0.0247758   0.0429130   0.0000000), wk =   0.1111111
        k(    8) = (   0.0247758  -0.1001302   0.0000000), wk =   0.1111111
        k(    9) = (   0.0247758  -0.0715216   0.0000000), wk =   0.1111111
        k(   10) = (   0.0247758  -0.0429130   0.0000000), wk =   0.1111111
        k(   11) = (   0.0495516  -0.0286086   0.0000000), wk =   0.1111111
        k(   12) = (   0.0495516   0.0000000   0.0000000), wk =   0.1111111
        k(   13) = (   0.0495516   0.0286086   0.0000000), wk =   0.1111111
        k(   14) = (   0.0495516  -0.1144345   0.0000000), wk =   0.1111111
        k(   15) = (   0.0495516  -0.0858259   0.0000000), wk =   0.1111111
        k(   16) = (   0.0495516  -0.0572173   0.0000000), wk =   0.1111111
        k(   17) = (  -0.0743274   0.0429130   0.0000000), wk =   0.0555556
        k(   18) = (  -0.0743274   0.0715216   0.0000000), wk =   0.1111111
        k(   19) = (  -0.0743274   0.1001302   0.0000000), wk =   0.1111111
        k(   20) = (  -0.0743274  -0.0429130   0.0000000), wk =   0.0555556

     Dense  grid:   801953 G-vectors     FFT dimensions: (  80,  80, 300)

     Smooth grid:   203051 G-vectors     FFT dimensions: (  50,  50, 192)

     Largest allocated arrays     est. size (Mb)     dimensions
        Kohn-Sham Wavefunctions         4.75 Mb     (    3208,   97)
        NL pseudopotentials            11.55 Mb     (    3208,  236)
        Each V/rho on FFT grid          3.71 Mb     (  243200)
        Each G-vector array             0.76 Mb     (  100244)
        G-vector shells                 0.21 Mb     (   27655)
     Largest temporary arrays     est. size (Mb)     dimensions
        Auxiliary wavefunctions        18.99 Mb     (    3208,  388)
        Each subspace H/S matrix        2.30 Mb     (     388,  388)
        Each <psi_i|beta_j> matrix      0.35 Mb     (     236,   97)
        Arrays for rho mixing          37.11 Mb     (  243200,   10)

     Initial potential from superposition of free atoms
     Check: negative starting charge=   -0.001325

     starting charge  162.99941, renormalised to  175.00000

     negative rho (up, down):  1.422E-03 0.000E+00


     ************************************************************************
     *
     * You are using vdW-DF for exchange-correlation in this calculation.
     * Please cite the following three references that made this development
     * possible:
     *
     *   M. Dion, H. Rydberg, E. Schroder, D. C. Langreth, and
     *   B. I. Lundqvist, Phys. Rev. Lett. 92, 246401 (2004).
     *
     *   T. Thonhauser, V. R. Cooper, S. Li, A. Puzder, P. Hyldgaard, and
     *   D. C. Langreth, Phys. Rev. B 76, 125112 (2007).
     *
     *   G. Roman-Perez and J. M. Soler, Phys. Rev. Lett. 103, 096102 (2009).
     *
     *
     * If you are using vdW-DF2, please also cite:
     *
     *   K. Lee, E. D. Murray, L. Kong, B. I. Lundqvist, and
     *   D. C. Langreth, Phys. Rev. B 82, 081101(R) (2010).
     *
     *
     * If you are calculating the stress with vdW-DF, please also cite:
     *
     *   R. Sabatini, E. Kucukbenli, B. Kolb, T. Thonhauser, and
     *   S. de Gironcoli, J. Phys.: Condens. Matter 24, 424209 (2012).
     *
     ************************************************************************

     Carrying out vdW-DF run using the following parameters:

     Nqs =      20    Nr_points =    1024   r_max =   100.000
     q_mesh =
               0.00001000     0.04494208     0.09755937     0.15916263
               0.23128650     0.31572767     0.41458969     0.53033537
               0.66584808     0.82450364     1.01025438     1.22772762
               1.48234092     1.78043706     2.12944203     2.53805004
               3.01644009     3.57652955     4.23227104     5.00000000

     Gradients computed in reciprocal space

     ************************************************************************


 
     Adding external electric field

     Computed dipole along edir(3) : 
        Dipole               -4.3927 Ry au,        -11.1651 Debye
        Dipole field         -0.0082 Ry au
 
        Potential amp.        0.7691 Ry
        Total length         46.9696 bohr
 
     Starting wfc are  113 randomized atomic wfcs

     total cpu time spent up to now is       17.1 secs

     per-process dynamical memory:   107.6 Mb

     Self-consistent Calculation

     iteration #  1     ecut=    36.75 Ry     beta=0.30
     Davidson diagonalization with overlap
     ethr =  1.00E-02,  avg # of iterations =  8.5

     negative rho (up, down):  3.807E-04 0.000E+00
 
     Adding external electric field

     Computed dipole along edir(3) : 
        Dipole               49.7867 Ry au,        126.5450 Debye
        Dipole field          0.0928 Ry au
 
        Potential amp.       -8.7174 Ry
        Total length         46.9696 bohr
 

     total cpu time spent up to now is       54.6 secs

     total energy              =   -1881.74436429 Ry
     Harris-Foulkes estimate   =   -1957.52358316 Ry
     estimated scf accuracy    <     160.99286410 Ry

     iteration #  2     ecut=    36.75 Ry     beta=0.30
     Davidson diagonalization with overlap
     ethr =  1.00E-02,  avg # of iterations = 16.4
 
     Adding external electric field

     Computed dipole along edir(3) : 
        Dipole                8.8596 Ry au,         22.5189 Debye
        Dipole field          0.0165 Ry au
 
        Potential amp.       -1.5513 Ry
        Total length         46.9696 bohr
 

     total cpu time spent up to now is      133.5 secs

     total energy              =   -1723.29194108 Ry
     Harris-Foulkes estimate   =   -2309.85264992 Ry
     estimated scf accuracy    <   14231.45396916 Ry

     iteration #  3     ecut=    36.75 Ry     beta=0.30
     Davidson diagonalization with overlap
     ethr =  1.00E-02,  avg # of iterations =  8.3
 
     Adding external electric field

     Computed dipole along edir(3) : 
        Dipole                7.9008 Ry au,         20.0818 Debye
        Dipole field          0.0147 Ry au
 
        Potential amp.       -1.3834 Ry
        Total length         46.9696 bohr
 

     total cpu time spent up to now is      184.9 secs

     total energy              =   -1912.93240548 Ry
     Harris-Foulkes estimate   =   -1991.41100389 Ry
     estimated scf accuracy    <     927.23550518 Ry

     iteration #  4     ecut=    36.75 Ry     beta=0.30
     Davidson diagonalization with overlap
     ethr =  1.00E-02,  avg # of iterations =  6.0
 
     Adding external electric field

     Computed dipole along edir(3) : 
        Dipole                4.5666 Ry au,         11.6072 Debye
        Dipole field          0.0085 Ry au
 
        Potential amp.       -0.7996 Ry
        Total length         46.9696 bohr
 

     total cpu time spent up to now is      222.7 secs

     total energy              =   -1954.04380349 Ry
     Harris-Foulkes estimate   =   -1957.33361852 Ry
     estimated scf accuracy    <      19.89001207 Ry

     iteration #  5     ecut=    36.75 Ry     beta=0.30
     Davidson diagonalization with overlap
     ethr =  1.00E-02,  avg # of iterations =  2.0
 
     Adding external electric field

     Computed dipole along edir(3) : 
        Dipole                2.7379 Ry au,          6.9590 Debye
        Dipole field          0.0051 Ry au
 
        Potential amp.       -0.4794 Ry
        Total length         46.9696 bohr
 

     total cpu time spent up to now is      249.3 secs

     total energy              =   -1953.74338620 Ry
     Harris-Foulkes estimate   =   -1954.74867653 Ry
     estimated scf accuracy    <       6.13235091 Ry

     iteration #  6     ecut=    36.75 Ry     beta=0.30
     Davidson diagonalization with overlap
     ethr =  3.50E-03,  avg # of iterations =  3.0
 
     Adding external electric field

     Computed dipole along edir(3) : 
        Dipole                1.2204 Ry au,          3.1019 Debye
        Dipole field          0.0023 Ry au
 
        Potential amp.       -0.2137 Ry
        Total length         46.9696 bohr
 

     total cpu time spent up to now is      276.8 secs

     total energy              =   -1953.86236558 Ry
     Harris-Foulkes estimate   =   -1954.09580384 Ry
     estimated scf accuracy    <       0.62095752 Ry

     iteration #  7     ecut=    36.75 Ry     beta=0.30
     Davidson diagonalization with overlap
     ethr =  3.55E-04,  avg # of iterations =  5.7
 
     Adding external electric field

     Computed dipole along edir(3) : 
        Dipole                0.6604 Ry au,          1.6785 Debye
        Dipole field          0.0012 Ry au
 
        Potential amp.       -0.1156 Ry
        Total length         46.9696 bohr
 

     total cpu time spent up to now is      308.5 secs

     total energy              =   -1953.85175305 Ry
     Harris-Foulkes estimate   =   -1953.95801976 Ry
     estimated scf accuracy    <       0.26883600 Ry

     iteration #  8     ecut=    36.75 Ry     beta=0.30
     Davidson diagonalization with overlap
     ethr =  1.54E-04,  avg # of iterations =  4.6
 
     Adding external electric field

     Computed dipole along edir(3) : 
        Dipole               -0.4649 Ry au,         -1.1816 Debye
        Dipole field         -0.0009 Ry au
 
        Potential amp.        0.0814 Ry
        Total length         46.9696 bohr
 

     total cpu time spent up to now is      339.1 secs

     total energy              =   -1953.78809476 Ry
     Harris-Foulkes estimate   =   -1953.90192637 Ry
     estimated scf accuracy    <       0.53294883 Ry

     iteration #  9     ecut=    36.75 Ry     beta=0.30
     Davidson diagonalization with overlap
     ethr =  1.54E-04,  avg # of iterations =  5.2
 
     Adding external electric field

     Computed dipole along edir(3) : 
        Dipole               -0.4807 Ry au,         -1.2219 Debye
        Dipole field         -0.0009 Ry au
 
        Potential amp.        0.0842 Ry
        Total length         46.9696 bohr
 

     total cpu time spent up to now is      370.0 secs

     total energy              =   -1953.84431071 Ry
     Harris-Foulkes estimate   =   -1953.84979135 Ry
     estimated scf accuracy    <       0.14092384 Ry

     iteration # 10     ecut=    36.75 Ry     beta=0.30
     Davidson diagonalization with overlap
     ethr =  8.05E-05,  avg # of iterations =  1.8
 
     Adding external electric field

     Computed dipole along edir(3) : 
        Dipole               -0.3389 Ry au,         -0.8614 Debye
        Dipole field         -0.0006 Ry au
 
        Potential amp.        0.0593 Ry
        Total length         46.9696 bohr
 

     total cpu time spent up to now is      396.6 secs

     total energy              =   -1953.83689327 Ry
     Harris-Foulkes estimate   =   -1953.84582613 Ry
     estimated scf accuracy    <       0.09501618 Ry

     iteration # 11     ecut=    36.75 Ry     beta=0.30
     Davidson diagonalization with overlap
     ethr =  5.43E-05,  avg # of iterations =  2.2

     negative rho (up, down):  5.962E-07 0.000E+00
 
     Adding external electric field

     Computed dipole along edir(3) : 
        Dipole               -0.2393 Ry au,         -0.6082 Debye
        Dipole field         -0.0004 Ry au
 
        Potential amp.        0.0419 Ry
        Total length         46.9696 bohr
 

     total cpu time spent up to now is      423.7 secs

     total energy              =   -1953.83769914 Ry
     Harris-Foulkes estimate   =   -1953.83978606 Ry
     estimated scf accuracy    <       0.01829114 Ry

     iteration # 12     ecut=    36.75 Ry     beta=0.30
     Davidson diagonalization with overlap
     ethr =  1.05E-05,  avg # of iterations =  5.7

     negative rho (up, down):  2.105E-05 0.000E+00
 
     Adding external electric field

     Computed dipole along edir(3) : 
        Dipole               -0.2215 Ry au,         -0.5629 Debye
        Dipole field         -0.0004 Ry au
 
        Potential amp.        0.0388 Ry
        Total length         46.9696 bohr
 

     total cpu time spent up to now is      454.3 secs

     total energy              =   -1953.83852232 Ry
     Harris-Foulkes estimate   =   -1953.83908453 Ry
     estimated scf accuracy    <       0.00589417 Ry

     iteration # 13     ecut=    36.75 Ry     beta=0.30
     Davidson diagonalization with overlap
     ethr =  3.37E-06,  avg # of iterations =  2.3

     negative rho (up, down):  5.748E-03 0.000E+00
 
     Adding external electric field

     Computed dipole along edir(3) : 
        Dipole                0.0978 Ry au,          0.2486 Debye
        Dipole field          0.0002 Ry au
 
        Potential amp.       -0.0171 Ry
        Total length         46.9696 bohr
 

     total cpu time spent up to now is      481.3 secs

     total energy              =   -1953.83751170 Ry
     Harris-Foulkes estimate   =   -1953.83874804 Ry
     estimated scf accuracy    <       0.00371187 Ry

     iteration # 14     ecut=    36.75 Ry     beta=0.30
     Davidson diagonalization with overlap
     ethr =  2.12E-06,  avg # of iterations =  6.7

     negative rho (up, down):  1.619E-03 0.000E+00
 
     Adding external electric field

     Computed dipole along edir(3) : 
        Dipole                0.1667 Ry au,          0.4237 Debye
        Dipole field          0.0003 Ry au
 
        Potential amp.       -0.0292 Ry
        Total length         46.9696 bohr
 

     total cpu time spent up to now is      514.4 secs

     total energy              =   -1953.83778438 Ry
     Harris-Foulkes estimate   =   -1953.83828340 Ry
     estimated scf accuracy    <       0.00222098 Ry

     iteration # 15     ecut=    36.75 Ry     beta=0.30
     Davidson diagonalization with overlap
     ethr =  1.27E-06,  avg # of iterations =  3.1

     negative rho (up, down):  6.389E-04 0.000E+00
 
     Adding external electric field

     Computed dipole along edir(3) : 
        Dipole                0.2559 Ry au,          0.6503 Debye
        Dipole field          0.0005 Ry au
 
        Potential amp.       -0.0448 Ry
        Total length         46.9696 bohr
 

     total cpu time spent up to now is      542.5 secs

     total energy              =   -1953.83800996 Ry
     Harris-Foulkes estimate   =   -1953.83793002 Ry
     estimated scf accuracy    <       0.00025891 Ry

     iteration # 16     ecut=    36.75 Ry     beta=0.30
     Davidson diagonalization with overlap
     ethr =  1.48E-07,  avg # of iterations =  3.8

     negative rho (up, down):  5.379E-04 0.000E+00
 
     Adding external electric field

     Computed dipole along edir(3) : 
        Dipole                0.2681 Ry au,          0.6814 Debye
        Dipole field          0.0005 Ry au
 
        Potential amp.       -0.0469 Ry
        Total length         46.9696 bohr
 

     total cpu time spent up to now is      571.9 secs

     total energy              =   -1953.83803630 Ry
     Harris-Foulkes estimate   =   -1953.83803938 Ry
     estimated scf accuracy    <       0.00003990 Ry

     iteration # 17     ecut=    36.75 Ry     beta=0.30
     Davidson diagonalization with overlap
     ethr =  2.28E-08,  avg # of iterations =  3.6

     negative rho (up, down):  4.311E-04 0.000E+00
 
     Adding external electric field

     Computed dipole along edir(3) : 
        Dipole                0.2738 Ry au,          0.6959 Debye
        Dipole field          0.0005 Ry au
 
        Potential amp.       -0.0479 Ry
        Total length         46.9696 bohr
 

     total cpu time spent up to now is      605.8 secs

     total energy              =   -1953.83805147 Ry
     Harris-Foulkes estimate   =   -1953.83804840 Ry
     estimated scf accuracy    <       0.00002156 Ry

     iteration # 18     ecut=    36.75 Ry     beta=0.30
     Davidson diagonalization with overlap
     ethr =  1.23E-08,  avg # of iterations =  2.4

     negative rho (up, down):  3.794E-04 0.000E+00

     negative rho (up, down):  3.794E-04 0.000E+00

     negative rho (up, down):  3.794E-04 0.000E+00

     negative rho (up, down):  3.794E-04 0.000E+00

     negative rho (up, down):  3.794E-04 0.000E+00

     negative rho (up, down):  3.794E-04 0.000E+00

     negative rho (up, down):  3.794E-04 0.000E+00

     negative rho (up, down):  3.794E-04 0.000E+00

     negative rho (up, down):  3.794E-04 0.000E+00

     negative rho (up, down):  3.794E-04 0.000E+00

     negative rho (up, down):  3.794E-04 0.000E+00

     negative rho (up, down):  3.794E-04 0.000E+00

     negative rho (up, down):  3.794E-04 0.000E+00

     negative rho (up, down):  3.794E-04 0.000E+00

     negative rho (up, down):  3.794E-04 0.000E+00

     negative rho (up, down):  3.794E-04 0.000E+00

     negative rho (up, down):  3.794E-04 0.000E+00

     negative rho (up, down):  3.794E-04 0.000E+00

     negative rho (up, down):  3.794E-04 0.000E+00

     negative rho (up, down):  3.794E-04 0.000E+00

     negative rho (up, down):  3.794E-04 0.000E+00

     negative rho (up, down):  3.794E-04 0.000E+00

     negative rho (up, down):  3.794E-04 0.000E+00

     negative rho (up, down):  3.794E-04 0.000E+00

     negative rho (up, down):  3.794E-04 0.000E+00

     negative rho (up, down):  3.794E-04 0.000E+00

     negative rho (up, down):  3.794E-04 0.000E+00

     negative rho (up, down):  3.794E-04 0.000E+00

     negative rho (up, down):  3.794E-04 0.000E+00

     negative rho (up, down):  3.794E-04 0.000E+00

     negative rho (up, down):  3.794E-04 0.000E+00

     negative rho (up, down):  3.794E-04 0.000E+00

     negative rho (up, down):  3.794E-04 0.000E+00

     negative rho (up, down):  3.794E-04 0.000E+00

     negative rho (up, down):  3.794E-04 0.000E+00
 
     Adding external electric field

     Computed dipole along edir(3) : 
        Dipole                0.2966 Ry au,          0.7540 Debye
        Dipole field          0.0006 Ry au
 
        Potential amp.       -0.0519 Ry
        Total length         46.9696 bohr
 

     total cpu time spent up to now is      702.6 secs

     End of self-consistent calculation

          k = 0.0000 0.0000 0.0000 ( 25377 PWs)   bands (ev):

   -21.0832 -20.9861 -20.9852 -20.9852 -20.9583 -20.9583 -20.8904 -20.8887
   -20.8887 -20.8836 -20.8584 -20.8584 -20.8439 -20.8439 -20.8187 -20.8151
   -20.8150 -20.7793 -20.7745 -20.7708 -20.7708 -20.7697 -20.7696 -20.7606
   -20.7605 -20.7532 -20.7531 -20.7418 -20.7380 -20.7380 -20.7355 -20.7287
   -20.7287 -20.7269 -20.7159 -20.7158 -20.6932 -20.6932 -20.6689 -20.6689
   -20.6627 -20.6537 -20.6536 -20.6458 -20.6430 -20.6430 -20.6269 -20.6269
   -20.6257 -20.6242 -20.6242 -20.6233 -20.6106 -20.6106 -20.6048 -20.6047
   -20.6001 -20.5996 -20.5848 -20.5848 -14.4378  -9.6009  -8.6853  -7.3366
    -6.0238  -5.9615  -5.9615  -5.3475  -5.3474  -5.2417  -4.7438  -4.5095
    -4.5095  -4.0541  -2.8234  -2.8234  -2.6808  -2.6808  -2.5439  -2.0049
    -1.4883  -1.4076  -1.4076  -0.6410  -0.6410  -0.4147   0.9623   2.1214
     2.1214   2.2198   2.7582   2.7582   2.8755   3.2497   3.7307   3.7308
     3.7454

          k = 0.0000 0.0286 0.0000 ( 25365 PWs)   bands (ev):

   -21.0764 -20.9847 -20.9795 -20.9768 -20.9606 -20.9557 -20.8922 -20.8892
   -20.8861 -20.8854 -20.8601 -20.8559 -20.8472 -20.8410 -20.8134 -20.8071
   -20.8049 -20.7783 -20.7756 -20.7717 -20.7692 -20.7628 -20.7623 -20.7568
   -20.7557 -20.7542 -20.7448 -20.7409 -20.7368 -20.7337 -20.7313 -20.7294
   -20.7266 -20.7250 -20.7162 -20.7155 -20.6951 -20.6926 -20.6702 -20.6700
   -20.6663 -20.6576 -20.6570 -20.6496 -20.6463 -20.6462 -20.6333 -20.6309
   -20.6295 -20.6271 -20.6269 -20.6241 -20.6183 -20.6172 -20.6108 -20.6101
   -20.6042 -20.6042 -20.5938 -20.5890 -14.4355  -9.4857  -8.5981  -7.3438
    -6.5596  -6.1191  -6.0840  -5.7075  -5.4217  -5.3712  -4.7424  -4.4066
    -4.3779  -3.9940  -2.7061  -2.6783  -2.4552  -2.3649  -2.1933  -1.8786
    -1.2518  -1.2458  -0.9858  -0.4197  -0.4076   0.2069   1.1695   1.3523
     1.9768   2.0725   2.6216   2.7881   2.9805   3.1229   3.2186   3.3653
     3.7800

          k = 0.0000 0.0572 0.0000 ( 25367 PWs)   bands (ev):

   -21.0610 -20.9846 -20.9701 -20.9597 -20.9569 -20.9457 -20.9053 -20.8995
   -20.8840 -20.8758 -20.8629 -20.8547 -20.8503 -20.8336 -20.8048 -20.7953
   -20.7828 -20.7784 -20.7764 -20.7658 -20.7635 -20.7549 -20.7516 -20.7484
   -20.7469 -20.7410 -20.7386 -20.7327 -20.7298 -20.7293 -20.7251 -20.7219
   -20.7215 -20.7169 -20.7120 -20.7098 -20.6980 -20.6857 -20.6776 -20.6739
   -20.6735 -20.6691 -20.6636 -20.6618 -20.6552 -20.6536 -20.6467 -20.6454
   -20.6396 -20.6385 -20.6373 -20.6362 -20.6308 -20.6277 -20.6242 -20.6236
   -20.6169 -20.6141 -20.6044 -20.5916 -14.4308  -9.1498  -8.3814  -7.6733
    -7.1072  -6.4623  -6.3471  -6.0636  -5.5681  -5.5259  -5.0140  -4.3770
    -4.2558  -3.8923  -2.7840  -2.3916  -1.8191  -1.8087  -1.3927  -0.8347
    -0.7929  -0.6055  -0.1052   0.0755   0.3761   0.5703   1.0138   1.2432
     1.4156   1.9042   1.9903   2.1670   2.2556   2.3802   3.0119   3.2405
     3.4458

          k = 0.0000-0.0858 0.0000 ( 25386 PWs)   bands (ev):

   -21.0518 -20.9865 -20.9713 -20.9544 -20.9380 -20.9264 -20.9234 -20.9156
   -20.8828 -20.8677 -20.8638 -20.8609 -20.8464 -20.8300 -20.8044 -20.7976
   -20.7838 -20.7643 -20.7605 -20.7582 -20.7562 -20.7521 -20.7506 -20.7465
   -20.7407 -20.7395 -20.7368 -20.7307 -20.7277 -20.7275 -20.7195 -20.7166
   -20.7165 -20.7090 -20.7050 -20.6943 -20.6936 -20.6847 -20.6843 -20.6771
   -20.6744 -20.6728 -20.6702 -20.6651 -20.6615 -20.6609 -20.6593 -20.6559
   -20.6543 -20.6485 -20.6465 -20.6461 -20.6417 -20.6391 -20.6320 -20.6249
   -20.6195 -20.6185 -20.6042 -20.5919 -14.4285  -8.7621  -8.4276  -7.9428
    -7.3636  -6.5567  -6.4379  -6.0217  -5.7785  -5.6347  -5.2393  -4.2487
    -4.2416  -3.7762  -3.0256  -2.2373  -1.0886  -0.9329  -0.9287  -0.7916
    -0.6271  -0.3256   0.1186   0.3254   0.5291   0.7976   1.1431   1.3000
     1.4932   1.6038   1.8701   2.0838   2.3280   2.3827   2.4294   2.6104
     2.6183

          k = 0.0248-0.0143 0.0000 ( 25365 PWs)   bands (ev):

   -21.0764 -20.9847 -20.9795 -20.9768 -20.9606 -20.9557 -20.8922 -20.8892
   -20.8861 -20.8854 -20.8601 -20.8559 -20.8472 -20.8410 -20.8134 -20.8071
   -20.8049 -20.7783 -20.7756 -20.7717 -20.7692 -20.7628 -20.7623 -20.7568
   -20.7557 -20.7542 -20.7448 -20.7409 -20.7368 -20.7337 -20.7313 -20.7294
   -20.7266 -20.7250 -20.7162 -20.7155 -20.6951 -20.6926 -20.6702 -20.6700
   -20.6663 -20.6576 -20.6570 -20.6496 -20.6463 -20.6462 -20.6333 -20.6309
   -20.6295 -20.6271 -20.6269 -20.6241 -20.6183 -20.6172 -20.6109 -20.6101
   -20.6042 -20.6042 -20.5938 -20.5890 -14.4355  -9.4857  -8.5981  -7.3438
    -6.5596  -6.1191  -6.0840  -5.7075  -5.4217  -5.3712  -4.7424  -4.4066
    -4.3779  -3.9940  -2.7061  -2.6783  -2.4552  -2.3649  -2.1933  -1.8786
    -1.2518  -1.2458  -0.9858  -0.4197  -0.4076   0.2069   1.1695   1.3523
     1.9768   2.0725   2.6216   2.7881   2.9805   3.1229   3.2186   3.3653
     3.7800

          k = 0.0248 0.0143 0.0000 ( 25365 PWs)   bands (ev):

   -21.0764 -20.9847 -20.9795 -20.9768 -20.9606 -20.9557 -20.8922 -20.8892
   -20.8861 -20.8854 -20.8601 -20.8559 -20.8472 -20.8410 -20.8134 -20.8072
   -20.8048 -20.7783 -20.7756 -20.7717 -20.7692 -20.7628 -20.7623 -20.7568
   -20.7557 -20.7542 -20.7448 -20.7409 -20.7368 -20.7337 -20.7313 -20.7294
   -20.7266 -20.7250 -20.7162 -20.7155 -20.6951 -20.6926 -20.6702 -20.6700
   -20.6663 -20.6576 -20.6570 -20.6496 -20.6463 -20.6462 -20.6333 -20.6309
   -20.6295 -20.6271 -20.6269 -20.6241 -20.6184 -20.6172 -20.6108 -20.6101
   -20.6042 -20.6042 -20.5938 -20.5890 -14.4355  -9.4857  -8.5981  -7.3438
    -6.5596  -6.1191  -6.0840  -5.7075  -5.4216  -5.3712  -4.7424  -4.4066
    -4.3779  -3.9940  -2.7061  -2.6783  -2.4553  -2.3649  -2.1933  -1.8786
    -1.2518  -1.2458  -0.9858  -0.4197  -0.4076   0.2069   1.1695   1.3523
     1.9768   2.0725   2.6216   2.7881   2.9805   3.1229   3.2186   3.3653
     3.7799

          k = 0.0248 0.0429 0.0000 ( 25362 PWs)   bands (ev):

   -21.0650 -20.9810 -20.9749 -20.9644 -20.9599 -20.9490 -20.9030 -20.8897
   -20.8883 -20.8784 -20.8624 -20.8532 -20.8509 -20.8358 -20.8010 -20.8004
   -20.7910 -20.7826 -20.7701 -20.7667 -20.7641 -20.7604 -20.7574 -20.7510
   -20.7492 -20.7403 -20.7387 -20.7356 -20.7344 -20.7308 -20.7290 -20.7258
   -20.7206 -20.7188 -20.7163 -20.7105 -20.6981 -20.6889 -20.6755 -20.6736
   -20.6698 -20.6656 -20.6622 -20.6548 -20.6530 -20.6516 -20.6459 -20.6409
   -20.6371 -20.6351 -20.6333 -20.6293 -20.6269 -20.6244 -20.6213 -20.6176
   -20.6157 -20.6096 -20.5997 -20.5980 -14.4320  -9.2594  -8.4407  -7.4485
    -6.9563  -6.7256  -6.2477  -6.0787  -5.4697  -5.0105  -4.9234  -4.6493
    -4.2469  -4.0067  -2.6751  -2.4941  -2.2812  -1.7081  -1.5023  -1.3079
    -0.9301  -0.6850  -0.4279  -0.2531   0.4543   0.6332   1.0598   1.1326
     1.4078   1.6814   2.0328   2.5631   2.8720   2.9585   3.0895   3.3520
     3.3706

          k = 0.0248-0.1001 0.0000 ( 25368 PWs)   bands (ev):

   -21.0513 -20.9841 -20.9683 -20.9563 -20.9505 -20.9281 -20.9232 -20.9018
   -20.8872 -20.8679 -20.8640 -20.8593 -20.8431 -20.8313 -20.8077 -20.7917
   -20.7758 -20.7728 -20.7641 -20.7584 -20.7542 -20.7528 -20.7516 -20.7455
   -20.7431 -20.7406 -20.7358 -20.7326 -20.7291 -20.7248 -20.7214 -20.7181
   -20.7161 -20.7107 -20.7045 -20.7009 -20.6946 -20.6859 -20.6837 -20.6784
   -20.6760 -20.6705 -20.6685 -20.6652 -20.6628 -20.6601 -20.6569 -20.6555
   -20.6511 -20.6466 -20.6449 -20.6394 -20.6371 -20.6340 -20.6285 -20.6245
   -20.6228 -20.6192 -20.6089 -20.5994 -14.4285  -8.8506  -8.2856  -7.8223
    -7.3345  -7.0642  -6.4867  -6.1423  -5.5995  -5.2458  -4.9062  -4.6660
    -3.9556  -3.8852  -3.0668  -2.4000  -1.6591  -1.0427  -0.7923  -0.6057
    -0.3830  -0.1480   0.0617   0.2795   0.3663   0.7290   0.9907   1.2372
     1.3594   1.7145   1.9371   2.2723   2.5358   2.6675   2.7515   3.0098
     3.0995

          k = 0.0248-0.0715 0.0000 ( 25368 PWs)   bands (ev):

   -21.0513 -20.9841 -20.9683 -20.9563 -20.9505 -20.9281 -20.9232 -20.9018
   -20.8872 -20.8679 -20.8640 -20.8593 -20.8431 -20.8313 -20.8077 -20.7917
   -20.7758 -20.7728 -20.7641 -20.7584 -20.7542 -20.7529 -20.7516 -20.7455
   -20.7432 -20.7405 -20.7358 -20.7326 -20.7291 -20.7248 -20.7214 -20.7181
   -20.7161 -20.7107 -20.7045 -20.7009 -20.6946 -20.6859 -20.6837 -20.6784
   -20.6760 -20.6705 -20.6685 -20.6652 -20.6628 -20.6601 -20.6569 -20.6555
   -20.6511 -20.6466 -20.6450 -20.6394 -20.6371 -20.6340 -20.6285 -20.6245
   -20.6228 -20.6192 -20.6089 -20.5994 -14.4285  -8.8506  -8.2856  -7.8223
    -7.3345  -7.0642  -6.4867  -6.1423  -5.5995  -5.2458  -4.9063  -4.6660
    -3.9556  -3.8852  -3.0668  -2.4000  -1.6591  -1.0427  -0.7924  -0.6057
    -0.3830  -0.1480   0.0617   0.2795   0.3663   0.7290   0.9907   1.2372
     1.3595   1.7146   1.9371   2.2723   2.5358   2.6675   2.7515   3.0098
     3.0995

          k = 0.0248-0.0429 0.0000 ( 25362 PWs)   bands (ev):

   -21.0650 -20.9810 -20.9749 -20.9644 -20.9599 -20.9490 -20.9030 -20.8897
   -20.8883 -20.8784 -20.8624 -20.8532 -20.8509 -20.8358 -20.8010 -20.8003
   -20.7910 -20.7827 -20.7700 -20.7667 -20.7641 -20.7604 -20.7575 -20.7509
   -20.7492 -20.7403 -20.7387 -20.7356 -20.7344 -20.7308 -20.7289 -20.7258
   -20.7206 -20.7188 -20.7162 -20.7105 -20.6981 -20.6889 -20.6755 -20.6736
   -20.6698 -20.6656 -20.6622 -20.6548 -20.6530 -20.6516 -20.6459 -20.6409
   -20.6371 -20.6351 -20.6333 -20.6292 -20.6270 -20.6244 -20.6213 -20.6176
   -20.6157 -20.6096 -20.5997 -20.5980 -14.4320  -9.2594  -8.4407  -7.4485
    -6.9563  -6.7256  -6.2477  -6.0787  -5.4697  -5.0105  -4.9234  -4.6493
    -4.2469  -4.0067  -2.6751  -2.4941  -2.2812  -1.7081  -1.5023  -1.3079
    -0.9301  -0.6850  -0.4279  -0.2531   0.4543   0.6332   1.0598   1.1326
     1.4078   1.6814   2.0328   2.5631   2.8720   2.9585   3.0895   3.3520
     3.3706

          k = 0.0496-0.0286 0.0000 ( 25367 PWs)   bands (ev):

   -21.0610 -20.9846 -20.9701 -20.9597 -20.9570 -20.9457 -20.9053 -20.8995
   -20.8840 -20.8758 -20.8629 -20.8548 -20.8503 -20.8336 -20.8048 -20.7953
   -20.7828 -20.7784 -20.7764 -20.7658 -20.7635 -20.7549 -20.7515 -20.7484
   -20.7469 -20.7410 -20.7386 -20.7327 -20.7298 -20.7293 -20.7251 -20.7219
   -20.7215 -20.7169 -20.7120 -20.7098 -20.6980 -20.6857 -20.6776 -20.6739
   -20.6735 -20.6691 -20.6636 -20.6618 -20.6552 -20.6536 -20.6467 -20.6454
   -20.6396 -20.6385 -20.6373 -20.6362 -20.6308 -20.6277 -20.6242 -20.6236
   -20.6170 -20.6141 -20.6044 -20.5916 -14.4308  -9.1498  -8.3814  -7.6733
    -7.1072  -6.4623  -6.3471  -6.0636  -5.5681  -5.5259  -5.0140  -4.3770
    -4.2558  -3.8923  -2.7840  -2.3916  -1.8191  -1.8087  -1.3927  -0.8347
    -0.7928  -0.6055  -0.1052   0.0755   0.3761   0.5703   1.0138   1.2432
     1.4156   1.9042   1.9903   2.1670   2.2556   2.3802   3.0119   3.2405
     3.4458

          k = 0.0496 0.0000 0.0000 ( 25362 PWs)   bands (ev):

   -21.0650 -20.9810 -20.9749 -20.9644 -20.9599 -20.9490 -20.9030 -20.8897
   -20.8883 -20.8784 -20.8624 -20.8532 -20.8509 -20.8357 -20.8010 -20.8003
   -20.7910 -20.7826 -20.7700 -20.7667 -20.7641 -20.7604 -20.7575 -20.7510
   -20.7492 -20.7403 -20.7387 -20.7356 -20.7344 -20.7308 -20.7290 -20.7258
   -20.7206 -20.7188 -20.7163 -20.7105 -20.6981 -20.6888 -20.6755 -20.6736
   -20.6698 -20.6656 -20.6622 -20.6548 -20.6530 -20.6516 -20.6459 -20.6409
   -20.6371 -20.6351 -20.6333 -20.6293 -20.6269 -20.6244 -20.6213 -20.6176
   -20.6157 -20.6096 -20.5997 -20.5981 -14.4320  -9.2594  -8.4407  -7.4485
    -6.9563  -6.7256  -6.2477  -6.0787  -5.4697  -5.0105  -4.9234  -4.6493
    -4.2469  -4.0067  -2.6751  -2.4941  -2.2812  -1.7081  -1.5023  -1.3079
    -0.9301  -0.6850  -0.4279  -0.2531   0.4543   0.6332   1.0598   1.1326
     1.4078   1.6814   2.0328   2.5631   2.8720   2.9585   3.0895   3.3520
     3.3706

          k = 0.0496 0.0286 0.0000 ( 25367 PWs)   bands (ev):

   -21.0610 -20.9846 -20.9701 -20.9597 -20.9569 -20.9457 -20.9053 -20.8995
   -20.8840 -20.8758 -20.8629 -20.8548 -20.8503 -20.8336 -20.8049 -20.7953
   -20.7829 -20.7783 -20.7763 -20.7658 -20.7635 -20.7548 -20.7516 -20.7483
   -20.7469 -20.7410 -20.7386 -20.7327 -20.7297 -20.7293 -20.7251 -20.7219
   -20.7215 -20.7169 -20.7121 -20.7098 -20.6979 -20.6857 -20.6776 -20.6739
   -20.6735 -20.6691 -20.6636 -20.6618 -20.6553 -20.6536 -20.6468 -20.6454
   -20.6396 -20.6385 -20.6374 -20.6362 -20.6308 -20.6277 -20.6242 -20.6236
   -20.6169 -20.6140 -20.6044 -20.5916 -14.4308  -9.1498  -8.3814  -7.6733
    -7.1072  -6.4622  -6.3471  -6.0636  -5.5681  -5.5259  -5.0140  -4.3770
    -4.2557  -3.8924  -2.7840  -2.3916  -1.8191  -1.8087  -1.3927  -0.8347
    -0.7929  -0.6055  -0.1052   0.0755   0.3761   0.5703   1.0138   1.2432
     1.4156   1.9042   1.9903   2.1670   2.2556   2.3802   3.0119   3.2405
     3.4458

          k = 0.0496-0.1144 0.0000 ( 25368 PWs)   bands (ev):

   -21.0513 -20.9841 -20.9683 -20.9563 -20.9505 -20.9281 -20.9232 -20.9018
   -20.8872 -20.8679 -20.8640 -20.8593 -20.8432 -20.8313 -20.8077 -20.7918
   -20.7758 -20.7728 -20.7641 -20.7584 -20.7541 -20.7528 -20.7516 -20.7455
   -20.7431 -20.7405 -20.7358 -20.7326 -20.7291 -20.7248 -20.7213 -20.7181
   -20.7161 -20.7107 -20.7045 -20.7009 -20.6946 -20.6860 -20.6837 -20.6784
   -20.6760 -20.6705 -20.6685 -20.6652 -20.6628 -20.6601 -20.6569 -20.6555
   -20.6511 -20.6466 -20.6449 -20.6394 -20.6371 -20.6340 -20.6285 -20.6245
   -20.6228 -20.6192 -20.6088 -20.5994 -14.4285  -8.8506  -8.2856  -7.8223
    -7.3345  -7.0642  -6.4867  -6.1423  -5.5995  -5.2458  -4.9063  -4.6660
    -3.9556  -3.8852  -3.0668  -2.4000  -1.6591  -1.0427  -0.7923  -0.6057
    -0.3830  -0.1480   0.0617   0.2795   0.3663   0.7290   0.9907   1.2372
     1.3594   1.7145   1.9371   2.2723   2.5358   2.6676   2.7515   3.0098
     3.0995

          k = 0.0496-0.0858 0.0000 ( 25314 PWs)   bands (ev):

   -21.0454 -20.9854 -20.9603 -20.9513 -20.9495 -20.9442 -20.9071 -20.9063
   -20.8935 -20.8649 -20.8621 -20.8610 -20.8333 -20.8287 -20.8239 -20.7724
   -20.7701 -20.7667 -20.7630 -20.7587 -20.7566 -20.7561 -20.7507 -20.7425
   -20.7410 -20.7388 -20.7386 -20.7306 -20.7272 -20.7241 -20.7194 -20.7139
   -20.7127 -20.7048 -20.6996 -20.6965 -20.6915 -20.6894 -20.6894 -20.6847
   -20.6809 -20.6757 -20.6712 -20.6665 -20.6642 -20.6606 -20.6600 -20.6587
   -20.6547 -20.6472 -20.6471 -20.6404 -20.6344 -20.6312 -20.6305 -20.6304
   -20.6277 -20.6187 -20.6171 -20.6102 -14.4273  -8.6265  -8.0644  -8.0391
    -7.6157  -7.0457  -6.9696  -5.9654  -5.5233  -5.4893  -4.7165  -4.3152
    -3.9899  -3.8407  -3.3162  -2.4698  -1.1418  -1.1050  -1.0866  -0.4125
    -0.3529  -0.3128   0.5722   0.5999   0.6340   1.1082   1.1599   1.4363
     1.6961   1.7101   1.7248   2.2413   2.3621   2.5860   2.7258   2.7691
     2.8500

          k = 0.0496-0.0572 0.0000 ( 25368 PWs)   bands (ev):

   -21.0513 -20.9841 -20.9683 -20.9563 -20.9505 -20.9281 -20.9232 -20.9018
   -20.8872 -20.8679 -20.8640 -20.8593 -20.8432 -20.8313 -20.8077 -20.7917
   -20.7758 -20.7728 -20.7641 -20.7584 -20.7542 -20.7529 -20.7516 -20.7455
   -20.7432 -20.7405 -20.7358 -20.7326 -20.7291 -20.7248 -20.7214 -20.7181
   -20.7161 -20.7107 -20.7045 -20.7009 -20.6946 -20.6859 -20.6837 -20.6784
   -20.6760 -20.6705 -20.6685 -20.6652 -20.6628 -20.6601 -20.6569 -20.6555
   -20.6511 -20.6466 -20.6450 -20.6394 -20.6371 -20.6340 -20.6285 -20.6245
   -20.6228 -20.6192 -20.6089 -20.5994 -14.4285  -8.8506  -8.2856  -7.8223
    -7.3345  -7.0642  -6.4867  -6.1423  -5.5995  -5.2458  -4.9063  -4.6660
    -3.9556  -3.8852  -3.0668  -2.4000  -1.6591  -1.0427  -0.7923  -0.6057
    -0.3831  -0.1480   0.0617   0.2795   0.3663   0.7290   0.9907   1.2372
     1.3594   1.7146   1.9371   2.2723   2.5358   2.6675   2.7515   3.0098
     3.0995

          k =-0.0743 0.0429 0.0000 ( 25386 PWs)   bands (ev):

   -21.0518 -20.9865 -20.9713 -20.9544 -20.9380 -20.9264 -20.9234 -20.9156
   -20.8828 -20.8677 -20.8638 -20.8609 -20.8465 -20.8300 -20.8044 -20.7975
   -20.7838 -20.7643 -20.7605 -20.7582 -20.7562 -20.7522 -20.7506 -20.7465
   -20.7406 -20.7395 -20.7368 -20.7307 -20.7277 -20.7276 -20.7195 -20.7166
   -20.7165 -20.7090 -20.7050 -20.6943 -20.6936 -20.6847 -20.6843 -20.6771
   -20.6744 -20.6728 -20.6702 -20.6650 -20.6615 -20.6609 -20.6593 -20.6559
   -20.6543 -20.6484 -20.6465 -20.6461 -20.6417 -20.6391 -20.6321 -20.6250
   -20.6194 -20.6185 -20.6042 -20.5919 -14.4285  -8.7621  -8.4276  -7.9428
    -7.3636  -6.5567  -6.4379  -6.0217  -5.7785  -5.6347  -5.2393  -4.2487
    -4.2416  -3.7762  -3.0256  -2.2373  -1.0886  -0.9329  -0.9287  -0.7916
    -0.6271  -0.3256   0.1186   0.3254   0.5291   0.7976   1.1431   1.3000
     1.4932   1.6038   1.8701   2.0838   2.3280   2.3827   2.4294   2.6104
     2.6183

          k =-0.0743 0.0715 0.0000 ( 25368 PWs)   bands (ev):

   -21.0513 -20.9841 -20.9683 -20.9563 -20.9505 -20.9281 -20.9232 -20.9018
   -20.8872 -20.8679 -20.8640 -20.8593 -20.8432 -20.8313 -20.8077 -20.7917
   -20.7758 -20.7729 -20.7641 -20.7584 -20.7542 -20.7528 -20.7516 -20.7455
   -20.7431 -20.7406 -20.7358 -20.7326 -20.7291 -20.7248 -20.7214 -20.7181
   -20.7161 -20.7107 -20.7045 -20.7009 -20.6946 -20.6859 -20.6837 -20.6784
   -20.6760 -20.6705 -20.6685 -20.6652 -20.6628 -20.6601 -20.6569 -20.6555
   -20.6511 -20.6466 -20.6449 -20.6394 -20.6371 -20.6340 -20.6285 -20.6245
   -20.6228 -20.6192 -20.6089 -20.5994 -14.4285  -8.8506  -8.2856  -7.8223
    -7.3345  -7.0642  -6.4867  -6.1423  -5.5995  -5.2458  -4.9062  -4.6660
    -3.9556  -3.8852  -3.0668  -2.4000  -1.6591  -1.0427  -0.7923  -0.6057
    -0.3830  -0.1480   0.0617   0.2795   0.3663   0.7290   0.9907   1.2372
     1.3594   1.7145   1.9371   2.2723   2.5358   2.6675   2.7515   3.0098
     3.0995

          k =-0.0743 0.1001 0.0000 ( 25368 PWs)   bands (ev):

   -21.0513 -20.9841 -20.9683 -20.9563 -20.9505 -20.9281 -20.9232 -20.9018
   -20.8872 -20.8679 -20.8640 -20.8593 -20.8432 -20.8313 -20.8077 -20.7918
   -20.7758 -20.7727 -20.7641 -20.7584 -20.7542 -20.7528 -20.7516 -20.7455
   -20.7432 -20.7405 -20.7358 -20.7326 -20.7291 -20.7248 -20.7213 -20.7181
   -20.7161 -20.7108 -20.7045 -20.7009 -20.6946 -20.6860 -20.6837 -20.6784
   -20.6760 -20.6705 -20.6685 -20.6652 -20.6628 -20.6601 -20.6569 -20.6555
   -20.6511 -20.6466 -20.6449 -20.6394 -20.6371 -20.6340 -20.6285 -20.6245
   -20.6228 -20.6192 -20.6088 -20.5994 -14.4285  -8.8506  -8.2856  -7.8223
    -7.3345  -7.0642  -6.4867  -6.1423  -5.5995  -5.2458  -4.9063  -4.6660
    -3.9556  -3.8852  -3.0668  -2.4000  -1.6591  -1.0427  -0.7924  -0.6057
    -0.3830  -0.1480   0.0617   0.2795   0.3663   0.7290   0.9907   1.2372
     1.3595   1.7146   1.9371   2.2723   2.5358   2.6676   2.7515   3.0098
     3.0995

          k =-0.0743-0.0429 0.0000 ( 25386 PWs)   bands (ev):

   -21.0518 -20.9865 -20.9713 -20.9544 -20.9380 -20.9264 -20.9234 -20.9156
   -20.8828 -20.8677 -20.8638 -20.8609 -20.8464 -20.8300 -20.8044 -20.7977
   -20.7837 -20.7644 -20.7605 -20.7581 -20.7561 -20.7521 -20.7506 -20.7466
   -20.7407 -20.7394 -20.7369 -20.7306 -20.7276 -20.7274 -20.7195 -20.7166
   -20.7166 -20.7090 -20.7051 -20.6945 -20.6936 -20.6847 -20.6843 -20.6770
   -20.6744 -20.6728 -20.6702 -20.6651 -20.6615 -20.6609 -20.6593 -20.6559
   -20.6543 -20.6484 -20.6466 -20.6461 -20.6417 -20.6392 -20.6321 -20.6250
   -20.6194 -20.6184 -20.6042 -20.5919 -14.4285  -8.7621  -8.4276  -7.9428
    -7.3636  -6.5567  -6.4379  -6.0217  -5.7785  -5.6346  -5.2393  -4.2487
    -4.2415  -3.7762  -3.0256  -2.2373  -1.0886  -0.9329  -0.9286  -0.7916
    -0.6271  -0.3256   0.1186   0.3253   0.5291   0.7976   1.1432   1.3000
     1.4933   1.6038   1.8700   2.0837   2.3280   2.3827   2.4294   2.6104
     2.6183

     the Fermi energy is     1.2580 ev

!    total energy              =   -1953.83804884 Ry
     Harris-Foulkes estimate   =   -1953.83802837 Ry
     estimated scf accuracy    <       0.00000515 Ry

     The total energy is the sum of the following terms:

     one-electron contribution =  -10678.70620449 Ry
     hartree contribution      =    5406.78011792 Ry
     xc contribution           =    -543.69454334 Ry
     ewald contribution        =    3861.82601164 Ry
     electric field correction =       0.00016401 Ry
     smearing contrib. (-TS)   =      -0.04359459 Ry

     convergence has been achieved in  18 iterations
 
 BEEF-vdW xc energy contributions
           1 :   -477.489406550264     
           2 :    436.883119241248     
           3 :   -367.984464590294     
           4 :    289.896256749645     
           5 :   -220.768077769098     
           6 :    171.476429792040     
           7 :   -143.196398570927     
           8 :    129.390019150705     
           9 :   -120.728504754892     
          10 :    110.199603094136     
          11 :   -95.9016019457678     
          12 :    80.5228092798150     
          13 :   -68.4130533955426     
          14 :    62.3112083464903     
          15 :   -61.6608679290269     
          16 :    63.2290431876100     
          17 :   -63.3119054056209     
          18 :    59.9732325034412     
          19 :   -53.9525264107770     
          20 :    47.8389554860630     
          21 :   -44.2097480600946     
          22 :    43.9842791827990     
          23 :   -45.9891666591786     
          24 :    47.8766635776834     
          25 :   -47.6896517824376     
          26 :    45.0303177909948     
          27 :   -41.1422705133886     
          28 :    37.9584088289341     
          29 :   -36.8126668515804     
          30 :    37.6556272856756     
          31 :   -42.0337044904007     
          32 :   -30.5762854325477     

     Forces acting on atoms (Ry/au):


     negative rho (up, down):  3.794E-04 0.000E+00
     atom    1 type  1   force =    -0.00010035   -0.00005480    0.00280444
     atom    2 type  1   force =     0.00009932   -0.00008341    0.00323115
     atom    3 type  1   force =    -0.00000332    0.00014517    0.00326339
     atom    4 type  1   force =    -0.00000683   -0.00000834    0.00538468
     atom    5 type  1   force =     0.00005954   -0.00023684   -0.01418772
     atom    6 type  1   force =    -0.00005565   -0.00003682   -0.00136298
     atom    7 type  1   force =     0.00016707    0.00009277   -0.01413981
     atom    8 type  1   force =    -0.00017771    0.00017733   -0.01417556
     atom    9 type  1   force =     0.00000226   -0.00000864   -0.00555762
     atom   10 type  1   force =     0.00000818   -0.05240607   -0.03837942
     atom   11 type  1   force =    -0.04537887    0.02621756   -0.03838359
     atom   12 type  1   force =     0.04537958    0.02620219   -0.03837965
     atom   13 type  2   force =     0.00000335    0.00000014    0.00522429
     atom   14 type  3   force =     0.00000343   -0.00000025    0.14465841

     Total force =     0.183419     Total SCF correction =     0.001301


     entering subroutine stress ...


     negative rho (up, down):  3.794E-04 0.000E+00
          total   stress  (Ry/bohr**3)                   (kbar)     P=    9.66
   0.00004783   0.00000000  -0.00000000          7.04      0.00     -0.00
   0.00000000   0.00004783  -0.00000000          0.00      7.04     -0.00
  -0.00000000  -0.00000000   0.00010131         -0.00     -0.00     14.90


     BFGS Geometry Optimization

     number of scf cycles    =   1
     number of bfgs steps    =   0

     energy   new            =   -1953.8380488449 Ry

     new trust radius        =       0.1446584149 bohr
     new conv_thr            =       0.0000099958 Ry


ATOMIC_POSITIONS (crystal)
Sn1      0.166666667   0.166666667   0.392271209    0   0   0
Sn1      0.666666667   0.166666667   0.392271209    0   0   0
Sn1      0.166666667   0.666666667   0.392271209    0   0   0
Sn1      0.666666667   0.666666667   0.392271209    0   0   0
Sn1      0.833333333   0.333333333   0.500000000    0   0   0
Sn1      0.333333333   0.333333333   0.500000000    0   0   0
Sn1      0.833333333   0.833333333   0.500000000    0   0   0
Sn1      0.333333333   0.833333333   0.500000000    0   0   0
Sn1      0.000000570  -0.000000785   0.607613426
Sn1      0.502380776  -0.004760264   0.606932108
Sn1     -0.004760444   0.502381452   0.606932021
Sn1      0.502379745   0.502380056   0.606932103
S1       0.333333590   0.333333346   0.670051451
H1       0.333333614   0.333333310   0.721979740



     Writing output data file calc.save
     Check: negative starting charge=   -0.001325
     NEW-OLD atomic charge density approx. for the potential
     Check: negative starting charge=   -0.001321

     negative rho (up, down):  4.611E-04 0.000E+00
 
     Adding external electric field

     Computed dipole along edir(3) : 
        Dipole                0.1759 Ry au,          0.4472 Debye
        Dipole field          0.0003 Ry au
 
        Potential amp.       -0.0308 Ry
        Total length         46.9696 bohr
 

     total cpu time spent up to now is      804.0 secs

     per-process dynamical memory:   104.1 Mb

     Self-consistent Calculation

     iteration #  1     ecut=    36.75 Ry     beta=0.30
     Davidson diagonalization with overlap
     ethr =  1.00E-06,  avg # of iterations =  5.8

     negative rho (up, down):  4.311E-04 0.000E+00
 
     Adding external electric field

     Computed dipole along edir(3) : 
        Dipole                0.8763 Ry au,          2.2274 Debye
        Dipole field          0.0016 Ry au
 
        Potential amp.       -0.1534 Ry
        Total length         46.9696 bohr
 

     total cpu time spent up to now is      850.5 secs

     total energy              =   -1953.84448034 Ry
     Harris-Foulkes estimate   =   -1953.86443795 Ry
     estimated scf accuracy    <       0.04382171 Ry

     iteration #  2     ecut=    36.75 Ry     beta=0.30
     Davidson diagonalization with overlap
     ethr =  2.50E-05,  avg # of iterations =  7.5

     negative rho (up, down):  4.154E-04 0.000E+00
 
     Adding external electric field

     Computed dipole along edir(3) : 
        Dipole                0.2159 Ry au,          0.5488 Debye
        Dipole field          0.0004 Ry au
 
        Potential amp.       -0.0378 Ry
        Total length         46.9696 bohr
 

     total cpu time spent up to now is      885.1 secs

     total energy              =   -1953.77624274 Ry
     Harris-Foulkes estimate   =   -1953.94649907 Ry
     estimated scf accuracy    <       2.82828193 Ry

     iteration #  3     ecut=    36.75 Ry     beta=0.30
     Davidson diagonalization with overlap
     ethr =  2.50E-05,  avg # of iterations =  7.5

     negative rho (up, down):  4.078E-04 0.000E+00
 
     Adding external electric field

     Computed dipole along edir(3) : 
        Dipole                0.2430 Ry au,          0.6177 Debye
        Dipole field          0.0005 Ry au
 
        Potential amp.       -0.0426 Ry
        Total length         46.9696 bohr
 

     total cpu time spent up to now is      919.4 secs

     total energy              =   -1953.86151136 Ry
     Harris-Foulkes estimate   =   -1953.86470907 Ry
     estimated scf accuracy    <       0.02248406 Ry

     iteration #  4     ecut=    36.75 Ry     beta=0.30
     Davidson diagonalization with overlap
     ethr =  1.28E-05,  avg # of iterations =  2.8

     negative rho (up, down):  3.932E-04 0.000E+00
 
     Adding external electric field

     Computed dipole along edir(3) : 
        Dipole                0.2350 Ry au,          0.5973 Debye
        Dipole field          0.0004 Ry au
 
        Potential amp.       -0.0411 Ry
        Total length         46.9696 bohr
 

     total cpu time spent up to now is      948.2 secs

     total energy              =   -1953.86316062 Ry
     Harris-Foulkes estimate   =   -1953.86322669 Ry
     estimated scf accuracy    <       0.00056762 Ry

     iteration #  5     ecut=    36.75 Ry     beta=0.30
     Davidson diagonalization with overlap
     ethr =  3.24E-07,  avg # of iterations =  4.5

     negative rho (up, down):  3.874E-04 0.000E+00
 
     Adding external electric field

     Computed dipole along edir(3) : 
        Dipole                0.2357 Ry au,          0.5992 Debye
        Dipole field          0.0004 Ry au
 
        Potential amp.       -0.0413 Ry
        Total length         46.9696 bohr
 

     total cpu time spent up to now is      979.4 secs

     total energy              =   -1953.86323511 Ry
     Harris-Foulkes estimate   =   -1953.86324521 Ry
     estimated scf accuracy    <       0.00017487 Ry

     iteration #  6     ecut=    36.75 Ry     beta=0.30
     Davidson diagonalization with overlap
     ethr =  9.99E-08,  avg # of iterations =  2.0

     negative rho (up, down):  3.861E-04 0.000E+00
 
     Adding external electric field

     Computed dipole along edir(3) : 
        Dipole                0.2350 Ry au,          0.5974 Debye
        Dipole field          0.0004 Ry au
 
        Potential amp.       -0.0412 Ry
        Total length         46.9696 bohr
 

     total cpu time spent up to now is     1008.3 secs

     total energy              =   -1953.86325196 Ry
     Harris-Foulkes estimate   =   -1953.86325048 Ry
     estimated scf accuracy    <       0.00001276 Ry

     iteration #  7     ecut=    36.75 Ry     beta=0.30
     Davidson diagonalization with overlap
     ethr =  7.29E-09,  avg # of iterations =  3.2

     negative rho (up, down):  3.803E-04 0.000E+00

     negative rho (up, down):  3.803E-04 0.000E+00

     negative rho (up, down):  3.803E-04 0.000E+00

     negative rho (up, down):  3.803E-04 0.000E+00

     negative rho (up, down):  3.803E-04 0.000E+00

     negative rho (up, down):  3.803E-04 0.000E+00

     negative rho (up, down):  3.803E-04 0.000E+00

     negative rho (up, down):  3.803E-04 0.000E+00

     negative rho (up, down):  3.803E-04 0.000E+00

     negative rho (up, down):  3.803E-04 0.000E+00

     negative rho (up, down):  3.803E-04 0.000E+00

     negative rho (up, down):  3.803E-04 0.000E+00

     negative rho (up, down):  3.803E-04 0.000E+00

     negative rho (up, down):  3.803E-04 0.000E+00

     negative rho (up, down):  3.803E-04 0.000E+00

     negative rho (up, down):  3.803E-04 0.000E+00

     negative rho (up, down):  3.803E-04 0.000E+00

     negative rho (up, down):  3.803E-04 0.000E+00

     negative rho (up, down):  3.803E-04 0.000E+00

     negative rho (up, down):  3.803E-04 0.000E+00

     negative rho (up, down):  3.803E-04 0.000E+00

     negative rho (up, down):  3.803E-04 0.000E+00

     negative rho (up, down):  3.803E-04 0.000E+00

     negative rho (up, down):  3.803E-04 0.000E+00

     negative rho (up, down):  3.803E-04 0.000E+00

     negative rho (up, down):  3.803E-04 0.000E+00

     negative rho (up, down):  3.803E-04 0.000E+00

     negative rho (up, down):  3.803E-04 0.000E+00

     negative rho (up, down):  3.803E-04 0.000E+00

     negative rho (up, down):  3.803E-04 0.000E+00

     negative rho (up, down):  3.803E-04 0.000E+00

     negative rho (up, down):  3.803E-04 0.000E+00

     negative rho (up, down):  3.803E-04 0.000E+00

     negative rho (up, down):  3.803E-04 0.000E+00

     negative rho (up, down):  3.803E-04 0.000E+00
 
     Adding external electric field

     Computed dipole along edir(3) : 
        Dipole                0.2337 Ry au,          0.5941 Debye
        Dipole field          0.0004 Ry au
 
        Potential amp.       -0.0409 Ry
        Total length         46.9696 bohr
 

     total cpu time spent up to now is     1109.1 secs

     End of self-consistent calculation

          k = 0.0000 0.0000 0.0000 ( 25377 PWs)   bands (ev):

   -21.0930 -21.0147 -21.0141 -21.0141 -20.9820 -20.9820 -20.9269 -20.9212
   -20.9212 -20.9157 -20.8945 -20.8945 -20.8789 -20.8789 -20.8605 -20.8561
   -20.8561 -20.8214 -20.8161 -20.8127 -20.8112 -20.8112 -20.8044 -20.8024
   -20.8024 -20.7945 -20.7945 -20.7838 -20.7807 -20.7807 -20.7777 -20.7697
   -20.7697 -20.7682 -20.7579 -20.7579 -20.7357 -20.7357 -20.7105 -20.7105
   -20.7049 -20.6953 -20.6953 -20.6868 -20.6840 -20.6840 -20.6693 -20.6693
   -20.6671 -20.6656 -20.6656 -20.6648 -20.6519 -20.6519 -20.6461 -20.6461
   -20.6418 -20.6416 -20.6285 -20.6285 -14.0430  -9.6139  -8.5695  -7.2028
    -6.0311  -5.9082  -5.9082  -5.3772  -5.3772  -5.2671  -4.8101  -4.5331
    -4.5331  -4.1434  -2.8738  -2.8738  -2.6764  -2.6764  -2.5692  -2.0626
    -1.5402  -1.4452  -1.4452  -0.6279  -0.6279  -0.4376   0.9076   2.0875
     2.0875   2.1655   2.7203   2.7203   2.7694   3.2746   3.6845   3.6845
     3.6868

          k = 0.0000 0.0286 0.0000 ( 25365 PWs)   bands (ev):

   -21.0857 -21.0131 -21.0080 -21.0053 -20.9848 -20.9795 -20.9242 -20.9225
   -20.9211 -20.9176 -20.8963 -20.8920 -20.8826 -20.8762 -20.8550 -20.8486
   -20.8460 -20.8176 -20.8134 -20.8121 -20.8110 -20.8042 -20.8040 -20.7985
   -20.7977 -20.7958 -20.7862 -20.7834 -20.7788 -20.7757 -20.7739 -20.7706
   -20.7678 -20.7663 -20.7582 -20.7576 -20.7376 -20.7351 -20.7118 -20.7115
   -20.7086 -20.6992 -20.6984 -20.6908 -20.6873 -20.6873 -20.6749 -20.6724
   -20.6720 -20.6690 -20.6684 -20.6657 -20.6598 -20.6585 -20.6524 -20.6516
   -20.6465 -20.6457 -20.6374 -20.6325 -14.0401  -9.4942  -8.4704  -7.2135
    -6.5909  -6.1082  -6.0958  -5.7285  -5.4170  -5.3623  -4.7632  -4.4277
    -4.4068  -4.0735  -2.7019  -2.6645  -2.5050  -2.4107  -2.2345  -1.9341
    -1.2859  -1.2659  -1.0214  -0.4568  -0.4124   0.2026   1.1163   1.3099
     1.9393   2.0109   2.5822   2.7384   2.9328   3.0794   3.1574   3.3827
     3.7280

          k = 0.0000 0.0572 0.0000 ( 25367 PWs)   bands (ev):

   -21.0688 -21.0110 -20.9959 -20.9864 -20.9841 -20.9733 -20.9361 -20.9304
   -20.9157 -20.9128 -20.8991 -20.8906 -20.8863 -20.8693 -20.8465 -20.8299
   -20.8246 -20.8194 -20.8180 -20.8076 -20.8053 -20.7964 -20.7934 -20.7902
   -20.7890 -20.7832 -20.7803 -20.7746 -20.7713 -20.7711 -20.7669 -20.7637
   -20.7634 -20.7586 -20.7540 -20.7516 -20.7402 -20.7282 -20.7198 -20.7155
   -20.7152 -20.7106 -20.7053 -20.7033 -20.6966 -20.6949 -20.6880 -20.6870
   -20.6811 -20.6799 -20.6789 -20.6787 -20.6729 -20.6705 -20.6663 -20.6660
   -20.6586 -20.6564 -20.6458 -20.6346 -14.0344  -9.1375  -8.2020  -7.7119
    -7.0569  -6.4800  -6.3459  -6.1200  -5.5488  -5.5431  -5.0258  -4.3696
    -4.2736  -3.9270  -2.7551  -2.3684  -1.8742  -1.8494  -1.4416  -0.8880
    -0.8177  -0.6559  -0.1498   0.0529   0.3485   0.5393   0.9689   1.1924
     1.3672   1.8683   1.9579   2.1169   2.2268   2.3437   2.9522   3.1853
     3.4053

          k = 0.0000-0.0858 0.0000 ( 25386 PWs)   bands (ev):

   -21.0582 -21.0111 -20.9994 -20.9753 -20.9677 -20.9593 -20.9541 -20.9441
   -20.9142 -20.9062 -20.8997 -20.8961 -20.8825 -20.8660 -20.8394 -20.8389
   -20.8252 -20.8063 -20.8020 -20.8000 -20.7975 -20.7944 -20.7920 -20.7884
   -20.7827 -20.7811 -20.7789 -20.7727 -20.7697 -20.7692 -20.7618 -20.7586
   -20.7585 -20.7505 -20.7468 -20.7360 -20.7358 -20.7262 -20.7258 -20.7182
   -20.7159 -20.7140 -20.7122 -20.7066 -20.7031 -20.7024 -20.7010 -20.6977
   -20.6955 -20.6909 -20.6907 -20.6884 -20.6845 -20.6808 -20.6738 -20.6676
   -20.6607 -20.6600 -20.6455 -20.6347 -14.0315  -8.6121  -8.4952  -7.8150
    -7.4068  -6.5705  -6.4424  -6.0474  -5.7841  -5.6140  -5.2877  -4.2602
    -4.2542  -3.7465  -3.0132  -2.2012  -1.1288  -1.0041  -0.9794  -0.8293
    -0.6636  -0.3797   0.0999   0.2867   0.4971   0.7591   1.0936   1.2267
     1.4557   1.5897   1.8488   2.0286   2.2584   2.3429   2.3888   2.5660
     2.6058

          k = 0.0248-0.0143 0.0000 ( 25365 PWs)   bands (ev):

   -21.0857 -21.0130 -21.0080 -21.0053 -20.9848 -20.9795 -20.9242 -20.9225
   -20.9211 -20.9175 -20.8963 -20.8920 -20.8826 -20.8762 -20.8550 -20.8486
   -20.8460 -20.8176 -20.8134 -20.8121 -20.8110 -20.8042 -20.8040 -20.7985
   -20.7977 -20.7958 -20.7862 -20.7834 -20.7788 -20.7757 -20.7739 -20.7706
   -20.7678 -20.7663 -20.7582 -20.7576 -20.7376 -20.7351 -20.7118 -20.7115
   -20.7086 -20.6992 -20.6984 -20.6908 -20.6873 -20.6873 -20.6749 -20.6724
   -20.6720 -20.6690 -20.6684 -20.6657 -20.6598 -20.6585 -20.6524 -20.6516
   -20.6465 -20.6457 -20.6374 -20.6325 -14.0401  -9.4942  -8.4704  -7.2135
    -6.5909  -6.1082  -6.0958  -5.7285  -5.4171  -5.3623  -4.7632  -4.4277
    -4.4068  -4.0735  -2.7019  -2.6645  -2.5050  -2.4107  -2.2345  -1.9341
    -1.2859  -1.2659  -1.0214  -0.4568  -0.4124   0.2026   1.1163   1.3099
     1.9393   2.0109   2.5822   2.7384   2.9328   3.0794   3.1574   3.3827
     3.7279

          k = 0.0248 0.0143 0.0000 ( 25365 PWs)   bands (ev):

   -21.0857 -21.0130 -21.0080 -21.0053 -20.9848 -20.9795 -20.9242 -20.9225
   -20.9211 -20.9176 -20.8963 -20.8920 -20.8826 -20.8762 -20.8550 -20.8486
   -20.8460 -20.8176 -20.8134 -20.8121 -20.8110 -20.8042 -20.8040 -20.7985
   -20.7977 -20.7958 -20.7862 -20.7834 -20.7788 -20.7757 -20.7739 -20.7706
   -20.7678 -20.7663 -20.7582 -20.7576 -20.7376 -20.7351 -20.7118 -20.7115
   -20.7086 -20.6992 -20.6984 -20.6908 -20.6873 -20.6873 -20.6749 -20.6724
   -20.6720 -20.6690 -20.6684 -20.6657 -20.6598 -20.6585 -20.6524 -20.6516
   -20.6465 -20.6457 -20.6374 -20.6325 -14.0401  -9.4942  -8.4704  -7.2135
    -6.5909  -6.1082  -6.0958  -5.7285  -5.4170  -5.3623  -4.7632  -4.4277
    -4.4068  -4.0735  -2.7019  -2.6645  -2.5050  -2.4107  -2.2345  -1.9341
    -1.2859  -1.2659  -1.0214  -0.4568  -0.4124   0.2026   1.1163   1.3099
     1.9393   2.0109   2.5822   2.7384   2.9328   3.0794   3.1574   3.3827
     3.7280

          k = 0.0248 0.0429 0.0000 ( 25362 PWs)   bands (ev):

   -21.0732 -21.0076 -21.0033 -20.9900 -20.9866 -20.9754 -20.9339 -20.9215
   -20.9199 -20.9151 -20.8987 -20.8886 -20.8874 -20.8711 -20.8427 -20.8417
   -20.8258 -20.8235 -20.8121 -20.8083 -20.8059 -20.8019 -20.7990 -20.7926
   -20.7912 -20.7827 -20.7808 -20.7776 -20.7761 -20.7724 -20.7705 -20.7676
   -20.7623 -20.7609 -20.7581 -20.7524 -20.7404 -20.7313 -20.7175 -20.7155
   -20.7114 -20.7072 -20.7036 -20.6961 -20.6943 -20.6930 -20.6873 -20.6825
   -20.6784 -20.6775 -20.6752 -20.6709 -20.6690 -20.6664 -20.6630 -20.6596
   -20.6573 -20.6513 -20.6425 -20.6413 -14.0358  -9.2559  -8.2819  -7.3908
    -7.0116  -6.7238  -6.2551  -6.0625  -5.4812  -5.0314  -4.9369  -4.6320
    -4.2669  -4.0666  -2.6398  -2.4761  -2.3242  -1.7567  -1.5598  -1.3545
    -0.9741  -0.7282  -0.4564  -0.2691   0.4218   0.6100   1.0012   1.0903
     1.3823   1.6199   2.0024   2.5286   2.8431   2.9023   3.0303   3.2907
     3.3072

          k = 0.0248-0.1001 0.0000 ( 25368 PWs)   bands (ev):

   -21.0572 -21.0088 -20.9966 -20.9831 -20.9749 -20.9606 -20.9520 -20.9326
   -20.9185 -20.9058 -20.9005 -20.8942 -20.8793 -20.8671 -20.8424 -20.8335
   -20.8174 -20.8144 -20.8058 -20.8001 -20.7960 -20.7946 -20.7932 -20.7873
   -20.7851 -20.7823 -20.7778 -20.7745 -20.7713 -20.7664 -20.7634 -20.7601
   -20.7580 -20.7526 -20.7461 -20.7428 -20.7366 -20.7275 -20.7253 -20.7201
   -20.7176 -20.7124 -20.7101 -20.7069 -20.7044 -20.7015 -20.6982 -20.6969
   -20.6941 -20.6890 -20.6864 -20.6815 -20.6791 -20.6762 -20.6709 -20.6666
   -20.6642 -20.6613 -20.6504 -20.6421 -14.0315  -8.7888  -8.1536  -7.8304
    -7.3687  -7.0829  -6.4878  -6.1335  -5.5938  -5.2642  -4.9193  -4.6822
    -3.9660  -3.9072  -3.0293  -2.3747  -1.7019  -1.0870  -0.8385  -0.6419
    -0.4363  -0.1777   0.0130   0.2380   0.3209   0.6862   0.9652   1.2037
     1.3212   1.6870   1.8812   2.2415   2.4672   2.6190   2.7219   2.9852
     3.0590

          k = 0.0248-0.0715 0.0000 ( 25368 PWs)   bands (ev):

   -21.0572 -21.0088 -20.9966 -20.9831 -20.9749 -20.9606 -20.9520 -20.9326
   -20.9185 -20.9058 -20.9005 -20.8942 -20.8793 -20.8671 -20.8424 -20.8335
   -20.8174 -20.8144 -20.8058 -20.8001 -20.7960 -20.7946 -20.7932 -20.7873
   -20.7851 -20.7822 -20.7778 -20.7745 -20.7713 -20.7664 -20.7634 -20.7601
   -20.7580 -20.7526 -20.7461 -20.7428 -20.7366 -20.7275 -20.7253 -20.7202
   -20.7176 -20.7124 -20.7101 -20.7069 -20.7044 -20.7015 -20.6982 -20.6969
   -20.6941 -20.6890 -20.6864 -20.6815 -20.6791 -20.6762 -20.6709 -20.6666
   -20.6642 -20.6613 -20.6504 -20.6421 -14.0315  -8.7888  -8.1536  -7.8304
    -7.3687  -7.0829  -6.4878  -6.1335  -5.5938  -5.2642  -4.9193  -4.6822
    -3.9660  -3.9072  -3.0293  -2.3747  -1.7019  -1.0870  -0.8385  -0.6419
    -0.4363  -0.1777   0.0130   0.2380   0.3209   0.6862   0.9652   1.2037
     1.3212   1.6870   1.8812   2.2415   2.4672   2.6190   2.7219   2.9852
     3.0590

          k = 0.0248-0.0429 0.0000 ( 25362 PWs)   bands (ev):

   -21.0732 -21.0076 -21.0033 -20.9900 -20.9866 -20.9754 -20.9339 -20.9215
   -20.9199 -20.9151 -20.8987 -20.8886 -20.8874 -20.8711 -20.8427 -20.8417
   -20.8258 -20.8235 -20.8121 -20.8083 -20.8059 -20.8019 -20.7990 -20.7926
   -20.7912 -20.7827 -20.7808 -20.7776 -20.7761 -20.7724 -20.7705 -20.7676
   -20.7623 -20.7609 -20.7581 -20.7524 -20.7404 -20.7313 -20.7175 -20.7155
   -20.7114 -20.7072 -20.7036 -20.6961 -20.6943 -20.6930 -20.6873 -20.6825
   -20.6784 -20.6775 -20.6752 -20.6709 -20.6690 -20.6664 -20.6630 -20.6596
   -20.6573 -20.6513 -20.6425 -20.6413 -14.0358  -9.2559  -8.2819  -7.3908
    -7.0116  -6.7238  -6.2551  -6.0625  -5.4812  -5.0314  -4.9369  -4.6320
    -4.2669  -4.0666  -2.6398  -2.4761  -2.3242  -1.7567  -1.5598  -1.3545
    -0.9741  -0.7282  -0.4564  -0.2691   0.4218   0.6100   1.0012   1.0903
     1.3823   1.6199   2.0024   2.5286   2.8431   2.9023   3.0303   3.2907
     3.3072

          k = 0.0496-0.0286 0.0000 ( 25367 PWs)   bands (ev):

   -21.0688 -21.0110 -20.9959 -20.9864 -20.9841 -20.9733 -20.9361 -20.9305
   -20.9157 -20.9128 -20.8991 -20.8906 -20.8863 -20.8693 -20.8465 -20.8299
   -20.8246 -20.8194 -20.8180 -20.8076 -20.8053 -20.7964 -20.7934 -20.7902
   -20.7890 -20.7832 -20.7803 -20.7746 -20.7713 -20.7711 -20.7669 -20.7637
   -20.7634 -20.7586 -20.7540 -20.7516 -20.7402 -20.7282 -20.7198 -20.7155
   -20.7152 -20.7106 -20.7053 -20.7033 -20.6966 -20.6949 -20.6880 -20.6870
   -20.6811 -20.6799 -20.6789 -20.6787 -20.6729 -20.6705 -20.6663 -20.6660
   -20.6586 -20.6564 -20.6458 -20.6346 -14.0344  -9.1375  -8.2020  -7.7119
    -7.0569  -6.4800  -6.3459  -6.1200  -5.5488  -5.5432  -5.0258  -4.3696
    -4.2736  -3.9270  -2.7551  -2.3684  -1.8742  -1.8494  -1.4416  -0.8880
    -0.8177  -0.6559  -0.1498   0.0529   0.3485   0.5393   0.9689   1.1924
     1.3672   1.8683   1.9579   2.1169   2.2268   2.3437   2.9522   3.1853
     3.4053

          k = 0.0496 0.0000 0.0000 ( 25362 PWs)   bands (ev):

   -21.0732 -21.0076 -21.0033 -20.9900 -20.9866 -20.9754 -20.9339 -20.9215
   -20.9199 -20.9151 -20.8987 -20.8886 -20.8874 -20.8711 -20.8427 -20.8417
   -20.8258 -20.8235 -20.8121 -20.8083 -20.8059 -20.8019 -20.7990 -20.7926
   -20.7912 -20.7827 -20.7808 -20.7776 -20.7761 -20.7724 -20.7705 -20.7676
   -20.7623 -20.7609 -20.7581 -20.7524 -20.7404 -20.7313 -20.7175 -20.7155
   -20.7114 -20.7072 -20.7036 -20.6961 -20.6943 -20.6930 -20.6873 -20.6825
   -20.6784 -20.6775 -20.6752 -20.6709 -20.6690 -20.6664 -20.6630 -20.6596
   -20.6573 -20.6513 -20.6425 -20.6413 -14.0358  -9.2559  -8.2819  -7.3908
    -7.0116  -6.7238  -6.2551  -6.0625  -5.4812  -5.0314  -4.9369  -4.6320
    -4.2669  -4.0666  -2.6398  -2.4761  -2.3242  -1.7566  -1.5598  -1.3545
    -0.9741  -0.7282  -0.4564  -0.2690   0.4218   0.6100   1.0012   1.0903
     1.3823   1.6199   2.0024   2.5286   2.8431   2.9023   3.0303   3.2907
     3.3072

          k = 0.0496 0.0286 0.0000 ( 25367 PWs)   bands (ev):

   -21.0688 -21.0110 -20.9959 -20.9864 -20.9841 -20.9733 -20.9361 -20.9304
   -20.9157 -20.9128 -20.8991 -20.8906 -20.8863 -20.8693 -20.8465 -20.8299
   -20.8246 -20.8194 -20.8180 -20.8076 -20.8053 -20.7964 -20.7934 -20.7902
   -20.7890 -20.7832 -20.7803 -20.7746 -20.7713 -20.7711 -20.7669 -20.7637
   -20.7634 -20.7586 -20.7540 -20.7516 -20.7402 -20.7282 -20.7198 -20.7155
   -20.7152 -20.7105 -20.7053 -20.7033 -20.6966 -20.6949 -20.6880 -20.6870
   -20.6811 -20.6799 -20.6789 -20.6787 -20.6729 -20.6705 -20.6663 -20.6660
   -20.6586 -20.6564 -20.6458 -20.6346 -14.0344  -9.1375  -8.2020  -7.7119
    -7.0569  -6.4800  -6.3459  -6.1200  -5.5488  -5.5432  -5.0258  -4.3696
    -4.2736  -3.9270  -2.7551  -2.3684  -1.8742  -1.8494  -1.4416  -0.8880
    -0.8177  -0.6559  -0.1498   0.0529   0.3485   0.5393   0.9689   1.1924
     1.3672   1.8683   1.9579   2.1169   2.2268   2.3437   2.9522   3.1853
     3.4053

          k = 0.0496-0.1144 0.0000 ( 25368 PWs)   bands (ev):

   -21.0572 -21.0088 -20.9966 -20.9831 -20.9749 -20.9606 -20.9520 -20.9326
   -20.9185 -20.9058 -20.9005 -20.8942 -20.8793 -20.8671 -20.8424 -20.8335
   -20.8174 -20.8144 -20.8058 -20.8001 -20.7960 -20.7946 -20.7932 -20.7873
   -20.7851 -20.7823 -20.7778 -20.7745 -20.7713 -20.7664 -20.7634 -20.7601
   -20.7580 -20.7526 -20.7461 -20.7428 -20.7366 -20.7275 -20.7253 -20.7201
   -20.7176 -20.7124 -20.7101 -20.7069 -20.7044 -20.7015 -20.6982 -20.6969
   -20.6941 -20.6890 -20.6864 -20.6815 -20.6791 -20.6762 -20.6709 -20.6666
   -20.6642 -20.6613 -20.6504 -20.6421 -14.0315  -8.7888  -8.1536  -7.8304
    -7.3687  -7.0829  -6.4878  -6.1335  -5.5938  -5.2642  -4.9193  -4.6822
    -3.9660  -3.9072  -3.0293  -2.3747  -1.7019  -1.0870  -0.8385  -0.6419
    -0.4363  -0.1777   0.0130   0.2380   0.3209   0.6862   0.9652   1.2037
     1.3212   1.6870   1.8812   2.2415   2.4672   2.6190   2.7219   2.9852
     3.0590

          k = 0.0496-0.0858 0.0000 ( 25314 PWs)   bands (ev):

   -21.0488 -21.0116 -20.9873 -20.9784 -20.9768 -20.9736 -20.9395 -20.9356
   -20.9240 -20.9024 -20.9017 -20.8933 -20.8690 -20.8649 -20.8588 -20.8142
   -20.8116 -20.8089 -20.8049 -20.8001 -20.7981 -20.7979 -20.7926 -20.7842
   -20.7829 -20.7805 -20.7803 -20.7724 -20.7693 -20.7664 -20.7613 -20.7557
   -20.7543 -20.7466 -20.7413 -20.7386 -20.7332 -20.7313 -20.7311 -20.7264
   -20.7230 -20.7173 -20.7130 -20.7077 -20.7057 -20.7028 -20.7017 -20.7006
   -20.6971 -20.6892 -20.6882 -20.6825 -20.6765 -20.6729 -20.6729 -20.6727
   -20.6694 -20.6613 -20.6597 -20.6519 -14.0301  -8.3799  -8.1537  -8.0866
    -7.5492  -7.0931  -6.9879  -5.9586  -5.4912  -5.4910  -4.7163  -4.3743
    -4.0324  -3.8399  -3.2628  -2.4511  -1.1852  -1.1428  -1.1234  -0.4404
    -0.4160  -0.3470   0.5380   0.5437   0.6369   1.0613   1.0924   1.3836
     1.6555   1.6759   1.6867   2.2199   2.3318   2.5391   2.6915   2.7238
     2.7801

          k = 0.0496-0.0572 0.0000 ( 25368 PWs)   bands (ev):

   -21.0572 -21.0088 -20.9966 -20.9831 -20.9749 -20.9606 -20.9520 -20.9326
   -20.9185 -20.9058 -20.9005 -20.8942 -20.8793 -20.8671 -20.8424 -20.8335
   -20.8174 -20.8144 -20.8058 -20.8001 -20.7960 -20.7946 -20.7932 -20.7873
   -20.7851 -20.7822 -20.7778 -20.7745 -20.7713 -20.7664 -20.7634 -20.7601
   -20.7580 -20.7526 -20.7461 -20.7428 -20.7366 -20.7275 -20.7253 -20.7202
   -20.7176 -20.7124 -20.7101 -20.7069 -20.7044 -20.7015 -20.6982 -20.6969
   -20.6941 -20.6890 -20.6864 -20.6815 -20.6791 -20.6762 -20.6709 -20.6666
   -20.6642 -20.6613 -20.6504 -20.6421 -14.0315  -8.7888  -8.1536  -7.8304
    -7.3687  -7.0829  -6.4878  -6.1335  -5.5938  -5.2642  -4.9193  -4.6822
    -3.9660  -3.9072  -3.0293  -2.3747  -1.7019  -1.0870  -0.8385  -0.6419
    -0.4363  -0.1777   0.0130   0.2380   0.3209   0.6862   0.9652   1.2037
     1.3212   1.6870   1.8812   2.2415   2.4672   2.6190   2.7219   2.9852
     3.0590

          k =-0.0743 0.0429 0.0000 ( 25386 PWs)   bands (ev):

   -21.0582 -21.0111 -20.9994 -20.9753 -20.9677 -20.9593 -20.9541 -20.9441
   -20.9142 -20.9062 -20.8997 -20.8961 -20.8825 -20.8660 -20.8394 -20.8389
   -20.8252 -20.8063 -20.8020 -20.8000 -20.7975 -20.7944 -20.7920 -20.7884
   -20.7827 -20.7811 -20.7789 -20.7727 -20.7697 -20.7692 -20.7618 -20.7586
   -20.7585 -20.7505 -20.7468 -20.7360 -20.7358 -20.7262 -20.7258 -20.7182
   -20.7159 -20.7140 -20.7122 -20.7066 -20.7031 -20.7024 -20.7010 -20.6977
   -20.6955 -20.6909 -20.6907 -20.6884 -20.6845 -20.6808 -20.6738 -20.6676
   -20.6607 -20.6600 -20.6455 -20.6347 -14.0315  -8.6121  -8.4952  -7.8150
    -7.4068  -6.5705  -6.4424  -6.0474  -5.7841  -5.6140  -5.2877  -4.2602
    -4.2542  -3.7465  -3.0132  -2.2012  -1.1288  -1.0041  -0.9794  -0.8293
    -0.6636  -0.3797   0.0999   0.2867   0.4971   0.7591   1.0936   1.2267
     1.4557   1.5897   1.8488   2.0286   2.2584   2.3429   2.3888   2.5659
     2.6058

          k =-0.0743 0.0715 0.0000 ( 25368 PWs)   bands (ev):

   -21.0572 -21.0088 -20.9966 -20.9831 -20.9749 -20.9606 -20.9520 -20.9326
   -20.9185 -20.9058 -20.9005 -20.8942 -20.8793 -20.8671 -20.8424 -20.8335
   -20.8174 -20.8144 -20.8058 -20.8001 -20.7960 -20.7946 -20.7932 -20.7873
   -20.7851 -20.7823 -20.7778 -20.7745 -20.7713 -20.7664 -20.7634 -20.7601
   -20.7580 -20.7526 -20.7461 -20.7428 -20.7366 -20.7275 -20.7253 -20.7202
   -20.7176 -20.7124 -20.7101 -20.7069 -20.7044 -20.7015 -20.6982 -20.6969
   -20.6941 -20.6890 -20.6864 -20.6815 -20.6791 -20.6762 -20.6709 -20.6666
   -20.6642 -20.6613 -20.6504 -20.6421 -14.0315  -8.7888  -8.1536  -7.8304
    -7.3687  -7.0829  -6.4878  -6.1335  -5.5938  -5.2642  -4.9193  -4.6822
    -3.9660  -3.9072  -3.0293  -2.3747  -1.7019  -1.0870  -0.8385  -0.6419
    -0.4363  -0.1777   0.0130   0.2380   0.3209   0.6862   0.9652   1.2037
     1.3212   1.6870   1.8812   2.2415   2.4672   2.6190   2.7219   2.9852
     3.0590

          k =-0.0743 0.1001 0.0000 ( 25368 PWs)   bands (ev):

   -21.0572 -21.0088 -20.9966 -20.9831 -20.9749 -20.9606 -20.9520 -20.9326
   -20.9185 -20.9058 -20.9005 -20.8942 -20.8793 -20.8671 -20.8424 -20.8335
   -20.8174 -20.8144 -20.8058 -20.8001 -20.7960 -20.7946 -20.7932 -20.7873
   -20.7851 -20.7823 -20.7778 -20.7745 -20.7713 -20.7664 -20.7634 -20.7601
   -20.7580 -20.7526 -20.7461 -20.7428 -20.7366 -20.7275 -20.7253 -20.7202
   -20.7176 -20.7124 -20.7101 -20.7069 -20.7044 -20.7015 -20.6982 -20.6969
   -20.6941 -20.6890 -20.6864 -20.6815 -20.6791 -20.6762 -20.6709 -20.6666
   -20.6642 -20.6613 -20.6504 -20.6421 -14.0315  -8.7888  -8.1536  -7.8304
    -7.3687  -7.0829  -6.4878  -6.1335  -5.5938  -5.2642  -4.9193  -4.6822
    -3.9660  -3.9072  -3.0293  -2.3747  -1.7019  -1.0870  -0.8385  -0.6419
    -0.4363  -0.1777   0.0130   0.2380   0.3209   0.6862   0.9652   1.2037
     1.3212   1.6870   1.8812   2.2415   2.4672   2.6190   2.7219   2.9852
     3.0590

          k =-0.0743-0.0429 0.0000 ( 25386 PWs)   bands (ev):

   -21.0582 -21.0111 -20.9994 -20.9753 -20.9677 -20.9593 -20.9541 -20.9441
   -20.9142 -20.9062 -20.8997 -20.8961 -20.8825 -20.8660 -20.8394 -20.8389
   -20.8252 -20.8063 -20.8020 -20.8000 -20.7975 -20.7944 -20.7920 -20.7884
   -20.7827 -20.7811 -20.7789 -20.7727 -20.7697 -20.7692 -20.7618 -20.7586
   -20.7585 -20.7505 -20.7468 -20.7360 -20.7358 -20.7262 -20.7258 -20.7182
   -20.7159 -20.7140 -20.7122 -20.7066 -20.7031 -20.7024 -20.7010 -20.6977
   -20.6955 -20.6909 -20.6907 -20.6884 -20.6845 -20.6808 -20.6738 -20.6676
   -20.6607 -20.6600 -20.6455 -20.6347 -14.0315  -8.6121  -8.4952  -7.8150
    -7.4068  -6.5706  -6.4424  -6.0474  -5.7841  -5.6140  -5.2877  -4.2602
    -4.2542  -3.7465  -3.0132  -2.2012  -1.1288  -1.0041  -0.9794  -0.8293
    -0.6636  -0.3797   0.0999   0.2867   0.4971   0.7591   1.0936   1.2267
     1.4557   1.5897   1.8488   2.0286   2.2584   2.3429   2.3888   2.5659
     2.6057

     the Fermi energy is     1.2157 ev

!    total energy              =   -1953.86325264 Ry
     Harris-Foulkes estimate   =   -1953.86325466 Ry
     estimated scf accuracy    <       0.00000345 Ry

     The total energy is the sum of the following terms:

     one-electron contribution =  -10694.82907922 Ry
     hartree contribution      =    5414.71628451 Ry
     xc contribution           =    -543.63681524 Ry
     ewald contribution        =    3869.92976578 Ry
     electric field correction =       0.00010184 Ry
     smearing contrib. (-TS)   =      -0.04351030 Ry

     convergence has been achieved in   7 iterations
 
 BEEF-vdW xc energy contributions
           1 :   -477.435477829778     
           2 :    436.828503138226     
           3 :   -367.932404052254     
           4 :    289.853192814565     
           5 :   -220.739704005185     
           6 :    171.463821345647     
           7 :   -143.195127181461     
           8 :    129.392658039911     
           9 :   -120.728682218014     
          10 :    110.195672875018     
          11 :   -95.8976489549319     
          12 :    80.5259466978317     
          13 :   -68.4283740337094     
          14 :    62.3375847871708     
          15 :   -61.6906661246535     
          16 :    63.2521775465166     
          17 :   -63.3215413260747     
          18 :    59.9696318266008     
          19 :   -53.9425283571526     
          20 :    47.8312668042706     
          21 :   -44.2092481580592     
          22 :    43.9889940166584     
          23 :   -45.9919676788776     
          24 :    47.8705158457902     
          25 :   -47.6727963907852     
          26 :    45.0077903528024     
          27 :   -41.1224676173331     
          28 :    37.9468549912552     
          29 :   -36.8072803086441     
          30 :    37.6470231997944     
          31 :   -42.0305093765988     
          32 :   -30.5732436520942     

     Forces acting on atoms (Ry/au):


     negative rho (up, down):  3.803E-04 0.000E+00
     atom    1 type  1   force =     0.00023930    0.00013816    0.00188386
     atom    2 type  1   force =    -0.00023574    0.00013897    0.00190461
     atom    3 type  1   force =     0.00000747   -0.00027503    0.00190314
     atom    4 type  1   force =    -0.00000409   -0.00000097    0.00463264
     atom    5 type  1   force =     0.00000713   -0.00114015   -0.01416737
     atom    6 type  1   force =    -0.00001424   -0.00000621   -0.00168542
     atom    7 type  1   force =     0.00097614    0.00057043   -0.01416131
     atom    8 type  1   force =    -0.00098134    0.00057805   -0.01417005
     atom    9 type  1   force =     0.00000405   -0.00000049   -0.00734817
     atom   10 type  1   force =     0.00000774   -0.04125728   -0.03094626
     atom   11 type  1   force =    -0.03573007    0.02062733   -0.03093208
     atom   12 type  1   force =     0.03572972    0.02062933   -0.03093925
     atom   13 type  2   force =    -0.00000438   -0.00000143    0.08262630
     atom   14 type  3   force =    -0.00000170   -0.00000070    0.05139936

     Total force =     0.132292     Total SCF correction =     0.006411


     entering subroutine stress ...


     negative rho (up, down):  3.803E-04 0.000E+00
          total   stress  (Ry/bohr**3)                   (kbar)     P=    8.39
   0.00005104  -0.00000000  -0.00000000          7.51     -0.00     -0.00
  -0.00000000   0.00005103   0.00000000         -0.00      7.51      0.00
  -0.00000000   0.00000000   0.00006899         -0.00      0.00     10.15


     number of scf cycles    =   2
     number of bfgs steps    =   1

     energy   old            =   -1953.8380488449 Ry
     energy   new            =   -1953.8632526432 Ry

     CASE: energy  _new < energy  _old

     new trust radius        =       0.2169876223 bohr
[...]
    -4.3941  -4.1958  -2.6326  -2.1458  -1.8970  -1.8343  -1.7392  -1.6946
    -1.3186  -1.1207  -0.7766  -0.6507   0.0684   0.1946   0.6552   0.7809
     0.9201   1.0340   1.5914   2.2212   2.4488   2.5576   2.7088   2.8911
     2.9167

          k = 0.0496-0.0286 0.0000 ( 25367 PWs)   bands (ev):

   -21.3086 -21.2874 -21.2846 -21.2764 -21.2680 -21.2569 -21.2465 -21.2411
   -21.2405 -21.2311 -21.2272 -21.2175 -21.2137 -21.2091 -21.1948 -21.1929
   -21.1925 -21.1852 -21.1758 -21.1737 -21.1710 -21.1660 -21.1577 -21.1549
   -21.1520 -21.1494 -21.1439 -21.1436 -21.1407 -21.1383 -21.1382 -21.1352
   -21.1331 -21.1279 -21.1255 -21.1245 -21.1111 -21.1049 -21.1005 -21.0922
   -21.0918 -21.0799 -21.0750 -21.0727 -21.0687 -21.0663 -21.0581 -21.0571
   -21.0510 -21.0469 -21.0439 -21.0415 -21.0404 -21.0382 -21.0382 -21.0324
   -21.0324 -21.0206 -21.0046 -21.0045 -12.3805  -9.3249  -8.2047  -7.8170
    -6.8490  -6.6263  -6.3824  -6.3516  -5.6195  -5.4394  -5.2439  -4.5201
    -4.3488  -4.0552  -2.1706  -2.1374  -2.1091  -1.7219  -1.6483  -1.2182
    -1.0424  -0.9946  -0.5066  -0.2933  -0.1233   0.2182   0.6358   0.8518
     1.0231   1.5188   1.5366   1.5503   1.9784   1.9910   2.4041   2.8299
     2.9317

          k = 0.0496 0.0000 0.0000 ( 25362 PWs)   bands (ev):

   -21.3064 -21.2972 -21.2894 -21.2806 -21.2668 -21.2599 -21.2497 -21.2410
   -21.2366 -21.2300 -21.2275 -21.2171 -21.2134 -21.2119 -21.2051 -21.1958
   -21.1863 -21.1849 -21.1774 -21.1764 -21.1742 -21.1728 -21.1582 -21.1576
   -21.1505 -21.1491 -21.1475 -21.1452 -21.1429 -21.1424 -21.1375 -21.1367
   -21.1337 -21.1305 -21.1274 -21.1234 -21.1103 -21.1055 -21.1015 -21.0959
   -21.0895 -21.0755 -21.0720 -21.0645 -21.0630 -21.0601 -21.0588 -21.0534
   -21.0488 -21.0471 -21.0426 -21.0392 -21.0386 -21.0377 -21.0327 -21.0271
   -21.0180 -21.0141 -21.0096 -21.0081 -12.3815  -9.4509  -8.3243  -7.2478
    -7.1714  -6.7990  -6.2682  -6.1392  -5.4743  -5.1192  -5.0119  -4.7392
    -4.3941  -4.1958  -2.6326  -2.1458  -1.8970  -1.8343  -1.7392  -1.6946
    -1.3186  -1.1207  -0.7766  -0.6507   0.0684   0.1946   0.6552   0.7809
     0.9200   1.0340   1.5914   2.2212   2.4488   2.5576   2.7088   2.8911
     2.9167

          k = 0.0496 0.0286 0.0000 ( 25367 PWs)   bands (ev):

   -21.3086 -21.2874 -21.2846 -21.2764 -21.2680 -21.2569 -21.2465 -21.2411
   -21.2405 -21.2311 -21.2272 -21.2175 -21.2137 -21.2091 -21.1948 -21.1929
   -21.1925 -21.1852 -21.1758 -21.1737 -21.1710 -21.1660 -21.1577 -21.1549
   -21.1520 -21.1494 -21.1439 -21.1436 -21.1407 -21.1383 -21.1382 -21.1352
   -21.1331 -21.1279 -21.1255 -21.1245 -21.1111 -21.1049 -21.1005 -21.0922
   -21.0918 -21.0799 -21.0750 -21.0727 -21.0687 -21.0663 -21.0581 -21.0571
   -21.0510 -21.0469 -21.0439 -21.0415 -21.0404 -21.0382 -21.0382 -21.0324
   -21.0324 -21.0206 -21.0046 -21.0045 -12.3805  -9.3249  -8.2047  -7.8170
    -6.8490  -6.6263  -6.3824  -6.3516  -5.6195  -5.4394  -5.2439  -4.5201
    -4.3488  -4.0551  -2.1706  -2.1374  -2.1091  -1.7219  -1.6483  -1.2182
    -1.0424  -0.9946  -0.5066  -0.2933  -0.1233   0.2182   0.6358   0.8518
     1.0231   1.5188   1.5366   1.5503   1.9783   1.9910   2.4041   2.8299
     2.9316

          k = 0.0496-0.1144 0.0000 ( 25368 PWs)   bands (ev):

   -21.2987 -21.2811 -21.2788 -21.2690 -21.2594 -21.2535 -21.2524 -21.2414
   -21.2365 -21.2351 -21.2272 -21.2219 -21.2062 -21.2028 -21.1914 -21.1872
   -21.1837 -21.1751 -21.1683 -21.1670 -21.1664 -21.1642 -21.1593 -21.1559
   -21.1533 -21.1504 -21.1477 -21.1428 -21.1414 -21.1361 -21.1342 -21.1306
   -21.1271 -21.1260 -21.1189 -21.1140 -21.1119 -21.1064 -21.0992 -21.0950
   -21.0905 -21.0866 -21.0813 -21.0783 -21.0762 -21.0698 -21.0669 -21.0635
   -21.0619 -21.0603 -21.0540 -21.0502 -21.0444 -21.0415 -21.0397 -21.0387
   -21.0326 -21.0256 -21.0111 -21.0105 -12.3785  -8.9475  -8.1906  -7.8446
    -7.4456  -7.1391  -6.4989  -6.2554  -5.6510  -5.3959  -5.0200  -4.7782
    -4.2254  -4.1164  -2.1275  -1.9556  -1.6867  -1.3287  -1.1008  -0.9906
    -0.7275  -0.5628  -0.2981  -0.1344   0.0177   0.3025   0.5517   0.9054
     1.0741   1.3334   1.4101   1.9188   2.1795   2.2896   2.3628   2.5246
     2.6313

          k = 0.0496-0.0858 0.0000 ( 25314 PWs)   bands (ev):

   -21.2796 -21.2780 -21.2750 -21.2740 -21.2712 -21.2510 -21.2454 -21.2444
   -21.2389 -21.2304 -21.2302 -21.2271 -21.1876 -21.1854 -21.1820 -21.1810
   -21.1793 -21.1782 -21.1736 -21.1713 -21.1711 -21.1707 -21.1613 -21.1571
   -21.1554 -21.1546 -21.1505 -21.1384 -21.1356 -21.1323 -21.1304 -21.1291
   -21.1275 -21.1206 -21.1103 -21.1093 -21.1079 -21.1048 -21.1017 -21.0992
   -21.0958 -21.0878 -21.0867 -21.0854 -21.0814 -21.0773 -21.0711 -21.0688
   -21.0650 -21.0575 -21.0569 -21.0466 -21.0444 -21.0414 -21.0408 -21.0391
   -21.0318 -21.0315 -21.0256 -21.0146 -12.3775  -8.3921  -8.2803  -8.2740
    -7.3256  -7.2246  -7.2014  -5.9381  -5.7056  -5.5807  -4.6303  -4.4762
    -4.4043  -4.2636  -2.0226  -1.8470  -1.4637  -1.4025  -1.3838  -0.7779
    -0.7558  -0.6915   0.0097   0.1283   0.1330   0.8158   0.8460   0.9589
     1.4351   1.4655   1.4811   1.9600   1.9980   2.0879   2.3502   2.3633
     2.4831

          k = 0.0496-0.0572 0.0000 ( 25368 PWs)   bands (ev):

   -21.2987 -21.2811 -21.2788 -21.2690 -21.2594 -21.2535 -21.2524 -21.2414
   -21.2365 -21.2351 -21.2272 -21.2219 -21.2062 -21.2028 -21.1914 -21.1872
   -21.1837 -21.1751 -21.1683 -21.1670 -21.1664 -21.1642 -21.1593 -21.1559
   -21.1533 -21.1504 -21.1477 -21.1428 -21.1414 -21.1361 -21.1342 -21.1306
   -21.1271 -21.1260 -21.1189 -21.1140 -21.1119 -21.1064 -21.0992 -21.0950
   -21.0905 -21.0866 -21.0813 -21.0783 -21.0762 -21.0698 -21.0669 -21.0635
   -21.0619 -21.0603 -21.0540 -21.0502 -21.0444 -21.0415 -21.0397 -21.0387
   -21.0326 -21.0256 -21.0111 -21.0105 -12.3785  -8.9475  -8.1906  -7.8446
    -7.4456  -7.1391  -6.4989  -6.2554  -5.6510  -5.3959  -5.0200  -4.7782
    -4.2254  -4.1164  -2.1275  -1.9556  -1.6867  -1.3287  -1.1008  -0.9906
    -0.7275  -0.5628  -0.2981  -0.1344   0.0177   0.3025   0.5517   0.9054
     1.0741   1.3335   1.4101   1.9188   2.1795   2.2896   2.3628   2.5246
     2.6313

          k =-0.0743 0.0429 0.0000 ( 25386 PWs)   bands (ev):

   -21.3060 -21.2810 -21.2727 -21.2612 -21.2574 -21.2532 -21.2531 -21.2487
   -21.2348 -21.2310 -21.2267 -21.2250 -21.2107 -21.2072 -21.2037 -21.1862
   -21.1740 -21.1720 -21.1692 -21.1667 -21.1651 -21.1650 -21.1574 -21.1531
   -21.1494 -21.1488 -21.1450 -21.1443 -21.1402 -21.1401 -21.1352 -21.1334
   -21.1264 -21.1242 -21.1182 -21.1151 -21.1055 -21.1027 -21.1010 -21.0998
   -21.0931 -21.0838 -21.0833 -21.0765 -21.0736 -21.0657 -21.0652 -21.0635
   -21.0632 -21.0616 -21.0582 -21.0565 -21.0550 -21.0427 -21.0411 -21.0384
   -21.0376 -21.0233 -21.0050 -21.0045 -12.3785  -8.7339  -8.6525  -7.6317
    -7.5810  -6.5445  -6.4597  -6.2002  -6.0035  -5.5245  -5.5135  -4.5341
    -4.3214  -3.9505  -2.0888  -1.5647  -1.3716  -1.2304  -1.1818  -1.0709
    -1.0200  -0.8254  -0.1792  -0.0428   0.0567   0.3304   0.8708   0.9838
     1.2318   1.3147   1.5586   1.6976   1.8772   1.9079   2.0798   2.1235
     2.1301

          k =-0.0743 0.0715 0.0000 ( 25368 PWs)   bands (ev):

   -21.2987 -21.2811 -21.2788 -21.2690 -21.2594 -21.2535 -21.2524 -21.2414
   -21.2365 -21.2351 -21.2272 -21.2219 -21.2062 -21.2028 -21.1914 -21.1872
   -21.1837 -21.1751 -21.1683 -21.1670 -21.1664 -21.1642 -21.1593 -21.1559
   -21.1533 -21.1504 -21.1477 -21.1428 -21.1414 -21.1361 -21.1342 -21.1306
   -21.1271 -21.1260 -21.1189 -21.1140 -21.1119 -21.1064 -21.0992 -21.0950
   -21.0905 -21.0866 -21.0813 -21.0783 -21.0762 -21.0698 -21.0669 -21.0635
   -21.0619 -21.0603 -21.0540 -21.0502 -21.0444 -21.0415 -21.0397 -21.0387
   -21.0326 -21.0256 -21.0111 -21.0105 -12.3785  -8.9475  -8.1906  -7.8446
    -7.4456  -7.1391  -6.4989  -6.2554  -5.6510  -5.3959  -5.0200  -4.7782
    -4.2254  -4.1164  -2.1275  -1.9556  -1.6867  -1.3287  -1.1008  -0.9906
    -0.7275  -0.5628  -0.2981  -0.1344   0.0177   0.3025   0.5517   0.9054
     1.0741   1.3335   1.4101   1.9188   2.1795   2.2896   2.3628   2.5246
     2.6313

          k =-0.0743 0.1001 0.0000 ( 25368 PWs)   bands (ev):

   -21.2987 -21.2811 -21.2788 -21.2690 -21.2594 -21.2535 -21.2524 -21.2414
   -21.2365 -21.2351 -21.2272 -21.2219 -21.2062 -21.2028 -21.1914 -21.1872
   -21.1837 -21.1751 -21.1683 -21.1670 -21.1664 -21.1642 -21.1593 -21.1559
   -21.1533 -21.1504 -21.1477 -21.1428 -21.1414 -21.1361 -21.1342 -21.1306
   -21.1271 -21.1260 -21.1189 -21.1140 -21.1119 -21.1064 -21.0992 -21.0950
   -21.0905 -21.0866 -21.0813 -21.0783 -21.0762 -21.0698 -21.0669 -21.0635
   -21.0619 -21.0603 -21.0540 -21.0502 -21.0444 -21.0415 -21.0397 -21.0387
   -21.0326 -21.0256 -21.0111 -21.0105 -12.3785  -8.9475  -8.1906  -7.8446
    -7.4456  -7.1391  -6.4989  -6.2554  -5.6510  -5.3959  -5.0200  -4.7782
    -4.2254  -4.1163  -2.1275  -1.9556  -1.6867  -1.3287  -1.1008  -0.9906
    -0.7275  -0.5628  -0.2981  -0.1344   0.0177   0.3025   0.5517   0.9054
     1.0741   1.3335   1.4101   1.9188   2.1795   2.2896   2.3628   2.5246
     2.6313

          k =-0.0743-0.0429 0.0000 ( 25386 PWs)   bands (ev):

   -21.3060 -21.2810 -21.2727 -21.2612 -21.2574 -21.2532 -21.2531 -21.2487
   -21.2348 -21.2310 -21.2267 -21.2250 -21.2107 -21.2072 -21.2037 -21.1862
   -21.1740 -21.1720 -21.1692 -21.1667 -21.1651 -21.1650 -21.1574 -21.1531
   -21.1494 -21.1488 -21.1450 -21.1443 -21.1402 -21.1401 -21.1352 -21.1334
   -21.1264 -21.1242 -21.1182 -21.1151 -21.1055 -21.1027 -21.1010 -21.0998
   -21.0931 -21.0838 -21.0833 -21.0765 -21.0736 -21.0657 -21.0652 -21.0635
   -21.0632 -21.0616 -21.0582 -21.0565 -21.0550 -21.0427 -21.0411 -21.0384
   -21.0376 -21.0233 -21.0050 -21.0045 -12.3785  -8.7339  -8.6525  -7.6317
    -7.5810  -6.5445  -6.4597  -6.2002  -6.0035  -5.5245  -5.5135  -4.5341
    -4.3214  -3.9505  -2.0888  -1.5647  -1.3716  -1.2305  -1.1818  -1.0709
    -1.0200  -0.8254  -0.1792  -0.0428   0.0567   0.3304   0.8708   0.9838
     1.2318   1.3147   1.5586   1.6976   1.8772   1.9079   2.0798   2.1235
     2.1301

     the Fermi energy is     0.8688 ev

!    total energy              =   -1953.94120911 Ry
     Harris-Foulkes estimate   =   -1953.94120920 Ry
     estimated scf accuracy    <          8.5E-09 Ry

     The total energy is the sum of the following terms:

     one-electron contribution =  -10325.30955988 Ry
     hartree contribution      =    5228.42623019 Ry
     xc contribution           =    -543.29464301 Ry
     ewald contribution        =    3686.27995466 Ry
     electric field correction =       0.00004361 Ry
     smearing contrib. (-TS)   =      -0.04323468 Ry

     convergence has been achieved in   8 iterations
 
 BEEF-vdW xc energy contributions
           1 :   -477.076706271453     
           2 :    436.290264773747     
           3 :   -367.196147449382     
           4 :    289.073432358796     
           5 :   -220.140635960554     
           6 :    171.208086350728     
           7 :   -143.292462805913     
           8 :    129.698837864496     
           9 :   -121.031246439947     
          10 :    110.334061296099     
          11 :   -95.8454916366798     
          12 :    80.3864975459677     
          13 :   -68.3499705393136     
          14 :    62.4074361693242     
          15 :   -61.8767719065382     
          16 :    63.4299684509957     
          17 :   -63.3638180028809     
          18 :    59.8373556718543     
          19 :   -53.7156477804768     
          20 :    47.6591687597308     
          21 :   -44.2130780494517     
          22 :    44.1807828190693     
          23 :   -46.2641491930726     
          24 :    48.0629533708290     
          25 :   -47.6730299792090     
          26 :    44.8199081866385     
          27 :   -40.8620826397137     
          28 :    37.7678315471001     
          29 :   -36.8087087682308     
          30 :    37.8190838406317     
          31 :   -42.0014295042007     
          32 :   -30.5001774535634     

     Forces acting on atoms (Ry/au):


     negative rho (up, down):  3.590E-04 0.000E+00
     atom    1 type  1   force =     0.00119247    0.00068803    0.00291584
     atom    2 type  1   force =    -0.00119223    0.00068812    0.00291597
     atom    3 type  1   force =     0.00000036   -0.00137679    0.00291592
     atom    4 type  1   force =    -0.00000018    0.00000023    0.00401846
     atom    5 type  1   force =    -0.00000029    0.00440005   -0.00392188
     atom    6 type  1   force =    -0.00000001    0.00000015   -0.00211113
     atom    7 type  1   force =    -0.00381096   -0.00219999   -0.00392214
     atom    8 type  1   force =     0.00381058   -0.00219959   -0.00392377
     atom    9 type  1   force =    -0.00000036   -0.00000186    0.00191093
     atom   10 type  1   force =     0.00000016   -0.00020473   -0.00066689
     atom   11 type  1   force =    -0.00017806    0.00010383   -0.00066720
     atom   12 type  1   force =     0.00017838    0.00010370   -0.00066692
     atom   13 type  2   force =    -0.00000059   -0.00000129    0.00041073
     atom   14 type  3   force =     0.00000072    0.00000012    0.00079207

     Total force =     0.002431     Total SCF correction =     0.000206


     entering subroutine stress ...


     negative rho (up, down):  3.590E-04 0.000E+00
          total   stress  (Ry/bohr**3)                   (kbar)     P=   -0.18
   0.00001050   0.00000000   0.00000000          1.54      0.00      0.00
   0.00000000   0.00001050  -0.00000000          0.00      1.54     -0.00
   0.00000000  -0.00000000  -0.00002469          0.00     -0.00     -3.63


     bfgs converged in  18 scf cycles and  17 bfgs steps
     (criteria: energy <  1.0E+00, force <  1.9E-03)

     End of BFGS Geometry Optimization

     Final energy   =   -1953.9412091056 Ry
Begin final coordinates

ATOMIC_POSITIONS (crystal)
Sn1      0.166666667   0.166666667   0.392271209    0   0   0
Sn1      0.666666667   0.166666667   0.392271209    0   0   0
Sn1      0.166666667   0.666666667   0.392271209    0   0   0
Sn1      0.666666667   0.666666667   0.392271209    0   0   0
Sn1      0.833333333   0.333333333   0.500000000    0   0   0
Sn1      0.333333333   0.333333333   0.500000000    0   0   0
Sn1      0.833333333   0.833333333   0.500000000    0   0   0
Sn1      0.333333333   0.833333333   0.500000000    0   0   0
Sn1     -0.000000253   0.000002379   0.604403801
Sn1      0.501235248  -0.002469470   0.614807658
Sn1     -0.002466589   0.501232582   0.614807137
Sn1      0.501232370   0.501228650   0.614807053
S1       0.333333168   0.333334595   0.701854084
H1       0.333336192   0.333332583   0.755164600
End final coordinates



     Writing output data file calc.save
 
     init_run     :     15.47s CPU     15.83s WALL (       1 calls)
     electrons    :   7332.56s CPU   8071.68s WALL (      18 calls)
     update_pot   :     79.00s CPU     81.88s WALL (      17 calls)
     forces       :    432.22s CPU    471.63s WALL (      18 calls)
     stress       :   1295.10s CPU   1394.02s WALL (      18 calls)

     Called by init_run:
     wfcinit      :      4.72s CPU      4.80s WALL (       1 calls)
     potinit      :      2.72s CPU      2.89s WALL (       1 calls)

     Called by electrons:
     c_bands      :   2881.58s CPU   3087.60s WALL (     183 calls)
     sum_band     :   1437.97s CPU   1604.15s WALL (     183 calls)
     v_of_rho     :    462.99s CPU    543.24s WALL (     201 calls)
     newd         :   1274.44s CPU   1317.99s WALL (     201 calls)
     mix_rho      :     14.95s CPU     15.38s WALL (     183 calls)
     vdW_energy   :    253.21s CPU    279.11s WALL (     849 calls)
     vdW_ffts     :    647.41s CPU    684.91s WALL (    1734 calls)
     vdW_v        :    235.21s CPU    249.26s WALL (     849 calls)

     Called by c_bands:
     init_us_2    :     17.88s CPU     17.91s WALL (    2015 calls)
     cegterg      :   2631.39s CPU   2713.68s WALL (     915 calls)

     Called by *egterg:
     h_psi        :   1739.15s CPU   1792.71s WALL (    5174 calls)
     s_psi        :    156.56s CPU    156.95s WALL (    5174 calls)
     g_psi        :     10.31s CPU     10.33s WALL (    4254 calls)
     cdiaghg      :    207.36s CPU    209.77s WALL (    5084 calls)

     Called by h_psi:
     add_vuspsi   :    160.78s CPU    161.14s WALL (    5174 calls)

     General routines
     calbec       :    244.93s CPU    251.18s WALL (    6269 calls)
     fft          :   1026.29s CPU   1130.21s WALL (   51137 calls)
     ffts         :      1.09s CPU      1.19s WALL (     384 calls)
     fftw         :   1018.94s CPU   1077.33s WALL (  576305 calls)
     interpolate  :      9.45s CPU      9.85s WALL (     384 calls)
     davcio       :      0.00s CPU      0.04s WALL (       5 calls)
 
     Parallel routines
     fft_scatter  :   1244.46s CPU   1399.48s WALL (  627826 calls)
 
     PWSCF        :     2h34m CPU        2h49m WALL

 
   This run was terminated on:   7:53:22  23Apr2018            

=------------------------------------------------------------------------------=
   JOB DONE.
=------------------------------------------------------------------------------=
Job  /afs/slac/g/suncat/bin/suncat-tsmpirun -x LD_LIBRARY_PATH -wdir /scratch/qe419196_o5LNH pw.x -npool 4 -in pw.inp

TID   HOST_NAME   COMMAND_LINE            STATUS            TERMINATION_TIME
===== ========== ================  =======================  ===================
00000 suncat0012 pw.x -npool 4 -i  Done                     04/23/2018 07:53:22
00001 suncat0012 pw.x -npool 4 -i  Done                     04/23/2018 07:53:22
00002 suncat0012 pw.x -npool 4 -i  Done                     04/23/2018 07:53:22
00003 suncat0012 pw.x -npool 4 -i  Done                     04/23/2018 07:53:22
00004 suncat0012 pw.x -npool 4 -i  Done                     04/23/2018 07:53:22
00005 suncat0012 pw.x -npool 4 -i  Done                     04/23/2018 07:53:22
00006 suncat0012 pw.x -npool 4 -i  Done                     04/23/2018 07:53:22
00007 suncat0012 pw.x -npool 4 -i  Done                     04/23/2018 07:53:22
00008 suncat0172 pw.x -npool 4 -i  Done                     04/23/2018 07:53:22
00009 suncat0172 pw.x -npool 4 -i  Done                     04/23/2018 07:53:22
00010 suncat0172 pw.x -npool 4 -i  Done                     04/23/2018 07:53:22
00011 suncat0172 pw.x -npool 4 -i  Done                     04/23/2018 07:53:22
00012 suncat0172 pw.x -npool 4 -i  Done                     04/23/2018 07:53:22
00013 suncat0172 pw.x -npool 4 -i  Done                     04/23/2018 07:53:22
00014 suncat0172 pw.x -npool 4 -i  Done                     04/23/2018 07:53:22
00015 suncat0172 pw.x -npool 4 -i  Done                     04/23/2018 07:53:22
00016 suncat0152 pw.x -npool 4 -i  Done                     04/23/2018 07:53:22
00017 suncat0152 pw.x -npool 4 -i  Done                     04/23/2018 07:53:22
00018 suncat0152 pw.x -npool 4 -i  Done                     04/23/2018 07:53:22
00019 suncat0152 pw.x -npool 4 -i  Done                     04/23/2018 07:53:22
00020 suncat0152 pw.x -npool 4 -i  Done                     04/23/2018 07:53:22
00021 suncat0152 pw.x -npool 4 -i  Done                     04/23/2018 07:53:22
00022 suncat0152 pw.x -npool 4 -i  Done                     04/23/2018 07:53:22
00023 suncat0152 pw.x -npool 4 -i  Done                     04/23/2018 07:53:22
00024 suncat0113 pw.x -npool 4 -i  Done                     04/23/2018 07:53:22
00025 suncat0113 pw.x -npool 4 -i  Done                     04/23/2018 07:53:22
00026 suncat0113 pw.x -npool 4 -i  Done                     04/23/2018 07:53:22
00027 suncat0113 pw.x -npool 4 -i  Done                     04/23/2018 07:53:22
00028 suncat0113 pw.x -npool 4 -i  Done                     04/23/2018 07:53:22
00029 suncat0113 pw.x -npool 4 -i  Done                     04/23/2018 07:53:22
00030 suncat0113 pw.x -npool 4 -i  Done                     04/23/2018 07:53:22
00031 suncat0113 pw.x -npool 4 -i  Done                     04/23/2018 07:53:22
