  python dir          : /home/mamunm/src/espresso
  espresso dir        : /home/vossj/suncat/esdld/espresso-dynpy-beef/bin
  pseudo dir          : /home/mamunm/src/pseudo/gbrv1.5pbe
  ase-espresso py git : GITVERSION



     Program PWSCF v.5.1rc2 (svn rev. ) starts on 18Apr2018 at  3:46:43 

     This program is part of the open-source Quantum ESPRESSO suite
     for quantum simulation of materials; please cite
         "P. Giannozzi et al., J. Phys.:Condens. Matter 21 395502 (2009);
          URL http://www.quantum-espresso.org", 
     in publications or presentations arising from this work. More details at
     http://www.quantum-espresso.org/quote

     Parallel version (MPI), running on    16 processors
     R & G space division:  proc/nbgrp/npool/nimage =      16
     Reading input from pw.inp
     Message from routine read_cards :
     DEPRECATED: no units specified in CELL_PARAMETERS card

     Current dimensions of program PWSCF are:
     Max number of different atomic species (ntypx) = 10
     Max number of k-points (npk) =  40000
     Max angular momentum in pseudopotentials (lmaxx) =  3
     Presently stress not available with electric field


     **************************************************************************
     Initializing libbeef V0.1.1 with the BEEF-vdW functional.
     Citation: Wellendorff et al., PRB 85, 235149 (2012).
     **************************************************************************


     IMPORTANT: XC functional enforced from input :
     Exchange-correlation      = BEEF-VDW ( 1  4 27 13 2)
     Any further DFT definition will be discarded
     Please, verify this is what you really want


     Subspace diagonalization in iterative solution of the eigenvalue problem:
     a serial algorithm will be used

 
     Parallelization info
     --------------------
     sticks:   dense  smooth     PW     G-vecs:    dense   smooth      PW
     Min         229      92     27                44757    11310    1747
     Max         230      93     28                44782    11361    1763
     Sum        3679    1483    433               716469   181389   28035
 


     bravais-lattice index     =            0
     lattice parameter (alat)  =       1.8897  a.u.
     unit-cell volume          =    6024.3322 (a.u.)^3
     number of atoms/cell      =           15
     number of atomic types    =            3
     number of electrons       =       150.00
     number of Kohn-Sham states=           85
     kinetic-energy cutoff     =      36.7493  Ry
     charge density cutoff     =     367.4932  Ry
     convergence threshold     =      1.0E-05
     mixing beta               =       0.3000
     number of iterations used =           10  plain     mixing
     Exchange-correlation      = BEEF-VDW ( 1  4 27 13 2)
     nstep                     =           50


     celldm(1)=   1.889726  celldm(2)=   0.000000  celldm(3)=   0.000000
     celldm(4)=   0.000000  celldm(5)=   0.000000  celldm(6)=   0.000000

     crystal axes: (cart. coord. in units of alat)
               a(1) = (   6.393197   0.000000   0.000000 )  
               a(2) = (   3.196599   5.536671   0.000000 )  
               a(3) = (   0.000000   0.000000  25.220024 )  

     reciprocal axes: (cart. coord. in units 2 pi/alat)
               b(1) = (  0.156416 -0.090307  0.000000 )  
               b(2) = (  0.000000  0.180614  0.000000 )  
               b(3) = (  0.000000  0.000000  0.039651 )  


     PseudoPot. # 1 for Hf read from file:
     /home/mamunm/src/pseudo/gbrv1.5pbe/Hf.UPF
     MD5 check sum: 8ee9378dfe14276e333edf04c5e4aa26
     Pseudo is Ultrasoft + core correction, Zval = 12.0
     Generated by new atomic code, or converted to UPF format
     Using radial grid of  921 points,  8 beta functions with: 
                l(1) =   0
                l(2) =   0
                l(3) =   0
                l(4) =   1
                l(5) =   1
                l(6) =   2
                l(7) =   2
                l(8) =   3
     Q(r) pseudized with  6 coefficients,  rinner =    1.200   1.200   1.200
                                                       1.200   1.200   1.200
                                                       1.200

     PseudoPot. # 2 for C  read from file:
     /home/mamunm/src/pseudo/gbrv1.5pbe/C.UPF
     MD5 check sum: d1aef80898a10debaa0f26306b886e00
     Pseudo is Ultrasoft + core correction, Zval =  4.0
     Generated by new atomic code, or converted to UPF format
     Using radial grid of  721 points,  4 beta functions with: 
                l(1) =   0
                l(2) =   0
                l(3) =   1
                l(4) =   1
     Q(r) pseudized with  8 coefficients,  rinner =    1.100   1.100   1.100


     PseudoPot. # 3 for H  read from file:
     /home/mamunm/src/pseudo/gbrv1.5pbe/H.UPF
     MD5 check sum: 761ae9a214b05c3daf00ab9f6b793d6f
     Pseudo is Ultrasoft, Zval =  1.0
     Generated by new atomic code, or converted to UPF format
     Using radial grid of  615 points,  2 beta functions with: 
                l(1) =   0
                l(2) =   0
     Q(r) pseudized with  8 coefficients,  rinner =    0.700

     vdW kernel table read from file vdW_kernel_table
     MD5 check sum: 095c7af220d748ca6e76c0b4c6cfb241

     atomic species   valence    mass     pseudopotential
        Hf1           12.00   178.49000     Hf( 1.00)
        C1             4.00    12.01100     C ( 1.00)
        H1             1.00     1.00800     H ( 1.00)

     No symmetry found



   Cartesian axes

     site n.     atom                  positions (alat units)
         1           Hf1 tau(   1) = (   1.5982993   0.9227785  10.0000000  )
         2           Hf1 tau(   2) = (   4.7948978   0.9227785  10.0000000  )
         3           Hf1 tau(   3) = (   3.1965986   3.6911141  10.0000000  )
         4           Hf1 tau(   4) = (   6.3931971   3.6911141  10.0000000  )
         5           Hf1 tau(   5) = (   6.3931971   1.8455570  12.6100118  )
         6           Hf1 tau(   6) = (   3.1965986   1.8455570  12.6100118  )
         7           Hf1 tau(   7) = (   7.9914964   4.6138926  12.6100118  )
         8           Hf1 tau(   8) = (   4.7948978   4.6138926  12.6100118  )
         9           Hf1 tau(   9) = (   0.0000000   0.0000000  15.2200236  )
        10           Hf1 tau(  10) = (   3.1965986   0.0000000  15.2200236  )
        11           Hf1 tau(  11) = (   1.5982993   2.7683356  15.2200236  )
        12           Hf1 tau(  12) = (   4.7948978   2.7683356  15.2200236  )
        13           C1  tau(  13) = (   0.0000000   0.0000000  17.3535236  )
        14           H1  tau(  14) = (   0.6300000   0.6300000  17.9835236  )
        15           H1  tau(  15) = (   8.9597957   4.9066711  17.9835236  )

     number of k points=    20  Fermi-Dirac smearing, width (Ry)=  0.0110
                       cart. coord. in units 2pi/alat
        k(    1) = (   0.0000000   0.0000000   0.0000000), wk =   0.0555556
        k(    2) = (   0.0000000   0.0301023   0.0000000), wk =   0.1111111
        k(    3) = (   0.0000000   0.0602046   0.0000000), wk =   0.1111111
        k(    4) = (   0.0000000  -0.0903070   0.0000000), wk =   0.0555556
        k(    5) = (   0.0260694  -0.0150512   0.0000000), wk =   0.1111111
        k(    6) = (   0.0260694   0.0150512   0.0000000), wk =   0.1111111
        k(    7) = (   0.0260694   0.0451535   0.0000000), wk =   0.1111111
        k(    8) = (   0.0260694  -0.1053581   0.0000000), wk =   0.1111111
        k(    9) = (   0.0260694  -0.0752558   0.0000000), wk =   0.1111111
        k(   10) = (   0.0260694  -0.0451535   0.0000000), wk =   0.1111111
        k(   11) = (   0.0521388  -0.0301023   0.0000000), wk =   0.1111111
        k(   12) = (   0.0521388   0.0000000   0.0000000), wk =   0.1111111
        k(   13) = (   0.0521388   0.0301023   0.0000000), wk =   0.1111111
        k(   14) = (   0.0521388  -0.1204093   0.0000000), wk =   0.1111111
        k(   15) = (   0.0521388  -0.0903070   0.0000000), wk =   0.1111111
        k(   16) = (   0.0521388  -0.0602046   0.0000000), wk =   0.1111111
        k(   17) = (  -0.0782081   0.0451535   0.0000000), wk =   0.0555556
        k(   18) = (  -0.0782081   0.0752558   0.0000000), wk =   0.1111111
        k(   19) = (  -0.0782081   0.1053581   0.0000000), wk =   0.1111111
        k(   20) = (  -0.0782081  -0.0451535   0.0000000), wk =   0.0555556

     Dense  grid:   716469 G-vectors     FFT dimensions: (  75,  75, 300)

     Smooth grid:   181389 G-vectors     FFT dimensions: (  48,  48, 192)

     Largest allocated arrays     est. size (Mb)     dimensions
        Kohn-Sham Wavefunctions         1.89 Mb     (    1455,   85)
        NL pseudopotentials             7.19 Mb     (    1455,  324)
        Each V/rho on FFT grid          1.63 Mb     (  106875)
        Each G-vector array             0.34 Mb     (   44782)
        G-vector shells                 0.13 Mb     (   17151)
     Largest temporary arrays     est. size (Mb)     dimensions
        Auxiliary wavefunctions         7.55 Mb     (    1455,  340)
        Each subspace H/S matrix        1.76 Mb     (     340,  340)
        Each <psi_i|beta_j> matrix      0.42 Mb     (     324,   85)
        Arrays for rho mixing          16.31 Mb     (  106875,   10)

     Check: negative/imaginary core charge=   -0.000003    0.000000

     Initial potential from superposition of free atoms
     Check: negative starting charge=   -1.301315

     starting charge  125.99992, renormalised to  150.00000

     negative rho (up, down):  1.549E+00 0.000E+00


     ************************************************************************
     *
     * You are using vdW-DF for exchange-correlation in this calculation.
     * Please cite the following three references that made this development
     * possible:
     *
     *   M. Dion, H. Rydberg, E. Schroder, D. C. Langreth, and
     *   B. I. Lundqvist, Phys. Rev. Lett. 92, 246401 (2004).
     *
     *   T. Thonhauser, V. R. Cooper, S. Li, A. Puzder, P. Hyldgaard, and
     *   D. C. Langreth, Phys. Rev. B 76, 125112 (2007).
     *
     *   G. Roman-Perez and J. M. Soler, Phys. Rev. Lett. 103, 096102 (2009).
     *
     *
     * If you are using vdW-DF2, please also cite:
     *
     *   K. Lee, E. D. Murray, L. Kong, B. I. Lundqvist, and
     *   D. C. Langreth, Phys. Rev. B 82, 081101(R) (2010).
     *
     *
     * If you are calculating the stress with vdW-DF, please also cite:
     *
     *   R. Sabatini, E. Kucukbenli, B. Kolb, T. Thonhauser, and
     *   S. de Gironcoli, J. Phys.: Condens. Matter 24, 424209 (2012).
     *
     ************************************************************************

     Carrying out vdW-DF run using the following parameters:

     Nqs =      20    Nr_points =    1024   r_max =   100.000
     q_mesh =
               0.00001000     0.04494208     0.09755937     0.15916263
               0.23128650     0.31572767     0.41458969     0.53033537
               0.66584808     0.82450364     1.01025438     1.22772762
               1.48234092     1.78043706     2.12944203     2.53805004
               3.01644009     3.57652955     4.23227104     5.00000000

     Gradients computed in reciprocal space

     ************************************************************************


 
     Adding external electric field

     Computed dipole along edir(3) : 
        Dipole              -10.6974 Ry au,        -27.1902 Debye
        Dipole field         -0.0223 Ry au
 
        Potential amp.        2.0738 Ry
        Total length         46.4675 bohr
 
     Starting wfc are  162 randomized atomic wfcs

     total cpu time spent up to now is       13.1 secs

     Self-consistent Calculation

     iteration #  1     ecut=    36.75 Ry     beta=0.30
     Davidson diagonalization with overlap
     ethr =  1.00E-02,  avg # of iterations =  9.6

     negative rho (up, down):  1.436E+00 0.000E+00
 
     Adding external electric field

     Computed dipole along edir(3) : 
        Dipole              154.8033 Ry au,        393.4706 Debye
        Dipole field          0.3229 Ry au
 
        Potential amp.      -30.0096 Ry
        Total length         46.4675 bohr
 

     total cpu time spent up to now is       47.6 secs

     total energy              =   -1284.41886897 Ry
     Harris-Foulkes estimate   =   -1931.71414511 Ry
     estimated scf accuracy    <    1389.50924418 Ry

     iteration #  2     ecut=    36.75 Ry     beta=0.30
     Davidson diagonalization with overlap
     c_bands:  5 eigenvalues not converged
     ethr =  1.00E-02,  avg # of iterations = 21.4

     negative rho (up, down):  1.381E+00 0.000E+00
 
     Adding external electric field

     Computed dipole along edir(3) : 
        Dipole               45.5586 Ry au,        115.7983 Debye
        Dipole field          0.0950 Ry au
 
        Potential amp.       -8.8318 Ry
        Total length         46.4675 bohr
 

     total cpu time spent up to now is      148.6 secs

     total energy              =   -1412.08503795 Ry
     Harris-Foulkes estimate   =   -3086.73625651 Ry
     estimated scf accuracy    <   15716.44622438 Ry

     iteration #  3     ecut=    36.75 Ry     beta=0.30
     Davidson diagonalization with overlap
     ethr =  1.00E-02,  avg # of iterations = 16.4

     negative rho (up, down):  1.331E+00 0.000E+00
 
     Adding external electric field

     Computed dipole along edir(3) : 
        Dipole               38.2098 Ry au,         97.1196 Debye
        Dipole field          0.0797 Ry au
 
        Potential amp.       -7.4072 Ry
        Total length         46.4675 bohr
 

     total cpu time spent up to now is      216.3 secs

     total energy              =   -1886.77434880 Ry
     Harris-Foulkes estimate   =   -2258.40698000 Ry
     estimated scf accuracy    <    2273.88816363 Ry

     iteration #  4     ecut=    36.75 Ry     beta=0.30
     Davidson diagonalization with overlap
     ethr =  1.00E-02,  avg # of iterations = 12.2

     negative rho (up, down):  1.326E+00 0.000E+00
 
     Adding external electric field

     Computed dipole along edir(3) : 
        Dipole               30.6037 Ry au,         77.7869 Debye
        Dipole field          0.0638 Ry au
 
        Potential amp.       -5.9327 Ry
        Total length         46.4675 bohr
 

     total cpu time spent up to now is      265.9 secs

     total energy              =   -1964.12437926 Ry
     Harris-Foulkes estimate   =   -2012.21408126 Ry
     estimated scf accuracy    <     205.97597806 Ry

     iteration #  5     ecut=    36.75 Ry     beta=0.30
     Davidson diagonalization with overlap
     ethr =  1.00E-02,  avg # of iterations =  9.1

     negative rho (up, down):  1.350E+00 0.000E+00
 
     Adding external electric field

     Computed dipole along edir(3) : 
        Dipole               26.7582 Ry au,         68.0125 Debye
        Dipole field          0.0558 Ry au
 
        Potential amp.       -5.1872 Ry
        Total length         46.4675 bohr
 

     total cpu time spent up to now is      298.2 secs

     total energy              =   -1950.38426876 Ry
     Harris-Foulkes estimate   =   -1989.43101468 Ry
     estimated scf accuracy    <     437.48948291 Ry

     iteration #  6     ecut=    36.75 Ry     beta=0.30
     Davidson diagonalization with overlap
     ethr =  1.00E-02,  avg # of iterations =  6.8

     negative rho (up, down):  1.361E+00 0.000E+00
 
     Adding external electric field

     Computed dipole along edir(3) : 
        Dipole               22.3119 Ry au,         56.7113 Debye
        Dipole field          0.0465 Ry au
 
        Potential amp.       -4.3253 Ry
        Total length         46.4675 bohr
 

     total cpu time spent up to now is      324.4 secs

     total energy              =   -1953.73108710 Ry
     Harris-Foulkes estimate   =   -1964.00997235 Ry
     estimated scf accuracy    <      66.01418557 Ry

     iteration #  7     ecut=    36.75 Ry     beta=0.30
     Davidson diagonalization with overlap
     ethr =  1.00E-02,  avg # of iterations =  2.4

     negative rho (up, down):  1.376E+00 0.000E+00
 
     Adding external electric field

     Computed dipole along edir(3) : 
        Dipole               16.2548 Ry au,         41.3155 Debye
        Dipole field          0.0339 Ry au
 
        Potential amp.       -3.1511 Ry
        Total length         46.4675 bohr
 

     total cpu time spent up to now is      342.0 secs

     total energy              =   -1946.11373019 Ry
     Harris-Foulkes estimate   =   -1955.12473713 Ry
     estimated scf accuracy    <      36.71969570 Ry

     iteration #  8     ecut=    36.75 Ry     beta=0.30
     Davidson diagonalization with overlap
     ethr =  1.00E-02,  avg # of iterations =  2.3

     negative rho (up, down):  1.396E+00 0.000E+00
 
     Adding external electric field

     Computed dipole along edir(3) : 
        Dipole                8.3624 Ry au,         21.2552 Debye
        Dipole field          0.0174 Ry au
 
        Potential amp.       -1.6211 Ry
        Total length         46.4675 bohr
 

     total cpu time spent up to now is      359.1 secs

     total energy              =   -1939.36792428 Ry
     Harris-Foulkes estimate   =   -1947.21295625 Ry
     estimated scf accuracy    <      23.79517147 Ry

     iteration #  9     ecut=    36.75 Ry     beta=0.30
     Davidson diagonalization with overlap
     ethr =  1.00E-02,  avg # of iterations =  5.5

     negative rho (up, down):  1.386E+00 0.000E+00
 
     Adding external electric field

     Computed dipole along edir(3) : 
        Dipole               10.1846 Ry au,         25.8867 Debye
        Dipole field          0.0212 Ry au
 
        Potential amp.       -1.9744 Ry
        Total length         46.4675 bohr
 

     total cpu time spent up to now is      383.9 secs

     total energy              =   -1941.23467614 Ry
     Harris-Foulkes estimate   =   -1944.28730607 Ry
     estimated scf accuracy    <     106.96935834 Ry

     iteration # 10     ecut=    36.75 Ry     beta=0.30
     Davidson diagonalization with overlap
     ethr =  1.00E-02,  avg # of iterations =  2.1

     negative rho (up, down):  1.390E+00 0.000E+00
 
     Adding external electric field

     Computed dipole along edir(3) : 
        Dipole                7.3948 Ry au,         18.7958 Debye
        Dipole field          0.0154 Ry au
 
        Potential amp.       -1.4335 Ry
        Total length         46.4675 bohr
 

     total cpu time spent up to now is      401.5 secs

     total energy              =   -1941.72608488 Ry
     Harris-Foulkes estimate   =   -1942.96691638 Ry
     estimated scf accuracy    <       7.85536736 Ry

     iteration # 11     ecut=    36.75 Ry     beta=0.30
     Davidson diagonalization with overlap
     ethr =  5.24E-03,  avg # of iterations =  1.9

     negative rho (up, down):  1.482E+00 0.000E+00
 
     Adding external electric field

     Computed dipole along edir(3) : 
        Dipole                0.9374 Ry au,          2.3826 Debye
        Dipole field          0.0020 Ry au
 
        Potential amp.       -0.1817 Ry
        Total length         46.4675 bohr
 

     total cpu time spent up to now is      418.4 secs

     total energy              =   -1942.11680222 Ry
     Harris-Foulkes estimate   =   -1942.16606642 Ry
     estimated scf accuracy    <      29.24079378 Ry

     iteration # 12     ecut=    36.75 Ry     beta=0.30
     Davidson diagonalization with overlap
     ethr =  5.24E-03,  avg # of iterations =  5.0

     negative rho (up, down):  1.581E+00 0.000E+00
 
     Adding external electric field

     Computed dipole along edir(3) : 
        Dipole               -0.6076 Ry au,         -1.5444 Debye
        Dipole field         -0.0013 Ry au
 
        Potential amp.        0.1178 Ry
        Total length         46.4675 bohr
 

     total cpu time spent up to now is      441.0 secs

     total energy              =   -1948.60978067 Ry
     Harris-Foulkes estimate   =   -1945.37704096 Ry
     estimated scf accuracy    <     223.47205042 Ry

     iteration # 13     ecut=    36.75 Ry     beta=0.30
     Davidson diagonalization with overlap
     ethr =  5.24E-03,  avg # of iterations =  7.6

     negative rho (up, down):  1.389E+00 0.000E+00
 
     Adding external electric field

     Computed dipole along edir(3) : 
        Dipole                4.9568 Ry au,         12.5990 Debye
        Dipole field          0.0103 Ry au
 
        Potential amp.       -0.9609 Ry
        Total length         46.4675 bohr
 

     total cpu time spent up to now is      465.0 secs

     total energy              =   -1927.48687312 Ry
     Harris-Foulkes estimate   =   -1950.10507145 Ry
     estimated scf accuracy    <     581.18512864 Ry

     iteration # 14     ecut=    36.75 Ry     beta=0.30
     Davidson diagonalization with overlap
     ethr =  5.24E-03,  avg # of iterations =  8.3

     negative rho (up, down):  1.383E+00 0.000E+00
 
     Adding external electric field

     Computed dipole along edir(3) : 
        Dipole                5.8479 Ry au,         14.8638 Debye
        Dipole field          0.0122 Ry au
 
        Potential amp.       -1.1336 Ry
        Total length         46.4675 bohr
 

     total cpu time spent up to now is      492.0 secs

     total energy              =   -1939.98740301 Ry
     Harris-Foulkes estimate   =   -1941.60652106 Ry
     estimated scf accuracy    <      36.57155833 Ry

     iteration # 15     ecut=    36.75 Ry     beta=0.30
     Davidson diagonalization with overlap
     ethr =  5.24E-03,  avg # of iterations =  6.0

     negative rho (up, down):  1.383E+00 0.000E+00
 
     Adding external electric field

     Computed dipole along edir(3) : 
        Dipole                5.9885 Ry au,         15.2213 Debye
        Dipole field          0.0125 Ry au
 
        Potential amp.       -1.1609 Ry
        Total length         46.4675 bohr
 

     total cpu time spent up to now is      513.4 secs

     total energy              =   -1941.18881042 Ry
     Harris-Foulkes estimate   =   -1941.39643337 Ry
     estimated scf accuracy    <      10.56257968 Ry

     iteration # 16     ecut=    36.75 Ry     beta=0.30
     Davidson diagonalization with overlap
     ethr =  5.24E-03,  avg # of iterations =  1.1

     negative rho (up, down):  1.380E+00 0.000E+00
 
     Adding external electric field

     Computed dipole along edir(3) : 
        Dipole                6.9085 Ry au,         17.5598 Debye
        Dipole field          0.0144 Ry au
 
        Potential amp.       -1.3393 Ry
        Total length         46.4675 bohr
 

     total cpu time spent up to now is      530.0 secs

     total energy              =   -1941.47777130 Ry
     Harris-Foulkes estimate   =   -1941.26067378 Ry
     estimated scf accuracy    <       2.75102032 Ry

     iteration # 17     ecut=    36.75 Ry     beta=0.30
     Davidson diagonalization with overlap
     ethr =  1.83E-03,  avg # of iterations =  2.6

     negative rho (up, down):  1.380E+00 0.000E+00
 
     Adding external electric field

     Computed dipole along edir(3) : 
        Dipole                6.6099 Ry au,         16.8006 Debye
        Dipole field          0.0138 Ry au
 
        Potential amp.       -1.2814 Ry
        Total length         46.4675 bohr
 

     total cpu time spent up to now is      547.4 secs

     total energy              =   -1941.38005756 Ry
     Harris-Foulkes estimate   =   -1941.52555089 Ry
     estimated scf accuracy    <       2.17176608 Ry

     iteration # 18     ecut=    36.75 Ry     beta=0.30
     Davidson diagonalization with overlap
     ethr =  1.45E-03,  avg # of iterations =  1.1

     negative rho (up, down):  1.379E+00 0.000E+00
 
     Adding external electric field

     Computed dipole along edir(3) : 
        Dipole                6.8330 Ry au,         17.3677 Debye
        Dipole field          0.0143 Ry au
 
        Potential amp.       -1.3246 Ry
        Total length         46.4675 bohr
 

     total cpu time spent up to now is      564.1 secs

     total energy              =   -1941.42656069 Ry
     Harris-Foulkes estimate   =   -1941.38356272 Ry
     estimated scf accuracy    <       2.10437263 Ry

     iteration # 19     ecut=    36.75 Ry     beta=0.30
     Davidson diagonalization with overlap
     ethr =  1.40E-03,  avg # of iterations =  1.0

     negative rho (up, down):  1.379E+00 0.000E+00
 
     Adding external electric field

     Computed dipole along edir(3) : 
        Dipole                6.7234 Ry au,         17.0893 Debye
        Dipole field          0.0140 Ry au
 
        Potential amp.       -1.3034 Ry
        Total length         46.4675 bohr
 

     total cpu time spent up to now is      580.5 secs

     total energy              =   -1941.39863051 Ry
     Harris-Foulkes estimate   =   -1941.43632706 Ry
     estimated scf accuracy    <       2.04765656 Ry

     iteration # 20     ecut=    36.75 Ry     beta=0.30
     Davidson diagonalization with overlap
     ethr =  1.37E-03,  avg # of iterations =  1.0

     negative rho (up, down):  1.379E+00 0.000E+00
 
     Adding external electric field

     Computed dipole along edir(3) : 
        Dipole                6.6482 Ry au,         16.8981 Debye
        Dipole field          0.0139 Ry au
 
        Potential amp.       -1.2888 Ry
        Total length         46.4675 bohr
 

     total cpu time spent up to now is      597.0 secs

     total energy              =   -1941.37969369 Ry
     Harris-Foulkes estimate   =   -1941.40456958 Ry
     estimated scf accuracy    <       1.96063067 Ry

     iteration # 21     ecut=    36.75 Ry     beta=0.30
     Davidson diagonalization with overlap
     ethr =  1.31E-03,  avg # of iterations =  1.0

     negative rho (up, down):  1.379E+00 0.000E+00
 
     Adding external electric field

     Computed dipole along edir(3) : 
        Dipole                6.5562 Ry au,         16.6643 Debye
        Dipole field          0.0137 Ry au
 
        Potential amp.       -1.2710 Ry
        Total length         46.4675 bohr
 

     total cpu time spent up to now is      613.7 secs

     total energy              =   -1941.34958051 Ry
     Harris-Foulkes estimate   =   -1941.38960219 Ry
     estimated scf accuracy    <       1.41374848 Ry

     iteration # 22     ecut=    36.75 Ry     beta=0.30
     Davidson diagonalization with overlap
     ethr =  9.42E-04,  avg # of iterations =  1.2

     negative rho (up, down):  1.379E+00 0.000E+00
 
     Adding external electric field

     Computed dipole along edir(3) : 
        Dipole                6.4018 Ry au,         16.2718 Debye
        Dipole field          0.0134 Ry au
 
        Potential amp.       -1.2410 Ry
        Total length         46.4675 bohr
 

     total cpu time spent up to now is      630.4 secs

     total energy              =   -1941.32165086 Ry
     Harris-Foulkes estimate   =   -1941.35770643 Ry
     estimated scf accuracy    <       1.29564901 Ry

     iteration # 23     ecut=    36.75 Ry     beta=0.30
     Davidson diagonalization with overlap
     ethr =  8.64E-04,  avg # of iterations =  1.0

     negative rho (up, down):  1.382E+00 0.000E+00
 
     Adding external electric field

     Computed dipole along edir(3) : 
        Dipole                5.9131 Ry au,         15.0295 Debye
        Dipole field          0.0123 Ry au
 
        Potential amp.       -1.1463 Ry
        Total length         46.4675 bohr
 

     total cpu time spent up to now is      647.1 secs

     total energy              =   -1941.21505319 Ry
     Harris-Foulkes estimate   =   -1941.33638327 Ry
     estimated scf accuracy    <       1.27104624 Ry

     iteration # 24     ecut=    36.75 Ry     beta=0.30
     Davidson diagonalization with overlap
     ethr =  8.47E-04,  avg # of iterations =  1.2

     negative rho (up, down):  1.509E+00 0.000E+00
 
     Adding external electric field

     Computed dipole along edir(3) : 
        Dipole               -0.4990 Ry au,         -1.2682 Debye
        Dipole field         -0.0010 Ry au
 
        Potential amp.        0.0967 Ry
        Total length         46.4675 bohr
 

     total cpu time spent up to now is      663.7 secs

     total energy              =   -1940.38481894 Ry
     Harris-Foulkes estimate   =   -1941.28995894 Ry
     estimated scf accuracy    <       1.18756116 Ry

     iteration # 25     ecut=    36.75 Ry     beta=0.30
     Davidson diagonalization with overlap
     ethr =  7.92E-04,  avg # of iterations =  5.2

     negative rho (up, down):  1.511E+00 0.000E+00
 
     Adding external electric field

     Computed dipole along edir(3) : 
        Dipole                1.1836 Ry au,          3.0085 Debye
        Dipole field          0.0025 Ry au
 
        Potential amp.       -0.2295 Ry
        Total length         46.4675 bohr
 

     total cpu time spent up to now is      686.5 secs

     total energy              =   -1940.44082623 Ry
     Harris-Foulkes estimate   =   -1940.79099192 Ry
     estimated scf accuracy    <       1.85455569 Ry

     iteration # 26     ecut=    36.75 Ry     beta=0.30
     Davidson diagonalization with overlap
     ethr =  7.92E-04,  avg # of iterations =  3.4

     negative rho (up, down):  1.488E+00 0.000E+00
 
     Adding external electric field

     Computed dipole along edir(3) : 
        Dipole                0.2756 Ry au,          0.7006 Debye
        Dipole field          0.0006 Ry au
 
        Potential amp.       -0.0534 Ry
        Total length         46.4675 bohr
 

     total cpu time spent up to now is      706.0 secs

     total energy              =   -1940.49810419 Ry
     Harris-Foulkes estimate   =   -1940.64611278 Ry
     estimated scf accuracy    <       4.46281972 Ry

     iteration # 27     ecut=    36.75 Ry     beta=0.30
     Davidson diagonalization with overlap
     ethr =  7.92E-04,  avg # of iterations =  2.6

     negative rho (up, down):  1.457E+00 0.000E+00
 
     Adding external electric field

     Computed dipole along edir(3) : 
        Dipole                0.3499 Ry au,          0.8893 Debye
        Dipole field          0.0007 Ry au
 
        Potential amp.       -0.0678 Ry
        Total length         46.4675 bohr
 

     total cpu time spent up to now is      723.5 secs

     total energy              =   -1940.56255030 Ry
     Harris-Foulkes estimate   =   -1940.56679633 Ry
     estimated scf accuracy    <       0.02400411 Ry

     iteration # 28     ecut=    36.75 Ry     beta=0.30
     Davidson diagonalization with overlap
     ethr =  1.60E-05,  avg # of iterations =  7.6

     negative rho (up, down):  1.421E+00 0.000E+00
 
     Adding external electric field

     Computed dipole along edir(3) : 
        Dipole               -0.0042 Ry au,         -0.0106 Debye
        Dipole field         -0.0000 Ry au
 
        Potential amp.        0.0008 Ry
        Total length         46.4675 bohr
 

     total cpu time spent up to now is      751.3 secs

     total energy              =   -1940.56670765 Ry
     Harris-Foulkes estimate   =   -1940.57668446 Ry
     estimated scf accuracy    <       0.04056843 Ry

     iteration # 29     ecut=    36.75 Ry     beta=0.30
     Davidson diagonalization with overlap
     ethr =  1.60E-05,  avg # of iterations =  4.1

     negative rho (up, down):  1.392E+00 0.000E+00
 
     Adding external electric field

     Computed dipole along edir(3) : 
        Dipole                0.0014 Ry au,          0.0036 Debye
        Dipole field          0.0000 Ry au
 
        Potential amp.       -0.0003 Ry
        Total length         46.4675 bohr
 

     total cpu time spent up to now is      772.5 secs

     total energy              =   -1940.56929253 Ry
     Harris-Foulkes estimate   =   -1940.57199777 Ry
     estimated scf accuracy    <       0.04135901 Ry

     iteration # 30     ecut=    36.75 Ry     beta=0.30
     Davidson diagonalization with overlap
     ethr =  1.60E-05,  avg # of iterations =  1.7

     negative rho (up, down):  1.386E+00 0.000E+00
 
     Adding external electric field

     Computed dipole along edir(3) : 
        Dipole                0.0480 Ry au,          0.1220 Debye
        Dipole field          0.0001 Ry au
 
        Potential amp.       -0.0093 Ry
        Total length         46.4675 bohr
 

     total cpu time spent up to now is      789.4 secs

     total energy              =   -1940.56973413 Ry
     Harris-Foulkes estimate   =   -1940.57032372 Ry
     estimated scf accuracy    <       0.00434454 Ry

     iteration # 31     ecut=    36.75 Ry     beta=0.30
     Davidson diagonalization with overlap
     ethr =  2.90E-06,  avg # of iterations =  5.8

     negative rho (up, down):  1.383E+00 0.000E+00
 
     Adding external electric field

     Computed dipole along edir(3) : 
        Dipole                0.0300 Ry au,          0.0763 Debye
        Dipole field          0.0001 Ry au
 
        Potential amp.       -0.0058 Ry
        Total length         46.4675 bohr
 

     total cpu time spent up to now is      811.9 secs

     total energy              =   -1940.57006257 Ry
     Harris-Foulkes estimate   =   -1940.57031751 Ry
     estimated scf accuracy    <       0.00370167 Ry

     iteration # 32     ecut=    36.75 Ry     beta=0.30
     Davidson diagonalization with overlap
     ethr =  2.47E-06,  avg # of iterations =  3.1

     negative rho (up, down):  1.381E+00 0.000E+00
 
     Adding external electric field

     Computed dipole along edir(3) : 
        Dipole                0.0103 Ry au,          0.0262 Debye
        Dipole field          0.0000 Ry au
 
        Potential amp.       -0.0020 Ry
        Total length         46.4675 bohr
 

     total cpu time spent up to now is      830.6 secs

     total energy              =   -1940.57022681 Ry
     Harris-Foulkes estimate   =   -1940.57040326 Ry
     estimated scf accuracy    <       0.00247360 Ry

     iteration # 33     ecut=    36.75 Ry     beta=0.30
     Davidson diagonalization with overlap
     ethr =  1.65E-06,  avg # of iterations =  1.7

     negative rho (up, down):  1.379E+00 0.000E+00
 
     Adding external electric field

     Computed dipole along edir(3) : 
        Dipole                0.0230 Ry au,          0.0584 Debye
        Dipole field          0.0000 Ry au
 
        Potential amp.       -0.0045 Ry
        Total length         46.4675 bohr
 

     total cpu time spent up to now is      847.5 secs

     total energy              =   -1940.57022233 Ry
     Harris-Foulkes estimate   =   -1940.57029681 Ry
     estimated scf accuracy    <       0.00035928 Ry

     iteration # 34     ecut=    36.75 Ry     beta=0.30
     Davidson diagonalization with overlap
     ethr =  2.40E-07,  avg # of iterations =  4.6

     negative rho (up, down):  1.379E+00 0.000E+00
 
     Adding external electric field

     Computed dipole along edir(3) : 
        Dipole                0.0279 Ry au,          0.0709 Debye
        Dipole field          0.0001 Ry au
 
        Potential amp.       -0.0054 Ry
        Total length         46.4675 bohr
 

     total cpu time spent up to now is      869.9 secs

     total energy              =   -1940.57029138 Ry
     Harris-Foulkes estimate   =   -1940.57031215 Ry
     estimated scf accuracy    <       0.00031921 Ry

     iteration # 35     ecut=    36.75 Ry     beta=0.30
     Davidson diagonalization with overlap
     ethr =  2.13E-07,  avg # of iterations =  1.1

     negative rho (up, down):  1.379E+00 0.000E+00
 
     Adding external electric field

     Computed dipole along edir(3) : 
        Dipole                0.0320 Ry au,          0.0812 Debye
        Dipole field          0.0001 Ry au
 
        Potential amp.       -0.0062 Ry
        Total length         46.4675 bohr
 

     total cpu time spent up to now is      886.5 secs

     total energy              =   -1940.57029462 Ry
     Harris-Foulkes estimate   =   -1940.57029885 Ry
     estimated scf accuracy    <       0.00011934 Ry

     iteration # 36     ecut=    36.75 Ry     beta=0.30
     Davidson diagonalization with overlap
     ethr =  7.96E-08,  avg # of iterations =  3.2

     negative rho (up, down):  1.379E+00 0.000E+00
 
     Adding external electric field

     Computed dipole along edir(3) : 
        Dipole                0.0311 Ry au,          0.0791 Debye
        Dipole field          0.0001 Ry au
 
        Potential amp.       -0.0060 Ry
        Total length         46.4675 bohr
 

     total cpu time spent up to now is      905.0 secs

     total energy              =   -1940.57030123 Ry
     Harris-Foulkes estimate   =   -1940.57030174 Ry
     estimated scf accuracy    <       0.00001533 Ry

     iteration # 37     ecut=    36.75 Ry     beta=0.30
     Davidson diagonalization with overlap
     ethr =  1.02E-08,  avg # of iterations =  4.5

     negative rho (up, down):  1.379E+00 0.000E+00

     negative rho (up, down):  1.379E+00 0.000E+00

     negative rho (up, down):  1.379E+00 0.000E+00

     negative rho (up, down):  1.379E+00 0.000E+00

     negative rho (up, down):  1.379E+00 0.000E+00

     negative rho (up, down):  1.379E+00 0.000E+00

     negative rho (up, down):  1.379E+00 0.000E+00

     negative rho (up, down):  1.379E+00 0.000E+00

     negative rho (up, down):  1.379E+00 0.000E+00

     negative rho (up, down):  1.379E+00 0.000E+00

     negative rho (up, down):  1.379E+00 0.000E+00

     negative rho (up, down):  1.379E+00 0.000E+00

     negative rho (up, down):  1.379E+00 0.000E+00

     negative rho (up, down):  1.379E+00 0.000E+00

     negative rho (up, down):  1.379E+00 0.000E+00

     negative rho (up, down):  1.379E+00 0.000E+00

     negative rho (up, down):  1.379E+00 0.000E+00

     negative rho (up, down):  1.379E+00 0.000E+00

     negative rho (up, down):  1.379E+00 0.000E+00

     negative rho (up, down):  1.379E+00 0.000E+00

     negative rho (up, down):  1.379E+00 0.000E+00

     negative rho (up, down):  1.379E+00 0.000E+00

     negative rho (up, down):  1.379E+00 0.000E+00

     negative rho (up, down):  1.379E+00 0.000E+00

     negative rho (up, down):  1.379E+00 0.000E+00

     negative rho (up, down):  1.379E+00 0.000E+00

     negative rho (up, down):  1.379E+00 0.000E+00

     negative rho (up, down):  1.379E+00 0.000E+00

     negative rho (up, down):  1.379E+00 0.000E+00

     negative rho (up, down):  1.379E+00 0.000E+00

     negative rho (up, down):  1.379E+00 0.000E+00

     negative rho (up, down):  1.379E+00 0.000E+00

     negative rho (up, down):  1.379E+00 0.000E+00

     negative rho (up, down):  1.379E+00 0.000E+00

     negative rho (up, down):  1.379E+00 0.000E+00
 
     Adding external electric field

     Computed dipole along edir(3) : 
        Dipole                0.0215 Ry au,          0.0548 Debye
        Dipole field          0.0000 Ry au
 
        Potential amp.       -0.0042 Ry
        Total length         46.4675 bohr
 

     total cpu time spent up to now is      947.3 secs

     End of self-consistent calculation

          k = 0.0000 0.0000 0.0000 ( 22729 PWs)   bands (ev):

   -61.2473 -61.2232 -61.2165 -61.1550 -61.1253 -61.1147 -61.1145 -60.7697
   -60.7396 -60.7376 -60.7254 -60.5260 -29.9504 -29.9234 -29.9160 -29.9128
   -29.8948 -29.8937 -29.8863 -29.8405 -29.8351 -29.7845 -29.7234 -29.6911
   -29.6908 -29.6048 -29.5135 -29.4928 -29.4927 -29.4883 -29.4781 -29.4727
   -29.4626 -29.4578 -29.3630 -29.3623 -29.2659 -29.2360 -29.2321 -29.2085
   -29.1479 -29.1351 -29.1192 -29.1041 -29.0224 -29.0038 -28.9956 -28.9395
    -9.9942  -5.0478  -4.1164  -3.7498  -2.4453  -1.8906  -1.5700  -1.5622
    -1.3766  -1.3084  -1.2936  -1.1348  -0.8943  -0.8877  -0.6170  -0.2768
    -0.2264  -0.1649   0.1569   0.4985   0.5950   1.0224   1.4763   1.6619
     1.8034   1.8895   1.8994   1.9108   2.0252   2.2019   2.2445   2.4321
     2.5739   2.6318   2.6981   2.7477   2.7529

          k = 0.0000 0.0301 0.0000 ( 22708 PWs)   bands (ev):

   -61.2459 -61.2239 -61.2172 -61.1529 -61.1260 -61.1161 -61.1145 -60.7675
   -60.7407 -60.7381 -60.7260 -60.5260 -29.9293 -29.9090 -29.8998 -29.8926
   -29.8763 -29.8701 -29.8610 -29.8381 -29.8325 -29.7786 -29.7201 -29.6937
   -29.6903 -29.6169 -29.5171 -29.5115 -29.5043 -29.4956 -29.4840 -29.4787
   -29.4472 -29.4399 -29.4023 -29.3711 -29.2628 -29.2402 -29.2326 -29.2058
   -29.1603 -29.1477 -29.1270 -29.1102 -29.0414 -29.0268 -29.0060 -28.9374
    -9.9925  -4.8496  -4.1272  -3.5486  -2.2352  -1.9621  -1.6836  -1.4774
    -1.4007  -1.2554  -1.1756  -0.9881  -0.7383  -0.6700  -0.4825  -0.1692
    -0.1142  -0.0618   0.2009   0.5432   0.6387   0.9729   1.4612   1.5575
     1.6269   1.7496   1.8080   1.8960   2.0574   2.0772   2.2309   2.3387
     2.3870   2.4248   2.4538   2.5393   2.6525

          k = 0.0000 0.0602 0.0000 ( 22648 PWs)   bands (ev):

   -61.2424 -61.2260 -61.2185 -61.1477 -61.1286 -61.1187 -61.1145 -60.7617
   -60.7453 -60.7384 -60.7269 -60.5261 -29.8927 -29.8902 -29.8510 -29.8456
   -29.8305 -29.8267 -29.8229 -29.8144 -29.7715 -29.7636 -29.7182 -29.6975
   -29.6909 -29.6544 -29.5811 -29.5686 -29.5627 -29.5053 -29.4864 -29.4589
   -29.4575 -29.4097 -29.3946 -29.3771 -29.2613 -29.2538 -29.2358 -29.2024
   -29.1965 -29.1877 -29.1446 -29.1307 -29.0991 -29.0471 -29.0254 -28.9345
    -9.9892  -4.3026  -4.1274  -3.0088  -2.5706  -1.8112  -1.6471  -1.4311
    -1.2816  -1.0959  -0.8323  -0.7064  -0.5379  -0.1510  -0.0281   0.1186
     0.1997   0.2350   0.3252   0.6368   0.7606   0.9158   1.1609   1.3017
     1.3732   1.3882   1.5004   1.5720   1.6925   1.7998   1.8808   1.9698
     2.0132   2.1075   2.1983   2.2373   2.2698

          k = 0.0000-0.0903 0.0000 ( 22668 PWs)   bands (ev):

   -61.2401 -61.2278 -61.2189 -61.1437 -61.1317 -61.1197 -61.1145 -60.7559
   -60.7507 -60.7384 -60.7273 -60.5262 -29.8778 -29.8745 -29.8520 -29.8274
   -29.8102 -29.7990 -29.7812 -29.7543 -29.7481 -29.7174 -29.7053 -29.7022
   -29.6761 -29.6597 -29.6424 -29.6350 -29.6024 -29.5965 -29.4877 -29.4323
   -29.4301 -29.4238 -29.3816 -29.3068 -29.2604 -29.2540 -29.2444 -29.2325
   -29.2202 -29.2093 -29.1990 -29.1513 -29.0854 -29.0560 -29.0398 -28.9334
    -9.9876  -4.1627  -3.4832  -3.4252  -2.3630  -2.2312  -1.4624  -1.1699
    -1.0527  -0.9498  -0.8448  -0.5800  -0.4151   0.0854   0.3904   0.4069
     0.4883   0.5006   0.6203   0.6679   0.8142   0.9401   0.9775   1.0019
     1.1041   1.1460   1.2026   1.3790   1.4278   1.4418   1.5067   1.6335
     1.7435   1.8493   1.9542   2.1016   2.3690

          k = 0.0261-0.0151 0.0000 ( 22708 PWs)   bands (ev):

   -61.2456 -61.2248 -61.2166 -61.1529 -61.1260 -61.1160 -61.1147 -60.7675
   -60.7411 -60.7377 -60.7261 -60.5260 -29.9286 -29.9089 -29.9024 -29.8899
   -29.8757 -29.8739 -29.8596 -29.8392 -29.8315 -29.7786 -29.7202 -29.6934
   -29.6905 -29.6161 -29.5170 -29.5113 -29.5073 -29.4957 -29.4837 -29.4766
   -29.4486 -29.4387 -29.4020 -29.3714 -29.2626 -29.2374 -29.2345 -29.2058
   -29.1560 -29.1511 -29.1285 -29.1051 -29.0442 -29.0242 -29.0106 -28.9374
    -9.9928  -4.8487  -4.1196  -3.5541  -2.2376  -1.9564  -1.6932  -1.4745
    -1.3985  -1.2644  -1.1708  -0.9905  -0.7506  -0.6618  -0.4765  -0.1734
    -0.1108  -0.0616   0.2036   0.5440   0.6344   0.9498   1.4616   1.5578
     1.6338   1.7569   1.8044   1.8997   2.0435   2.0755   2.2684   2.3403
     2.3924   2.4099   2.4648   2.5383   2.6479

          k = 0.0261 0.0151 0.0000 ( 22708 PWs)   bands (ev):

   -61.2460 -61.2232 -61.2177 -61.1529 -61.1260 -61.1160 -61.1146 -60.7675
   -60.7399 -60.7389 -60.7259 -60.5260 -29.9284 -29.9087 -29.8999 -29.8940
   -29.8758 -29.8677 -29.8625 -29.8372 -29.8334 -29.7786 -29.7201 -29.6938
   -29.6901 -29.6177 -29.5170 -29.5118 -29.5028 -29.4953 -29.4843 -29.4794
   -29.4448 -29.4421 -29.4025 -29.3709 -29.2631 -29.2422 -29.2317 -29.2058
   -29.1629 -29.1459 -29.1233 -29.1172 -29.0396 -29.0278 -29.0023 -28.9374
    -9.9924  -4.8506  -4.1327  -3.5434  -2.2330  -1.9673  -1.6748  -1.4796
    -1.4032  -1.2471  -1.1793  -0.9863  -0.7226  -0.6825  -0.4906  -0.1631
    -0.1196  -0.0618   0.1971   0.5420   0.6420   0.9968   1.4602   1.5538
     1.6243   1.7483   1.8065   1.8909   2.0626   2.0986   2.1871   2.3370
     2.3833   2.4363   2.4449   2.5412   2.6476

          k = 0.0261 0.0452 0.0000 ( 22675 PWs)   bands (ev):

   -61.2438 -61.2234 -61.2197 -61.1492 -61.1273 -61.1190 -61.1140 -60.7635
   -60.7421 -60.7401 -60.7265 -60.5261 -29.8968 -29.8932 -29.8672 -29.8580
   -29.8439 -29.8337 -29.8261 -29.8180 -29.8121 -29.7685 -29.7172 -29.6990
   -29.6887 -29.6474 -29.5799 -29.5459 -29.4977 -29.4948 -29.4926 -29.4740
   -29.4641 -29.4129 -29.4057 -29.3892 -29.2609 -29.2557 -29.2324 -29.2047
   -29.2024 -29.1512 -29.1362 -29.1211 -29.1014 -29.0382 -29.0176 -28.9351
    -9.9897  -4.4785  -4.1397  -3.1674  -2.1361  -1.9929  -1.8343  -1.5610
    -1.3026  -1.0714  -0.9040  -0.7234  -0.5195  -0.3551  -0.1951   0.0299
     0.0850   0.1441   0.2873   0.6190   0.7172   0.9695   1.3238   1.3861
     1.4343   1.5015   1.5346   1.6729   1.7788   1.8984   1.9885   2.1050
     2.1229   2.1474   2.2045   2.3307   2.3949

          k = 0.0261-0.1054 0.0000 ( 22643 PWs)   bands (ev):

   -61.2404 -61.2270 -61.2194 -61.1441 -61.1298 -61.1223 -61.1134 -60.7571
   -60.7478 -60.7406 -60.7268 -60.5262 -29.8784 -29.8593 -29.8484 -29.8289
   -29.8135 -29.8002 -29.7737 -29.7547 -29.7531 -29.7278 -29.7105 -29.7077
   -29.6989 -29.6776 -29.6543 -29.6214 -29.5835 -29.5262 -29.5024 -29.4624
   -29.4281 -29.4216 -29.3696 -29.3349 -29.2852 -29.2569 -29.2461 -29.2336
   -29.2047 -29.1994 -29.1609 -29.1486 -29.1008 -29.0613 -29.0409 -28.9332
    -9.9874  -4.1734  -3.7471  -2.8824  -2.5279  -2.0989  -1.8426  -1.3679
    -1.1145  -0.8661  -0.5632  -0.4771  -0.2798   0.0250   0.2412   0.3066
     0.4207   0.4556   0.5106   0.7321   0.8068   0.9014   0.9886   1.0693
     1.1541   1.1952   1.2719   1.3049   1.4199   1.4969   1.5740   1.6886
     1.7203   1.7945   1.9115   1.9963   2.2342

          k = 0.0261-0.0753 0.0000 ( 22643 PWs)   bands (ev):

   -61.2395 -61.2291 -61.2182 -61.1441 -61.1298 -61.1223 -61.1134 -60.7568
   -60.7485 -60.7400 -60.7269 -60.5262 -29.8773 -29.8614 -29.8518 -29.8275
   -29.8118 -29.8000 -29.7736 -29.7563 -29.7525 -29.7244 -29.7145 -29.7080
   -29.6991 -29.6776 -29.6539 -29.6215 -29.5831 -29.5264 -29.5012 -29.4622
   -29.4284 -29.4217 -29.3697 -29.3339 -29.2871 -29.2518 -29.2485 -29.2325
   -29.2025 -29.1991 -29.1619 -29.1405 -29.1014 -29.0645 -29.0476 -28.9332
    -9.9879  -4.1533  -3.7592  -2.8799  -2.5420  -2.1011  -1.8392  -1.3495
    -1.1539  -0.8836  -0.5163  -0.4590  -0.2662  -0.0133   0.2431   0.3057
     0.4170   0.4557   0.4705   0.7132   0.8237   0.8957   0.9463   1.0828
     1.1513   1.1950   1.2402   1.3416   1.4279   1.5191   1.6315   1.6926
     1.7552   1.7989   1.9394   1.9955   2.1713

          k = 0.0261-0.0452 0.0000 ( 22675 PWs)   bands (ev):

   -61.2428 -61.2271 -61.2170 -61.1492 -61.1274 -61.1189 -61.1141 -60.7634
   -60.7438 -60.7384 -60.7267 -60.5261 -29.8988 -29.8943 -29.8629 -29.8578
   -29.8485 -29.8336 -29.8278 -29.8174 -29.8128 -29.7685 -29.7175 -29.6983
   -29.6892 -29.6439 -29.5794 -29.5518 -29.4975 -29.4947 -29.4890 -29.4736
   -29.4640 -29.4171 -29.4021 -29.3897 -29.2604 -29.2458 -29.2366 -29.2037
   -29.2023 -29.1511 -29.1286 -29.1155 -29.0973 -29.0503 -29.0265 -28.9351
    -9.9905  -4.4665  -4.1276  -3.1859  -2.1313  -1.9947  -1.8435  -1.5770
    -1.2936  -1.0983  -0.8886  -0.7231  -0.4788  -0.4103  -0.1699   0.0175
     0.0980   0.1453   0.2832   0.6220   0.7098   0.8884   1.3238   1.3877
     1.3988   1.5025   1.5589   1.6521   1.8306   1.9492   2.0201   2.1177
     2.1240   2.1859   2.2483   2.3201   2.3673

          k = 0.0521-0.0301 0.0000 ( 22648 PWs)   bands (ev):

   -61.2412 -61.2290 -61.2166 -61.1476 -61.1288 -61.1185 -61.1147 -60.7616
   -60.7459 -60.7377 -60.7271 -60.5261 -29.8923 -29.8871 -29.8550 -29.8495
   -29.8307 -29.8280 -29.8237 -29.8126 -29.7706 -29.7638 -29.7184 -29.6968
   -29.6912 -29.6509 -29.5858 -29.5685 -29.5625 -29.5049 -29.4835 -29.4591
   -29.4571 -29.4121 -29.3949 -29.3754 -29.2597 -29.2463 -29.2399 -29.2021
   -29.1965 -29.1869 -29.1383 -29.1303 -29.0922 -29.0576 -29.0323 -28.9346
    -9.9900  -4.2866  -4.1230  -3.0191  -2.5702  -1.8119  -1.6588  -1.4491
    -1.2820  -1.1034  -0.8275  -0.7169  -0.5608  -0.0868  -0.0228   0.0930
     0.2066   0.2350   0.3439   0.6425   0.7155   0.9160   1.1639   1.2990
     1.3563   1.3891   1.5160   1.5732   1.7340   1.7763   1.9053   1.9944
     2.0337   2.1036   2.1511   2.2329   2.2498

          k = 0.0521 0.0000 0.0000 ( 22675 PWs)   bands (ev):

   -61.2432 -61.2260 -61.2177 -61.1492 -61.1274 -61.1188 -61.1141 -60.7635
   -60.7431 -60.7391 -60.7266 -60.5261 -29.8959 -29.8948 -29.8649 -29.8579
   -29.8471 -29.8320 -29.8287 -29.8174 -29.8128 -29.7685 -29.7174 -29.6986
   -29.6890 -29.6457 -29.5796 -29.5493 -29.4975 -29.4947 -29.4901 -29.4738
   -29.4640 -29.4152 -29.4036 -29.3895 -29.2603 -29.2517 -29.2338 -29.2042
   -29.2023 -29.1508 -29.1327 -29.1193 -29.0995 -29.0430 -29.0223 -28.9351
    -9.9902  -4.4725  -4.1320  -3.1764  -2.1337  -1.9940  -1.8388  -1.5690
    -1.2989  -1.0845  -0.8960  -0.7226  -0.5073  -0.3775  -0.1842   0.0247
     0.0908   0.1447   0.2839   0.6206   0.7132   0.9267   1.3236   1.3859
     1.4164   1.5031   1.5491   1.6624   1.8200   1.9228   1.9975   2.1125
     2.1231   2.1667   2.2065   2.3321   2.3866

          k = 0.0521 0.0301 0.0000 ( 22648 PWs)   bands (ev):

   -61.2430 -61.2233 -61.2206 -61.1476 -61.1287 -61.1186 -61.1146 -60.7618
   -60.7443 -60.7394 -60.7267 -60.5261 -29.8932 -29.8889 -29.8480 -29.8445
   -29.8301 -29.8289 -29.8210 -29.8153 -29.7722 -29.7634 -29.7181 -29.6978
   -29.6908 -29.6575 -29.5782 -29.5686 -29.5631 -29.5055 -29.4870 -29.4586
   -29.4581 -29.4070 -29.3943 -29.3790 -29.2648 -29.2576 -29.2338 -29.2030
   -29.1965 -29.1883 -29.1498 -29.1320 -29.1028 -29.0413 -29.0177 -28.9345
    -9.9887  -4.3179  -4.1265  -2.9991  -2.5707  -1.8113  -1.6345  -1.4148
    -1.2811  -1.0879  -0.8366  -0.6982  -0.5080  -0.2174  -0.0404   0.1463
     0.1835   0.2346   0.3107   0.6304   0.7950   0.9241   1.1552   1.3005
     1.3859   1.4012   1.4767   1.5692   1.6758   1.8153   1.8524   1.9535
     2.0107   2.1053   2.2142   2.2425   2.2864

          k = 0.0521-0.1204 0.0000 ( 22643 PWs)   bands (ev):

   -61.2409 -61.2251 -61.2208 -61.1441 -61.1299 -61.1222 -61.1134 -60.7573
   -60.7470 -60.7413 -60.7266 -60.5262 -29.8793 -29.8579 -29.8461 -29.8302
   -29.8123 -29.7996 -29.7739 -29.7539 -29.7520 -29.7253 -29.7167 -29.7081
   -29.6994 -29.6781 -29.6544 -29.6187 -29.5835 -29.5265 -29.5031 -29.4622
   -29.4286 -29.4215 -29.3670 -29.3363 -29.2868 -29.2601 -29.2480 -29.2317
   -29.2046 -29.1995 -29.1641 -29.1490 -29.1040 -29.0592 -29.0334 -28.9332
    -9.9871  -4.1859  -3.7444  -2.8805  -2.5236  -2.0965  -1.8347  -1.3551
    -1.1144  -0.8650  -0.5392  -0.4535  -0.2790  -0.0744   0.2407   0.3225
     0.4189   0.4550   0.4907   0.7404   0.8382   0.9106   0.9586   1.0860
     1.1491   1.1881   1.2728   1.3268   1.4033   1.4833   1.5725   1.6963
     1.7209   1.7898   1.9321   2.0033   2.2695

          k = 0.0521-0.0903 0.0000 ( 22614 PWs)   bands (ev):

   -61.2380 -61.2301 -61.2187 -61.1420 -61.1276 -61.1274 -61.1126 -60.7525
   -60.7505 -60.7428 -60.7264 -60.5262 -29.8662 -29.8592 -29.8273 -29.8020
   -29.7961 -29.7860 -29.7468 -29.7451 -29.7359 -29.7306 -29.7240 -29.6797
   -29.6779 -29.6765 -29.6759 -29.6669 -29.6643 -29.5174 -29.4765 -29.4737
   -29.4688 -29.3901 -29.3531 -29.3085 -29.2950 -29.2889 -29.2496 -29.2383
   -29.2358 -29.1988 -29.1557 -29.1199 -29.1017 -29.0958 -29.0556 -28.9324
    -9.9869  -4.1610  -3.0453  -2.9437  -2.9361  -2.0396  -1.7950  -1.7541
    -0.9908  -0.5062  -0.3409  -0.2717  -0.0814   0.0931   0.1263   0.2836
     0.5622   0.5969   0.6868   0.7068   0.7668   0.9016   0.9075   0.9128
     0.9161   1.1082   1.1399   1.3381   1.3635   1.3792   1.4642   1.5297
     1.5585   1.6677   1.7557   1.8385   1.9879

          k = 0.0521-0.0602 0.0000 ( 22643 PWs)   bands (ev):

   -61.2378 -61.2318 -61.2171 -61.1441 -61.1299 -61.1221 -61.1134 -60.7566
   -60.7491 -60.7396 -60.7270 -60.5262 -29.8760 -29.8601 -29.8528 -29.8283
   -29.8146 -29.8033 -29.7733 -29.7569 -29.7521 -29.7259 -29.7092 -29.7077
   -29.6986 -29.6773 -29.6538 -29.6249 -29.5830 -29.5261 -29.4991 -29.4625
   -29.4280 -29.4218 -29.3721 -29.3325 -29.2858 -29.2502 -29.2437 -29.2358
   -29.2026 -29.1989 -29.1590 -29.1388 -29.0950 -29.0692 -29.0564 -28.9332
    -9.9884  -4.1359  -3.7630  -2.8815  -2.5469  -2.1042  -1.8468  -1.3626
    -1.1565  -0.8830  -0.5372  -0.4856  -0.2696   0.1167   0.2212   0.2820
     0.4200   0.4529   0.4932   0.6849   0.8016   0.8952   0.9670   1.0735
     1.1539   1.2073   1.2265   1.3315   1.4308   1.5303   1.6578   1.6791
     1.7730   1.8106   1.8848   1.9876   2.1394

          k =-0.0782 0.0452 0.0000 ( 22668 PWs)   bands (ev):

   -61.2359 -61.2343 -61.2167 -61.1436 -61.1318 -61.1195 -61.1147 -60.7549
   -60.7521 -60.7377 -60.7276 -60.5262 -29.8770 -29.8685 -29.8586 -29.8270
   -29.8124 -29.7993 -29.7936 -29.7537 -29.7443 -29.7077 -29.7038 -29.7017
   -29.6731 -29.6709 -29.6422 -29.6350 -29.6021 -29.5962 -29.4847 -29.4314
   -29.4302 -29.4243 -29.3847 -29.3035 -29.2582 -29.2524 -29.2429 -29.2320
   -29.2175 -29.2087 -29.1992 -29.1415 -29.0788 -29.0628 -29.0564 -28.9335
    -9.9887  -4.1294  -3.4854  -3.4329  -2.3650  -2.2519  -1.4799  -1.1718
    -1.0515  -0.9887  -0.8652  -0.5796  -0.4146   0.1951   0.3691   0.4058
     0.4947   0.4958   0.6159   0.7031   0.8182   0.8943   0.9855   0.9920
     1.1082   1.1743   1.2323   1.3748   1.4442   1.4545   1.5033   1.5594
     1.7347   1.8404   1.9559   2.0146   2.3583

          k =-0.0782 0.0753 0.0000 ( 22643 PWs)   bands (ev):

   -61.2384 -61.2310 -61.2174 -61.1441 -61.1300 -61.1221 -61.1134 -60.7568
   -60.7488 -60.7398 -60.7269 -60.5262 -29.8764 -29.8593 -29.8510 -29.8285
   -29.8151 -29.8026 -29.7734 -29.7579 -29.7528 -29.7280 -29.7088 -29.7058
   -29.6980 -29.6772 -29.6539 -29.6247 -29.5832 -29.5260 -29.4995 -29.4626
   -29.4279 -29.4217 -29.3720 -29.3331 -29.2847 -29.2528 -29.2413 -29.2375
   -29.2038 -29.1990 -29.1580 -29.1441 -29.0958 -29.0655 -29.0534 -28.9332
    -9.9882  -4.1459  -3.7560  -2.8829  -2.5395  -2.1030  -1.8487  -1.3722
    -1.1371  -0.8743  -0.5645  -0.4874  -0.2758   0.1261   0.2207   0.2852
     0.4223   0.4524   0.5162   0.6927   0.7955   0.8960   0.9895   1.0638
     1.1559   1.2058   1.2393   1.3198   1.4306   1.5317   1.6158   1.6784
     1.7390   1.7929   1.8812   2.0032   2.1782

          k =-0.0782 0.1054 0.0000 ( 22643 PWs)   bands (ev):

   -61.2404 -61.2268 -61.2196 -61.1441 -61.1299 -61.1222 -61.1134 -60.7572
   -60.7474 -60.7410 -60.7267 -60.5262 -29.8786 -29.8592 -29.8482 -29.8289
   -29.8109 -29.7979 -29.7742 -29.7559 -29.7535 -29.7252 -29.7169 -29.7079
   -29.6993 -29.6780 -29.6542 -29.6187 -29.5833 -29.5266 -29.5022 -29.4620
   -29.4287 -29.4216 -29.3670 -29.3359 -29.2876 -29.2584 -29.2483 -29.2314
   -29.2037 -29.1994 -29.1643 -29.1460 -29.1045 -29.0603 -29.0365 -28.9332
    -9.9874  -4.1756  -3.7496  -2.8795  -2.5303  -2.0976  -1.8331  -1.3461
    -1.1344  -0.8740  -0.5194  -0.4343  -0.2715  -0.1047   0.2410   0.3239
     0.4174   0.4526   0.4746   0.7327   0.8494   0.9041   0.9383   1.0887
     1.1489   1.1879   1.2559   1.3476   1.4158   1.4993   1.5897   1.6980
     1.7317   1.7880   1.9332   2.0185   2.2533

          k =-0.0782-0.0452 0.0000 ( 22668 PWs)   bands (ev):

   -61.2412 -61.2233 -61.2223 -61.1436 -61.1318 -61.1196 -61.1146 -60.7566
   -60.7493 -60.7394 -60.7270 -60.5262 -29.8797 -29.8728 -29.8476 -29.8294
   -29.8090 -29.7986 -29.7689 -29.7571 -29.7512 -29.7211 -29.7137 -29.7016
   -29.6784 -29.6519 -29.6424 -29.6349 -29.6024 -29.5969 -29.4883 -29.4334
   -29.4299 -29.4235 -29.3785 -29.3104 -29.2642 -29.2556 -29.2447 -29.2331
   -29.2225 -29.2101 -29.1988 -29.1586 -29.0883 -29.0523 -29.0264 -28.9334
    -9.9869  -4.1873  -3.4813  -3.4180  -2.3618  -2.2107  -1.4478  -1.1672
    -1.0543  -0.9053  -0.8239  -0.5824  -0.4149  -0.0273   0.3879   0.4185
     0.4819   0.5052   0.6243   0.6451   0.8055   0.9701   0.9762   1.0169
     1.0822   1.1321   1.1838   1.3775   1.4212   1.4350   1.5116   1.6718
     1.7503   1.8580   1.9516   2.2137   2.3881

     the Fermi energy is     1.4819 ev

!    total energy              =   -1940.57029994 Ry
     Harris-Foulkes estimate   =   -1940.57030414 Ry
     estimated scf accuracy    <       0.00000358 Ry

     The total energy is the sum of the following terms:

     one-electron contribution =   -8462.43811131 Ry
     hartree contribution      =    4216.61402888 Ry
     xc contribution           =    -932.91089585 Ry
     ewald contribution        =    3238.27879340 Ry
     electric field correction =       0.00000097 Ry
     smearing contrib. (-TS)   =      -0.11411602 Ry

     convergence has been achieved in  37 iterations
 
 BEEF-vdW xc energy contributions
           1 :   -843.350174902426     
           2 :    783.630817190392     
           3 :   -677.917049508503     
           4 :    548.149705301793     
           5 :   -416.912094803956     
           6 :    301.144420236315     
           7 :   -209.428882532176     
           8 :    142.916257992045     
           9 :   -98.3629169448982     
          10 :    71.1030147330187     
          11 :   -56.6188664022109     
          12 :    50.6434792911912     
          13 :   -48.7534590354687     
          14 :    46.4339508509438     
          15 :   -39.9715524243031     
          16 :    27.6826528261956     
          17 :   -10.6354735729665     
          18 :   -7.75163254736458     
          19 :    23.1564352412220     
          20 :   -32.1585860433906     
          21 :    33.5091714066644     
          22 :   -28.3319370834129     
          23 :    19.3298108676441     
          24 :   -9.58275950954419     
          25 :    1.58531214596212     
          26 :    3.13477675409433     
          27 :   -3.93255416870375     
          28 :   0.845635902435220     
          29 :    5.45039335089450     
          30 :   -13.5622199475317     
          31 :   -60.7975220880974     
          32 :   -43.6965916857972     

     Forces acting on atoms (Ry/au):


     negative rho (up, down):  1.379E+00 0.000E+00
     atom    1 type  1   force =     0.00055133   -0.00023721    0.02591608
     atom    2 type  1   force =    -0.00036460    0.00073414    0.02553488
     atom    3 type  1   force =     0.00093151   -0.00051348    0.02569497
     atom    4 type  1   force =    -0.00079582    0.00000968    0.02742521
     atom    5 type  1   force =     0.00029666    0.01273148   -0.01233769
     atom    6 type  1   force =    -0.00039627    0.00000761   -0.00023129
     atom    7 type  1   force =    -0.01166403   -0.00691170   -0.01387118
     atom    8 type  1   force =     0.01038731   -0.00583150   -0.01092087
     atom    9 type  1   force =     0.00651812    0.00001682    0.01071191
     atom   10 type  1   force =    -0.00273421   -0.00076574   -0.02081892
     atom   11 type  1   force =    -0.00121119   -0.00092702   -0.03202711
     atom   12 type  1   force =     0.00022074    0.00165580   -0.01111397
     atom   13 type  2   force =    -0.00094122    0.00004893   -0.02688913
     atom   14 type  3   force =     0.00191145    0.00214948    0.00646970
     atom   15 type  3   force =    -0.00270978   -0.00216729    0.00645742

     Total force =     0.050802     Total SCF correction =     0.001351


     entering subroutine stress ...


     negative rho (up, down):  1.379E+00 0.000E+00
          total   stress  (Ry/bohr**3)                   (kbar)     P=  -22.90
  -0.00014972  -0.00000076  -0.00000075        -22.02     -0.11     -0.11
  -0.00000076  -0.00014968   0.00000002         -0.11    -22.02      0.00
  -0.00000075   0.00000002  -0.00016764         -0.11      0.00    -24.66


     BFGS Geometry Optimization

     number of scf cycles    =   1
     number of bfgs steps    =   0

     energy   new            =   -1940.5702999435 Ry

     new trust radius        =       0.0320634042 bohr
     new conv_thr            =       0.0000099958 Ry


ATOMIC_POSITIONS (crystal)
Hf1      0.166666667   0.166666667   0.396510335    0   0   0
Hf1      0.666666667   0.166666667   0.396510335    0   0   0
Hf1      0.166666667   0.666666667   0.396510335    0   0   0
Hf1      0.666666667   0.666666667   0.396510335    0   0   0
Hf1      0.833333333   0.333333333   0.500000000    0   0   0
Hf1      0.333333333   0.333333333   0.500000000    0   0   0
Hf1      0.833333333   0.833333333   0.500000000    0   0   0
Hf1      0.333333333   0.833333333   0.500000000    0   0   0
Hf1      0.000538713   0.000001607   0.603714427
Hf1      0.499810278  -0.000073187   0.603052834
Hf1     -0.000055952   0.499911399   0.602817659
Hf1      0.499939143   0.500158256   0.603256467
C1      -0.000080245   0.000004677   0.687520946
H1       0.041704348   0.113992224   0.713201046
H1       0.958230424   0.886006074   0.713200789



     Writing output data file calc.save
     Check: negative starting charge=   -1.301315
     NEW-OLD atomic charge density approx. for the potential

     Check: negative/imaginary core charge=   -0.000003    0.000000
     Check: negative starting charge=   -1.300735

     negative rho (up, down):  1.378E+00 0.000E+00
 
     Adding external electric field

     Computed dipole along edir(3) : 
        Dipole               -0.0850 Ry au,         -0.2159 Debye
        Dipole field         -0.0002 Ry au
 
        Potential amp.        0.0165 Ry
        Total length         46.4675 bohr
 

     total cpu time spent up to now is      988.9 secs

     Self-consistent Calculation

     iteration #  1     ecut=    36.75 Ry     beta=0.30
     Davidson diagonalization with overlap
     c_bands:  1 eigenvalues not converged
     ethr =  1.00E-06,  avg # of iterations = 10.6

     negative rho (up, down):  1.378E+00 0.000E+00
 
     Adding external electric field

     Computed dipole along edir(3) : 
        Dipole                2.3218 Ry au,          5.9015 Debye
        Dipole field          0.0048 Ry au
 
        Potential amp.       -0.4501 Ry
        Total length         46.4675 bohr
 

     total cpu time spent up to now is     1021.5 secs

     total energy              =   -1940.34496343 Ry
     Harris-Foulkes estimate   =   -1940.56697831 Ry
     estimated scf accuracy    <       0.46302799 Ry

     iteration #  2     ecut=    36.75 Ry     beta=0.30
     Davidson diagonalization with overlap
     ethr =  3.09E-04,  avg # of iterations = 10.6

     negative rho (up, down):  1.378E+00 0.000E+00
 
     Adding external electric field

     Computed dipole along edir(3) : 
        Dipole                0.0886 Ry au,          0.2252 Debye
        Dipole field          0.0002 Ry au
 
        Potential amp.       -0.0172 Ry
        Total length         46.4675 bohr
 

     total cpu time spent up to now is     1052.9 secs

     total energy              =   -1938.49738012 Ry
     Harris-Foulkes estimate   =   -1943.44138663 Ry
     estimated scf accuracy    <     168.81092793 Ry

     iteration #  3     ecut=    36.75 Ry     beta=0.30
     Davidson diagonalization with overlap
     ethr =  3.09E-04,  avg # of iterations =  7.2

     negative rho (up, down):  1.378E+00 0.000E+00
 
     Adding external electric field

     Computed dipole along edir(3) : 
        Dipole                0.0279 Ry au,          0.0709 Debye
        Dipole field          0.0001 Ry au
 
        Potential amp.       -0.0054 Ry
        Total length         46.4675 bohr
 

     total cpu time spent up to now is     1081.1 secs

     total energy              =   -1940.57098594 Ry
     Harris-Foulkes estimate   =   -1940.57310378 Ry
     estimated scf accuracy    <       0.06239271 Ry

     iteration #  4     ecut=    36.75 Ry     beta=0.30
     Davidson diagonalization with overlap
     ethr =  4.16E-05,  avg # of iterations =  2.1

     negative rho (up, down):  1.378E+00 0.000E+00
 
     Adding external electric field

     Computed dipole along edir(3) : 
        Dipole                0.0351 Ry au,          0.0892 Debye
        Dipole field          0.0001 Ry au
 
        Potential amp.       -0.0068 Ry
        Total length         46.4675 bohr
 

     total cpu time spent up to now is     1098.4 secs

     total energy              =   -1940.57168975 Ry
     Harris-Foulkes estimate   =   -1940.57238210 Ry
     estimated scf accuracy    <       0.00447258 Ry

     iteration #  5     ecut=    36.75 Ry     beta=0.30
     Davidson diagonalization with overlap
     ethr =  2.98E-06,  avg # of iterations =  4.2

     negative rho (up, down):  1.378E+00 0.000E+00
 
     Adding external electric field

     Computed dipole along edir(3) : 
        Dipole                0.0268 Ry au,          0.0681 Debye
        Dipole field          0.0001 Ry au
 
        Potential amp.       -0.0052 Ry
        Total length         46.4675 bohr
 

     total cpu time spent up to now is     1119.0 secs

     total energy              =   -1940.57214808 Ry
     Harris-Foulkes estimate   =   -1940.57244604 Ry
     estimated scf accuracy    <       0.01081617 Ry

     iteration #  6     ecut=    36.75 Ry     beta=0.30
     Davidson diagonalization with overlap
     ethr =  2.98E-06,  avg # of iterations =  1.0

     negative rho (up, down):  1.378E+00 0.000E+00
 
     Adding external electric field

     Computed dipole along edir(3) : 
        Dipole                0.0293 Ry au,          0.0744 Debye
        Dipole field          0.0001 Ry au
 
        Potential amp.       -0.0057 Ry
        Total length         46.4675 bohr
 

     total cpu time spent up to now is     1135.5 secs

     total energy              =   -1940.57222589 Ry
     Harris-Foulkes estimate   =   -1940.57226388 Ry
     estimated scf accuracy    <       0.00070918 Ry

     iteration #  7     ecut=    36.75 Ry     beta=0.30
     Davidson diagonalization with overlap
     ethr =  4.73E-07,  avg # of iterations =  4.4

     negative rho (up, down):  1.378E+00 0.000E+00
 
     Adding external electric field

     Computed dipole along edir(3) : 
        Dipole                0.0315 Ry au,          0.0800 Debye
        Dipole field          0.0001 Ry au
 
        Potential amp.       -0.0061 Ry
        Total length         46.4675 bohr
 

     total cpu time spent up to now is     1155.4 secs

     total energy              =   -1940.57226326 Ry
     Harris-Foulkes estimate   =   -1940.57226950 Ry
     estimated scf accuracy    <       0.00008450 Ry

     iteration #  8     ecut=    36.75 Ry     beta=0.30
     Davidson diagonalization with overlap
     ethr =  5.63E-08,  avg # of iterations =  4.0

     negative rho (up, down):  1.378E+00 0.000E+00
 
     Adding external electric field

     Computed dipole along edir(3) : 
        Dipole                0.0302 Ry au,          0.0768 Debye
        Dipole field          0.0001 Ry au
 
        Potential amp.       -0.0059 Ry
        Total length         46.4675 bohr
 

     total cpu time spent up to now is     1175.6 secs

     total energy              =   -1940.57226913 Ry
     Harris-Foulkes estimate   =   -1940.57227285 Ry
     estimated scf accuracy    <       0.00002580 Ry

     iteration #  9     ecut=    36.75 Ry     beta=0.30
     Davidson diagonalization with overlap
     ethr =  1.72E-08,  avg # of iterations =  3.4

     negative rho (up, down):  1.378E+00 0.000E+00

     negative rho (up, down):  1.378E+00 0.000E+00

     negative rho (up, down):  1.378E+00 0.000E+00

     negative rho (up, down):  1.378E+00 0.000E+00

     negative rho (up, down):  1.378E+00 0.000E+00

     negative rho (up, down):  1.378E+00 0.000E+00

     negative rho (up, down):  1.378E+00 0.000E+00

     negative rho (up, down):  1.378E+00 0.000E+00

     negative rho (up, down):  1.378E+00 0.000E+00

     negative rho (up, down):  1.378E+00 0.000E+00

     negative rho (up, down):  1.378E+00 0.000E+00

     negative rho (up, down):  1.378E+00 0.000E+00

     negative rho (up, down):  1.378E+00 0.000E+00

     negative rho (up, down):  1.378E+00 0.000E+00

     negative rho (up, down):  1.378E+00 0.000E+00

     negative rho (up, down):  1.378E+00 0.000E+00

     negative rho (up, down):  1.378E+00 0.000E+00

     negative rho (up, down):  1.378E+00 0.000E+00

     negative rho (up, down):  1.378E+00 0.000E+00

     negative rho (up, down):  1.378E+00 0.000E+00

     negative rho (up, down):  1.378E+00 0.000E+00

     negative rho (up, down):  1.378E+00 0.000E+00

     negative rho (up, down):  1.378E+00 0.000E+00

     negative rho (up, down):  1.378E+00 0.000E+00

     negative rho (up, down):  1.378E+00 0.000E+00

     negative rho (up, down):  1.378E+00 0.000E+00

     negative rho (up, down):  1.378E+00 0.000E+00

     negative rho (up, down):  1.378E+00 0.000E+00

     negative rho (up, down):  1.378E+00 0.000E+00

     negative rho (up, down):  1.378E+00 0.000E+00

     negative rho (up, down):  1.378E+00 0.000E+00

     negative rho (up, down):  1.378E+00 0.000E+00

     negative rho (up, down):  1.378E+00 0.000E+00

     negative rho (up, down):  1.378E+00 0.000E+00

     negative rho (up, down):  1.378E+00 0.000E+00
 
     Adding external electric field

     Computed dipole along edir(3) : 
        Dipole                0.0306 Ry au,          0.0779 Debye
        Dipole field          0.0001 Ry au
 
        Potential amp.       -0.0059 Ry
        Total length         46.4675 bohr
 

     total cpu time spent up to now is     1215.7 secs

     End of self-consistent calculation

          k = 0.0000 0.0000 0.0000 ( 22729 PWs)   bands (ev):

   -61.2342 -61.2090 -61.2075 -61.1533 -61.1236 -61.1123 -61.1118 -60.7600
   -60.7305 -60.7284 -60.7118 -60.5045 -29.9416 -29.9150 -29.9107 -29.9062
   -29.8912 -29.8866 -29.8800 -29.8295 -29.8287 -29.7813 -29.7200 -29.6873
   -29.6855 -29.5944 -29.5068 -29.4905 -29.4902 -29.4857 -29.4659 -29.4646
   -29.4532 -29.4472 -29.3607 -29.3600 -29.2561 -29.2258 -29.2228 -29.1956
   -29.1370 -29.1251 -29.1105 -29.0914 -29.0072 -28.9939 -28.9840 -28.9276
    -9.9313  -5.0473  -4.0131  -3.7457  -2.4391  -1.9142  -1.5703  -1.5616
    -1.3831  -1.3074  -1.2934  -1.1409  -0.8911  -0.8845  -0.6298  -0.2811
    -0.2251  -0.1634   0.1492   0.5030   0.6001   1.0237   1.4827   1.6685
     1.8112   1.8941   1.9036   1.9141   2.0396   2.2128   2.2607   2.4464
     2.5827   2.6367   2.7010   2.7483   2.7539

          k = 0.0000 0.0301 0.0000 ( 22708 PWs)   bands (ev):

   -61.2326 -61.2098 -61.2083 -61.1513 -61.1242 -61.1135 -61.1121 -60.7578
   -60.7316 -60.7289 -60.7124 -60.5046 -29.9203 -29.9007 -29.8920 -29.8870
   -29.8719 -29.8633 -29.8563 -29.8276 -29.8254 -29.7755 -29.7170 -29.6897
   -29.6859 -29.6067 -29.5142 -29.5089 -29.4941 -29.4887 -29.4806 -29.4698
   -29.4376 -29.4295 -29.3998 -29.3688 -29.2532 -29.2298 -29.2233 -29.1929
   -29.1498 -29.1380 -29.1165 -29.0987 -29.0302 -29.0126 -28.9945 -28.9256
    -9.9296  -4.8490  -4.0253  -3.5438  -2.2295  -1.9777  -1.6929  -1.4777
    -1.4021  -1.2585  -1.1750  -0.9952  -0.7366  -0.6666  -0.4909  -0.1741
    -0.1127  -0.0596   0.1928   0.5471   0.6430   0.9747   1.4687   1.5638
     1.6324   1.7518   1.8113   1.8989   2.0693   2.0829   2.2436   2.3493
     2.3949   2.4289   2.4579   2.5412   2.6572

          k = 0.0000 0.0602 0.0000 ( 22648 PWs)   bands (ev):

   -61.2287 -61.2133 -61.2085 -61.1462 -61.1266 -61.1161 -61.1121 -60.7522
   -60.7359 -60.7292 -60.7133 -60.5047 -29.8832 -29.8810 -29.8450 -29.8379
   -29.8272 -29.8184 -29.8139 -29.8056 -29.7680 -29.7608 -29.7156 -29.6941
   -29.6870 -29.6448 -29.5712 -29.5662 -29.5600 -29.5025 -29.4762 -29.4565
   -29.4500 -29.3993 -29.3923 -29.3671 -29.2513 -29.2430 -29.2264 -29.1904
   -29.1857 -29.1787 -29.1319 -29.1202 -29.0892 -29.0329 -29.0131 -28.9229
    -9.9262  -4.2951  -4.0329  -3.0055  -2.5727  -1.8267  -1.6413  -1.4376
    -1.2823  -1.1035  -0.8317  -0.7065  -0.5414  -0.1506  -0.0298   0.1125
     0.2016   0.2372   0.3201   0.6390   0.7636   0.9171   1.1661   1.3051
     1.3731   1.3936   1.5035   1.5749   1.6972   1.7982   1.8815   1.9744
     2.0180   2.1111   2.2040   2.2434   2.2770

          k = 0.0000-0.0903 0.0000 ( 22668 PWs)   bands (ev):

   -61.2258 -61.2162 -61.2086 -61.1425 -61.1292 -61.1172 -61.1121 -60.7467
   -60.7409 -60.7293 -60.7138 -60.5047 -29.8678 -29.8645 -29.8436 -29.8189
   -29.8063 -29.7959 -29.7717 -29.7514 -29.7427 -29.7071 -29.7006 -29.6990
   -29.6706 -29.6511 -29.6404 -29.6320 -29.5997 -29.5936 -29.4775 -29.4281
   -29.4243 -29.4212 -29.3708 -29.2972 -29.2513 -29.2433 -29.2348 -29.2231
   -29.2080 -29.2001 -29.1861 -29.1388 -29.0750 -29.0448 -29.0250 -28.9218
    -9.9245  -4.0625  -3.4835  -3.4240  -2.3673  -2.2273  -1.4847  -1.1708
    -1.0538  -0.9435  -0.8470  -0.5795  -0.4180   0.0753   0.3894   0.4054
     0.4848   0.5033   0.6222   0.6705   0.8140   0.9389   0.9809   1.0055
     1.1045   1.1513   1.2070   1.3801   1.4293   1.4421   1.5132   1.6414
     1.7457   1.8551   1.9519   2.0994   2.3716

          k = 0.0261-0.0151 0.0000 ( 22708 PWs)   bands (ev):

   -61.2326 -61.2097 -61.2083 -61.1513 -61.1243 -61.1133 -61.1122 -60.7578
   -60.7320 -60.7285 -60.7124 -60.5046 -29.9205 -29.9007 -29.8944 -29.8841
   -29.8712 -29.8672 -29.8543 -29.8276 -29.8255 -29.7755 -29.7171 -29.6889
   -29.6867 -29.6060 -29.5141 -29.5088 -29.4948 -29.4888 -29.4809 -29.4695
   -29.4391 -29.4282 -29.3995 -29.3691 -29.2529 -29.2271 -29.2250 -29.1929
   -29.1458 -29.1410 -29.1186 -29.0931 -29.0320 -29.0099 -29.0003 -28.9256
    -9.9298  -4.8482  -4.0165  -3.5500  -2.2319  -1.9714  -1.7040  -1.4741
    -1.4001  -1.2667  -1.1705  -0.9973  -0.7496  -0.6585  -0.4843  -0.1780
    -0.1095  -0.0597   0.1953   0.5478   0.6391   0.9520   1.4692   1.5641
     1.6388   1.7601   1.8077   1.9018   2.0558   2.0822   2.2814   2.3520
     2.3991   2.4139   2.4680   2.5405   2.6520

          k = 0.0261 0.0151 0.0000 ( 22708 PWs)   bands (ev):

   -61.2326 -61.2106 -61.2075 -61.1513 -61.1242 -61.1137 -61.1118 -60.7578
   -60.7308 -60.7297 -60.7123 -60.5046 -29.9189 -29.9004 -29.8919 -29.8889
   -29.8710 -29.8615 -29.8580 -29.8282 -29.8249 -29.7755 -29.7170 -29.6904
   -29.6854 -29.6074 -29.5143 -29.5091 -29.4951 -29.4888 -29.4803 -29.4681
   -29.4349 -29.4320 -29.4001 -29.3685 -29.2535 -29.2316 -29.2224 -29.1929
   -29.1524 -29.1363 -29.1128 -29.1057 -29.0295 -29.0132 -28.9903 -28.9256
    -9.9294  -4.8499  -4.0319  -3.5378  -2.2273  -1.9835  -1.6825  -1.4803
    -1.4044  -1.2509  -1.1784  -0.9937  -0.7204  -0.6788  -0.4994  -0.1679
    -0.1184  -0.0594   0.1892   0.5459   0.6457   0.9986   1.4678   1.5597
     1.6294   1.7526   1.8079   1.8949   2.0700   2.1075   2.1991   2.3465
     2.3922   2.4384   2.4502   2.5428   2.6545

          k = 0.0261 0.0452 0.0000 ( 22675 PWs)   bands (ev):

   -61.2297 -61.2130 -61.2079 -61.1477 -61.1254 -61.1165 -61.1114 -60.7540
   -60.7330 -60.7308 -60.7129 -60.5047 -29.8874 -29.8839 -29.8566 -29.8542
   -29.8379 -29.8247 -29.8187 -29.8131 -29.8077 -29.7657 -29.7145 -29.6958
   -29.6847 -29.6379 -29.5775 -29.5372 -29.4943 -29.4921 -29.4809 -29.4703
   -29.4581 -29.4023 -29.3959 -29.3868 -29.2512 -29.2447 -29.2232 -29.1948
   -29.1895 -29.1394 -29.1265 -29.1112 -29.0909 -29.0247 -29.0044 -28.9234
    -9.9266  -4.4750  -4.0421  -3.1628  -2.1479  -1.9923  -1.8294  -1.5742
    -1.3009  -1.0764  -0.9092  -0.7259  -0.5178  -0.3554  -0.1959   0.0242
     0.0867   0.1465   0.2804   0.6219   0.7190   0.9713   1.3316   1.3912
     1.4374   1.5024   1.5365   1.6759   1.7836   1.8913   1.9927   2.1026
     2.1298   2.1564   2.2135   2.3381   2.4034

          k = 0.0261-0.1054 0.0000 ( 22643 PWs)   bands (ev):

   -61.2255 -61.2167 -61.2083 -61.1429 -61.1275 -61.1198 -61.1109 -60.7478
   -60.7384 -60.7310 -60.7134 -60.5047 -29.8681 -29.8502 -29.8404 -29.8195
   -29.8074 -29.7917 -29.7700 -29.7515 -29.7468 -29.7216 -29.7057 -29.7047
   -29.6960 -29.6738 -29.6517 -29.6106 -29.5808 -29.5235 -29.4917 -29.4599
   -29.4219 -29.4172 -29.3591 -29.3255 -29.2751 -29.2460 -29.2361 -29.2240
   -29.1949 -29.1867 -29.1499 -29.1371 -29.0910 -29.0497 -29.0256 -28.9216
    -9.9243  -4.0764  -3.7428  -2.8840  -2.5270  -2.1039  -1.8445  -1.3798
    -1.1088  -0.8751  -0.5614  -0.4793  -0.2815   0.0223   0.2388   0.3046
     0.4207   0.4575   0.5087   0.7311   0.8081   0.9024   0.9899   1.0720
     1.1568   1.2008   1.2746   1.3064   1.4157   1.5026   1.5744   1.6909
     1.7259   1.7978   1.9190   1.9958   2.2374

          k = 0.0261-0.0753 0.0000 ( 22643 PWs)   bands (ev):

   -61.2258 -61.2161 -61.2086 -61.1429 -61.1276 -61.1196 -61.1110 -60.7475
   -60.7392 -60.7304 -60.7135 -60.5047 -29.8682 -29.8513 -29.8417 -29.8194
   -29.8072 -29.7938 -29.7700 -29.7521 -29.7456 -29.7192 -29.7062 -29.7033
   -29.6959 -29.6731 -29.6514 -29.6130 -29.5804 -29.5237 -29.4917 -29.4597
   -29.4224 -29.4172 -29.3593 -29.3244 -29.2774 -29.2409 -29.2384 -29.2228
   -29.1922 -29.1866 -29.1514 -29.1284 -29.0914 -29.0523 -29.0332 -28.9216
    -9.9248  -4.0527  -3.7580  -2.8814  -2.5411  -2.1058  -1.8426  -1.3609
    -1.1491  -0.8921  -0.5157  -0.4582  -0.2677  -0.0190   0.2413   0.3020
     0.4173   0.4590   0.4708   0.7139   0.8224   0.8972   0.9497   1.0848
     1.1542   1.2000   1.2424   1.3420   1.4299   1.5217   1.6321   1.6960
     1.7590   1.8005   1.9406   2.0004   2.1736

          k = 0.0261-0.0452 0.0000 ( 22675 PWs)   bands (ev):

   -61.2299 -61.2118 -61.2089 -61.1477 -61.1255 -61.1161 -61.1116 -60.7538
   -60.7347 -60.7290 -60.7131 -60.5047 -29.8906 -29.8856 -29.8558 -29.8526
   -29.8395 -29.8229 -29.8206 -29.8139 -29.8073 -29.7656 -29.7150 -29.6945
   -29.6854 -29.6335 -29.5769 -29.5403 -29.4945 -29.4922 -29.4814 -29.4698
   -29.4577 -29.4074 -29.3918 -29.3874 -29.2507 -29.2355 -29.2264 -29.1942
   -29.1895 -29.1400 -29.1194 -29.1037 -29.0865 -29.0344 -29.0158 -28.9235
    -9.9275  -4.4659  -4.0249  -3.1825  -2.1417  -1.9950  -1.8382  -1.5930
    -1.2918  -1.1045  -0.8912  -0.7252  -0.4783  -0.4105  -0.1709   0.0111
     0.1008   0.1463   0.2762   0.6246   0.7139   0.8907   1.3318   1.3919
     1.4024   1.5024   1.5615   1.6564   1.8320   1.9542   2.0221   2.1207
     2.1290   2.1904   2.2522   2.3258   2.3776

          k = 0.0521-0.0301 0.0000 ( 22648 PWs)   bands (ev):

   -61.2288 -61.2132 -61.2086 -61.1462 -61.1267 -61.1159 -61.1122 -60.7520
   -60.7367 -60.7285 -60.7135 -60.5047 -29.8853 -29.8790 -29.8472 -29.8377
   -29.8275 -29.8200 -29.8168 -29.8031 -29.7671 -29.7609 -29.7159 -29.6932
   -29.6875 -29.6422 -29.5730 -29.5660 -29.5598 -29.5022 -29.4763 -29.4568
   -29.4493 -29.4021 -29.3926 -29.3653 -29.2501 -29.2358 -29.2296 -29.1899
   -29.1859 -29.1780 -29.1258 -29.1196 -29.0819 -29.0412 -29.0220 -28.9229
    -9.9270  -4.2853  -4.0210  -3.0162  -2.5720  -1.8281  -1.6536  -1.4568
    -1.2821  -1.1100  -0.8272  -0.7161  -0.5662  -0.0847  -0.0225   0.0865
     0.2079   0.2362   0.3379   0.6448   0.7195   0.9174   1.1687   1.3016
     1.3582   1.3947   1.5197   1.5780   1.7346   1.7759   1.9077   2.0017
     2.0396   2.1079   2.1492   2.2395   2.2529

          k = 0.0521 0.0000 0.0000 ( 22675 PWs)   bands (ev):

   -61.2297 -61.2130 -61.2079 -61.1477 -61.1254 -61.1164 -61.1115 -60.7539
   -60.7339 -60.7298 -60.7130 -60.5047 -29.8873 -29.8859 -29.8566 -29.8526
   -29.8393 -29.8235 -29.8202 -29.8134 -29.8078 -29.7657 -29.7147 -29.6952
   -29.6850 -29.6359 -29.5772 -29.5392 -29.4945 -29.4921 -29.4804 -29.4700
   -29.4579 -29.4052 -29.3935 -29.3871 -29.2508 -29.2408 -29.2242 -29.1945
   -29.1895 -29.1394 -29.1233 -29.1083 -29.0889 -29.0284 -29.0104 -28.9235
    -9.9272  -4.4704  -4.0318  -3.1724  -2.1449  -1.9938  -1.8337  -1.5835
    -1.2971  -1.0901  -0.9001  -0.7249  -0.5064  -0.3774  -0.1850   0.0196
     0.0920   0.1466   0.2775   0.6232   0.7154   0.9294   1.3315   1.3907
     1.4188   1.5038   1.5517   1.6663   1.8210   1.9227   2.0001   2.1127
     2.1295   2.1696   2.2151   2.3389   2.3967

          k = 0.0521 0.0301 0.0000 ( 22648 PWs)   bands (ev):
[...]
   -29.1821 -29.1812 -29.1152 -29.1110 -29.0833 -29.0787 -29.0601 -28.8959
   -28.8833 -28.8714 -28.8425 -28.8259 -28.8025 -28.7825 -28.7081 -28.6812
   -11.1347  -5.3689  -4.6968  -3.6626  -2.7066  -1.7965  -1.7196  -1.5796
    -1.2800  -1.1499  -1.1111  -0.8245  -0.7908  -0.5078  -0.1151  -0.0228
     0.0254   0.1314   0.2002   0.7865   0.9055   1.0576   1.6711   1.7852
     1.8441   1.9481   1.9870   2.0790   2.2472   2.4094   2.5064   2.5908
     2.6548   2.7164   2.7274   2.7496   2.8065

          k = 0.0261 0.0452 0.0000 ( 22675 PWs)   bands (ev):

   -60.9586 -60.9369 -60.9339 -60.9269 -60.8249 -60.8036 -60.7824 -60.7365
   -60.4278 -60.4056 -60.3999 -60.3681 -29.6690 -29.6353 -29.6340 -29.6069
   -29.5819 -29.5418 -29.5340 -29.5211 -29.5134 -29.5111 -29.4903 -29.4398
   -29.4294 -29.4199 -29.3834 -29.3032 -29.3028 -29.2783 -29.2716 -29.2008
   -29.1998 -29.1841 -29.1470 -29.0946 -29.0741 -29.0703 -29.0503 -28.8924
   -28.8785 -28.8747 -28.8660 -28.8397 -28.7982 -28.7898 -28.7676 -28.6993
   -11.1287  -5.3712  -4.3311  -3.4236  -2.5140  -1.8919  -1.7847  -1.5009
    -1.2816  -0.9874  -0.8841  -0.6496  -0.4846  -0.2337  -0.0007   0.1737
     0.2392   0.3004   0.3917   0.8608   0.9105   1.1299   1.5126   1.6018
     1.6549   1.6920   1.7255   1.7800   1.9257   2.0934   2.1908   2.2788
     2.3030   2.3730   2.4559   2.6229   2.7241

          k = 0.0261-0.1054 0.0000 ( 22643 PWs)   bands (ev):

   -60.9518 -60.9418 -60.9365 -60.9262 -60.8209 -60.8071 -60.7822 -60.7372
   -60.4244 -60.4054 -60.4028 -60.3686 -29.6188 -29.5873 -29.5761 -29.5536
   -29.5295 -29.5190 -29.5163 -29.5000 -29.4925 -29.4795 -29.4681 -29.4631
   -29.4369 -29.4209 -29.4050 -29.3890 -29.3412 -29.3310 -29.2813 -29.2706
   -29.2327 -29.2168 -29.1412 -29.1063 -29.0545 -29.0233 -28.9815 -28.9373
   -28.8901 -28.8801 -28.8717 -28.8547 -28.8371 -28.8179 -28.7651 -28.7299
   -11.1230  -5.3607  -3.7151  -3.1745  -2.6462  -2.0858  -1.8455  -1.5251
    -0.9541  -0.8427  -0.5742  -0.3091  -0.1353  -0.0525   0.3532   0.4473
     0.5356   0.6191   0.7068   0.9126   0.9817   1.0898   1.1649   1.2774
     1.3319   1.3681   1.4352   1.4968   1.5423   1.6960   1.8049   1.8706
     1.9175   2.0056   2.0836   2.3759   2.6162

          k = 0.0261-0.0753 0.0000 ( 22643 PWs)   bands (ev):

   -60.9518 -60.9416 -60.9367 -60.9261 -60.8200 -60.8086 -60.7815 -60.7374
   -60.4241 -60.4076 -60.4009 -60.3687 -29.6185 -29.5873 -29.5762 -29.5533
   -29.5279 -29.5179 -29.5168 -29.4996 -29.4905 -29.4836 -29.4696 -29.4614
   -29.4351 -29.4143 -29.4060 -29.3894 -29.3589 -29.3308 -29.2739 -29.2705
   -29.2326 -29.2165 -29.1458 -29.1005 -29.0539 -29.0233 -28.9802 -28.9377
   -28.8910 -28.8788 -28.8725 -28.8560 -28.8370 -28.8180 -28.7655 -28.7293
   -11.1233  -5.3477  -3.7313  -3.1766  -2.6376  -2.1565  -1.8413  -1.4720
    -1.0376  -0.7750  -0.5095  -0.3314  -0.1014  -0.0909   0.3530   0.4536
     0.5340   0.6166   0.7149   0.9103   0.9978   1.0776   1.1444   1.2949
     1.3191   1.3676   1.4406   1.5059   1.5552   1.7044   1.7469   1.8725
     1.9167   2.0142   2.0836   2.3560   2.6900

          k = 0.0261-0.0452 0.0000 ( 22675 PWs)   bands (ev):

   -60.9586 -60.9360 -60.9349 -60.9268 -60.8239 -60.8059 -60.7809 -60.7368
   -60.4274 -60.4077 -60.3979 -60.3683 -29.6687 -29.6352 -29.6342 -29.6070
   -29.5753 -29.5467 -29.5317 -29.5201 -29.5176 -29.5106 -29.4902 -29.4415
   -29.4277 -29.4175 -29.3840 -29.3032 -29.3028 -29.2865 -29.2784 -29.2000
   -29.1938 -29.1727 -29.1627 -29.0930 -29.0683 -29.0641 -29.0524 -28.8931
   -28.8806 -28.8739 -28.8655 -28.8394 -28.8014 -28.7873 -28.7685 -28.6986
   -11.1293  -5.3425  -4.3522  -3.4276  -2.5507  -1.9687  -1.7857  -1.5095
    -1.2628  -0.9247  -0.8078  -0.7123  -0.4216  -0.2051  -0.0387   0.1599
     0.2342   0.2955   0.4082   0.8647   0.9092   1.1085   1.5256   1.6261
     1.6553   1.6961   1.7430   1.7691   1.9500   2.0170   2.1874   2.2633
     2.3107   2.3708   2.4541   2.6818   2.7299

          k = 0.0521-0.0301 0.0000 ( 22648 PWs)   bands (ev):

   -60.9566 -60.9399 -60.9318 -60.9279 -60.8232 -60.8057 -60.7817 -60.7368
   -60.4256 -60.4105 -60.3964 -60.3688 -29.6480 -29.6458 -29.5986 -29.5910
   -29.5644 -29.5396 -29.5324 -29.5120 -29.5109 -29.4914 -29.4824 -29.4450
   -29.4240 -29.4221 -29.3704 -29.3686 -29.3121 -29.2777 -29.2692 -29.2511
   -29.2053 -29.1917 -29.1436 -29.0831 -29.0739 -29.0609 -29.0291 -28.8912
   -28.8818 -28.8674 -28.8658 -28.8499 -28.8379 -28.7999 -28.7616 -28.7025
   -11.1253  -5.3679  -4.1613  -3.3247  -2.5111  -2.2461  -1.6011  -1.2913
    -1.1036  -1.0680  -0.8323  -0.6158  -0.4064  -0.2164   0.1765   0.2566
     0.3103   0.4000   0.4852   0.8913   0.9344   1.1140   1.3570   1.5051
     1.5635   1.6058   1.6739   1.7061   1.8105   1.9869   2.0247   2.1135
     2.2126   2.3210   2.3626   2.4867   2.6791

          k = 0.0521 0.0000 0.0000 ( 22675 PWs)   bands (ev):

   -60.9585 -60.9378 -60.9325 -60.9274 -60.8251 -60.8030 -60.7829 -60.7365
   -60.4272 -60.4089 -60.3969 -60.3684 -29.6689 -29.6352 -29.6342 -29.6071
   -29.5839 -29.5416 -29.5347 -29.5195 -29.5126 -29.5102 -29.4897 -29.4414
   -29.4291 -29.4190 -29.3832 -29.3033 -29.3025 -29.2786 -29.2697 -29.2024
   -29.1999 -29.1833 -29.1449 -29.0940 -29.0772 -29.0697 -29.0518 -28.8909
   -28.8811 -28.8743 -28.8656 -28.8397 -28.8006 -28.7875 -28.7694 -28.6976
   -11.1268  -5.3896  -4.3154  -3.4085  -2.4795  -1.8994  -1.7687  -1.4541
    -1.3644  -1.0349  -0.8772  -0.6319  -0.5146  -0.2317   0.0597   0.1681
     0.2052   0.3193   0.3842   0.8581   0.9206   1.1093   1.5133   1.5907
     1.6458   1.6712   1.7179   1.7787   1.8796   2.1188   2.1939   2.2956
     2.3244   2.3820   2.4680   2.5518   2.7254

          k = 0.0521 0.0301 0.0000 ( 22648 PWs)   bands (ev):

   -60.9566 -60.9403 -60.9311 -60.9284 -60.8247 -60.8019 -60.7843 -60.7365
   -60.4263 -60.4080 -60.3985 -60.3685 -29.6480 -29.6463 -29.5986 -29.5909
   -29.5745 -29.5348 -29.5290 -29.5139 -29.5100 -29.4934 -29.4804 -29.4421
   -29.4289 -29.4212 -29.3696 -29.3694 -29.3118 -29.2696 -29.2664 -29.2419
   -29.2055 -29.1817 -29.1617 -29.0874 -29.0733 -29.0708 -29.0263 -28.8909
   -28.8790 -28.8706 -28.8659 -28.8468 -28.8364 -28.7989 -28.7629 -28.7031
   -11.1243  -5.4053  -4.1383  -3.3184  -2.4134  -2.2328  -1.4901  -1.3436
    -1.1604  -1.0609  -0.9331  -0.5630  -0.5089  -0.2594   0.2209   0.2596
     0.3040   0.4193   0.4735   0.8789   0.9664   1.0847   1.3636   1.4928
     1.5603   1.6073   1.6416   1.7020   1.8467   1.9880   2.0404   2.1822
     2.2127   2.2943   2.3510   2.4552   2.6600

          k = 0.0521-0.1204 0.0000 ( 22643 PWs)   bands (ev):

   -60.9514 -60.9431 -60.9352 -60.9265 -60.8226 -60.8034 -60.7845 -60.7369
   -60.4240 -60.4082 -60.4004 -60.3688 -29.6188 -29.5877 -29.5761 -29.5556
   -29.5379 -29.5183 -29.5155 -29.5000 -29.4905 -29.4787 -29.4653 -29.4617
   -29.4377 -29.4170 -29.4092 -29.3892 -29.3374 -29.3308 -29.2709 -29.2701
   -29.2328 -29.2031 -29.1633 -29.1077 -29.0550 -29.0275 -28.9798 -28.9374
   -28.8881 -28.8798 -28.8713 -28.8554 -28.8376 -28.8193 -28.7638 -28.7297
   -11.1205  -5.3998  -3.6876  -3.1302  -2.5768  -2.1041  -1.8186  -1.4041
    -1.2382  -0.7124  -0.5885  -0.3555  -0.2006  -0.0936   0.3858   0.4465
     0.5215   0.6194   0.7213   0.8783   0.9909   1.1049   1.1275   1.2936
     1.3201   1.3593   1.4448   1.5039   1.6300   1.6857   1.7489   1.9013
     1.9388   1.9885   2.0879   2.3335   2.5179

          k = 0.0521-0.0903 0.0000 ( 22614 PWs)   bands (ev):

   -60.9467 -60.9441 -60.9401 -60.9254 -60.8203 -60.8065 -60.7833 -60.7373
   -60.4222 -60.4099 -60.4001 -60.3690 -29.5621 -29.5544 -29.5525 -29.5471
   -29.5457 -29.4988 -29.4983 -29.4953 -29.4879 -29.4850 -29.4705 -29.4607
   -29.4539 -29.4373 -29.4054 -29.3867 -29.3775 -29.3413 -29.2819 -29.2795
   -29.2784 -29.1736 -29.1544 -29.1486 -29.0173 -28.9978 -28.9715 -28.9474
   -28.9404 -28.8870 -28.8735 -28.8592 -28.8363 -28.7762 -28.7742 -28.7701
   -11.1190  -5.3801  -3.3700  -2.8276  -2.7070  -2.5225  -1.7841  -1.4819
    -1.2199  -0.7442  -0.1328  -0.0091   0.0486   0.1716   0.2232   0.3320
     0.6286   0.7698   0.8346   0.8588   0.9405   1.0566   1.0690   1.1037
     1.1377   1.1965   1.2633   1.5380   1.5787   1.6485   1.6652   1.7240
     1.7961   1.8329   1.8688   2.1262   2.5712

          k = 0.0521-0.0602 0.0000 ( 22643 PWs)   bands (ev):

   -60.9516 -60.9426 -60.9358 -60.9263 -60.8205 -60.8078 -60.7819 -60.7373
   -60.4229 -60.4115 -60.3978 -60.3691 -29.6185 -29.5873 -29.5761 -29.5544
   -29.5299 -29.5177 -29.5169 -29.4999 -29.4934 -29.4815 -29.4671 -29.4607
   -29.4284 -29.4172 -29.4071 -29.3896 -29.3583 -29.3311 -29.2750 -29.2704
   -29.2325 -29.2124 -29.1488 -29.1017 -29.0550 -29.0214 -28.9806 -28.9379
   -28.8888 -28.8810 -28.8743 -28.8553 -28.8369 -28.8212 -28.7630 -28.7288
   -11.1214  -5.3641  -3.7133  -3.1482  -2.6224  -2.1745  -1.8228  -1.4700
    -1.0915  -0.7417  -0.5013  -0.3569  -0.1546  -0.0805   0.3688   0.4478
     0.5235   0.6134   0.7195   0.9039   1.0003   1.0639   1.1173   1.3028
     1.3301   1.3569   1.4582   1.5184   1.6035   1.6943   1.7158   1.8811
     1.9208   2.0070   2.0837   2.3376   2.6041

          k =-0.0782 0.0452 0.0000 ( 22668 PWs)   bands (ev):

   -60.9497 -60.9466 -60.9319 -60.9281 -60.8206 -60.8076 -60.7820 -60.7373
   -60.4218 -60.4138 -60.3964 -60.3693 -29.6160 -29.6134 -29.5674 -29.5638
   -29.5342 -29.5110 -29.5057 -29.5013 -29.4876 -29.4777 -29.4421 -29.4391
   -29.4312 -29.4268 -29.3970 -29.3942 -29.3805 -29.3276 -29.2990 -29.2646
   -29.2390 -29.2358 -29.1193 -29.1002 -29.0560 -29.0355 -28.9328 -28.9204
   -28.9017 -28.8931 -28.8759 -28.8730 -28.8574 -28.8361 -28.7343 -28.7306
   -11.1205  -5.3735  -3.5575  -3.2600  -2.8920  -2.1103  -1.6834  -1.1664
    -0.9789  -0.8778  -0.5633  -0.4074  -0.3510  -0.2488   0.4903   0.5162
     0.6506   0.6938   0.7907   0.8475   1.0144   1.1097   1.1477   1.2145
     1.2264   1.3383   1.5115   1.5650   1.6089   1.6346   1.7045   1.7853
     1.9692   2.0212   2.1744   2.3141   2.6258

          k =-0.0782 0.0753 0.0000 ( 22643 PWs)   bands (ev):

   -60.9514 -60.9432 -60.9352 -60.9265 -60.8215 -60.8059 -60.7830 -60.7371
   -60.4226 -60.4122 -60.3973 -60.3692 -29.6187 -29.5872 -29.5762 -29.5550
   -29.5328 -29.5207 -29.5154 -29.5000 -29.4920 -29.4784 -29.4666 -29.4616
   -29.4333 -29.4199 -29.4056 -29.3891 -29.3403 -29.3312 -29.2828 -29.2704
   -29.2325 -29.2143 -29.1423 -29.1088 -29.0553 -29.0218 -28.9820 -28.9380
   -28.8890 -28.8799 -28.8741 -28.8556 -28.8371 -28.8207 -28.7636 -28.7281
   -11.1202  -5.3852  -3.6808  -3.1439  -2.6359  -2.0449  -1.8574  -1.5594
    -0.9934  -0.8182  -0.6035  -0.3297  -0.1345  -0.0676   0.3689   0.4439
     0.5306   0.5934   0.7161   0.9045   0.9728   1.0981   1.1392   1.2824
     1.3252   1.3646   1.4379   1.5114   1.5410   1.6965   1.8070   1.9009
     1.9216   1.9903   2.0857   2.3580   2.5317

          k =-0.0782 0.1054 0.0000 ( 22643 PWs)   bands (ev):

   -60.9513 -60.9435 -60.9348 -60.9266 -60.8227 -60.8030 -60.7848 -60.7369
   -60.4234 -60.4102 -60.3988 -60.3689 -29.6189 -29.5876 -29.5764 -29.5555
   -29.5394 -29.5194 -29.5147 -29.5009 -29.4861 -29.4793 -29.4666 -29.4613
   -29.4405 -29.4138 -29.4079 -29.3891 -29.3385 -29.3308 -29.2708 -29.2692
   -29.2326 -29.2058 -29.1611 -29.1084 -29.0549 -29.0278 -28.9799 -28.9378
   -28.8892 -28.8779 -28.8716 -28.8566 -28.8376 -28.8190 -28.7648 -28.7283
   -11.1195  -5.4079  -3.6716  -3.1274  -2.5825  -2.0301  -1.8693  -1.4643
    -1.1758  -0.7603  -0.5967  -0.3543  -0.1928  -0.0739   0.3909   0.4407
     0.5229   0.5997   0.7244   0.8790   0.9807   1.1181   1.1296   1.2824
     1.3216   1.3634   1.4407   1.5002   1.5824   1.6936   1.7743   1.9067
     1.9389   2.0046   2.0862   2.3386   2.4982

          k =-0.0782-0.0452 0.0000 ( 22668 PWs)   bands (ev):

   -60.9483 -60.9482 -60.9311 -60.9287 -60.8232 -60.8017 -60.7858 -60.7368
   -60.4236 -60.4097 -60.3991 -60.3689 -29.6161 -29.6140 -29.5675 -29.5649
   -29.5470 -29.5061 -29.5050 -29.4955 -29.4896 -29.4744 -29.4458 -29.4397
   -29.4368 -29.4267 -29.3978 -29.3972 -29.3809 -29.3036 -29.2918 -29.2545
   -29.2384 -29.2369 -29.1456 -29.0977 -29.0511 -29.0482 -28.9379 -28.9116
   -28.9062 -28.8831 -28.8812 -28.8688 -28.8575 -28.8359 -28.7371 -28.7296
   -11.1192  -5.4190  -3.5497  -3.1817  -2.8961  -1.9391  -1.6560  -1.2763
    -0.9882  -0.8968  -0.6504  -0.4617  -0.3305  -0.3122   0.4990   0.5155
     0.6672   0.6712   0.7995   0.8617   0.9908   1.1198   1.1488   1.2174
     1.2310   1.3501   1.4989   1.5439   1.6255   1.6560   1.7590   1.8334
     1.9383   2.0478   2.1141   2.2115   2.6285

     the Fermi energy is     1.6692 ev

!    total energy              =   -1940.69966709 Ry
     Harris-Foulkes estimate   =   -1940.69966862 Ry
     estimated scf accuracy    <       0.00000004 Ry

     The total energy is the sum of the following terms:

     one-electron contribution =   -8750.64466346 Ry
     hartree contribution      =    4361.66100324 Ry
     xc contribution           =    -933.27070530 Ry
     ewald contribution        =    3381.66788445 Ry
     electric field correction =       0.00009568 Ry
     smearing contrib. (-TS)   =      -0.11328168 Ry

     convergence has been achieved in  14 iterations
 
 BEEF-vdW xc energy contributions
           1 :   -843.725326311575     
           2 :    784.182741448705     
           3 :   -678.637711491118     
           4 :    548.856838081045     
           5 :   -417.401790609572     
           6 :    301.331062718620     
           7 :   -209.380748220538     
           8 :    142.784995709827     
           9 :   -98.2749072027113     
          10 :    71.0952922074665     
          11 :   -56.6506351549373     
          12 :    50.6560699993214     
          13 :   -48.7287698722994     
          14 :    46.4131293860301     
          15 :   -40.0278154984037     
          16 :    27.8680252689928     
          17 :   -10.9346339234415     
          18 :   -7.42780209002206     
          19 :    22.9248913455959     
          20 :   -32.0897250569463     
          21 :    33.5754575882204     
          22 :   -28.4220527756512     
          23 :    19.3234836554932     
          24 :   -9.43267681012946     
          25 :    1.34500792242886     
          26 :    3.35767937764081     
          27 :   -4.06007969487587     
          28 :   0.884683478836109     
          29 :    5.42265096822189     
          30 :   -13.4685662243197     
          31 :   -60.8272172310327     
          32 :   -43.7631616138558     

     Forces acting on atoms (Ry/au):


     negative rho (up, down):  1.377E+00 0.000E+00
     atom    1 type  1   force =     0.00031393    0.00101975    0.01921673
     atom    2 type  1   force =    -0.00028682    0.00127688    0.01950940
     atom    3 type  1   force =     0.00014864   -0.00114795    0.01972535
     atom    4 type  1   force =     0.00009524   -0.00072184    0.01994922
     atom    5 type  1   force =     0.00420434   -0.00346761   -0.01851459
     atom    6 type  1   force =    -0.00376189   -0.00184981   -0.02035098
     atom    7 type  1   force =    -0.00105435    0.00094915   -0.01705324
     atom    8 type  1   force =    -0.00086201    0.00653313   -0.01980527
     atom    9 type  1   force =     0.00034227   -0.00019078   -0.00305396
     atom   10 type  1   force =     0.00150960   -0.00196123   -0.00120095
     atom   11 type  1   force =     0.00029110    0.00029790   -0.00081805
     atom   12 type  1   force =     0.00000748   -0.00120306    0.00091719
     atom   13 type  2   force =    -0.00278998   -0.00016076   -0.00252222
     atom   14 type  3   force =     0.00215103   -0.00029070    0.00207768
     atom   15 type  3   force =    -0.00030858    0.00091693    0.00192368

     Total force =     0.006929     Total SCF correction =     0.000119


     entering subroutine stress ...


     negative rho (up, down):  1.377E+00 0.000E+00
          total   stress  (Ry/bohr**3)                   (kbar)     P=  -16.73
  -0.00012975  -0.00000227   0.00000061        -19.09     -0.33      0.09
  -0.00000227  -0.00012279  -0.00000202         -0.33    -18.06     -0.30
   0.00000061  -0.00000202  -0.00008859          0.09     -0.30    -13.03


     number of scf cycles    =  50
     number of bfgs steps    =  49

     energy   old            =   -1940.6994074535 Ry
     energy   new            =   -1940.6996670879 Ry

     CASE: energy  _new < energy  _old

     new trust radius        =       0.0281205666 bohr

     The maximum number of steps has been reached.

     End of BFGS Geometry Optimization
Begin final coordinates

ATOMIC_POSITIONS (crystal)
Hf1      0.166666667   0.166666667   0.396510335    0   0   0
Hf1      0.666666667   0.166666667   0.396510335    0   0   0
Hf1      0.166666667   0.666666667   0.396510335    0   0   0
Hf1      0.666666667   0.666666667   0.396510335    0   0   0
Hf1      0.833333333   0.333333333   0.500000000    0   0   0
Hf1      0.333333333   0.333333333   0.500000000    0   0   0
Hf1      0.833333333   0.833333333   0.500000000    0   0   0
Hf1      0.333333333   0.833333333   0.500000000    0   0   0
Hf1     -0.005982950  -0.004475105   0.600409758
Hf1      0.501841897   0.000998410   0.599607361
Hf1     -0.002963317   0.508281638   0.598817765
Hf1      0.498456638   0.503375283   0.594095890
C1      -0.177817506  -0.126762862   0.658564174
H1      -0.073464851  -0.070503382   0.684597732
H1       0.724705006   0.821280231   0.686857137
End final coordinates



     Writing output data file calc.save
 
     init_run     :      9.71s CPU     12.64s WALL (       1 calls)
     electrons    :  13637.53s CPU  17607.93s WALL (      50 calls)
     update_pot   :     77.96s CPU     89.56s WALL (      49 calls)
     forces       :    444.12s CPU    469.83s WALL (      50 calls)
     stress       :   1315.61s CPU   1392.38s WALL (      50 calls)

     Called by init_run:
     wfcinit      :      6.35s CPU      8.75s WALL (       1 calls)
     potinit      :      0.90s CPU      1.13s WALL (       1 calls)

     Called by electrons:
     c_bands      :   9019.97s CPU  11832.57s WALL (     764 calls)
     sum_band     :   2213.24s CPU   2737.47s WALL (     764 calls)
     v_of_rho     :    413.38s CPU    555.94s WALL (     814 calls)
     newd         :   1292.71s CPU   1505.90s WALL (     814 calls)
     mix_rho      :     14.30s CPU     19.42s WALL (     764 calls)
     vdW_energy   :    268.44s CPU    345.45s WALL (    2614 calls)
     vdW_ffts     :    415.95s CPU    578.20s WALL (    5328 calls)
     vdW_v        :    171.75s CPU    206.18s WALL (    2614 calls)

     Called by c_bands:
     init_us_2    :     96.47s CPU    115.38s WALL (   32580 calls)
     cegterg      :   8191.24s CPU  10966.70s WALL (   15299 calls)

     Called by *egterg:
     h_psi        :   4929.50s CPU   7243.31s WALL (   81007 calls)
     s_psi        :    537.72s CPU    564.72s WALL (   81007 calls)
     g_psi        :     41.38s CPU     42.15s WALL (   65688 calls)
     cdiaghg      :   1417.33s CPU   1454.97s WALL (   80007 calls)

     Called by h_psi:
     add_vuspsi   :    539.21s CPU    567.04s WALL (   81007 calls)

     General routines
     calbec       :    731.50s CPU    752.23s WALL (   98287 calls)
     fft          :    639.90s CPU    885.52s WALL (  158923 calls)
     ffts         :      1.34s CPU      2.07s WALL (    1578 calls)
     fftw         :   3633.64s CPU   6349.82s WALL ( 8149782 calls)
     interpolate  :      7.77s CPU     13.76s WALL (    1578 calls)
     davcio       :      0.01s CPU      0.39s WALL (      20 calls)
 
     Parallel routines
     fft_scatter  :   2528.22s CPU   4168.67s WALL ( 8310283 calls)
 
     PWSCF        :     4h19m CPU        5h28m WALL

 
   This run was terminated on:   9:15: 4  18Apr2018            

=------------------------------------------------------------------------------=
   JOB DONE.
=------------------------------------------------------------------------------=
