  python dir          : /u/if/mamunm/src/espresso
  espresso dir        : /nfs/slac/g/suncatfs/sw/espv18/espresso-dynpy-beef/bin
  pseudo dir          : /u/if/mamunm/psp/gbrv1.5pbe
  ase-espresso py git : GITVERSION



     Program PWSCF v.5.1rc2 (svn rev. 11289) starts on 16Apr2018 at 22: 4:13 

     This program is part of the open-source Quantum ESPRESSO suite
     for quantum simulation of materials; please cite
         "P. Giannozzi et al., J. Phys.:Condens. Matter 21 395502 (2009);
          URL http://www.quantum-espresso.org", 
     in publications or presentations arising from this work. More details at
     http://www.quantum-espresso.org/quote

     Parallel version (MPI), running on    32 processors
     K-points division:     npool     =       4
     R & G space division:  proc/nbgrp/npool/nimage =       8
     Reading input from pw.inp
     Message from routine read_cards :
     DEPRECATED: no units specified in CELL_PARAMETERS card

     Current dimensions of program PWSCF are:
     Max number of different atomic species (ntypx) = 10
     Max number of k-points (npk) =  40000
     Max angular momentum in pseudopotentials (lmaxx) =  3
     Presently stress not available with electric field


     **************************************************************************
     Initializing libbeef V0.1.1 with the BEEF-vdW functional.
     Citation: Wellendorff et al., PRB 85, 235149 (2012).
     **************************************************************************


     IMPORTANT: XC functional enforced from input :
     Exchange-correlation      = BEEF-VDW ( 1  4 27 13 2)
     Any further DFT definition will be discarded
     Please, verify this is what you really want


     Subspace diagonalization in iterative solution of the eigenvalue problem:
     a serial algorithm will be used

 
     Parallelization info
     --------------------
     sticks:   dense  smooth     PW     G-vecs:    dense   smooth      PW
     Min         297     119     35                55393    13999    2259
     Max         298     120     36                55416    14060    2272
     Sum        2383     955    283               443253   112179   18115
 


     bravais-lattice index     =            0
     lattice parameter (alat)  =       1.8897  a.u.
     unit-cell volume          =    3724.3394 (a.u.)^3
     number of atoms/cell      =           14
     number of atomic types    =            3
     number of electrons       =       175.00
     number of Kohn-Sham states=           97
     kinetic-energy cutoff     =      36.7493  Ry
     charge density cutoff     =     367.4932  Ry
     convergence threshold     =      1.0E-05
     mixing beta               =       0.3000
     number of iterations used =           10  plain     mixing
     Exchange-correlation      = BEEF-VDW ( 1  4 27 13 2)
     nstep                     =           50


     celldm(1)=   1.889726  celldm(2)=   0.000000  celldm(3)=   0.000000
     celldm(4)=   0.000000  celldm(5)=   0.000000  celldm(6)=   0.000000

     crystal axes: (cart. coord. in units of alat)
               a(1) = (   5.132588   0.000000   0.000000 )  
               a(2) = (   2.566294   4.444952   0.000000 )  
               a(3) = (   0.000000   0.000000  24.190741 )  

     reciprocal axes: (cart. coord. in units 2 pi/alat)
               b(1) = (  0.194833 -0.112487  0.000000 )  
               b(2) = (  0.000000  0.224974  0.000000 )  
               b(3) = (  0.000000  0.000000  0.041338 )  


     PseudoPot. # 1 for Cr read from file:
     /u/if/mamunm/psp/gbrv1.5pbe/Cr.UPF
     MD5 check sum: 0d52af634a40206e4dee301ad30da4bf
     Pseudo is Ultrasoft + core correction, Zval = 14.0
     Generated by new atomic code, or converted to UPF format
     Using radial grid of  857 points,  6 beta functions with: 
                l(1) =   0
                l(2) =   0
                l(3) =   1
                l(4) =   1
                l(5) =   2
                l(6) =   2
     Q(r) pseudized with  8 coefficients,  rinner =    0.950   0.950   0.950
                                                       0.950   0.950

     PseudoPot. # 2 for O  read from file:
     /u/if/mamunm/psp/gbrv1.5pbe/O.UPF
     MD5 check sum: 734c27235a0248c51dbae37a1fbe46ec
     Pseudo is Ultrasoft + core correction, Zval =  6.0
     Generated by new atomic code, or converted to UPF format
     Using radial grid of  737 points,  5 beta functions with: 
                l(1) =   0
                l(2) =   0
                l(3) =   1
                l(4) =   1
                l(5) =   2
     Q(r) pseudized with  8 coefficients,  rinner =    0.900   0.900   0.900
                                                       0.900   0.900

     PseudoPot. # 3 for H  read from file:
     /u/if/mamunm/psp/gbrv1.5pbe/H.UPF
     MD5 check sum: 761ae9a214b05c3daf00ab9f6b793d6f
     Pseudo is Ultrasoft, Zval =  1.0
     Generated by new atomic code, or converted to UPF format
     Using radial grid of  615 points,  2 beta functions with: 
                l(1) =   0
                l(2) =   0
     Q(r) pseudized with  8 coefficients,  rinner =    0.700

     vdW kernel table read from file vdW_kernel_table
     MD5 check sum: 095c7af220d748ca6e76c0b4c6cfb241

     atomic species   valence    mass     pseudopotential
        Cr1           14.00    51.99610     Cr( 1.00)
        O1             6.00    15.99900     O ( 1.00)
        H1             1.00     1.00800     H ( 1.00)

     No symmetry found



   Cartesian axes

     site n.     atom                  positions (alat units)
         1           Cr1 tau(   1) = (   1.2831471   0.7408253  10.0000000  )
         2           Cr1 tau(   2) = (   3.8494412   0.7408253  10.0000000  )
         3           Cr1 tau(   3) = (   2.5662941   2.9633012  10.0000000  )
         4           Cr1 tau(   4) = (   5.1325882   2.9633012  10.0000000  )
         5           Cr1 tau(   5) = (   5.1325882   1.4816506  12.0953704  )
         6           Cr1 tau(   6) = (   2.5662941   1.4816506  12.0953704  )
         7           Cr1 tau(   7) = (   6.4157353   3.7041265  12.0953704  )
         8           Cr1 tau(   8) = (   3.8494412   3.7041265  12.0953704  )
         9           Cr1 tau(   9) = (   0.0000000   0.0000000  14.1907408  )
        10           Cr1 tau(  10) = (   2.5662941   0.0000000  14.1907408  )
        11           Cr1 tau(  11) = (   1.2831471   2.2224759  14.1907408  )
        12           Cr1 tau(  12) = (   3.8494412   2.2224759  14.1907408  )
        13           O1  tau(  13) = (   0.0000000   0.0000000  15.9332408  )
        14           H1  tau(  14) = (   0.0000000   0.0000000  16.8832408  )

     number of k points=    20  Fermi-Dirac smearing, width (Ry)=  0.0110
                       cart. coord. in units 2pi/alat
        k(    1) = (   0.0000000   0.0000000   0.0000000), wk =   0.0555556
        k(    2) = (   0.0000000   0.0374957   0.0000000), wk =   0.1111111
        k(    3) = (   0.0000000   0.0749914   0.0000000), wk =   0.1111111
        k(    4) = (   0.0000000  -0.1124872   0.0000000), wk =   0.0555556
        k(    5) = (   0.0324722  -0.0187479   0.0000000), wk =   0.1111111
        k(    6) = (   0.0324722   0.0187479   0.0000000), wk =   0.1111111
        k(    7) = (   0.0324722   0.0562436   0.0000000), wk =   0.1111111
        k(    8) = (   0.0324722  -0.1312350   0.0000000), wk =   0.1111111
        k(    9) = (   0.0324722  -0.0937393   0.0000000), wk =   0.1111111
        k(   10) = (   0.0324722  -0.0562436   0.0000000), wk =   0.1111111
        k(   11) = (   0.0649445  -0.0374957   0.0000000), wk =   0.1111111
        k(   12) = (   0.0649445   0.0000000   0.0000000), wk =   0.1111111
        k(   13) = (   0.0649445   0.0374957   0.0000000), wk =   0.1111111
        k(   14) = (   0.0649445  -0.1499829   0.0000000), wk =   0.1111111
        k(   15) = (   0.0649445  -0.1124872   0.0000000), wk =   0.1111111
        k(   16) = (   0.0649445  -0.0749914   0.0000000), wk =   0.1111111
        k(   17) = (  -0.0974167   0.0562436   0.0000000), wk =   0.0555556
        k(   18) = (  -0.0974167   0.0937393   0.0000000), wk =   0.1111111
        k(   19) = (  -0.0974167   0.1312350   0.0000000), wk =   0.1111111
        k(   20) = (  -0.0974167  -0.0562436   0.0000000), wk =   0.0555556

     Dense  grid:   443253 G-vectors     FFT dimensions: (  60,  60, 288)

     Smooth grid:   112179 G-vectors     FFT dimensions: (  40,  40, 180)

     Largest allocated arrays     est. size (Mb)     dimensions
        Kohn-Sham Wavefunctions         2.65 Mb     (    1792,   97)
        NL pseudopotentials             6.32 Mb     (    1792,  231)
        Each V/rho on FFT grid          1.98 Mb     (  129600)
        Each G-vector array             0.42 Mb     (   55406)
        G-vector shells                 0.11 Mb     (   14836)
     Largest temporary arrays     est. size (Mb)     dimensions
        Auxiliary wavefunctions        10.61 Mb     (    1792,  388)
        Each subspace H/S matrix        2.30 Mb     (     388,  388)
        Each <psi_i|beta_j> matrix      0.34 Mb     (     231,   97)
        Arrays for rho mixing          19.78 Mb     (  129600,   10)

     Check: negative/imaginary core charge=   -0.000004    0.000000

     Initial potential from superposition of free atoms
     Check: negative starting charge=   -0.014838

     starting charge  162.99980, renormalised to  175.00000

     negative rho (up, down):  1.593E-02 0.000E+00


     ************************************************************************
     *
     * You are using vdW-DF for exchange-correlation in this calculation.
     * Please cite the following three references that made this development
     * possible:
     *
     *   M. Dion, H. Rydberg, E. Schroder, D. C. Langreth, and
     *   B. I. Lundqvist, Phys. Rev. Lett. 92, 246401 (2004).
     *
     *   T. Thonhauser, V. R. Cooper, S. Li, A. Puzder, P. Hyldgaard, and
     *   D. C. Langreth, Phys. Rev. B 76, 125112 (2007).
     *
     *   G. Roman-Perez and J. M. Soler, Phys. Rev. Lett. 103, 096102 (2009).
     *
     *
     * If you are using vdW-DF2, please also cite:
     *
     *   K. Lee, E. D. Murray, L. Kong, B. I. Lundqvist, and
     *   D. C. Langreth, Phys. Rev. B 82, 081101(R) (2010).
     *
     *
     * If you are calculating the stress with vdW-DF, please also cite:
     *
     *   R. Sabatini, E. Kucukbenli, B. Kolb, T. Thonhauser, and
     *   S. de Gironcoli, J. Phys.: Condens. Matter 24, 424209 (2012).
     *
     ************************************************************************

     Carrying out vdW-DF run using the following parameters:

     Nqs =      20    Nr_points =    1024   r_max =   100.000
     q_mesh =
               0.00001000     0.04494208     0.09755937     0.15916263
               0.23128650     0.31572767     0.41458969     0.53033537
               0.66584808     0.82450364     1.01025438     1.22772762
               1.48234092     1.78043706     2.12944203     2.53805004
               3.01644009     3.57652955     4.23227104     5.00000000

     Gradients computed in reciprocal space

     ************************************************************************


 
     Adding external electric field

     Computed dipole along edir(3) : 
        Dipole               -3.8696 Ry au,         -9.8356 Debye
        Dipole field         -0.0131 Ry au
 
        Potential amp.        1.1639 Ry
        Total length         44.5710 bohr
 
     Starting wfc are  125 randomized atomic wfcs

     total cpu time spent up to now is        8.3 secs

     per-process dynamical memory:    65.9 Mb

     Self-consistent Calculation

     iteration #  1     ecut=    36.75 Ry     beta=0.30
     Davidson diagonalization with overlap
     ethr =  1.00E-02,  avg # of iterations =  8.8

     negative rho (up, down):  1.710E-02 0.000E+00
 
     Adding external electric field

     Computed dipole along edir(3) : 
        Dipole               70.0817 Ry au,        178.1300 Debye
        Dipole field          0.2365 Ry au
 
        Potential amp.      -21.0789 Ry
        Total length         44.5710 bohr
 

     total cpu time spent up to now is       30.7 secs

     total energy              =   -1822.56740999 Ry
     Harris-Foulkes estimate   =   -2147.57549647 Ry
     estimated scf accuracy    <     677.31092625 Ry

     iteration #  2     ecut=    36.75 Ry     beta=0.30
     Davidson diagonalization with overlap
     ethr =  1.00E-02,  avg # of iterations = 18.8

     negative rho (up, down):  1.603E-02 0.000E+00
 
     Adding external electric field

     Computed dipole along edir(3) : 
        Dipole                6.0525 Ry au,         15.3840 Debye
        Dipole field          0.0204 Ry au
 
        Potential amp.       -1.8205 Ry
        Total length         44.5710 bohr
 

     total cpu time spent up to now is       79.0 secs

     total energy              =   -1729.70840488 Ry
     Harris-Foulkes estimate   =   -3317.08103153 Ry
     estimated scf accuracy    <   23121.08026039 Ry

     iteration #  3     ecut=    36.75 Ry     beta=0.30
     Davidson diagonalization with overlap
     ethr =  1.00E-02,  avg # of iterations = 14.8

     negative rho (up, down):  1.461E-02 0.000E+00
 
     Adding external electric field

     Computed dipole along edir(3) : 
        Dipole                8.9312 Ry au,         22.7009 Debye
        Dipole field          0.0301 Ry au
 
        Potential amp.       -2.6863 Ry
        Total length         44.5710 bohr
 

     total cpu time spent up to now is      111.5 secs

     total energy              =   -2045.53510675 Ry
     Harris-Foulkes estimate   =   -2427.98599103 Ry
     estimated scf accuracy    <    4753.52349840 Ry

     iteration #  4     ecut=    36.75 Ry     beta=0.30
     Davidson diagonalization with overlap
     ethr =  1.00E-02,  avg # of iterations =  8.0

     negative rho (up, down):  1.452E-02 0.000E+00
 
     Adding external electric field

     Computed dipole along edir(3) : 
        Dipole                5.2920 Ry au,         13.4509 Debye
        Dipole field          0.0179 Ry au
 
        Potential amp.       -1.5917 Ry
        Total length         44.5710 bohr
 

     total cpu time spent up to now is      136.6 secs

     total energy              =   -2152.50647208 Ry
     Harris-Foulkes estimate   =   -2181.89454853 Ry
     estimated scf accuracy    <     448.25747564 Ry

     iteration #  5     ecut=    36.75 Ry     beta=0.30
     Davidson diagonalization with overlap
     ethr =  1.00E-02,  avg # of iterations =  7.3

     negative rho (up, down):  1.481E-02 0.000E+00
 
     Adding external electric field

     Computed dipole along edir(3) : 
        Dipole                4.9018 Ry au,         12.4590 Debye
        Dipole field          0.0165 Ry au
 
        Potential amp.       -1.4743 Ry
        Total length         44.5710 bohr
 

     total cpu time spent up to now is      153.3 secs

     total energy              =   -2140.44504462 Ry
     Harris-Foulkes estimate   =   -2164.17765214 Ry
     estimated scf accuracy    <     442.93532482 Ry

     iteration #  6     ecut=    36.75 Ry     beta=0.30
     Davidson diagonalization with overlap
     ethr =  1.00E-02,  avg # of iterations =  9.9

     negative rho (up, down):  1.449E-02 0.000E+00
 
     Adding external electric field

     Computed dipole along edir(3) : 
        Dipole                4.6531 Ry au,         11.8271 Debye
        Dipole field          0.0157 Ry au
 
        Potential amp.       -1.3996 Ry
        Total length         44.5710 bohr
 

     total cpu time spent up to now is      173.9 secs

     total energy              =   -2150.19382149 Ry
     Harris-Foulkes estimate   =   -2155.26754872 Ry
     estimated scf accuracy    <     250.51563911 Ry

     iteration #  7     ecut=    36.75 Ry     beta=0.30
     Davidson diagonalization with overlap
     ethr =  1.00E-02,  avg # of iterations =  1.1

     negative rho (up, down):  1.410E-02 0.000E+00
 
     Adding external electric field

     Computed dipole along edir(3) : 
        Dipole                5.0771 Ry au,         12.9047 Debye
        Dipole field          0.0171 Ry au
 
        Potential amp.       -1.5271 Ry
        Total length         44.5710 bohr
 

     total cpu time spent up to now is      185.8 secs

     total energy              =   -2151.28188722 Ry
     Harris-Foulkes estimate   =   -2151.49347504 Ry
     estimated scf accuracy    <      42.53095889 Ry

     iteration #  8     ecut=    36.75 Ry     beta=0.30
     Davidson diagonalization with overlap
     ethr =  1.00E-02,  avg # of iterations =  5.9

     negative rho (up, down):  1.475E-02 0.000E+00
 
     Adding external electric field

     Computed dipole along edir(3) : 
        Dipole                4.4245 Ry au,         11.2460 Debye
        Dipole field          0.0149 Ry au
 
        Potential amp.       -1.3308 Ry
        Total length         44.5710 bohr
 

     total cpu time spent up to now is      200.0 secs

     total energy              =   -2151.91078974 Ry
     Harris-Foulkes estimate   =   -2152.53213000 Ry
     estimated scf accuracy    <      28.01870797 Ry

     iteration #  9     ecut=    36.75 Ry     beta=0.30
     Davidson diagonalization with overlap
     ethr =  1.00E-02,  avg # of iterations =  1.5

     negative rho (up, down):  1.516E-02 0.000E+00
 
     Adding external electric field

     Computed dipole along edir(3) : 
        Dipole                2.5768 Ry au,          6.5496 Debye
        Dipole field          0.0087 Ry au
 
        Potential amp.       -0.7750 Ry
        Total length         44.5710 bohr
 

     total cpu time spent up to now is      212.5 secs

     total energy              =   -2151.15282976 Ry
     Harris-Foulkes estimate   =   -2152.33709011 Ry
     estimated scf accuracy    <      45.64289251 Ry

     iteration # 10     ecut=    36.75 Ry     beta=0.30
     Davidson diagonalization with overlap
     ethr =  1.00E-02,  avg # of iterations =  6.7

     negative rho (up, down):  1.513E-02 0.000E+00
 
     Adding external electric field

     Computed dipole along edir(3) : 
        Dipole                2.1614 Ry au,          5.4938 Debye
        Dipole field          0.0073 Ry au
 
        Potential amp.       -0.6501 Ry
        Total length         44.5710 bohr
 

     total cpu time spent up to now is      228.1 secs

     total energy              =   -2153.14150778 Ry
     Harris-Foulkes estimate   =   -2154.38043937 Ry
     estimated scf accuracy    <     302.91167084 Ry

     iteration # 11     ecut=    36.75 Ry     beta=0.30
     Davidson diagonalization with overlap
     ethr =  1.00E-02,  avg # of iterations =  1.2

     negative rho (up, down):  1.505E-02 0.000E+00
 
     Adding external electric field

     Computed dipole along edir(3) : 
        Dipole                1.8223 Ry au,          4.6317 Debye
        Dipole field          0.0061 Ry au
 
        Potential amp.       -0.5481 Ry
        Total length         44.5710 bohr
 

     total cpu time spent up to now is      240.1 secs

     total energy              =   -2151.98484476 Ry
     Harris-Foulkes estimate   =   -2153.22975363 Ry
     estimated scf accuracy    <     284.81072333 Ry

     iteration # 12     ecut=    36.75 Ry     beta=0.30
     Davidson diagonalization with overlap
     ethr =  1.00E-02,  avg # of iterations =  1.0

     negative rho (up, down):  1.584E-02 0.000E+00
 
     Adding external electric field

     Computed dipole along edir(3) : 
        Dipole               -2.5534 Ry au,         -6.4902 Debye
        Dipole field         -0.0086 Ry au
 
        Potential amp.        0.7680 Ry
        Total length         44.5710 bohr
 

     total cpu time spent up to now is      251.9 secs

     total energy              =   -2144.57754257 Ry
     Harris-Foulkes estimate   =   -2152.04767364 Ry
     estimated scf accuracy    <     245.97801991 Ry

     iteration # 13     ecut=    36.75 Ry     beta=0.30
     Davidson diagonalization with overlap
     ethr =  1.00E-02,  avg # of iterations =  5.9

     negative rho (up, down):  1.521E-02 0.000E+00
 
     Adding external electric field

     Computed dipole along edir(3) : 
        Dipole                0.3525 Ry au,          0.8959 Debye
        Dipole field          0.0012 Ry au
 
        Potential amp.       -0.1060 Ry
        Total length         44.5710 bohr
 

     total cpu time spent up to now is      269.4 secs

     total energy              =   -2148.34843973 Ry
     Harris-Foulkes estimate   =   -2151.38645985 Ry
     estimated scf accuracy    <     126.87077937 Ry

     iteration # 14     ecut=    36.75 Ry     beta=0.30
     Davidson diagonalization with overlap
     ethr =  1.00E-02,  avg # of iterations =  4.8

     negative rho (up, down):  1.493E-02 0.000E+00
 
     Adding external electric field

     Computed dipole along edir(3) : 
        Dipole                0.2608 Ry au,          0.6629 Debye
        Dipole field          0.0009 Ry au
 
        Potential amp.       -0.0784 Ry
        Total length         44.5710 bohr
 

     total cpu time spent up to now is      283.6 secs

     total energy              =   -2148.09504028 Ry
     Harris-Foulkes estimate   =   -2151.09532684 Ry
     estimated scf accuracy    <     178.86918784 Ry

     iteration # 15     ecut=    36.75 Ry     beta=0.30
     Davidson diagonalization with overlap
     ethr =  1.00E-02,  avg # of iterations =  1.1

     negative rho (up, down):  1.480E-02 0.000E+00
 
     Adding external electric field

     Computed dipole along edir(3) : 
        Dipole                0.5807 Ry au,          1.4759 Debye
        Dipole field          0.0020 Ry au
 
        Potential amp.       -0.1746 Ry
        Total length         44.5710 bohr
 

     total cpu time spent up to now is      296.0 secs

     total energy              =   -2148.62456859 Ry
     Harris-Foulkes estimate   =   -2148.95038551 Ry
     estimated scf accuracy    <      21.03837542 Ry

     iteration # 16     ecut=    36.75 Ry     beta=0.30
     Davidson diagonalization with overlap
     ethr =  1.00E-02,  avg # of iterations =  1.0

     negative rho (up, down):  1.462E-02 0.000E+00
 
     Adding external electric field

     Computed dipole along edir(3) : 
        Dipole                0.8007 Ry au,          2.0353 Debye
        Dipole field          0.0027 Ry au
 
        Potential amp.       -0.2408 Ry
        Total length         44.5710 bohr
 

     total cpu time spent up to now is      308.3 secs

     total energy              =   -2148.68007573 Ry
     Harris-Foulkes estimate   =   -2148.74788671 Ry
     estimated scf accuracy    <       4.96958696 Ry

     iteration # 17     ecut=    36.75 Ry     beta=0.30
     Davidson diagonalization with overlap
     ethr =  2.84E-03,  avg # of iterations =  4.7

     negative rho (up, down):  1.436E-02 0.000E+00
 
     Adding external electric field

     Computed dipole along edir(3) : 
        Dipole                1.4088 Ry au,          3.5808 Debye
        Dipole field          0.0048 Ry au
 
        Potential amp.       -0.4237 Ry
        Total length         44.5710 bohr
 

     total cpu time spent up to now is      322.0 secs

     total energy              =   -2148.55214959 Ry
     Harris-Foulkes estimate   =   -2148.75153332 Ry
     estimated scf accuracy    <       4.17764616 Ry

     iteration # 18     ecut=    36.75 Ry     beta=0.30
     Davidson diagonalization with overlap
     ethr =  2.39E-03,  avg # of iterations =  5.6

     negative rho (up, down):  1.396E-02 0.000E+00
 
     Adding external electric field

     Computed dipole along edir(3) : 
        Dipole                1.8177 Ry au,          4.6202 Debye
        Dipole field          0.0061 Ry au
 
        Potential amp.       -0.5467 Ry
        Total length         44.5710 bohr
 

     total cpu time spent up to now is      336.6 secs

     total energy              =   -2148.60694814 Ry
     Harris-Foulkes estimate   =   -2148.78302613 Ry
     estimated scf accuracy    <       3.29546006 Ry

     iteration # 19     ecut=    36.75 Ry     beta=0.30
     Davidson diagonalization with overlap
     ethr =  1.88E-03,  avg # of iterations =  2.7

     negative rho (up, down):  1.388E-02 0.000E+00
 
     Adding external electric field

     Computed dipole along edir(3) : 
        Dipole                1.0174 Ry au,          2.5860 Debye
        Dipole field          0.0034 Ry au
 
        Potential amp.       -0.3060 Ry
        Total length         44.5710 bohr
 

     total cpu time spent up to now is      349.6 secs

     total energy              =   -2148.62168714 Ry
     Harris-Foulkes estimate   =   -2148.79998030 Ry
     estimated scf accuracy    <       1.18511319 Ry

     iteration # 20     ecut=    36.75 Ry     beta=0.30
     Davidson diagonalization with overlap
     ethr =  6.77E-04,  avg # of iterations =  6.0

     negative rho (up, down):  1.388E-02 0.000E+00
 
     Adding external electric field

     Computed dipole along edir(3) : 
        Dipole                1.3218 Ry au,          3.3597 Debye
        Dipole field          0.0045 Ry au
 
        Potential amp.       -0.3976 Ry
        Total length         44.5710 bohr
 

     total cpu time spent up to now is      364.9 secs

     total energy              =   -2148.54730965 Ry
     Harris-Foulkes estimate   =   -2148.80644234 Ry
     estimated scf accuracy    <      10.68989832 Ry

     iteration # 21     ecut=    36.75 Ry     beta=0.30
     Davidson diagonalization with overlap
     ethr =  6.77E-04,  avg # of iterations =  6.7

     negative rho (up, down):  1.380E-02 0.000E+00
 
     Adding external electric field

     Computed dipole along edir(3) : 
        Dipole                1.4232 Ry au,          3.6173 Debye
        Dipole field          0.0048 Ry au
 
        Potential amp.       -0.4281 Ry
        Total length         44.5710 bohr
 

     total cpu time spent up to now is      380.2 secs

     total energy              =   -2148.70236745 Ry
     Harris-Foulkes estimate   =   -2148.73940702 Ry
     estimated scf accuracy    <       1.55139302 Ry

     iteration # 22     ecut=    36.75 Ry     beta=0.30
     Davidson diagonalization with overlap
     ethr =  6.77E-04,  avg # of iterations =  2.0

     negative rho (up, down):  1.375E-02 0.000E+00
 
     Adding external electric field

     Computed dipole along edir(3) : 
        Dipole                1.2999 Ry au,          3.3039 Debye
        Dipole field          0.0044 Ry au
 
        Potential amp.       -0.3910 Ry
        Total length         44.5710 bohr
 

     total cpu time spent up to now is      393.2 secs

     total energy              =   -2148.69161681 Ry
     Harris-Foulkes estimate   =   -2148.73506659 Ry
     estimated scf accuracy    <       1.44905156 Ry

     iteration # 23     ecut=    36.75 Ry     beta=0.30
     Davidson diagonalization with overlap
     ethr =  6.77E-04,  avg # of iterations =  1.0

     negative rho (up, down):  1.367E-02 0.000E+00
 
     Adding external electric field

     Computed dipole along edir(3) : 
        Dipole                1.2467 Ry au,          3.1688 Debye
        Dipole field          0.0042 Ry au
 
        Potential amp.       -0.3750 Ry
        Total length         44.5710 bohr
 

     total cpu time spent up to now is      405.4 secs

     total energy              =   -2148.69086673 Ry
     Harris-Foulkes estimate   =   -2148.71116029 Ry
     estimated scf accuracy    <       0.38443226 Ry

     iteration # 24     ecut=    36.75 Ry     beta=0.30
     Davidson diagonalization with overlap
     ethr =  2.20E-04,  avg # of iterations =  3.0

     negative rho (up, down):  2.064E-02 0.000E+00
 
     Adding external electric field

     Computed dipole along edir(3) : 
        Dipole                0.7450 Ry au,          1.8937 Debye
        Dipole field          0.0025 Ry au
 
        Potential amp.       -0.2241 Ry
        Total length         44.5710 bohr
 

     total cpu time spent up to now is      419.1 secs

     total energy              =   -2148.65528546 Ry
     Harris-Foulkes estimate   =   -2148.70223046 Ry
     estimated scf accuracy    <       0.18274823 Ry

     iteration # 25     ecut=    36.75 Ry     beta=0.30
     Davidson diagonalization with overlap
     ethr =  1.04E-04,  avg # of iterations =  6.0

     negative rho (up, down):  2.990E-02 0.000E+00
 
     Adding external electric field

     Computed dipole along edir(3) : 
        Dipole                0.6732 Ry au,          1.7112 Debye
        Dipole field          0.0023 Ry au
 
        Potential amp.       -0.2025 Ry
        Total length         44.5710 bohr
 

     total cpu time spent up to now is      435.9 secs

     total energy              =   -2148.65838314 Ry
     Harris-Foulkes estimate   =   -2148.70274613 Ry
     estimated scf accuracy    <       0.72234962 Ry

     iteration # 26     ecut=    36.75 Ry     beta=0.30
     Davidson diagonalization with overlap
     ethr =  1.04E-04,  avg # of iterations =  4.7

     negative rho (up, down):  3.420E-02 0.000E+00
 
     Adding external electric field

     Computed dipole along edir(3) : 
        Dipole                0.6770 Ry au,          1.7208 Debye
        Dipole field          0.0023 Ry au
 
        Potential amp.       -0.2036 Ry
        Total length         44.5710 bohr
 

     total cpu time spent up to now is      449.7 secs

     total energy              =   -2148.66876736 Ry
     Harris-Foulkes estimate   =   -2148.67700331 Ry
     estimated scf accuracy    <       0.26042521 Ry

     iteration # 27     ecut=    36.75 Ry     beta=0.30
     Davidson diagonalization with overlap
     ethr =  1.04E-04,  avg # of iterations =  4.0

     negative rho (up, down):  2.600E-02 0.000E+00
 
     Adding external electric field

     Computed dipole along edir(3) : 
        Dipole                0.6677 Ry au,          1.6971 Debye
        Dipole field          0.0023 Ry au
 
        Potential amp.       -0.2008 Ry
        Total length         44.5710 bohr
 

     total cpu time spent up to now is      463.4 secs

     total energy              =   -2148.67063369 Ry
     Harris-Foulkes estimate   =   -2148.67883184 Ry
     estimated scf accuracy    <       0.09940419 Ry

     iteration # 28     ecut=    36.75 Ry     beta=0.30
     Davidson diagonalization with overlap
     ethr =  5.68E-05,  avg # of iterations =  5.6

     negative rho (up, down):  1.950E-02 0.000E+00
 
     Adding external electric field

     Computed dipole along edir(3) : 
        Dipole                0.6570 Ry au,          1.6699 Debye
        Dipole field          0.0022 Ry au
 
        Potential amp.       -0.1976 Ry
        Total length         44.5710 bohr
 

     total cpu time spent up to now is      478.8 secs

     total energy              =   -2148.67275585 Ry
     Harris-Foulkes estimate   =   -2148.68240564 Ry
     estimated scf accuracy    <       0.17781297 Ry

     iteration # 29     ecut=    36.75 Ry     beta=0.30
     Davidson diagonalization with overlap
     ethr =  5.68E-05,  avg # of iterations =  1.9

     negative rho (up, down):  1.403E-02 0.000E+00
 
     Adding external electric field

     Computed dipole along edir(3) : 
        Dipole                0.6050 Ry au,          1.5377 Debye
        Dipole field          0.0020 Ry au
 
        Potential amp.       -0.1820 Ry
        Total length         44.5710 bohr
 

     total cpu time spent up to now is      491.5 secs

     total energy              =   -2148.67319076 Ry
     Harris-Foulkes estimate   =   -2148.67785923 Ry
     estimated scf accuracy    <       0.05021324 Ry

     iteration # 30     ecut=    36.75 Ry     beta=0.30
     Davidson diagonalization with overlap
     ethr =  2.87E-05,  avg # of iterations =  5.5

     negative rho (up, down):  1.857E-02 0.000E+00
 
     Adding external electric field

     Computed dipole along edir(3) : 
        Dipole                0.5925 Ry au,          1.5060 Debye
        Dipole field          0.0020 Ry au
 
        Potential amp.       -0.1782 Ry
        Total length         44.5710 bohr
 

     total cpu time spent up to now is      508.4 secs

     total energy              =   -2148.66862181 Ry
     Harris-Foulkes estimate   =   -2148.68647638 Ry
     estimated scf accuracy    <       0.26070891 Ry

     iteration # 31     ecut=    36.75 Ry     beta=0.30
     Davidson diagonalization with overlap
     ethr =  2.87E-05,  avg # of iterations =  5.2

     negative rho (up, down):  1.881E-02 0.000E+00
 
     Adding external electric field

     Computed dipole along edir(3) : 
        Dipole                0.5749 Ry au,          1.4612 Debye
        Dipole field          0.0019 Ry au
 
        Potential amp.       -0.1729 Ry
        Total length         44.5710 bohr
 

     total cpu time spent up to now is      523.2 secs

     total energy              =   -2148.67377936 Ry
     Harris-Foulkes estimate   =   -2148.67600775 Ry
     estimated scf accuracy    <       0.03788935 Ry

     iteration # 32     ecut=    36.75 Ry     beta=0.30
     Davidson diagonalization with overlap
     ethr =  2.17E-05,  avg # of iterations =  5.0

     negative rho (up, down):  1.896E-02 0.000E+00
 
     Adding external electric field

     Computed dipole along edir(3) : 
        Dipole                0.5563 Ry au,          1.4140 Debye
        Dipole field          0.0019 Ry au
 
        Potential amp.       -0.1673 Ry
        Total length         44.5710 bohr
 

     total cpu time spent up to now is      538.0 secs

     total energy              =   -2148.67539760 Ry
     Harris-Foulkes estimate   =   -2148.67715799 Ry
     estimated scf accuracy    <       0.02156536 Ry

     iteration # 33     ecut=    36.75 Ry     beta=0.30
     Davidson diagonalization with overlap
     ethr =  1.23E-05,  avg # of iterations =  1.9

     negative rho (up, down):  1.873E-02 0.000E+00
 
     Adding external electric field

     Computed dipole along edir(3) : 
        Dipole                0.5038 Ry au,          1.2804 Debye
        Dipole field          0.0017 Ry au
 
        Potential amp.       -0.1515 Ry
        Total length         44.5710 bohr
 

     total cpu time spent up to now is      551.0 secs

     total energy              =   -2148.67553062 Ry
     Harris-Foulkes estimate   =   -2148.67632415 Ry
     estimated scf accuracy    <       0.00463596 Ry

     iteration # 34     ecut=    36.75 Ry     beta=0.30
     Davidson diagonalization with overlap
     ethr =  2.65E-06,  avg # of iterations =  5.8

     negative rho (up, down):  1.829E-02 0.000E+00
 
     Adding external electric field

     Computed dipole along edir(3) : 
        Dipole                0.4921 Ry au,          1.2507 Debye
        Dipole field          0.0017 Ry au
 
        Potential amp.       -0.1480 Ry
        Total length         44.5710 bohr
 

     total cpu time spent up to now is      568.5 secs

     total energy              =   -2148.67614785 Ry
     Harris-Foulkes estimate   =   -2148.67662583 Ry
     estimated scf accuracy    <       0.01079276 Ry

     iteration # 35     ecut=    36.75 Ry     beta=0.30
     Davidson diagonalization with overlap
     ethr =  2.65E-06,  avg # of iterations =  1.0

     negative rho (up, down):  1.670E-02 0.000E+00
 
     Adding external electric field

     Computed dipole along edir(3) : 
        Dipole                0.4948 Ry au,          1.2577 Debye
        Dipole field          0.0017 Ry au
 
        Potential amp.       -0.1488 Ry
        Total length         44.5710 bohr
 

     total cpu time spent up to now is      580.8 secs

     total energy              =   -2148.67598586 Ry
     Harris-Foulkes estimate   =   -2148.67630480 Ry
     estimated scf accuracy    <       0.00571151 Ry

     iteration # 36     ecut=    36.75 Ry     beta=0.30
     Davidson diagonalization with overlap
     ethr =  2.65E-06,  avg # of iterations =  4.4

     negative rho (up, down):  1.677E-02 0.000E+00
 
     Adding external electric field

     Computed dipole along edir(3) : 
        Dipole                0.5013 Ry au,          1.2742 Debye
        Dipole field          0.0017 Ry au
 
        Potential amp.       -0.1508 Ry
        Total length         44.5710 bohr
 

     total cpu time spent up to now is      594.9 secs

     total energy              =   -2148.67591677 Ry
     Harris-Foulkes estimate   =   -2148.67632042 Ry
     estimated scf accuracy    <       0.01538707 Ry

     iteration # 37     ecut=    36.75 Ry     beta=0.30
     Davidson diagonalization with overlap
     ethr =  2.65E-06,  avg # of iterations =  1.4

     negative rho (up, down):  1.565E-02 0.000E+00
 
     Adding external electric field

     Computed dipole along edir(3) : 
        Dipole                0.4912 Ry au,          1.2486 Debye
        Dipole field          0.0017 Ry au
 
        Potential amp.       -0.1477 Ry
        Total length         44.5710 bohr
 

     total cpu time spent up to now is      607.5 secs

     total energy              =   -2148.67603469 Ry
     Harris-Foulkes estimate   =   -2148.67619564 Ry
     estimated scf accuracy    <       0.00166419 Ry

     iteration # 38     ecut=    36.75 Ry     beta=0.30
     Davidson diagonalization with overlap
     ethr =  9.51E-07,  avg # of iterations =  5.5

     negative rho (up, down):  1.561E-02 0.000E+00
 
     Adding external electric field

     Computed dipole along edir(3) : 
        Dipole                0.4889 Ry au,          1.2425 Debye
        Dipole field          0.0016 Ry au
 
        Potential amp.       -0.1470 Ry
        Total length         44.5710 bohr
 

     total cpu time spent up to now is      623.6 secs

     total energy              =   -2148.67611673 Ry
     Harris-Foulkes estimate   =   -2148.67631402 Ry
     estimated scf accuracy    <       0.00428141 Ry

     iteration # 39     ecut=    36.75 Ry     beta=0.30
     Davidson diagonalization with overlap
     ethr =  9.51E-07,  avg # of iterations =  2.9

     negative rho (up, down):  1.561E-02 0.000E+00
 
     Adding external electric field

     Computed dipole along edir(3) : 
        Dipole                0.4903 Ry au,          1.2463 Debye
        Dipole field          0.0017 Ry au
 
        Potential amp.       -0.1475 Ry
        Total length         44.5710 bohr
 

     total cpu time spent up to now is      637.1 secs

     total energy              =   -2148.67604803 Ry
     Harris-Foulkes estimate   =   -2148.67620742 Ry
     estimated scf accuracy    <       0.00362169 Ry

     iteration # 40     ecut=    36.75 Ry     beta=0.30
     Davidson diagonalization with overlap
     ethr =  9.51E-07,  avg # of iterations =  5.4

     negative rho (up, down):  1.539E-02 0.000E+00
 
     Adding external electric field

     Computed dipole along edir(3) : 
        Dipole                0.4838 Ry au,          1.2298 Debye
        Dipole field          0.0016 Ry au
 
        Potential amp.       -0.1455 Ry
        Total length         44.5710 bohr
 

     total cpu time spent up to now is      652.2 secs

     total energy              =   -2148.67609672 Ry
     Harris-Foulkes estimate   =   -2148.67629102 Ry
     estimated scf accuracy    <       0.00334882 Ry

     iteration # 41     ecut=    36.75 Ry     beta=0.30
     Davidson diagonalization with overlap
     ethr =  9.51E-07,  avg # of iterations =  1.0

     negative rho (up, down):  1.491E-02 0.000E+00
 
     Adding external electric field

     Computed dipole along edir(3) : 
        Dipole                0.4744 Ry au,          1.2059 Debye
        Dipole field          0.0016 Ry au
 
        Potential amp.       -0.1427 Ry
        Total length         44.5710 bohr
 

     total cpu time spent up to now is      664.5 secs

     total energy              =   -2148.67615421 Ry
     Harris-Foulkes estimate   =   -2148.67619836 Ry
     estimated scf accuracy    <       0.00057617 Ry

     iteration # 42     ecut=    36.75 Ry     beta=0.30
     Davidson diagonalization with overlap
     ethr =  3.29E-07,  avg # of iterations =  5.2

     negative rho (up, down):  1.482E-02 0.000E+00
 
     Adding external electric field

     Computed dipole along edir(3) : 
        Dipole                0.4726 Ry au,          1.2013 Debye
        Dipole field          0.0016 Ry au
 
        Potential amp.       -0.1421 Ry
        Total length         44.5710 bohr
 

     total cpu time spent up to now is      680.6 secs

     total energy              =   -2148.67620386 Ry
     Harris-Foulkes estimate   =   -2148.67623825 Ry
     estimated scf accuracy    <       0.00066422 Ry

     iteration # 43     ecut=    36.75 Ry     beta=0.30
     Davidson diagonalization with overlap
     ethr =  3.29E-07,  avg # of iterations =  1.0

     negative rho (up, down):  1.457E-02 0.000E+00
 
     Adding external electric field

     Computed dipole along edir(3) : 
        Dipole                0.4678 Ry au,          1.1889 Debye
        Dipole field          0.0016 Ry au
 
        Potential amp.       -0.1407 Ry
        Total length         44.5710 bohr
 

     total cpu time spent up to now is      692.9 secs

     total energy              =   -2148.67619351 Ry
     Harris-Foulkes estimate   =   -2148.67622953 Ry
     estimated scf accuracy    <       0.00036902 Ry

     iteration # 44     ecut=    36.75 Ry     beta=0.30
     Davidson diagonalization with overlap
     ethr =  2.11E-07,  avg # of iterations =  4.7

     negative rho (up, down):  1.465E-02 0.000E+00
 
     Adding external electric field

     Computed dipole along edir(3) : 
        Dipole                0.4703 Ry au,          1.1953 Debye
        Dipole field          0.0016 Ry au
 
        Potential amp.       -0.1414 Ry
        Total length         44.5710 bohr
 

     total cpu time spent up to now is      707.9 secs

     total energy              =   -2148.67619968 Ry
     Harris-Foulkes estimate   =   -2148.67621862 Ry
     estimated scf accuracy    <       0.00025357 Ry

     iteration # 45     ecut=    36.75 Ry     beta=0.30
     Davidson diagonalization with overlap
     ethr =  1.45E-07,  avg # of iterations =  5.5

     negative rho (up, down):  1.474E-02 0.000E+00
 
     Adding external electric field

     Computed dipole along edir(3) : 
        Dipole                0.4727 Ry au,          1.2014 Debye
        Dipole field          0.0016 Ry au
 
        Potential amp.       -0.1422 Ry
        Total length         44.5710 bohr
 

     total cpu time spent up to now is      724.0 secs

     total energy              =   -2148.67617821 Ry
     Harris-Foulkes estimate   =   -2148.67624536 Ry
     estimated scf accuracy    <       0.00114081 Ry

     iteration # 46     ecut=    36.75 Ry     beta=0.30
     Davidson diagonalization with overlap
     ethr =  1.45E-07,  avg # of iterations =  4.7

     negative rho (up, down):  1.464E-02 0.000E+00
 
     Adding external electric field

     Computed dipole along edir(3) : 
        Dipole                0.4707 Ry au,          1.1964 Debye
        Dipole field          0.0016 Ry au
 
        Potential amp.       -0.1416 Ry
        Total length         44.5710 bohr
 

     total cpu time spent up to now is      738.0 secs

     total energy              =   -2148.67620216 Ry
     Harris-Foulkes estimate   =   -2148.67621321 Ry
     estimated scf accuracy    <       0.00023997 Ry

     iteration # 47     ecut=    36.75 Ry     beta=0.30
     Davidson diagonalization with overlap
     ethr =  1.37E-07,  avg # of iterations =  2.1

     negative rho (up, down):  1.465E-02 0.000E+00
 
     Adding external electric field

     Computed dipole along edir(3) : 
        Dipole                0.4700 Ry au,          1.1947 Debye
        Dipole field          0.0016 Ry au
 
        Potential amp.       -0.1414 Ry
        Total length         44.5710 bohr
 

     total cpu time spent up to now is      750.8 secs

     total energy              =   -2148.67620421 Ry
     Harris-Foulkes estimate   =   -2148.67621186 Ry
     estimated scf accuracy    <       0.00010812 Ry

     iteration # 48     ecut=    36.75 Ry     beta=0.30
     Davidson diagonalization with overlap
     ethr =  6.18E-08,  avg # of iterations =  6.1

     negative rho (up, down):  1.463E-02 0.000E+00
 
     Adding external electric field

     Computed dipole along edir(3) : 
        Dipole                0.4707 Ry au,          1.1963 Debye
        Dipole field          0.0016 Ry au
 
        Potential amp.       -0.1416 Ry
        Total length         44.5710 bohr
 

     total cpu time spent up to now is      767.1 secs

     total energy              =   -2148.67621097 Ry
     Harris-Foulkes estimate   =   -2148.67621903 Ry
     estimated scf accuracy    <       0.00037091 Ry

     iteration # 49     ecut=    36.75 Ry     beta=0.30
     Davidson diagonalization with overlap
     ethr =  6.18E-08,  avg # of iterations =  1.1

     negative rho (up, down):  1.460E-02 0.000E+00
 
     Adding external electric field

     Computed dipole along edir(3) : 
        Dipole                0.4700 Ry au,          1.1947 Debye
        Dipole field          0.0016 Ry au
 
        Potential amp.       -0.1414 Ry
        Total length         44.5710 bohr
 

     total cpu time spent up to now is      779.4 secs

     total energy              =   -2148.67621470 Ry
     Harris-Foulkes estimate   =   -2148.67621723 Ry
     estimated scf accuracy    <       0.00003463 Ry

     iteration # 50     ecut=    36.75 Ry     beta=0.30
     Davidson diagonalization with overlap
     ethr =  1.98E-08,  avg # of iterations =  5.5

     negative rho (up, down):  1.460E-02 0.000E+00
 
     Adding external electric field

     Computed dipole along edir(3) : 
        Dipole                0.4703 Ry au,          1.1953 Debye
        Dipole field          0.0016 Ry au
 
        Potential amp.       -0.1414 Ry
        Total length         44.5710 bohr
 

     total cpu time spent up to now is      794.6 secs

     total energy              =   -2148.67621624 Ry
     Harris-Foulkes estimate   =   -2148.67621712 Ry
     estimated scf accuracy    <       0.00003159 Ry

     iteration # 51     ecut=    36.75 Ry     beta=0.30
     Davidson diagonalization with overlap
     ethr =  1.81E-08,  avg # of iterations =  1.1

     negative rho (up, down):  1.458E-02 0.000E+00
 
     Adding external electric field

     Computed dipole along edir(3) : 
        Dipole                0.4697 Ry au,          1.1938 Debye
        Dipole field          0.0016 Ry au
 
        Potential amp.       -0.1413 Ry
        Total length         44.5710 bohr
 

     total cpu time spent up to now is      807.0 secs

     total energy              =   -2148.67621675 Ry
     Harris-Foulkes estimate   =   -2148.67621942 Ry
     estimated scf accuracy    <       0.00002298 Ry

     iteration # 52     ecut=    36.75 Ry     beta=0.30
     Davidson diagonalization with overlap
     ethr =  1.31E-08,  avg # of iterations =  1.4

     negative rho (up, down):  1.458E-02 0.000E+00
 
     Adding external electric field

     Computed dipole along edir(3) : 
        Dipole                0.4701 Ry au,          1.1948 Debye
        Dipole field          0.0016 Ry au
 
        Potential amp.       -0.1414 Ry
        Total length         44.5710 bohr
 

     total cpu time spent up to now is      819.6 secs

     total energy              =   -2148.67621694 Ry
     Harris-Foulkes estimate   =   -2148.67621650 Ry
     estimated scf accuracy    <       0.00001592 Ry

     iteration # 53     ecut=    36.75 Ry     beta=0.30
     Davidson diagonalization with overlap
     ethr =  9.10E-09,  avg # of iterations =  1.8

     negative rho (up, down):  1.447E-02 0.000E+00

     negative rho (up, down):  1.447E-02 0.000E+00

     negative rho (up, down):  1.447E-02 0.000E+00

     negative rho (up, down):  1.447E-02 0.000E+00

     negative rho (up, down):  1.447E-02 0.000E+00

     negative rho (up, down):  1.447E-02 0.000E+00

     negative rho (up, down):  1.447E-02 0.000E+00

     negative rho (up, down):  1.447E-02 0.000E+00

     negative rho (up, down):  1.447E-02 0.000E+00

     negative rho (up, down):  1.447E-02 0.000E+00

     negative rho (up, down):  1.447E-02 0.000E+00

     negative rho (up, down):  1.447E-02 0.000E+00

     negative rho (up, down):  1.447E-02 0.000E+00

     negative rho (up, down):  1.447E-02 0.000E+00

     negative rho (up, down):  1.447E-02 0.000E+00

     negative rho (up, down):  1.447E-02 0.000E+00

     negative rho (up, down):  1.447E-02 0.000E+00

     negative rho (up, down):  1.447E-02 0.000E+00

     negative rho (up, down):  1.447E-02 0.000E+00

     negative rho (up, down):  1.447E-02 0.000E+00

     negative rho (up, down):  1.447E-02 0.000E+00

     negative rho (up, down):  1.447E-02 0.000E+00

     negative rho (up, down):  1.447E-02 0.000E+00

     negative rho (up, down):  1.447E-02 0.000E+00

     negative rho (up, down):  1.447E-02 0.000E+00

     negative rho (up, down):  1.447E-02 0.000E+00

     negative rho (up, down):  1.447E-02 0.000E+00

     negative rho (up, down):  1.447E-02 0.000E+00

     negative rho (up, down):  1.447E-02 0.000E+00

     negative rho (up, down):  1.447E-02 0.000E+00

     negative rho (up, down):  1.447E-02 0.000E+00

     negative rho (up, down):  1.447E-02 0.000E+00

     negative rho (up, down):  1.447E-02 0.000E+00

     negative rho (up, down):  1.447E-02 0.000E+00

     negative rho (up, down):  1.447E-02 0.000E+00
 
     Adding external electric field

     Computed dipole along edir(3) : 
        Dipole                0.4565 Ry au,          1.1602 Debye
        Dipole field          0.0015 Ry au
 
        Potential amp.       -0.1373 Ry
        Total length         44.5710 bohr
 

     total cpu time spent up to now is      867.1 secs

     End of self-consistent calculation

          k = 0.0000 0.0000 0.0000 ( 14081 PWs)   bands (ev):

   -69.9465 -69.6739 -69.5621 -69.5356 -69.5321 -69.5312 -69.5134 -69.4480
   -69.4472 -69.4364 -69.4324 -69.4320 -41.6509 -41.3172 -41.3171 -41.2632
   -41.2630 -41.2507 -41.1847 -41.1164 -41.1056 -41.1054 -41.0756 -40.8951
   -40.8405 -40.8404 -40.8326 -40.8202 -40.8198 -40.7798 -40.7797 -40.7633
   -40.7225 -40.7184 -40.7182 -40.6768 -40.6765 -40.6424 -40.6279 -40.6016
   -40.6016 -40.5778 -40.5775 -40.5774 -40.5078 -40.5074 -40.4455 -40.4454
   -18.8375  -7.2018  -4.6171  -2.9349  -2.8845  -2.8844  -1.9302  -1.6070
    -1.5560  -1.5559  -1.3240  -1.3240  -1.2634  -0.8690  -0.8680  -0.8680
    -0.7748  -0.7747  -0.7606   0.1093   0.3057   0.3058   1.0761   1.1143
     1.1864   1.1865   1.3360   1.6047   1.6047   1.6521   1.7758   1.7758
     1.8545   1.8545   1.8840   1.8915   1.8917   1.9564   1.9564   2.1834
     2.5756   2.6828   2.8117   2.8118   2.9530   2.9720   2.9720   3.2259
     3.2259

          k = 0.0000 0.0375 0.0000 ( 14040 PWs)   bands (ev):

   -69.9454 -69.6663 -69.5649 -69.5376 -69.5321 -69.5294 -69.5088 -69.4526
   -69.4473 -69.4403 -69.4345 -69.4321 -41.6485 -41.2981 -41.2842 -41.2434
   -41.2353 -41.2228 -41.1668 -41.1012 -41.0854 -41.0771 -41.0469 -40.9000
   -40.8743 -40.8638 -40.8389 -40.8111 -40.8092 -40.7843 -40.7772 -40.7608
   -40.7515 -40.7219 -40.7081 -40.6832 -40.6739 -40.6513 -40.6328 -40.6327
   -40.6108 -40.5998 -40.5983 -40.5697 -40.5418 -40.5150 -40.4846 -40.4544
   -18.8369  -7.1954  -4.3864  -2.9753  -2.8818  -2.6301  -1.7138  -1.5901
    -1.4583  -1.4333  -1.3360  -1.1946  -1.1495  -0.7949  -0.7504  -0.7459
    -0.6347  -0.5912  -0.5842   0.1536   0.3212   0.3241   0.9836   1.1464
     1.2390   1.2438   1.2928   1.4162   1.5136   1.5620   1.6893   1.7355
     1.7517   1.8621   1.8850   1.8864   1.9095   1.9420   1.9822   2.1025
     2.3164   2.4048   2.5600   2.6206   2.8729   2.8914   2.9425   3.1281
     3.1289

          k = 0.0000 0.0750 0.0000 ( 14026 PWs)   bands (ev):

   -69.9432 -69.6461 -69.5794 -69.5446 -69.5322 -69.5143 -69.4968 -69.4655
   -69.4557 -69.4473 -69.4350 -69.4321 -41.6438 -41.2550 -41.2057 -41.1962
   -41.1760 -41.1482 -41.1145 -41.0657 -41.0388 -41.0257 -40.9834 -40.9238
   -40.9146 -40.8957 -40.8445 -40.8319 -40.7991 -40.7910 -40.7774 -40.7762
   -40.7537 -40.7367 -40.7289 -40.7117 -40.6964 -40.6784 -40.6580 -40.6569
   -40.6399 -40.6319 -40.6277 -40.6276 -40.5740 -40.5473 -40.5309 -40.4789
   -18.8357  -7.1836  -3.7413  -2.9903  -2.8773  -2.0427  -1.9579  -1.2809
    -1.1580  -1.1204  -1.1141  -0.8983  -0.8589  -0.5925  -0.4325  -0.4157
    -0.2935  -0.1427  -0.1349   0.2679   0.3608   0.4123   0.6347   0.9120
     1.0123   1.0410   1.1348   1.1977   1.3779   1.4266   1.4799   1.5123
     1.5715   1.6552   1.6623   1.7891   1.8966   2.0139   2.0406   2.0900
     2.1213   2.1406   2.1687   2.2615   2.3085   2.4482   2.5219   2.7169
     2.8009

          k = 0.0000-0.1125 0.0000 ( 14010 PWs)   bands (ev):

   -69.9421 -69.6278 -69.5966 -69.5465 -69.5323 -69.5004 -69.4841 -69.4789
   -69.4696 -69.4473 -69.4350 -69.4320 -41.6415 -41.2303 -41.1649 -41.1533
   -41.1375 -41.1068 -41.0632 -41.0336 -41.0090 -41.0057 -40.9889 -40.9601
   -40.9511 -40.8814 -40.8183 -40.7975 -40.7907 -40.7868 -40.7787 -40.7766
   -40.7745 -40.7674 -40.7505 -40.7457 -40.7256 -40.7205 -40.7014 -40.6914
   -40.6567 -40.6401 -40.6305 -40.6304 -40.6209 -40.5435 -40.5133 -40.5105
   -18.8351  -7.1781  -3.0955  -2.8755  -2.7746  -2.7506  -1.4522  -1.3967
    -0.8252  -0.8176  -0.8046  -0.7893  -0.6418  -0.5547  -0.1136  -0.0920
     0.0147   0.0445   0.0996   0.1875   0.5431   0.5642   0.6034   0.6525
     0.7051   0.7114   0.9953   1.0474   1.1303   1.2523   1.2623   1.3388
     1.4234   1.4743   1.5092   1.5575   1.6706   1.7527   1.7621   1.8238
     1.8551   2.1402   2.1932   2.1952   2.5755   2.6327   2.6843   2.7110
     2.7344

          k = 0.0325-0.0187 0.0000 ( 14040 PWs)   bands (ev):

   -69.9454 -69.6663 -69.5647 -69.5383 -69.5314 -69.5295 -69.5089 -69.4524
   -69.4475 -69.4404 -69.4341 -69.4324 -41.6485 -41.2981 -41.2842 -41.2436
   -41.2350 -41.2230 -41.1668 -41.1012 -41.0852 -41.0773 -41.0469 -40.9000
   -40.8741 -40.8637 -40.8391 -40.8111 -40.8092 -40.7843 -40.7770 -40.7610
   -40.7516 -40.7219 -40.7081 -40.6830 -40.6739 -40.6514 -40.6329 -40.6327
   -40.6107 -40.5997 -40.5985 -40.5696 -40.5417 -40.5152 -40.4846 -40.4545
   -18.8369  -7.1954  -4.3864  -2.9753  -2.8818  -2.6301  -1.7138  -1.5902
    -1.4582  -1.4334  -1.3360  -1.1946  -1.1495  -0.7949  -0.7504  -0.7459
    -0.6347  -0.5911  -0.5842   0.1536   0.3211   0.3242   0.9836   1.1465
     1.2390   1.2438   1.2928   1.4162   1.5135   1.5620   1.6893   1.7355
     1.7517   1.8621   1.8851   1.8864   1.9094   1.9420   1.9822   2.1025
     2.3165   2.4049   2.5601   2.6205   2.8727   2.8914   2.9425   3.1282
     3.1289

          k = 0.0325 0.0187 0.0000 ( 14040 PWs)   bands (ev):

   -69.9454 -69.6663 -69.5648 -69.5381 -69.5316 -69.5295 -69.5089 -69.4518
   -69.4480 -69.4403 -69.4345 -69.4320 -41.6485 -41.2980 -41.2843 -41.2435
   -41.2350 -41.2230 -41.1668 -41.1012 -41.0854 -41.0771 -41.0469 -40.9001
   -40.8740 -40.8639 -40.8390 -40.8111 -40.8092 -40.7842 -40.7772 -40.7608
   -40.7516 -40.7220 -40.7082 -40.6830 -40.6739 -40.6513 -40.6329 -40.6326
   -40.6108 -40.5998 -40.5983 -40.5696 -40.5415 -40.5154 -40.4846 -40.4544
   -18.8369  -7.1954  -4.3864  -2.9753  -2.8817  -2.6301  -1.7138  -1.5901
    -1.4583  -1.4333  -1.3360  -1.1946  -1.1495  -0.7949  -0.7504  -0.7459
    -0.6347  -0.5911  -0.5842   0.1536   0.3211   0.3242   0.9836   1.1465
     1.2390   1.2438   1.2928   1.4162   1.5136   1.5619   1.6892   1.7355
     1.7517   1.8621   1.8851   1.8865   1.9094   1.9419   1.9822   2.1025
     2.3165   2.4049   2.5601   2.6205   2.8728   2.8914   2.9425   3.1282
     3.1288

          k = 0.0325 0.0562 0.0000 ( 14027 PWs)   bands (ev):

   -69.9438 -69.6523 -69.5718 -69.5487 -69.5291 -69.5191 -69.5005 -69.4605
   -69.4486 -69.4460 -69.4436 -69.4279 -41.6449 -41.2646 -41.2283 -41.2104
   -41.1807 -41.1786 -41.1339 -41.0746 -41.0539 -41.0323 -40.9968 -40.9136
   -40.9094 -40.8973 -40.8421 -40.8358 -40.8050 -40.7827 -40.7742 -40.7616
   -40.7584 -40.7294 -40.7219 -40.6921 -40.6868 -40.6783 -40.6663 -40.6526
   -40.6376 -40.6257 -40.5959 -40.5809 -40.5795 -40.5476 -40.5313 -40.4740
   -18.8360  -7.1864  -3.9461  -2.9810  -2.8874  -2.2135  -1.5755  -1.5575
    -1.3116  -1.2140  -1.1808  -1.1352  -0.7848  -0.5941  -0.5858  -0.5021
    -0.3603  -0.3340  -0.2559   0.2342   0.3427   0.3657   0.7699   1.0724
     1.0753   1.1382   1.1805   1.2378   1.2975   1.4777   1.5418   1.5845
     1.6803   1.6868   1.7705   1.8410   1.8622   2.0059   2.0404   2.1142
     2.1703   2.1913   2.2791   2.4055   2.4443   2.5566   2.5930   2.7938
     2.8609

          k = 0.0325-0.1312 0.0000 ( 13990 PWs)   bands (ev):

   -69.9421 -69.6305 -69.5876 -69.5593 -69.5259 -69.5020 -69.4860 -69.4746
   -69.4642 -69.4501 -69.4456 -69.4248 -41.6415 -41.2201 -41.1676 -41.1537
   -41.1275 -41.1100 -41.0739 -41.0406 -41.0299 -41.0055 -40.9810 -40.9441
   -40.9270 -40.8833 -40.8580 -40.8369 -40.8142 -40.7861 -40.7783 -40.7736
   -40.7660 -40.7553 -40.7473 -40.7304 -40.7201 -40.7045 -40.6892 -40.6739
   -40.6531 -40.6506 -40.6316 -40.6102 -40.6037 -40.5554 -40.5465 -40.5086
   -18.8351  -7.1782  -3.1969  -2.9364  -2.8968  -2.1936  -1.5670  -1.4497
    -1.1709  -0.9315  -0.7489  -0.6931  -0.4433  -0.3824  -0.1973  -0.1291
    -0.0822   0.0263   0.1121   0.3745   0.4012   0.4345   0.5580   0.6490
     0.7056   0.8315   0.9227   0.9905   1.0971   1.2181   1.2549   1.2840
     1.3491   1.4365   1.4908   1.5788   1.6859   1.7405   1.8396   1.8950
     1.9887   2.0738   2.2157   2.2589   2.3737   2.5988   2.7240   2.7404
     2.7547

          k = 0.0325-0.0937 0.0000 ( 13990 PWs)   bands (ev):

   -69.9421 -69.6305 -69.5875 -69.5593 -69.5259 -69.5019 -69.4860 -69.4747
   -69.4643 -69.4501 -69.4455 -69.4248 -41.6415 -41.2201 -41.1676 -41.1537
   -41.1276 -41.1100 -41.0739 -41.0407 -41.0299 -41.0054 -40.9809 -40.9441
   -40.9271 -40.8833 -40.8578 -40.8370 -40.8143 -40.7861 -40.7782 -40.7738
   -40.7661 -40.7553 -40.7473 -40.7306 -40.7201 -40.7043 -40.6893 -40.6740
   -40.6531 -40.6505 -40.6315 -40.6101 -40.6037 -40.5553 -40.5465 -40.5086
   -18.8351  -7.1782  -3.1969  -2.9364  -2.8968  -2.1936  -1.5670  -1.4497
    -1.1709  -0.9315  -0.7489  -0.6931  -0.4433  -0.3824  -0.1973  -0.1291
    -0.0822   0.0263   0.1121   0.3745   0.4012   0.4345   0.5580   0.6490
     0.7056   0.8315   0.9228   0.9905   1.0971   1.2181   1.2549   1.2839
     1.3490   1.4365   1.4907   1.5789   1.6859   1.7405   1.8396   1.8948
     1.9886   2.0738   2.2157   2.2588   2.3736   2.5989   2.7240   2.7404
     2.7547

          k = 0.0325-0.0562 0.0000 ( 14027 PWs)   bands (ev):

   -69.9438 -69.6523 -69.5717 -69.5489 -69.5290 -69.5191 -69.5005 -69.4610
   -69.4482 -69.4463 -69.4433 -69.4279 -41.6449 -41.2647 -41.2283 -41.2105
   -41.1807 -41.1786 -41.1339 -41.0745 -41.0538 -41.0323 -40.9968 -40.9136
   -40.9093 -40.8973 -40.8420 -40.8358 -40.8051 -40.7828 -40.7740 -40.7617
   -40.7585 -40.7294 -40.7218 -40.6921 -40.6869 -40.6786 -40.6664 -40.6525
   -40.6377 -40.6257 -40.5959 -40.5808 -40.5796 -40.5476 -40.5311 -40.4741
   -18.8360  -7.1864  -3.9461  -2.9810  -2.8874  -2.2135  -1.5755  -1.5574
    -1.3116  -1.2140  -1.1808  -1.1352  -0.7848  -0.5941  -0.5858  -0.5021
    -0.3603  -0.3340  -0.2559   0.2342   0.3427   0.3657   0.7699   1.0724
     1.0753   1.1382   1.1804   1.2378   1.2975   1.4777   1.5418   1.5845
     1.6804   1.6867   1.7705   1.8409   1.8622   2.0058   2.0404   2.1141
     2.1704   2.1913   2.2791   2.4054   2.4443   2.5566   2.5931   2.7938
     2.8609

          k = 0.0649-0.0375 0.0000 ( 14026 PWs)   bands (ev):

   -69.9432 -69.6461 -69.5790 -69.5457 -69.5315 -69.5144 -69.4969 -69.4652
   -69.4557 -69.4475 -69.4346 -69.4323 -41.6438 -41.2549 -41.2057 -41.1966
   -41.1757 -41.1483 -41.1145 -41.0657 -41.0385 -41.0258 -40.9835 -40.9237
   -40.9145 -40.8958 -40.8447 -40.8320 -40.7988 -40.7911 -40.7775 -40.7762
   -40.7540 -40.7365 -40.7290 -40.7117 -40.6964 -40.6785 -40.6579 -40.6570
   -40.6400 -40.6317 -40.6275 -40.6273 -40.5740 -40.5472 -40.5311 -40.4789
   -18.8357  -7.1836  -3.7413  -2.9903  -2.8773  -2.0427  -1.9578  -1.2808
    -1.1580  -1.1204  -1.1142  -0.8984  -0.8589  -0.5925  -0.4325  -0.4157
    -0.2935  -0.1427  -0.1348   0.2678   0.3609   0.4123   0.6347   0.9121
     1.0122   1.0410   1.1348   1.1976   1.3779   1.4266   1.4799   1.5122
     1.5715   1.6551   1.6624   1.7892   1.8966   2.0141   2.0405   2.0899
     2.1213   2.1407   2.1687   2.2616   2.3085   2.4483   2.5219   2.7168
     2.8010

          k = 0.0649 0.0000 0.0000 ( 14027 PWs)   bands (ev):

   -69.9438 -69.6524 -69.5714 -69.5494 -69.5288 -69.5192 -69.5006 -69.4603
   -69.4486 -69.4462 -69.4434 -69.4279 -41.6449 -41.2646 -41.2283 -41.2105
   -41.1806 -41.1787 -41.1339 -41.0746 -41.0538 -41.0324 -40.9968 -40.9134
   -40.9096 -40.8971 -40.8422 -40.8358 -40.8051 -40.7826 -40.7742 -40.7616
   -40.7586 -40.7293 -40.7218 -40.6922 -40.6866 -40.6785 -40.6665 -40.6526
   -40.6373 -40.6256 -40.5959 -40.5808 -40.5796 -40.5476 -40.5314 -40.4741
   -18.8360  -7.1864  -3.9461  -2.9810  -2.8874  -2.2135  -1.5755  -1.5575
    -1.3116  -1.2140  -1.1808  -1.1352  -0.7848  -0.5940  -0.5858  -0.5021
    -0.3603  -0.3340  -0.2559   0.2341   0.3427   0.3658   0.7700   1.0724
     1.0754   1.1383   1.1804   1.2376   1.2975   1.4777   1.5418   1.5844
     1.6802   1.6868   1.7706   1.8409   1.8622   2.0059   2.0404   2.1142
     2.1704   2.1914   2.2790   2.4055   2.4443   2.5566   2.5930   2.7937
     2.8610

          k = 0.0649 0.0375 0.0000 ( 14026 PWs)   bands (ev):

   -69.9432 -69.6461 -69.5791 -69.5454 -69.5317 -69.5145 -69.4970 -69.4646
   -69.4555 -69.4480 -69.4350 -69.4320 -41.6438 -41.2548 -41.2057 -41.1965
   -41.1758 -41.1483 -41.1145 -41.0657 -41.0387 -41.0257 -40.9835 -40.9236
   -40.9146 -40.8958 -40.8445 -40.8319 -40.7989 -40.7913 -40.7776 -40.7759
   -40.7541 -40.7366 -40.7289 -40.7118 -40.6963 -40.6783 -40.6580 -40.6567
   -40.6401 -40.6317 -40.6274 -40.6273 -40.5740 -40.5473 -40.5315 -40.4789
   -18.8357  -7.1836  -3.7413  -2.9903  -2.8773  -2.0427  -1.9578  -1.2808
    -1.1580  -1.1204  -1.1142  -0.8984  -0.8589  -0.5925  -0.4325  -0.4157
    -0.2935  -0.1427  -0.1348   0.2678   0.3610   0.4123   0.6347   0.9121
     1.0123   1.0410   1.1349   1.1976   1.3780   1.4266   1.4798   1.5123
     1.5714   1.6552   1.6624   1.7893   1.8966   2.0141   2.0406   2.0899
     2.1213   2.1406   2.1688   2.2616   2.3084   2.4483   2.5220   2.7168
     2.8009

          k = 0.0649-0.1500 0.0000 ( 13990 PWs)   bands (ev):

   -69.9421 -69.6306 -69.5873 -69.5596 -69.5258 -69.5022 -69.4862 -69.4738
   -69.4642 -69.4501 -69.4459 -69.4248 -41.6415 -41.2199 -41.1677 -41.1539
   -41.1273 -41.1100 -41.0740 -41.0407 -41.0297 -41.0055 -40.9810 -40.9443
   -40.9269 -40.8835 -40.8578 -40.8368 -40.8143 -40.7862 -40.7780 -40.7739
   -40.7659 -40.7553 -40.7472 -40.7306 -40.7201 -40.7043 -40.6893 -40.6737
   -40.6530 -40.6506 -40.6312 -40.6102 -40.6036 -40.5558 -40.5466 -40.5086
   -18.8351  -7.1782  -3.1969  -2.9364  -2.8967  -2.1936  -1.5670  -1.4497
    -1.1709  -0.9315  -0.7489  -0.6931  -0.4433  -0.3824  -0.1974  -0.1290
    -0.0822   0.0262   0.1121   0.3745   0.4012   0.4345   0.5580   0.6490
     0.7056   0.8315   0.9228   0.9905   1.0970   1.2181   1.2550   1.2841
     1.3490   1.4365   1.4908   1.5789   1.6859   1.7405   1.8398   1.8948
     1.9888   2.0738   2.2156   2.2588   2.3737   2.5988   2.7239   2.7402
     2.7548

          k = 0.0649-0.1125 0.0000 ( 13962 PWs)   bands (ev):

   -69.9416 -69.6201 -69.5851 -69.5766 -69.5220 -69.4876 -69.4868 -69.4688
   -69.4682 -69.4678 -69.4467 -69.4216 -41.6403 -41.1733 -41.1718 -41.0977
   -41.0929 -41.0918 -41.0644 -41.0520 -41.0348 -41.0184 -40.9765 -40.9452
   -40.8805 -40.8737 -40.8686 -40.8458 -40.8308 -40.8262 -40.8153 -40.7777
   -40.7756 -40.7666 -40.7532 -40.7277 -40.7119 -40.7106 -40.6903 -40.6764
   -40.6534 -40.6498 -40.6337 -40.6235 -40.5831 -40.5588 -40.5581 -40.5554
   -18.8348  -7.1756  -2.9704  -2.9671  -2.2754  -2.2752  -2.2308  -1.0803
    -1.0602  -1.0485  -0.3885  -0.3644  -0.2226  -0.1747  -0.1192  -0.1058
     0.2059   0.2062   0.2122   0.2538   0.2567   0.4628   0.4712   0.5017
     0.6594   0.7232   0.7254   0.9009   0.9265   0.9273   1.0244   1.0319
     1.0799   1.1257   1.4108   1.4504   1.5175   1.6608   1.9618   1.9727
     2.0438   2.1195   2.1345   2.1472   2.4498   2.5869   2.5982   2.7006
     2.8950

          k = 0.0649-0.0750 0.0000 ( 13990 PWs)   bands (ev):

   -69.9421 -69.6306 -69.5871 -69.5598 -69.5257 -69.5020 -69.4861 -69.4745
   -69.4643 -69.4501 -69.4456 -69.4248 -41.6415 -41.2201 -41.1677 -41.1539
   -41.1273 -41.1100 -41.0740 -41.0406 -41.0297 -41.0053 -40.9810 -40.9441
   -40.9269 -40.8835 -40.8577 -40.8369 -40.8143 -40.7862 -40.7781 -40.7739
   -40.7659 -40.7554 -40.7474 -40.7306 -40.7202 -40.7043 -40.6894 -40.6739
   -40.6530 -40.6505 -40.6313 -40.6102 -40.6036 -40.5555 -40.5465 -40.5086
   -18.8351  -7.1782  -3.1969  -2.9364  -2.8967  -2.1936  -1.5670  -1.4497
    -1.1709  -0.9315  -0.7489  -0.6931  -0.4433  -0.3824  -0.1974  -0.1290
    -0.0822   0.0262   0.1121   0.3745   0.4012   0.4345   0.5580   0.6490
     0.7056   0.8315   0.9228   0.9905   1.0970   1.2181   1.2550   1.2840
     1.3490   1.4365   1.4908   1.5789   1.6859   1.7405   1.8397   1.8948
     1.9887   2.0738   2.2157   2.2588   2.3737   2.5989   2.7239   2.7403
     2.7548

          k =-0.0974 0.0562 0.0000 ( 14010 PWs)   bands (ev):

   -69.9421 -69.6281 -69.5960 -69.5475 -69.5316 -69.5006 -69.4840 -69.4791
   -69.4692 -69.4475 -69.4347 -69.4323 -41.6415 -41.2301 -41.1655 -41.1532
   -41.1371 -41.1068 -41.0637 -41.0334 -41.0087 -41.0056 -40.9887 -40.9603
   -40.9508 -40.8821 -40.8185 -40.7972 -40.7909 -40.7863 -40.7790 -40.7769
   -40.7741 -40.7677 -40.7506 -40.7456 -40.7253 -40.7208 -40.7014 -40.6917
   -40.6568 -40.6397 -40.6306 -40.6301 -40.6208 -40.5437 -40.5131 -40.5108
   -18.8351  -7.1781  -3.0956  -2.8755  -2.7745  -2.7507  -1.4522  -1.3967
    -0.8253  -0.8174  -0.8048  -0.7891  -0.6418  -0.5548  -0.1139  -0.0917
     0.0149   0.0444   0.0996   0.1875   0.5432   0.5643   0.6036   0.6524
     0.7048   0.7116   0.9953   1.0473   1.1303   1.2523   1.2623   1.3388
     1.4233   1.4744   1.5092   1.5575   1.6704   1.7528   1.7620   1.8239
     1.8552   2.1401   2.1929   2.1955   2.5757   2.6327   2.6841   2.7112
     2.7341

          k =-0.0974 0.0937 0.0000 ( 13990 PWs)   bands (ev):

   -69.9421 -69.6307 -69.5869 -69.5600 -69.5257 -69.5021 -69.4861 -69.4743
   -69.4641 -69.4502 -69.4457 -69.4248 -41.6415 -41.2200 -41.1677 -41.1539
   -41.1274 -41.1100 -41.0739 -41.0406 -41.0299 -41.0053 -40.9806 -40.9442
   -40.9272 -40.8835 -40.8581 -40.8370 -40.8142 -40.7860 -40.7782 -40.7736
   -40.7660 -40.7552 -40.7474 -40.7305 -40.7201 -40.7045 -40.6894 -40.6739
   -40.6532 -40.6503 -40.6313 -40.6102 -40.6037 -40.5556 -40.5465 -40.5086
   -18.8351  -7.1782  -3.1969  -2.9364  -2.8967  -2.1936  -1.5670  -1.4497
    -1.1709  -0.9315  -0.7489  -0.6931  -0.4433  -0.3824  -0.1974  -0.1290
    -0.0822   0.0263   0.1121   0.3745   0.4012   0.4345   0.5581   0.6489
     0.7056   0.8315   0.9227   0.9904   1.0971   1.2180   1.2550   1.2840
     1.3491   1.4365   1.4908   1.5788   1.6859   1.7404   1.8396   1.8950
     1.9887   2.0738   2.2156   2.2588   2.3736   2.5989   2.7240   2.7404
     2.7547

          k =-0.0974 0.1312 0.0000 ( 13990 PWs)   bands (ev):

   -69.9421 -69.6307 -69.5871 -69.5598 -69.5257 -69.5022 -69.4863 -69.4738
   -69.4641 -69.4502 -69.4459 -69.4248 -41.6415 -41.2199 -41.1677 -41.1539
   -41.1274 -41.1100 -41.0739 -41.0407 -41.0300 -41.0054 -40.9806 -40.9444
   -40.9272 -40.8835 -40.8579 -40.8369 -40.8143 -40.7860 -40.7781 -40.7737
   -40.7661 -40.7552 -40.7473 -40.7307 -40.7201 -40.7043 -40.6893 -40.6737
   -40.6532 -40.6503 -40.6311 -40.6101 -40.6037 -40.5558 -40.5466 -40.5086
   -18.8351  -7.1782  -3.1969  -2.9364  -2.8967  -2.1936  -1.5669  -1.4497
    -1.1709  -0.9315  -0.7489  -0.6931  -0.4433  -0.3824  -0.1974  -0.1290
    -0.0822   0.0263   0.1121   0.3745   0.4012   0.4345   0.5581   0.6489
     0.7056   0.8315   0.9227   0.9904   1.0971   1.2181   1.2550   1.2841
     1.3490   1.4365   1.4908   1.5788   1.6859   1.7405   1.8397   1.8949
     1.9887   2.0738   2.2156   2.2588   2.3737   2.5989   2.7240   2.7403
     2.7547

          k =-0.0974-0.0562 0.0000 ( 14010 PWs)   bands (ev):

   -69.9421 -69.6281 -69.5961 -69.5472 -69.5318 -69.5010 -69.4838 -69.4791
   -69.4684 -69.4480 -69.4351 -69.4320 -41.6415 -41.2300 -41.1654 -41.1532
   -41.1373 -41.1068 -41.0637 -41.0335 -41.0089 -41.0057 -40.9886 -40.9603
   -40.9510 -40.8819 -40.8187 -40.7969 -40.7909 -40.7865 -40.7790 -40.7769
   -40.7738 -40.7680 -40.7505 -40.7456 -40.7254 -40.7207 -40.7011 -40.6916
   -40.6568 -40.6399 -40.6305 -40.6298 -40.6208 -40.5441 -40.5133 -40.5105
   -18.8351  -7.1781  -3.0956  -2.8755  -2.7745  -2.7507  -1.4521  -1.3968
    -0.8253  -0.8174  -0.8048  -0.7891  -0.6417  -0.5548  -0.1138  -0.0918
     0.0149   0.0443   0.0996   0.1875   0.5431   0.5643   0.6036   0.6524
     0.7049   0.7115   0.9952   1.0473   1.1304   1.2523   1.2623   1.3390
     1.4233   1.4745   1.5092   1.5574   1.6705   1.7528   1.7620   1.8239
     1.8551   2.1401   2.1930   2.1954   2.5757   2.6328   2.6843   2.7111
     2.7341

     the Fermi energy is     2.0402 ev

!    total energy              =   -2148.67620947 Ry
     Harris-Foulkes estimate   =   -2148.67626001 Ry
     estimated scf accuracy    <       0.00000711 Ry

     The total energy is the sum of the following terms:

     one-electron contribution =  -20062.67244523 Ry
     hartree contribution      =   10029.72572458 Ry
     xc contribution           =    -287.57632906 Ry
     ewald contribution        =    8171.98369955 Ry
     electric field correction =       0.00070303 Ry
     smearing contrib. (-TS)   =      -0.13756233 Ry

     convergence has been achieved in  53 iterations
 
 BEEF-vdW xc energy contributions
           1 :   -248.854951188736     
           2 :    223.826446189914     
           3 :   -182.116239080221     
           4 :    136.327209231143     
           5 :   -97.8055954762449     
           6 :    72.5616491290792     
           7 :   -60.2266077361341     
           8 :    55.9690996080407     
           9 :   -53.9274929535524     
          10 :    50.2092097325182     
          11 :   -44.1092263404282     
          12 :    37.3630901852314     
          13 :   -32.2942071388029     
          14 :    30.1057193598491     
          15 :   -30.2420994910795     
          16 :    30.9697185070148     
          17 :   -30.6075931306950     
          18 :    28.5535713715869     
          19 :   -25.5051099648719     
          20 :    22.8320613720128     
          21 :   -21.5916007667265     
          22 :    21.8539618213237     
          23 :   -22.7449624239162     
          24 :    23.1006741412109     
          25 :   -22.2464076297612     
          26 :    20.3819239920350     
          27 :   -18.3666348540139     
          28 :    17.1043067822609     
          29 :   -16.9596391423059     
          30 :    17.5678346123825     
          31 :   -24.6927326638881     
          32 :   -17.6981694655883     

     Forces acting on atoms (Ry/au):


     negative rho (up, down):  1.447E-02 0.000E+00
     atom    1 type  1   force =    -0.00023538   -0.00012776    0.00143639
     atom    2 type  1   force =     0.00023341   -0.00013497    0.00148017
     atom    3 type  1   force =    -0.00000924    0.00026197    0.00146620
     atom    4 type  1   force =     0.00000231    0.00000135   -0.00012707
     atom    5 type  1   force =     0.00001741    0.00056381    0.00233787
     atom    6 type  1   force =    -0.00000722    0.00000117    0.00624352
     atom    7 type  1   force =    -0.00048880   -0.00028369    0.00238735
     atom    8 type  1   force =     0.00049046   -0.00027952    0.00232384
     atom    9 type  1   force =    -0.00000698    0.00001716    0.00305027
     atom   10 type  1   force =     0.00000223    0.00074171   -0.02983981
     atom   11 type  1   force =     0.00064304   -0.00037411   -0.02983338
     atom   12 type  1   force =    -0.00065029   -0.00039280   -0.02982114
     atom   13 type  2   force =     0.00000570    0.00000294    0.02868039
     atom   14 type  3   force =     0.00000335    0.00000273    0.04021540

     Total force =     0.071558     Total SCF correction =     0.004001


     entering subroutine stress ...


     negative rho (up, down):  1.447E-02 0.000E+00
          total   stress  (Ry/bohr**3)                   (kbar)     P=  -19.32
  -0.00021965  -0.00000003  -0.00000001        -32.31     -0.00     -0.00
  -0.00000003  -0.00021957  -0.00000001         -0.00    -32.30     -0.00
  -0.00000001  -0.00000001   0.00004519         -0.00     -0.00      6.65


     BFGS Geometry Optimization

     number of scf cycles    =   1
     number of bfgs steps    =   0

     energy   new            =   -2148.6762094668 Ry

     new trust radius        =       0.0402154043 bohr
     new conv_thr            =       0.0000099958 Ry


ATOMIC_POSITIONS (crystal)
Cr1      0.166666667   0.166666667   0.413381306    0   0   0
Cr1      0.666666667   0.166666667   0.413381306    0   0   0
Cr1      0.166666667   0.666666667   0.413381306    0   0   0
Cr1      0.666666667   0.666666667   0.413381306    0   0   0
Cr1      0.833333333   0.333333333   0.500000000    0   0   0
Cr1      0.333333333   0.333333333   0.500000000    0   0   0
Cr1      0.833333333   0.833333333   0.500000000    0   0   0
Cr1      0.333333333   0.833333333   0.500000000    0   0   0
Cr1     -0.000001741   0.000002043   0.586685420
Cr1      0.499956079   0.000088302   0.585965943
Cr1      0.000088567   0.499955461   0.585966083
Cr1      0.499956336   0.499953236   0.585966351
O1       0.000000412   0.000000350   0.659277776
H1       0.000000184   0.000000324   0.698801331



     Writing output data file calc.save
     Check: negative starting charge=   -0.014838
     NEW-OLD atomic charge density approx. for the potential

     Check: negative/imaginary core charge=   -0.000004    0.000000
     Check: negative starting charge=   -0.014475

     negative rho (up, down):  1.411E-02 0.000E+00
 
     Adding external electric field

     Computed dipole along edir(3) : 
        Dipole                0.3700 Ry au,          0.9405 Debye
        Dipole field          0.0012 Ry au
 
        Potential amp.       -0.1113 Ry
        Total length         44.5710 bohr
 

     total cpu time spent up to now is      915.1 secs

     per-process dynamical memory:    69.5 Mb

     Self-consistent Calculation

     iteration #  1     ecut=    36.75 Ry     beta=0.30
     Davidson diagonalization with overlap
     ethr =  1.00E-06,  avg # of iterations = 15.6

     negative rho (up, down):  1.409E-02 0.000E+00
 
     Adding external electric field

     Computed dipole along edir(3) : 
        Dipole                3.3934 Ry au,          8.6251 Debye
        Dipole field          0.0114 Ry au
 
        Potential amp.       -1.0206 Ry
        Total length         44.5710 bohr
 

     total cpu time spent up to now is      942.1 secs

     total energy              =   -2147.85357763 Ry
     Harris-Foulkes estimate   =   -2148.65607556 Ry
     estimated scf accuracy    <       1.66348778 Ry

     iteration #  2     ecut=    36.75 Ry     beta=0.30
     Davidson diagonalization with overlap
     ethr =  9.51E-04,  avg # of iterations = 11.7

     negative rho (up, down):  1.394E-02 0.000E+00
 
     Adding external electric field

     Computed dipole along edir(3) : 
        Dipole               -0.2109 Ry au,         -0.5360 Debye
        Dipole field         -0.0007 Ry au
 
        Potential amp.        0.0634 Ry
        Total length         44.5710 bohr
 

     total cpu time spent up to now is      965.6 secs

     total energy              =   -2140.20423092 Ry
     Harris-Foulkes estimate   =   -2163.33594739 Ry
     estimated scf accuracy    <    1091.05312365 Ry

     iteration #  3     ecut=    36.75 Ry     beta=0.30
     Davidson diagonalization with overlap
     ethr =  9.51E-04,  avg # of iterations =  7.4

     negative rho (up, down):  1.389E-02 0.000E+00
 
     Adding external electric field

     Computed dipole along edir(3) : 
        Dipole                0.1708 Ry au,          0.4341 Debye
        Dipole field          0.0006 Ry au
 
        Potential amp.       -0.0514 Ry
        Total length         44.5710 bohr
 

     total cpu time spent up to now is      987.0 secs

     total energy              =   -2148.54165080 Ry
     Harris-Foulkes estimate   =   -2148.84107001 Ry
     estimated scf accuracy    <      18.20970920 Ry

     iteration #  4     ecut=    36.75 Ry     beta=0.30
     Davidson diagonalization with overlap
     ethr =  9.51E-04,  avg # of iterations =  1.5

     negative rho (up, down):  1.376E-02 0.000E+00
 
     Adding external electric field

     Computed dipole along edir(3) : 
        Dipole                0.2360 Ry au,          0.5999 Debye
        Dipole field          0.0008 Ry au
 
        Potential amp.       -0.0710 Ry
        Total length         44.5710 bohr
 

     total cpu time spent up to now is      999.8 secs

     total energy              =   -2148.64034733 Ry
     Harris-Foulkes estimate   =   -2148.66753549 Ry
     estimated scf accuracy    <       0.92992235 Ry

     iteration #  5     ecut=    36.75 Ry     beta=0.30
     Davidson diagonalization with overlap
     ethr =  5.31E-04,  avg # of iterations =  5.4

     negative rho (up, down):  1.368E-02 0.000E+00
 
     Adding external electric field

     Computed dipole along edir(3) : 
        Dipole                0.2835 Ry au,          0.7206 Debye
        Dipole field          0.0010 Ry au
 
        Potential amp.       -0.0853 Ry
        Total length         44.5710 bohr
 

     total cpu time spent up to now is     1013.9 secs

     total energy              =   -2148.66460667 Ry
     Harris-Foulkes estimate   =   -2148.67148724 Ry
     estimated scf accuracy    <       0.49585768 Ry

     iteration #  6     ecut=    36.75 Ry     beta=0.30
     Davidson diagonalization with overlap
     ethr =  2.83E-04,  avg # of iterations =  2.9

     negative rho (up, down):  1.360E-02 0.000E+00
 
     Adding external electric field

     Computed dipole along edir(3) : 
        Dipole                0.3038 Ry au,          0.7722 Debye
        Dipole field          0.0010 Ry au
 
        Potential amp.       -0.0914 Ry
        Total length         44.5710 bohr
 

     total cpu time spent up to now is     1027.9 secs

     total energy              =   -2148.67263053 Ry
     Harris-Foulkes estimate   =   -2148.67496582 Ry
     estimated scf accuracy    <       0.05272309 Ry

     iteration #  7     ecut=    36.75 Ry     beta=0.30
     Davidson diagonalization with overlap
     ethr =  3.01E-05,  avg # of iterations =  7.0

     negative rho (up, down):  1.356E-02 0.000E+00
 
     Adding external electric field

     Computed dipole along edir(3) : 
        Dipole                0.2999 Ry au,          0.7622 Debye
        Dipole field          0.0010 Ry au
 
        Potential amp.       -0.0902 Ry
        Total length         44.5710 bohr
 

     total cpu time spent up to now is     1045.1 secs

     total energy              =   -2148.68076766 Ry
     Harris-Foulkes estimate   =   -2148.68169156 Ry
     estimated scf accuracy    <       0.02810956 Ry

     iteration #  8     ecut=    36.75 Ry     beta=0.30
     Davidson diagonalization with overlap
     ethr =  1.61E-05,  avg # of iterations =  1.2

     negative rho (up, down):  1.354E-02 0.000E+00
 
     Adding external electric field

     Computed dipole along edir(3) : 
[...]
     1.4993   1.5534   1.6130   1.6600   1.7045   1.8450   1.9450   1.9760
     2.0883   2.1906   2.2501   2.3160   2.3396   2.3984   2.6472   2.7607
     2.8682

          k = 0.0649-0.0375 0.0000 ( 14026 PWs)   bands (ev):

   -70.0613 -69.7498 -69.6762 -69.6429 -69.6212 -69.6166 -69.5650 -69.5412
   -69.5362 -69.5321 -69.5029 -69.4951 -41.7960 -41.3627 -41.3414 -41.3157
   -41.2607 -41.2602 -41.2428 -41.2172 -41.1572 -41.1469 -41.0809 -41.0561
   -41.0300 -41.0105 -40.9699 -40.9564 -40.9335 -40.8854 -40.8711 -40.8413
   -40.8350 -40.8139 -40.7846 -40.7721 -40.7695 -40.7406 -40.7252 -40.7067
   -40.6849 -40.6688 -40.6518 -40.6348 -40.6347 -40.5870 -40.5777 -40.5550
   -18.5486  -6.9399  -3.8239  -2.5211  -2.4296  -2.1538  -2.0433  -1.4697
    -1.3586  -1.2746  -1.2157  -1.0153  -0.9703  -0.7391  -0.6059  -0.5238
    -0.3656  -0.3227  -0.1181   0.1050   0.2612   0.3609   0.4540   0.6718
     0.7526   0.8393   0.9497   1.1761   1.1851   1.2321   1.3574   1.4069
     1.4452   1.5043   1.5993   1.6372   1.7204   1.7774   1.9036   1.9574
     1.9743   2.0733   2.0742   2.3201   2.3411   2.4810   2.6308   2.7161
     2.8444

          k = 0.0649 0.0000 0.0000 ( 14027 PWs)   bands (ev):

   -70.0615 -69.7576 -69.6625 -69.6514 -69.6230 -69.6172 -69.5551 -69.5489
   -69.5352 -69.5317 -69.5010 -69.4953 -41.7955 -41.3795 -41.3510 -41.3349
   -41.2811 -41.2690 -41.2589 -41.2273 -41.1638 -41.1508 -41.0875 -41.0444
   -41.0333 -41.0175 -40.9739 -40.9461 -40.9264 -40.8823 -40.8663 -40.8630
   -40.8175 -40.8091 -40.7853 -40.7690 -40.7418 -40.7174 -40.7068 -40.6938
   -40.6832 -40.6670 -40.6494 -40.6401 -40.6288 -40.5790 -40.5712 -40.5601
   -18.5488  -6.9418  -4.0367  -2.5120  -2.4356  -2.2963  -1.7611  -1.6713
    -1.4714  -1.4011  -1.2829  -1.2312  -0.9414  -0.7723  -0.6905  -0.5990
    -0.4464  -0.3744  -0.2661   0.0781   0.2536   0.3412   0.5531   0.8354
     0.8548   0.9523   1.0468   1.1152   1.2352   1.3300   1.4173   1.4779
     1.4993   1.5534   1.6129   1.6600   1.7044   1.8450   1.9450   1.9761
     2.0883   2.1906   2.2501   2.3160   2.3396   2.3984   2.6471   2.7606
     2.8682

          k = 0.0649 0.0375 0.0000 ( 14026 PWs)   bands (ev):

   -70.0613 -69.7498 -69.6762 -69.6429 -69.6212 -69.6166 -69.5650 -69.5412
   -69.5362 -69.5321 -69.5030 -69.4951 -41.7960 -41.3628 -41.3414 -41.3156
   -41.2607 -41.2602 -41.2428 -41.2171 -41.1572 -41.1469 -41.0809 -41.0561
   -41.0300 -41.0105 -40.9699 -40.9564 -40.9335 -40.8854 -40.8711 -40.8413
   -40.8350 -40.8139 -40.7845 -40.7721 -40.7695 -40.7406 -40.7252 -40.7067
   -40.6849 -40.6688 -40.6518 -40.6348 -40.6347 -40.5870 -40.5777 -40.5550
   -18.5486  -6.9399  -3.8239  -2.5211  -2.4296  -2.1538  -2.0433  -1.4697
    -1.3586  -1.2746  -1.2157  -1.0153  -0.9703  -0.7391  -0.6059  -0.5238
    -0.3656  -0.3227  -0.1182   0.1050   0.2612   0.3609   0.4540   0.6718
     0.7526   0.8393   0.9497   1.1761   1.1851   1.2321   1.3574   1.4067
     1.4452   1.5043   1.5993   1.6372   1.7205   1.7774   1.9036   1.9574
     1.9743   2.0733   2.0742   2.3201   2.3411   2.4810   2.6308   2.7161
     2.8444

          k = 0.0649-0.1500 0.0000 ( 13990 PWs)   bands (ev):

   -70.0609 -69.7287 -69.6890 -69.6599 -69.6140 -69.6010 -69.5740 -69.5544
   -69.5298 -69.5270 -69.5069 -69.4956 -41.7969 -41.3265 -41.2940 -41.2824
   -41.2343 -41.2254 -41.2052 -41.1875 -41.1601 -41.1397 -41.1108 -41.0584
   -41.0310 -41.0056 -40.9591 -40.9454 -40.9289 -40.8893 -40.8827 -40.8687
   -40.8606 -40.8327 -40.8121 -40.7977 -40.7868 -40.7425 -40.7370 -40.7229
   -40.6992 -40.6835 -40.6550 -40.6414 -40.6205 -40.6094 -40.5819 -40.5748
   -18.5481  -6.9362  -3.2211  -2.5223  -2.4496  -2.2893  -1.6715  -1.5531
    -1.2812  -1.0965  -0.9609  -0.8644  -0.6102  -0.5539  -0.4206  -0.3458
    -0.2334  -0.1194   0.0156   0.1060   0.2253   0.3264   0.3938   0.4934
     0.5605   0.6557   0.7436   0.8734   0.9492   1.0197   1.1251   1.1534
     1.2312   1.3167   1.3911   1.4055   1.5674   1.6443   1.7451   1.8274
     1.9149   2.0444   2.3141   2.4367   2.4595   2.5407   2.6489   2.7213
     2.8089

          k = 0.0649-0.1125 0.0000 ( 13962 PWs)   bands (ev):

   -70.0607 -69.7094 -69.6879 -69.6858 -69.6091 -69.5852 -69.5746 -69.5727
   -69.5266 -69.5234 -69.5096 -69.4962 -41.7973 -41.2920 -41.2679 -41.2600
   -41.2094 -41.2089 -41.1970 -41.1717 -41.1615 -41.1538 -41.1226 -41.0959
   -40.9756 -40.9715 -40.9694 -40.9517 -40.9309 -40.9251 -40.9079 -40.8677
   -40.8673 -40.8602 -40.8272 -40.8212 -40.7961 -40.7424 -40.7255 -40.6891
   -40.6834 -40.6769 -40.6710 -40.6605 -40.6534 -40.6046 -40.6009 -40.5781
   -18.5479  -6.9345  -2.4985  -2.4936  -2.3802  -2.3663  -2.3191  -1.2244
    -1.1395  -1.1365  -0.8175  -0.4733  -0.4323  -0.3786  -0.3712  -0.3453
    -0.2136  -0.0204   0.0339   0.0916   0.1323   0.3087   0.4264   0.4302
     0.4512   0.6011   0.6099   0.7761   0.8341   0.8434   0.8497   0.9672
     0.9911   1.0919   1.0997   1.3138   1.3531   1.6914   1.8979   1.9095
     1.9861   2.1114   2.2829   2.3386   2.4330   2.5864   2.7014   2.7142
     2.8522

          k = 0.0649-0.0750 0.0000 ( 13990 PWs)   bands (ev):

   -70.0609 -69.7287 -69.6889 -69.6599 -69.6140 -69.6010 -69.5741 -69.5543
   -69.5298 -69.5270 -69.5068 -69.4956 -41.7969 -41.3265 -41.2940 -41.2824
   -41.2343 -41.2254 -41.2052 -41.1875 -41.1602 -41.1397 -41.1108 -41.0584
   -41.0310 -41.0056 -40.9591 -40.9454 -40.9289 -40.8893 -40.8827 -40.8686
   -40.8605 -40.8327 -40.8121 -40.7977 -40.7868 -40.7425 -40.7370 -40.7229
   -40.6992 -40.6835 -40.6550 -40.6414 -40.6205 -40.6095 -40.5819 -40.5748
   -18.5481  -6.9362  -3.2211  -2.5223  -2.4496  -2.2893  -1.6715  -1.5531
    -1.2812  -1.0965  -0.9609  -0.8644  -0.6102  -0.5539  -0.4207  -0.3459
    -0.2333  -0.1194   0.0156   0.1060   0.2254   0.3263   0.3938   0.4934
     0.5605   0.6556   0.7436   0.8733   0.9492   1.0197   1.1251   1.1534
     1.2313   1.3166   1.3911   1.4056   1.5674   1.6444   1.7451   1.8274
     1.9148   2.0445   2.3141   2.4367   2.4595   2.5408   2.6490   2.7213
     2.8089

          k =-0.0974 0.0562 0.0000 ( 14010 PWs)   bands (ev):

   -70.0609 -69.7221 -69.7048 -69.6430 -69.6217 -69.5950 -69.5866 -69.5408
   -69.5362 -69.5273 -69.5075 -69.4951 -41.7969 -41.3249 -41.3013 -41.2887
   -41.2380 -41.2258 -41.2112 -41.1612 -41.1544 -41.1280 -41.1100 -41.0782
   -41.0436 -41.0280 -40.9504 -40.9236 -40.8934 -40.8879 -40.8769 -40.8616
   -40.8495 -40.8233 -40.8143 -40.8106 -40.7926 -40.7879 -40.7510 -40.7475
   -40.6986 -40.6923 -40.6368 -40.6211 -40.6183 -40.6123 -40.5885 -40.5614
   -18.5481  -6.9362  -2.9252  -2.8618  -2.5371  -2.4315  -1.5867  -1.4563
    -1.1092  -0.9757  -0.9287  -0.8285  -0.8278  -0.6846  -0.3832  -0.3376
    -0.2096  -0.0957   0.0155   0.0705   0.2866   0.3270   0.4493   0.4592
     0.5665   0.6100   0.7630   0.9477   0.9948   1.1324   1.1826   1.2175
     1.2292   1.3434   1.3688   1.4003   1.4734   1.6304   1.6762   1.8226
     1.8296   2.0371   2.3190   2.4696   2.4870   2.5859   2.6733   2.7305
     2.8571

          k =-0.0974 0.0937 0.0000 ( 13990 PWs)   bands (ev):

   -70.0609 -69.7287 -69.6889 -69.6599 -69.6140 -69.6010 -69.5741 -69.5543
   -69.5298 -69.5270 -69.5068 -69.4956 -41.7969 -41.3265 -41.2940 -41.2825
   -41.2343 -41.2254 -41.2052 -41.1875 -41.1602 -41.1397 -41.1108 -41.0584
   -41.0310 -41.0056 -40.9592 -40.9454 -40.9289 -40.8893 -40.8827 -40.8687
   -40.8606 -40.8327 -40.8121 -40.7977 -40.7868 -40.7425 -40.7369 -40.7229
   -40.6992 -40.6836 -40.6550 -40.6414 -40.6205 -40.6094 -40.5819 -40.5748
   -18.5481  -6.9362  -3.2211  -2.5223  -2.4496  -2.2893  -1.6715  -1.5531
    -1.2812  -1.0965  -0.9609  -0.8644  -0.6102  -0.5538  -0.4206  -0.3458
    -0.2334  -0.1194   0.0156   0.1060   0.2253   0.3265   0.3938   0.4934
     0.5605   0.6557   0.7436   0.8733   0.9493   1.0197   1.1251   1.1534
     1.2312   1.3167   1.3911   1.4055   1.5674   1.6444   1.7450   1.8274
     1.9150   2.0444   2.3140   2.4367   2.4595   2.5407   2.6490   2.7213
     2.8089

          k =-0.0974 0.1312 0.0000 ( 13990 PWs)   bands (ev):

   -70.0609 -69.7287 -69.6890 -69.6599 -69.6140 -69.6010 -69.5741 -69.5543
   -69.5298 -69.5270 -69.5069 -69.4956 -41.7969 -41.3265 -41.2940 -41.2824
   -41.2343 -41.2254 -41.2052 -41.1875 -41.1602 -41.1397 -41.1108 -41.0585
   -41.0310 -41.0056 -40.9592 -40.9454 -40.9289 -40.8892 -40.8827 -40.8687
   -40.8606 -40.8327 -40.8121 -40.7977 -40.7868 -40.7425 -40.7370 -40.7229
   -40.6992 -40.6836 -40.6550 -40.6414 -40.6205 -40.6094 -40.5819 -40.5748
   -18.5481  -6.9362  -3.2211  -2.5223  -2.4496  -2.2893  -1.6714  -1.5531
    -1.2812  -1.0965  -0.9609  -0.8644  -0.6102  -0.5539  -0.4206  -0.3458
    -0.2333  -0.1194   0.0156   0.1060   0.2253   0.3264   0.3938   0.4935
     0.5605   0.6556   0.7437   0.8733   0.9492   1.0197   1.1252   1.1534
     1.2312   1.3166   1.3911   1.4056   1.5674   1.6443   1.7450   1.8274
     1.9149   2.0445   2.3140   2.4367   2.4594   2.5408   2.6490   2.7213
     2.8089

          k =-0.0974-0.0562 0.0000 ( 14010 PWs)   bands (ev):

   -70.0609 -69.7221 -69.7048 -69.6430 -69.6218 -69.5950 -69.5866 -69.5408
   -69.5362 -69.5273 -69.5075 -69.4950 -41.7969 -41.3249 -41.3013 -41.2887
   -41.2381 -41.2258 -41.2112 -41.1612 -41.1544 -41.1280 -41.1101 -41.0782
   -41.0435 -41.0280 -40.9505 -40.9236 -40.8935 -40.8878 -40.8769 -40.8616
   -40.8495 -40.8233 -40.8143 -40.8106 -40.7926 -40.7879 -40.7510 -40.7476
   -40.6986 -40.6923 -40.6368 -40.6211 -40.6182 -40.6123 -40.5885 -40.5614
   -18.5481  -6.9362  -2.9252  -2.8618  -2.5371  -2.4314  -1.5867  -1.4563
    -1.1092  -0.9757  -0.9287  -0.8285  -0.8278  -0.6847  -0.3831  -0.3376
    -0.2096  -0.0957   0.0154   0.0705   0.2866   0.3270   0.4493   0.4592
     0.5666   0.6099   0.7630   0.9477   0.9948   1.1323   1.1826   1.2175
     1.2291   1.3433   1.3686   1.4003   1.4734   1.6304   1.6762   1.8227
     1.8296   2.0370   2.3190   2.4696   2.4870   2.5859   2.6733   2.7305
     2.8571

     the Fermi energy is     1.9603 ev

!    total energy              =   -2148.74264673 Ry
     Harris-Foulkes estimate   =   -2148.74264565 Ry
     estimated scf accuracy    <       0.00000005 Ry

     The total energy is the sum of the following terms:

     one-electron contribution =  -19982.83717508 Ry
     hartree contribution      =    9989.30564432 Ry
     xc contribution           =    -287.63507485 Ry
     ewald contribution        =    8132.53989077 Ry
     electric field correction =       0.00069639 Ry
     smearing contrib. (-TS)   =      -0.11662828 Ry

     convergence has been achieved in  20 iterations
 
 BEEF-vdW xc energy contributions
           1 :   -248.915862821853     
           2 :    223.884531620835     
           3 :   -182.188584719835     
           4 :    136.402557525900     
           5 :   -97.8232803431247     
           6 :    72.4543425751090     
           7 :   -59.9723754838840     
           8 :    55.6150428095780     
           9 :   -53.5688641163489     
          10 :    49.9363768684166     
          11 :   -43.9536324206548     
          12 :    37.2711861695173     
          13 :   -32.1463351946356     
          14 :    29.7799417902341     
          15 :   -29.6968932914625     
          16 :    30.2888547555172     
          17 :   -29.9625142447342     
          18 :    28.1003422528446     
          19 :   -25.2813857012851     
          20 :    22.7248114971021     
          21 :   -21.4068932332913     
          22 :    21.4483293982092     
          23 :   -22.1270651175948     
          24 :    22.4307318547515     
          25 :   -21.7300204749979     
          26 :    20.1287624776050     
          27 :   -18.3148635949232     
          28 :    17.0631732586505     
          29 :   -16.7344792366353     
          30 :    17.0843192465362     
          31 :   -24.6962481709746     
          32 :   -17.6978639205222     

     Forces acting on atoms (Ry/au):


     negative rho (up, down):  1.352E-02 0.000E+00
     atom    1 type  1   force =     0.00019022    0.00010952    0.00728279
     atom    2 type  1   force =    -0.00018859    0.00011129    0.00728452
     atom    3 type  1   force =    -0.00000080   -0.00021778    0.00728503
     atom    4 type  1   force =    -0.00000018    0.00000098   -0.00821070
     atom    5 type  1   force =     0.00000906   -0.02767740    0.00653859
     atom    6 type  1   force =    -0.00000169    0.00000102   -0.03224095
     atom    7 type  1   force =     0.02396304    0.01384411    0.00655025
     atom    8 type  1   force =    -0.02396418    0.01384388    0.00653646
     atom    9 type  1   force =    -0.00000347    0.00001576   -0.00105778
     atom   10 type  1   force =    -0.00000942    0.00073822   -0.00007000
     atom   11 type  1   force =     0.00064264   -0.00036182   -0.00007396
     atom   12 type  1   force =    -0.00063653   -0.00040369   -0.00006481
     atom   13 type  2   force =    -0.00000047   -0.00000352   -0.00152632
     atom   14 type  3   force =     0.00000036   -0.00000058    0.00176687

     Total force =     0.002871     Total SCF correction =     0.000504
     SCF correction compared to forces is large: reduce conv_thr to get better values


     entering subroutine stress ...


     negative rho (up, down):  1.352E-02 0.000E+00
          total   stress  (Ry/bohr**3)                   (kbar)     P=  -16.66
  -0.00015780   0.00000001  -0.00000001        -23.21      0.00     -0.00
   0.00000001  -0.00015783  -0.00000002          0.00    -23.22     -0.00
  -0.00000001  -0.00000002  -0.00002414         -0.00     -0.00     -3.55


     bfgs converged in  16 scf cycles and  15 bfgs steps
     (criteria: energy <  1.0E+00, force <  1.9E-03)

     End of BFGS Geometry Optimization

     Final energy   =   -2148.7426467311 Ry
Begin final coordinates

ATOMIC_POSITIONS (crystal)
Cr1      0.166666667   0.166666667   0.413381306    0   0   0
Cr1      0.666666667   0.166666667   0.413381306    0   0   0
Cr1      0.166666667   0.666666667   0.413381306    0   0   0
Cr1      0.666666667   0.666666667   0.413381306    0   0   0
Cr1      0.833333333   0.333333333   0.500000000    0   0   0
Cr1      0.333333333   0.333333333   0.500000000    0   0   0
Cr1      0.833333333   0.833333333   0.500000000    0   0   0
Cr1      0.333333333   0.833333333   0.500000000    0   0   0
Cr1      0.000013940  -0.000026819   0.604732480
Cr1      0.502591438  -0.005250994   0.577504249
Cr1     -0.005221574   0.502623938   0.577503359
Cr1      0.502636726   0.502578662   0.577499853
O1      -0.000002869   0.000007184   0.676861941
H1       0.000001946   0.000006386   0.716731389
End final coordinates



     Writing output data file calc.save
 
     init_run     :      7.55s CPU      7.87s WALL (       1 calls)
     electrons    :   8694.60s CPU   9380.12s WALL (      16 calls)
     update_pot   :     31.85s CPU     33.39s WALL (      15 calls)
     forces       :    168.95s CPU    182.66s WALL (      16 calls)
     stress       :    532.67s CPU    571.35s WALL (      16 calls)

     Called by init_run:
     wfcinit      :      2.70s CPU      2.76s WALL (       1 calls)
     potinit      :      1.32s CPU      1.45s WALL (       1 calls)

     Called by electrons:
     c_bands      :   4136.94s CPU   4405.96s WALL (     568 calls)
     sum_band     :   1785.52s CPU   1923.00s WALL (     568 calls)
     v_of_rho     :    589.90s CPU    646.77s WALL (     584 calls)
     newd         :   1445.65s CPU   1482.42s WALL (     584 calls)
     mix_rho      :     25.21s CPU     26.02s WALL (     568 calls)
     vdW_energy   :    170.53s CPU    188.81s WALL (    1160 calls)
     vdW_ffts     :    394.59s CPU    417.20s WALL (    2352 calls)
     vdW_v        :    159.58s CPU    164.53s WALL (    1160 calls)

     Called by c_bands:
     init_us_2    :     23.25s CPU     23.44s WALL (    5845 calls)
     cegterg      :   3678.75s CPU   3782.23s WALL (    2840 calls)

     Called by *egterg:
     h_psi        :   2177.72s CPU   2230.42s WALL (   13613 calls)
     s_psi        :    231.33s CPU    231.91s WALL (   13613 calls)
     g_psi        :     14.46s CPU     14.51s WALL (   10768 calls)
     cdiaghg      :    515.99s CPU    519.59s WALL (   13533 calls)

     Called by h_psi:
     add_vuspsi   :    240.97s CPU    241.63s WALL (   13613 calls)

     General routines
     calbec       :    361.52s CPU    366.14s WALL (   16613 calls)
     fft          :    631.62s CPU    689.62s WALL (   72207 calls)
     ffts         :      1.58s CPU      1.64s WALL (    1152 calls)
     fftw         :   1343.74s CPU   1416.18s WALL ( 1611090 calls)
     interpolate  :     12.72s CPU     13.03s WALL (    1152 calls)
     davcio       :      0.00s CPU      0.03s WALL (       5 calls)
 
     Parallel routines
     fft_scatter  :   1072.16s CPU   1184.89s WALL ( 1684449 calls)
 
     PWSCF        :     2h37m CPU        2h50m WALL

 
   This run was terminated on:   0:54:39  17Apr2018            

=------------------------------------------------------------------------------=
   JOB DONE.
=------------------------------------------------------------------------------=
Job  /afs/slac/g/suncat/bin/suncat-tsmpirun -x LD_LIBRARY_PATH -wdir /scratch/qe152065_B24T7 pw.x -npool 4 -in pw.inp

TID   HOST_NAME   COMMAND_LINE            STATUS            TERMINATION_TIME
===== ========== ================  =======================  ===================
00000 suncat0028 pw.x -npool 4 -i  Done                     04/17/2018 00:54:39
00001 suncat0028 pw.x -npool 4 -i  Done                     04/17/2018 00:54:39
00002 suncat0028 pw.x -npool 4 -i  Done                     04/17/2018 00:54:39
00003 suncat0028 pw.x -npool 4 -i  Done                     04/17/2018 00:54:39
00004 suncat0028 pw.x -npool 4 -i  Done                     04/17/2018 00:54:39
00005 suncat0028 pw.x -npool 4 -i  Done                     04/17/2018 00:54:39
00006 suncat0028 pw.x -npool 4 -i  Done                     04/17/2018 00:54:39
00007 suncat0028 pw.x -npool 4 -i  Done                     04/17/2018 00:54:39
00008 suncat0026 pw.x -npool 4 -i  Done                     04/17/2018 00:54:39
00009 suncat0026 pw.x -npool 4 -i  Done                     04/17/2018 00:54:39
00010 suncat0026 pw.x -npool 4 -i  Done                     04/17/2018 00:54:39
00011 suncat0026 pw.x -npool 4 -i  Done                     04/17/2018 00:54:39
00012 suncat0026 pw.x -npool 4 -i  Done                     04/17/2018 00:54:39
00013 suncat0026 pw.x -npool 4 -i  Done                     04/17/2018 00:54:39
00014 suncat0026 pw.x -npool 4 -i  Done                     04/17/2018 00:54:39
00015 suncat0026 pw.x -npool 4 -i  Done                     04/17/2018 00:54:39
00016 suncat0022 pw.x -npool 4 -i  Done                     04/17/2018 00:54:39
00017 suncat0022 pw.x -npool 4 -i  Done                     04/17/2018 00:54:39
00018 suncat0022 pw.x -npool 4 -i  Done                     04/17/2018 00:54:39
00019 suncat0022 pw.x -npool 4 -i  Done                     04/17/2018 00:54:39
00020 suncat0022 pw.x -npool 4 -i  Done                     04/17/2018 00:54:39
00021 suncat0022 pw.x -npool 4 -i  Done                     04/17/2018 00:54:39
00022 suncat0022 pw.x -npool 4 -i  Done                     04/17/2018 00:54:39
00023 suncat0022 pw.x -npool 4 -i  Done                     04/17/2018 00:54:39
00024 suncat0172 pw.x -npool 4 -i  Done                     04/17/2018 00:54:39
00025 suncat0172 pw.x -npool 4 -i  Done                     04/17/2018 00:54:39
00026 suncat0172 pw.x -npool 4 -i  Done                     04/17/2018 00:54:39
00027 suncat0172 pw.x -npool 4 -i  Done                     04/17/2018 00:54:39
00028 suncat0172 pw.x -npool 4 -i  Done                     04/17/2018 00:54:39
00029 suncat0172 pw.x -npool 4 -i  Done                     04/17/2018 00:54:39
00030 suncat0172 pw.x -npool 4 -i  Done                     04/17/2018 00:54:39
00031 suncat0172 pw.x -npool 4 -i  Done                     04/17/2018 00:54:39
