  python dir          : /home/mamunm/src/espresso
  espresso dir        : /home/vossj/suncat/esdld/espresso-dynpy-beef/bin
  pseudo dir          : /home/mamunm/src/pseudo/gbrv1.5pbe
  ase-espresso py git : GITVERSION



     Program PWSCF v.5.1rc2 (svn rev. ) starts on 22Feb2018 at 23: 7:21 

     This program is part of the open-source Quantum ESPRESSO suite
     for quantum simulation of materials; please cite
         "P. Giannozzi et al., J. Phys.:Condens. Matter 21 395502 (2009);
          URL http://www.quantum-espresso.org", 
     in publications or presentations arising from this work. More details at
     http://www.quantum-espresso.org/quote

     Parallel version (MPI), running on    16 processors
     R & G space division:  proc/nbgrp/npool/nimage =      16
     Reading input from pw.inp
     Message from routine read_cards :
     DEPRECATED: no units specified in CELL_PARAMETERS card

     Current dimensions of program PWSCF are:
     Max number of different atomic species (ntypx) = 10
     Max number of k-points (npk) =  40000
     Max angular momentum in pseudopotentials (lmaxx) =  3
     Presently stress not available with electric field


     **************************************************************************
     Initializing libbeef V0.1.1 with the BEEF-vdW functional.
     Citation: Wellendorff et al., PRB 85, 235149 (2012).
     **************************************************************************


     IMPORTANT: XC functional enforced from input :
     Exchange-correlation      = BEEF-VDW ( 1  4 27 13 2)
     Any further DFT definition will be discarded
     Please, verify this is what you really want


     Subspace diagonalization in iterative solution of the eigenvalue problem:
     a serial algorithm will be used

 
     Parallelization info
     --------------------
     sticks:   dense  smooth     PW     G-vecs:    dense   smooth      PW
     Min         273     109     31                54089    13674    2071
     Max         274     110     32                54106    13722    2088
     Sum        4381    1759    499               865629   219157   33273
 


     bravais-lattice index     =            0
     lattice parameter (alat)  =       1.8897  a.u.
     unit-cell volume          =    7276.7660 (a.u.)^3
     number of atoms/cell      =           13
     number of atomic types    =            2
     number of electrons       =       186.00
     number of Kohn-Sham states=          103
     kinetic-energy cutoff     =      36.7493  Ry
     charge density cutoff     =     367.4932  Ry
     convergence threshold     =      1.0E-05
     mixing beta               =       0.3000
     number of iterations used =           10  plain     mixing
     Exchange-correlation      = BEEF-VDW ( 1  4 27 13 2)
     nstep                     =           50


     celldm(1)=   1.889726  celldm(2)=   0.000000  celldm(3)=   0.000000
     celldm(4)=   0.000000  celldm(5)=   0.000000  celldm(6)=   0.000000

     crystal axes: (cart. coord. in units of alat)
               a(1) = (   6.962526   0.000000   0.000000 )  
               a(2) = (   3.481263   6.029724   0.000000 )  
               a(3) = (   0.000000   0.000000  25.684879 )  

     reciprocal axes: (cart. coord. in units 2 pi/alat)
               b(1) = (  0.143626 -0.082923  0.000000 )  
               b(2) = (  0.000000  0.165845  0.000000 )  
               b(3) = (  0.000000  0.000000  0.038933 )  


     PseudoPot. # 1 for Bi read from file:
     /home/mamunm/src/pseudo/gbrv1.5pbe/Bi.UPF
     MD5 check sum: 81103212dc04adf40945787f699eab19
     Pseudo is Ultrasoft + core correction, Zval = 15.0
     Generated by new atomic code, or converted to UPF format
     Using radial grid of  899 points,  6 beta functions with: 
                l(1) =   0
                l(2) =   0
                l(3) =   1
                l(4) =   1
                l(5) =   2
                l(6) =   2
     Q(r) pseudized with  6 coefficients,  rinner =    1.000   1.000   1.000
                                                       1.000   1.000

     PseudoPot. # 2 for S  read from file:
     /home/mamunm/src/pseudo/gbrv1.5pbe/S.UPF
     MD5 check sum: 88d86576ff6df21479756cfb9bdac1df
     Pseudo is Ultrasoft + core correction, Zval =  6.0
     Generated by new atomic code, or converted to UPF format
     Using radial grid of  907 points,  6 beta functions with: 
                l(1) =   0
                l(2) =   0
                l(3) =   1
                l(4) =   1
                l(5) =   2
                l(6) =   2
     Q(r) pseudized with  8 coefficients,  rinner =    1.300   1.300   1.300
                                                       1.300   1.300

     vdW kernel table read from file vdW_kernel_table
     MD5 check sum: 095c7af220d748ca6e76c0b4c6cfb241

     atomic species   valence    mass     pseudopotential
        Bi1           15.00   208.98040     Bi( 1.00)
        S1             6.00    32.06000     S ( 1.00)

     No symmetry found



   Cartesian axes

     site n.     atom                  positions (alat units)
         1           Bi1 tau(   1) = (   1.7406315   1.0049541  10.0000000  )
         2           Bi1 tau(   2) = (   5.2218945   1.0049541  10.0000000  )
         3           Bi1 tau(   3) = (   3.4812630   4.0198163  10.0000000  )
         4           Bi1 tau(   4) = (   6.9625260   4.0198163  10.0000000  )
         5           Bi1 tau(   5) = (   6.9625260   2.0099081  12.8424393  )
         6           Bi1 tau(   6) = (   3.4812630   2.0099081  12.8424393  )
         7           Bi1 tau(   7) = (   8.7031575   5.0247703  12.8424393  )
         8           Bi1 tau(   8) = (   5.2218945   5.0247703  12.8424393  )
         9           Bi1 tau(   9) = (   0.0000000   0.0000000  15.6848787  )
        10           Bi1 tau(  10) = (   3.4812630   0.0000000  15.6848787  )
        11           Bi1 tau(  11) = (   1.7406315   3.0148622  15.6848787  )
        12           Bi1 tau(  12) = (   5.2218945   3.0148622  15.6848787  )
        13           S1  tau(  13) = (   3.4812630   2.0099081  17.3293787  )

     number of k points=    20  Fermi-Dirac smearing, width (Ry)=  0.0110
                       cart. coord. in units 2pi/alat
        k(    1) = (   0.0000000   0.0000000   0.0000000), wk =   0.0555556
        k(    2) = (   0.0000000   0.0276408   0.0000000), wk =   0.1111111
        k(    3) = (   0.0000000   0.0552817   0.0000000), wk =   0.1111111
        k(    4) = (   0.0000000  -0.0829225   0.0000000), wk =   0.0555556
        k(    5) = (   0.0239377  -0.0138204   0.0000000), wk =   0.1111111
        k(    6) = (   0.0239377   0.0138204   0.0000000), wk =   0.1111111
        k(    7) = (   0.0239377   0.0414613   0.0000000), wk =   0.1111111
        k(    8) = (   0.0239377  -0.0967430   0.0000000), wk =   0.1111111
        k(    9) = (   0.0239377  -0.0691021   0.0000000), wk =   0.1111111
        k(   10) = (   0.0239377  -0.0414613   0.0000000), wk =   0.1111111
        k(   11) = (   0.0478753  -0.0276408   0.0000000), wk =   0.1111111
        k(   12) = (   0.0478753   0.0000000   0.0000000), wk =   0.1111111
        k(   13) = (   0.0478753   0.0276408   0.0000000), wk =   0.1111111
        k(   14) = (   0.0478753  -0.1105634   0.0000000), wk =   0.1111111
        k(   15) = (   0.0478753  -0.0829225   0.0000000), wk =   0.1111111
        k(   16) = (   0.0478753  -0.0552817   0.0000000), wk =   0.1111111
        k(   17) = (  -0.0718130   0.0414613   0.0000000), wk =   0.0555556
        k(   18) = (  -0.0718130   0.0691021   0.0000000), wk =   0.1111111
        k(   19) = (  -0.0718130   0.0967430   0.0000000), wk =   0.1111111
        k(   20) = (  -0.0718130  -0.0414613   0.0000000), wk =   0.0555556

     Dense  grid:   865629 G-vectors     FFT dimensions: (  81,  81, 300)

     Smooth grid:   219157 G-vectors     FFT dimensions: (  54,  54, 192)

     Largest allocated arrays     est. size (Mb)     dimensions
        Kohn-Sham Wavefunctions         2.76 Mb     (    1753,  103)
        NL pseudopotentials             6.26 Mb     (    1753,  234)
        Each V/rho on FFT grid          1.90 Mb     (  124659)
        Each G-vector array             0.41 Mb     (   54089)
        G-vector shells                 0.16 Mb     (   20499)
     Largest temporary arrays     est. size (Mb)     dimensions
        Auxiliary wavefunctions        11.02 Mb     (    1753,  412)
        Each subspace H/S matrix        2.59 Mb     (     412,  412)
        Each <psi_i|beta_j> matrix      0.37 Mb     (     234,  103)
        Arrays for rho mixing          19.02 Mb     (  124659,   10)

     Check: negative/imaginary core charge=   -0.000001    0.000000

     Initial potential from superposition of free atoms
     Check: negative starting charge=   -0.503118

     starting charge  173.99946, renormalised to  186.00000

     negative rho (up, down):  5.378E-01 0.000E+00


     ************************************************************************
     *
     * You are using vdW-DF for exchange-correlation in this calculation.
     * Please cite the following three references that made this development
     * possible:
     *
     *   M. Dion, H. Rydberg, E. Schroder, D. C. Langreth, and
     *   B. I. Lundqvist, Phys. Rev. Lett. 92, 246401 (2004).
     *
     *   T. Thonhauser, V. R. Cooper, S. Li, A. Puzder, P. Hyldgaard, and
     *   D. C. Langreth, Phys. Rev. B 76, 125112 (2007).
     *
     *   G. Roman-Perez and J. M. Soler, Phys. Rev. Lett. 103, 096102 (2009).
     *
     *
     * If you are using vdW-DF2, please also cite:
     *
     *   K. Lee, E. D. Murray, L. Kong, B. I. Lundqvist, and
     *   D. C. Langreth, Phys. Rev. B 82, 081101(R) (2010).
     *
     *
     * If you are calculating the stress with vdW-DF, please also cite:
     *
     *   R. Sabatini, E. Kucukbenli, B. Kolb, T. Thonhauser, and
     *   S. de Gironcoli, J. Phys.: Condens. Matter 24, 424209 (2012).
     *
     ************************************************************************

     Carrying out vdW-DF run using the following parameters:

     Nqs =      20    Nr_points =    1024   r_max =   100.000
     q_mesh =
               0.00001000     0.04494208     0.09755937     0.15916263
               0.23128650     0.31572767     0.41458969     0.53033537
               0.66584808     0.82450364     1.01025438     1.22772762
               1.48234092     1.78043706     2.12944203     2.53805004
               3.01644009     3.57652955     4.23227104     5.00000000

     Gradients computed in reciprocal space

     ************************************************************************


 
     Adding external electric field

     Computed dipole along edir(3) : 
        Dipole               -3.5084 Ry au,         -8.9175 Debye
        Dipole field         -0.0061 Ry au
 
        Potential amp.        0.5734 Ry
        Total length         47.3240 bohr
 
     Starting wfc are  112 randomized atomic wfcs

     total cpu time spent up to now is       11.5 secs

     Self-consistent Calculation

     iteration #  1     ecut=    36.75 Ry     beta=0.30
     Davidson diagonalization with overlap
     ethr =  1.00E-02,  avg # of iterations =  6.8

     negative rho (up, down):  5.144E-01 0.000E+00
 
     Adding external electric field

     Computed dipole along edir(3) : 
        Dipole               38.0989 Ry au,         96.8379 Debye
        Dipole field          0.0658 Ry au
 
        Potential amp.       -6.2272 Ry
        Total length         47.3240 bohr
 

     total cpu time spent up to now is       43.7 secs

     total energy              =   -2227.66445561 Ry
     Harris-Foulkes estimate   =   -2272.87440501 Ry
     estimated scf accuracy    <      95.53975370 Ry

     iteration #  2     ecut=    36.75 Ry     beta=0.30
     Davidson diagonalization with overlap
     ethr =  1.00E-02,  avg # of iterations = 13.5

     negative rho (up, down):  5.075E-01 0.000E+00
 
     Adding external electric field

     Computed dipole along edir(3) : 
        Dipole                2.7074 Ry au,          6.8815 Debye
        Dipole field          0.0047 Ry au
 
        Potential amp.       -0.4425 Ry
        Total length         47.3240 bohr
 

     total cpu time spent up to now is      118.4 secs

     total energy              =   -2110.61403966 Ry
     Harris-Foulkes estimate   =   -2503.50935864 Ry
     estimated scf accuracy    <    9153.80798071 Ry

     iteration #  3     ecut=    36.75 Ry     beta=0.30
     Davidson diagonalization with overlap
     ethr =  1.00E-02,  avg # of iterations =  9.2

     negative rho (up, down):  5.142E-01 0.000E+00
 
     Adding external electric field

     Computed dipole along edir(3) : 
        Dipole                2.8762 Ry au,          7.3107 Debye
        Dipole field          0.0050 Ry au
 
        Potential amp.       -0.4701 Ry
        Total length         47.3240 bohr
 

     total cpu time spent up to now is      167.3 secs

     total energy              =   -2262.82253796 Ry
     Harris-Foulkes estimate   =   -2288.85856045 Ry
     estimated scf accuracy    <     263.70353511 Ry

     iteration #  4     ecut=    36.75 Ry     beta=0.30
     Davidson diagonalization with overlap
     ethr =  1.00E-02,  avg # of iterations =  5.0

     negative rho (up, down):  5.119E-01 0.000E+00
 
     Adding external electric field

     Computed dipole along edir(3) : 
        Dipole                1.4027 Ry au,          3.5652 Debye
        Dipole field          0.0024 Ry au
 
        Potential amp.       -0.2293 Ry
        Total length         47.3240 bohr
 

     total cpu time spent up to now is      197.7 secs

     total energy              =   -2269.91796907 Ry
     Harris-Foulkes estimate   =   -2271.71101841 Ry
     estimated scf accuracy    <      14.96014635 Ry

     iteration #  5     ecut=    36.75 Ry     beta=0.30
     Davidson diagonalization with overlap
     ethr =  8.04E-03,  avg # of iterations =  2.6

     negative rho (up, down):  5.134E-01 0.000E+00
 
     Adding external electric field

     Computed dipole along edir(3) : 
        Dipole                1.0418 Ry au,          2.6481 Debye
        Dipole field          0.0018 Ry au
 
        Potential amp.       -0.1703 Ry
        Total length         47.3240 bohr
 

     total cpu time spent up to now is      221.0 secs

     total energy              =   -2270.22353590 Ry
     Harris-Foulkes estimate   =   -2270.54999512 Ry
     estimated scf accuracy    <       1.02397029 Ry

     iteration #  6     ecut=    36.75 Ry     beta=0.30
     Davidson diagonalization with overlap
     ethr =  5.51E-04,  avg # of iterations =  4.5

     negative rho (up, down):  5.154E-01 0.000E+00
 
     Adding external electric field

     Computed dipole along edir(3) : 
        Dipole               -0.0357 Ry au,         -0.0908 Debye
        Dipole field         -0.0001 Ry au
 
        Potential amp.        0.0058 Ry
        Total length         47.3240 bohr
 

     total cpu time spent up to now is      247.5 secs

     total energy              =   -2270.18969757 Ry
     Harris-Foulkes estimate   =   -2270.36936569 Ry
     estimated scf accuracy    <       0.54608761 Ry

     iteration #  7     ecut=    36.75 Ry     beta=0.30
     Davidson diagonalization with overlap
     ethr =  2.94E-04,  avg # of iterations =  3.1

     negative rho (up, down):  5.192E-01 0.000E+00
 
     Adding external electric field

     Computed dipole along edir(3) : 
        Dipole               -0.3512 Ry au,         -0.8927 Debye
        Dipole field         -0.0006 Ry au
 
        Potential amp.        0.0574 Ry
        Total length         47.3240 bohr
 

     total cpu time spent up to now is      272.0 secs

     total energy              =   -2270.22557242 Ry
     Harris-Foulkes estimate   =   -2270.25993876 Ry
     estimated scf accuracy    <       0.11796051 Ry

     iteration #  8     ecut=    36.75 Ry     beta=0.30
     Davidson diagonalization with overlap
     ethr =  6.34E-05,  avg # of iterations =  4.8

     negative rho (up, down):  5.222E-01 0.000E+00
 
     Adding external electric field

     Computed dipole along edir(3) : 
        Dipole               -0.3471 Ry au,         -0.8822 Debye
        Dipole field         -0.0006 Ry au
 
        Potential amp.        0.0567 Ry
        Total length         47.3240 bohr
 

     total cpu time spent up to now is      297.6 secs

     total energy              =   -2270.22235189 Ry
     Harris-Foulkes estimate   =   -2270.23812526 Ry
     estimated scf accuracy    <       0.07875297 Ry

     iteration #  9     ecut=    36.75 Ry     beta=0.30
     Davidson diagonalization with overlap
     ethr =  4.23E-05,  avg # of iterations =  3.9

     negative rho (up, down):  5.238E-01 0.000E+00
 
     Adding external electric field

     Computed dipole along edir(3) : 
        Dipole               -0.4607 Ry au,         -1.1709 Debye
        Dipole field         -0.0008 Ry au
 
        Potential amp.        0.0753 Ry
        Total length         47.3240 bohr
 

     total cpu time spent up to now is      323.0 secs

     total energy              =   -2270.22903392 Ry
     Harris-Foulkes estimate   =   -2270.23815131 Ry
     estimated scf accuracy    <       0.14682402 Ry

     iteration # 10     ecut=    36.75 Ry     beta=0.30
     Davidson diagonalization with overlap
     ethr =  4.23E-05,  avg # of iterations =  2.0

     negative rho (up, down):  5.241E-01 0.000E+00
 
     Adding external electric field

     Computed dipole along edir(3) : 
        Dipole               -0.4651 Ry au,         -1.1823 Debye
        Dipole field         -0.0008 Ry au
 
        Potential amp.        0.0760 Ry
        Total length         47.3240 bohr
 

     total cpu time spent up to now is      345.4 secs

     total energy              =   -2270.23167952 Ry
     Harris-Foulkes estimate   =   -2270.23232352 Ry
     estimated scf accuracy    <       0.00936166 Ry

     iteration # 11     ecut=    36.75 Ry     beta=0.30
     Davidson diagonalization with overlap
     ethr =  5.03E-06,  avg # of iterations =  5.8

     negative rho (up, down):  5.246E-01 0.000E+00
 
     Adding external electric field

     Computed dipole along edir(3) : 
        Dipole               -0.4421 Ry au,         -1.1237 Debye
        Dipole field         -0.0008 Ry au
 
        Potential amp.        0.0723 Ry
        Total length         47.3240 bohr
 

     total cpu time spent up to now is      372.7 secs

     total energy              =   -2270.23211934 Ry
     Harris-Foulkes estimate   =   -2270.23216544 Ry
     estimated scf accuracy    <       0.00115306 Ry

     iteration # 12     ecut=    36.75 Ry     beta=0.30
     Davidson diagonalization with overlap
     ethr =  6.20E-07,  avg # of iterations =  2.1

     negative rho (up, down):  5.250E-01 0.000E+00
 
     Adding external electric field

     Computed dipole along edir(3) : 
        Dipole               -0.4040 Ry au,         -1.0268 Debye
        Dipole field         -0.0007 Ry au
 
        Potential amp.        0.0660 Ry
        Total length         47.3240 bohr
 

     total cpu time spent up to now is      395.2 secs

     total energy              =   -2270.23214546 Ry
     Harris-Foulkes estimate   =   -2270.23221813 Ry
     estimated scf accuracy    <       0.00074286 Ry

     iteration # 13     ecut=    36.75 Ry     beta=0.30
     Davidson diagonalization with overlap
     ethr =  3.99E-07,  avg # of iterations =  2.0

     negative rho (up, down):  5.268E-01 0.000E+00
 
     Adding external electric field

     Computed dipole along edir(3) : 
        Dipole               -0.2687 Ry au,         -0.6831 Debye
        Dipole field         -0.0005 Ry au
 
        Potential amp.        0.0439 Ry
        Total length         47.3240 bohr
 

     total cpu time spent up to now is      417.4 secs

     total energy              =   -2270.23215819 Ry
     Harris-Foulkes estimate   =   -2270.23231720 Ry
     estimated scf accuracy    <       0.00045612 Ry

     iteration # 14     ecut=    36.75 Ry     beta=0.30
     Davidson diagonalization with overlap
     ethr =  2.45E-07,  avg # of iterations =  3.1

     negative rho (up, down):  5.268E-01 0.000E+00
 
     Adding external electric field

     Computed dipole along edir(3) : 
        Dipole               -0.2481 Ry au,         -0.6305 Debye
        Dipole field         -0.0004 Ry au
 
        Potential amp.        0.0405 Ry
        Total length         47.3240 bohr
 

     total cpu time spent up to now is      442.8 secs

     total energy              =   -2270.23224796 Ry
     Harris-Foulkes estimate   =   -2270.23226993 Ry
     estimated scf accuracy    <       0.00016571 Ry

     iteration # 15     ecut=    36.75 Ry     beta=0.30
     Davidson diagonalization with overlap
     ethr =  8.91E-08,  avg # of iterations =  3.0

     negative rho (up, down):  5.269E-01 0.000E+00
 
     Adding external electric field

     Computed dipole along edir(3) : 
        Dipole               -0.2299 Ry au,         -0.5844 Debye
        Dipole field         -0.0004 Ry au
 
        Potential amp.        0.0376 Ry
        Total length         47.3240 bohr
 

     total cpu time spent up to now is      467.5 secs

     total energy              =   -2270.23225452 Ry
     Harris-Foulkes estimate   =   -2270.23227933 Ry
     estimated scf accuracy    <       0.00011001 Ry

     iteration # 16     ecut=    36.75 Ry     beta=0.30
     Davidson diagonalization with overlap
     ethr =  5.91E-08,  avg # of iterations =  2.0

     negative rho (up, down):  5.270E-01 0.000E+00

     negative rho (up, down):  5.270E-01 0.000E+00

     negative rho (up, down):  5.270E-01 0.000E+00

     negative rho (up, down):  5.270E-01 0.000E+00

     negative rho (up, down):  5.270E-01 0.000E+00

     negative rho (up, down):  5.270E-01 0.000E+00

     negative rho (up, down):  5.270E-01 0.000E+00

     negative rho (up, down):  5.270E-01 0.000E+00

     negative rho (up, down):  5.270E-01 0.000E+00

     negative rho (up, down):  5.270E-01 0.000E+00

     negative rho (up, down):  5.270E-01 0.000E+00

     negative rho (up, down):  5.270E-01 0.000E+00

     negative rho (up, down):  5.270E-01 0.000E+00

     negative rho (up, down):  5.270E-01 0.000E+00

     negative rho (up, down):  5.270E-01 0.000E+00

     negative rho (up, down):  5.270E-01 0.000E+00

     negative rho (up, down):  5.270E-01 0.000E+00

     negative rho (up, down):  5.270E-01 0.000E+00

     negative rho (up, down):  5.270E-01 0.000E+00

     negative rho (up, down):  5.270E-01 0.000E+00

     negative rho (up, down):  5.270E-01 0.000E+00

     negative rho (up, down):  5.270E-01 0.000E+00

     negative rho (up, down):  5.270E-01 0.000E+00

     negative rho (up, down):  5.270E-01 0.000E+00

     negative rho (up, down):  5.270E-01 0.000E+00

     negative rho (up, down):  5.270E-01 0.000E+00

     negative rho (up, down):  5.270E-01 0.000E+00

     negative rho (up, down):  5.270E-01 0.000E+00

     negative rho (up, down):  5.270E-01 0.000E+00

     negative rho (up, down):  5.270E-01 0.000E+00

     negative rho (up, down):  5.270E-01 0.000E+00

     negative rho (up, down):  5.270E-01 0.000E+00

     negative rho (up, down):  5.270E-01 0.000E+00

     negative rho (up, down):  5.270E-01 0.000E+00

     negative rho (up, down):  5.270E-01 0.000E+00
 
     Adding external electric field

     Computed dipole along edir(3) : 
        Dipole               -0.2039 Ry au,         -0.5184 Debye
        Dipole field         -0.0004 Ry au
 
        Potential amp.        0.0333 Ry
        Total length         47.3240 bohr
 

     total cpu time spent up to now is      516.3 secs

     End of self-consistent calculation

          k = 0.0000 0.0000 0.0000 ( 27441 PWs)   bands (ev):

   -22.3428 -22.3358 -22.3358 -22.3330 -22.2992 -22.2992 -22.2804 -22.2803
   -22.2769 -22.2630 -22.2584 -22.2584 -22.2425 -22.2425 -22.2180 -22.2044
   -22.1969 -22.1947 -22.1947 -22.1885 -22.1885 -22.1649 -22.1649 -22.1498
   -22.1403 -22.1403 -22.1332 -22.1300 -22.1300 -22.1243 -22.1243 -22.1159
   -22.1159 -22.1077 -22.1040 -22.1040 -22.0962 -22.0791 -22.0607 -22.0563
   -22.0563 -22.0395 -22.0395 -22.0079 -21.9819 -21.9818 -21.9657 -21.9639
   -21.9559 -21.9558 -21.9355 -21.9354 -21.9199 -21.9198 -21.9121 -21.9048
   -21.9048 -21.9021 -21.9021 -21.8882 -12.9830 -11.9299 -10.6694  -9.6318
    -9.4050  -9.4050  -9.2488  -9.0029  -9.0029  -8.6652  -8.4666  -8.4666
    -8.3011  -3.8286  -3.6105  -3.6105  -3.2778  -3.2778  -3.0743  -2.9489
    -2.6102  -2.5381  -2.5381  -1.3304  -1.3303  -0.4813   0.1677   0.9915
     0.9915   1.0822   1.5962   1.5962   2.1646   2.2430   2.2430   2.2582
     2.9224   3.1906   3.2049   3.2049   3.2681   3.9699   3.9699

          k = 0.0000 0.0276 0.0000 ( 27382 PWs)   bands (ev):

   -22.3367 -22.3320 -22.3269 -22.3250 -22.2972 -22.2971 -22.2804 -22.2728
   -22.2725 -22.2605 -22.2551 -22.2507 -22.2438 -22.2389 -22.2153 -22.2066
   -22.1977 -22.1941 -22.1934 -22.1901 -22.1856 -22.1679 -22.1665 -22.1510
   -22.1427 -22.1396 -22.1360 -22.1323 -22.1301 -22.1293 -22.1274 -22.1240
   -22.1188 -22.1036 -22.1036 -22.0960 -22.0948 -22.0857 -22.0600 -22.0516
   -22.0475 -22.0389 -22.0384 -22.0057 -21.9838 -21.9811 -21.9684 -21.9670
   -21.9595 -21.9568 -21.9426 -21.9393 -21.9294 -21.9259 -21.9184 -21.9102
   -21.9077 -21.9029 -21.9023 -21.8899 -12.9392 -11.8402 -10.6162  -9.8301
    -9.5751  -9.4745  -9.3490  -9.0722  -9.0041  -8.6932  -8.4959  -8.4494
    -8.2876  -3.6728  -3.4112  -3.2510  -3.1465  -3.1396  -2.8623  -2.7987
    -2.3680  -2.2976  -1.9934  -1.3513  -1.3327  -0.4346   0.2338   0.3662
     0.8836   1.0008   1.3306   1.6577   1.7682   1.8680   2.2677   2.2924
     2.6296   2.6751   2.9888   3.3795   3.4237   3.5749   3.6419

          k = 0.0000 0.0553 0.0000 ( 27394 PWs)   bands (ev):

   -22.3284 -22.3216 -22.3065 -22.3029 -22.2930 -22.2928 -22.2814 -22.2622
   -22.2603 -22.2531 -22.2518 -22.2410 -22.2323 -22.2200 -22.2147 -22.2119
   -22.2063 -22.1939 -22.1897 -22.1867 -22.1809 -22.1761 -22.1717 -22.1580
   -22.1503 -22.1485 -22.1447 -22.1441 -22.1389 -22.1375 -22.1328 -22.1295
   -22.1258 -22.1121 -22.0983 -22.0982 -22.0697 -22.0688 -22.0654 -22.0377
   -22.0352 -22.0328 -22.0230 -22.0006 -21.9873 -21.9839 -21.9792 -21.9707
   -21.9692 -21.9684 -21.9573 -21.9561 -21.9504 -21.9417 -21.9228 -21.9212
   -21.9151 -21.9045 -21.9028 -21.8924 -12.8443 -11.5730 -10.5909 -10.3293
    -9.6990  -9.5880  -9.5150  -9.2259  -9.0259  -8.8281  -8.5637  -8.4204
    -8.2617  -3.4030  -2.8864  -2.8351  -2.7460  -2.5063  -2.3212  -2.0573
    -1.8377  -1.7776  -1.4451  -1.2866  -0.8975  -0.3246  -0.1194   0.1631
     0.1956   0.5478   0.9303   1.1012   1.1705   1.5128   1.7423   2.0064
     2.1044   2.2369   2.5695   2.6022   2.7703   3.1569   3.4674

          k = 0.0000-0.0829 0.0000 ( 27378 PWs)   bands (ev):

   -22.3249 -22.3146 -22.2975 -22.2925 -22.2905 -22.2868 -22.2785 -22.2603
   -22.2557 -22.2445 -22.2403 -22.2359 -22.2346 -22.2209 -22.2158 -22.2016
   -22.1984 -22.1905 -22.1880 -22.1855 -22.1841 -22.1809 -22.1736 -22.1692
   -22.1621 -22.1616 -22.1539 -22.1473 -22.1454 -22.1452 -22.1338 -22.1286
   -22.1253 -22.1139 -22.1030 -22.0943 -22.0700 -22.0499 -22.0397 -22.0367
   -22.0334 -22.0282 -21.9987 -21.9938 -21.9883 -21.9882 -21.9863 -21.9832
   -21.9820 -21.9778 -21.9754 -21.9724 -21.9568 -21.9436 -21.9288 -21.9222
   -21.9193 -21.9052 -21.9030 -21.8933 -12.7926 -11.2058 -11.0345 -10.2845
    -9.8529  -9.6369  -9.5361  -9.2753  -9.0415  -8.9655  -8.5846  -8.4087
    -8.2382  -3.2899  -2.5913  -2.5696  -2.1065  -2.1052  -1.9994  -1.9895
    -1.6719  -1.5117  -1.3343  -0.7341  -0.6707  -0.5267  -0.2442   0.1091
     0.4822   0.5652   0.6144   0.8329   0.8944   1.0611   1.1127   1.4911
     1.5812   1.7230   1.8215   2.2802   2.5638   3.2729   3.3478

          k = 0.0239-0.0138 0.0000 ( 27382 PWs)   bands (ev):

   -22.3367 -22.3320 -22.3269 -22.3250 -22.2972 -22.2971 -22.2804 -22.2728
   -22.2725 -22.2606 -22.2551 -22.2506 -22.2438 -22.2389 -22.2153 -22.2066
   -22.1977 -22.1941 -22.1934 -22.1900 -22.1856 -22.1679 -22.1665 -22.1510
   -22.1427 -22.1396 -22.1360 -22.1322 -22.1302 -22.1293 -22.1275 -22.1240
   -22.1188 -22.1036 -22.1036 -22.0960 -22.0948 -22.0857 -22.0600 -22.0516
   -22.0475 -22.0389 -22.0384 -22.0056 -21.9838 -21.9811 -21.9684 -21.9670
   -21.9595 -21.9568 -21.9426 -21.9393 -21.9294 -21.9259 -21.9183 -21.9102
   -21.9077 -21.9029 -21.9023 -21.8899 -12.9392 -11.8402 -10.6162  -9.8301
    -9.5751  -9.4745  -9.3490  -9.0722  -9.0040  -8.6932  -8.4959  -8.4494
    -8.2876  -3.6728  -3.4112  -3.2510  -3.1465  -3.1396  -2.8623  -2.7987
    -2.3680  -2.2976  -1.9934  -1.3513  -1.3327  -0.4346   0.2338   0.3662
     0.8836   1.0008   1.3306   1.6577   1.7681   1.8681   2.2677   2.2924
     2.6296   2.6751   2.9888   3.3796   3.4237   3.5750   3.6419

          k = 0.0239 0.0138 0.0000 ( 27382 PWs)   bands (ev):

   -22.3367 -22.3320 -22.3269 -22.3250 -22.2972 -22.2971 -22.2804 -22.2728
   -22.2725 -22.2606 -22.2551 -22.2507 -22.2438 -22.2389 -22.2153 -22.2066
   -22.1977 -22.1941 -22.1934 -22.1901 -22.1856 -22.1679 -22.1665 -22.1510
   -22.1427 -22.1396 -22.1360 -22.1322 -22.1301 -22.1293 -22.1275 -22.1240
   -22.1188 -22.1036 -22.1036 -22.0960 -22.0948 -22.0857 -22.0600 -22.0516
   -22.0475 -22.0389 -22.0384 -22.0057 -21.9838 -21.9811 -21.9684 -21.9670
   -21.9595 -21.9569 -21.9426 -21.9393 -21.9294 -21.9259 -21.9184 -21.9102
   -21.9077 -21.9029 -21.9023 -21.8899 -12.9392 -11.8402 -10.6162  -9.8301
    -9.5751  -9.4745  -9.3490  -9.0722  -9.0040  -8.6932  -8.4959  -8.4494
    -8.2876  -3.6728  -3.4112  -3.2510  -3.1465  -3.1396  -2.8623  -2.7987
    -2.3680  -2.2976  -1.9934  -1.3513  -1.3327  -0.4346   0.2338   0.3662
     0.8836   1.0008   1.3306   1.6577   1.7681   1.8681   2.2677   2.2924
     2.6296   2.6751   2.9888   3.3796   3.4237   3.5749   3.6419

          k = 0.0239 0.0415 0.0000 ( 27415 PWs)   bands (ev):

   -22.3269 -22.3221 -22.3209 -22.3060 -22.2947 -22.2934 -22.2786 -22.2704
   -22.2582 -22.2565 -22.2502 -22.2445 -22.2423 -22.2248 -22.2120 -22.2099
   -22.2060 -22.1961 -22.1877 -22.1863 -22.1832 -22.1731 -22.1711 -22.1540
   -22.1477 -22.1462 -22.1430 -22.1396 -22.1361 -22.1348 -22.1310 -22.1276
   -22.1212 -22.1144 -22.0967 -22.0922 -22.0912 -22.0707 -22.0579 -22.0491
   -22.0379 -22.0363 -22.0262 -22.0016 -21.9873 -21.9810 -21.9784 -21.9706
   -21.9652 -21.9591 -21.9558 -21.9506 -21.9451 -21.9298 -21.9295 -21.9191
   -21.9124 -21.9040 -21.9028 -21.8925 -12.8694 -11.6612 -10.5319 -10.0840
   -10.0147  -9.5700  -9.3362  -9.1767  -8.9543  -8.7586  -8.5945  -8.4105
    -8.2955  -3.5094  -3.0475  -2.9341  -2.7831  -2.6282  -2.5124  -2.3765
    -2.1844  -1.5551  -1.4412  -1.3354  -1.2144  -0.3384  -0.1285   0.1222
     0.1739   0.7937   0.9216   1.3988   1.6615   1.7994   1.9508   2.0997
     2.2353   2.5526   2.6400   2.7799   2.9237   3.1166   3.5748

          k = 0.0239-0.0967 0.0000 ( 27352 PWs)   bands (ev):

   -22.3187 -22.3133 -22.3023 -22.2935 -22.2910 -22.2877 -22.2760 -22.2599
   -22.2593 -22.2472 -22.2409 -22.2347 -22.2314 -22.2255 -22.2152 -22.2061
   -22.2014 -22.1926 -22.1898 -22.1855 -22.1835 -22.1765 -22.1701 -22.1668
   -22.1610 -22.1575 -22.1534 -22.1451 -22.1431 -22.1383 -22.1355 -22.1285
   -22.1263 -22.1191 -22.1081 -22.0867 -22.0671 -22.0605 -22.0449 -22.0366
   -22.0339 -22.0279 -22.0098 -21.9961 -21.9896 -21.9879 -21.9863 -21.9796
   -21.9747 -21.9742 -21.9702 -21.9593 -21.9558 -21.9494 -21.9303 -21.9266
   -21.9190 -21.9049 -21.9034 -21.8949 -12.7944 -11.3078 -10.7614 -10.3214
   -10.1618  -9.7448  -9.4398  -9.1694  -9.0029  -8.7746  -8.6780  -8.3681
    -8.3121  -3.3073  -2.7337  -2.6322  -2.3149  -2.0399  -1.9107  -1.8145
    -1.5129  -1.4140  -1.1866  -1.0338  -0.8141  -0.4375  -0.2693  -0.1014
     0.0897   0.2986   0.7564   0.7942   1.2477   1.4343   1.4856   1.6193
     1.8928   2.0628   2.1592   2.3347   2.4700   2.6938   3.1186

          k = 0.0239-0.0691 0.0000 ( 27352 PWs)   bands (ev):

   -22.3187 -22.3133 -22.3023 -22.2935 -22.2910 -22.2877 -22.2761 -22.2599
   -22.2594 -22.2472 -22.2409 -22.2347 -22.2314 -22.2255 -22.2152 -22.2061
   -22.2014 -22.1926 -22.1898 -22.1855 -22.1835 -22.1765 -22.1701 -22.1668
   -22.1610 -22.1575 -22.1534 -22.1451 -22.1431 -22.1383 -22.1355 -22.1285
   -22.1263 -22.1191 -22.1081 -22.0867 -22.0671 -22.0605 -22.0449 -22.0366
   -22.0339 -22.0279 -22.0098 -21.9961 -21.9896 -21.9879 -21.9863 -21.9797
   -21.9748 -21.9742 -21.9702 -21.9593 -21.9558 -21.9494 -21.9303 -21.9266
   -21.9190 -21.9049 -21.9034 -21.8949 -12.7944 -11.3078 -10.7614 -10.3214
   -10.1618  -9.7448  -9.4398  -9.1694  -9.0029  -8.7746  -8.6780  -8.3681
    -8.3121  -3.3073  -2.7337  -2.6322  -2.3148  -2.0399  -1.9107  -1.8145
    -1.5129  -1.4140  -1.1866  -1.0338  -0.8141  -0.4375  -0.2693  -0.1014
     0.0897   0.2986   0.7564   0.7942   1.2477   1.4343   1.4856   1.6193
     1.8928   2.0628   2.1592   2.3347   2.4700   2.6938   3.1185

          k = 0.0239-0.0415 0.0000 ( 27415 PWs)   bands (ev):

   -22.3269 -22.3221 -22.3209 -22.3060 -22.2946 -22.2934 -22.2786 -22.2704
   -22.2582 -22.2565 -22.2502 -22.2445 -22.2423 -22.2248 -22.2120 -22.2099
   -22.2060 -22.1961 -22.1877 -22.1863 -22.1832 -22.1731 -22.1711 -22.1540
   -22.1477 -22.1462 -22.1430 -22.1396 -22.1362 -22.1348 -22.1310 -22.1276
   -22.1212 -22.1144 -22.0967 -22.0922 -22.0912 -22.0707 -22.0579 -22.0491
   -22.0379 -22.0363 -22.0263 -22.0016 -21.9872 -21.9810 -21.9784 -21.9707
   -21.9652 -21.9590 -21.9558 -21.9506 -21.9451 -21.9297 -21.9295 -21.9191
   -21.9124 -21.9040 -21.9028 -21.8925 -12.8694 -11.6612 -10.5319 -10.0839
   -10.0148  -9.5700  -9.3362  -9.1768  -8.9543  -8.7586  -8.5945  -8.4105
    -8.2955  -3.5094  -3.0475  -2.9341  -2.7831  -2.6282  -2.5124  -2.3765
    -2.1844  -1.5551  -1.4412  -1.3354  -1.2144  -0.3384  -0.1285   0.1222
     0.1739   0.7937   0.9216   1.3987   1.6615   1.7994   1.9508   2.0997
     2.2353   2.5526   2.6400   2.7799   2.9237   3.1166   3.5747

          k = 0.0479-0.0276 0.0000 ( 27394 PWs)   bands (ev):

   -22.3283 -22.3216 -22.3065 -22.3029 -22.2930 -22.2928 -22.2814 -22.2622
   -22.2603 -22.2531 -22.2518 -22.2409 -22.2323 -22.2199 -22.2147 -22.2119
   -22.2063 -22.1939 -22.1897 -22.1867 -22.1809 -22.1761 -22.1717 -22.1580
   -22.1503 -22.1485 -22.1447 -22.1441 -22.1390 -22.1374 -22.1327 -22.1295
   -22.1258 -22.1122 -22.0983 -22.0982 -22.0698 -22.0688 -22.0654 -22.0377
   -22.0351 -22.0328 -22.0230 -22.0005 -21.9873 -21.9839 -21.9792 -21.9708
   -21.9693 -21.9683 -21.9574 -21.9561 -21.9504 -21.9418 -21.9228 -21.9212
   -21.9151 -21.9045 -21.9028 -21.8924 -12.8443 -11.5730 -10.5909 -10.3293
    -9.6990  -9.5880  -9.5150  -9.2259  -9.0258  -8.8281  -8.5637  -8.4203
    -8.2617  -3.4030  -2.8864  -2.8351  -2.7460  -2.5063  -2.3212  -2.0573
    -1.8377  -1.7776  -1.4451  -1.2866  -0.8975  -0.3246  -0.1194   0.1631
     0.1956   0.5479   0.9303   1.1012   1.1705   1.5128   1.7423   2.0064
     2.1044   2.2369   2.5695   2.6022   2.7703   3.1569   3.4674

          k = 0.0479 0.0000 0.0000 ( 27415 PWs)   bands (ev):

   -22.3269 -22.3221 -22.3209 -22.3060 -22.2946 -22.2934 -22.2786 -22.2704
   -22.2582 -22.2565 -22.2502 -22.2445 -22.2423 -22.2248 -22.2120 -22.2099
   -22.2060 -22.1961 -22.1877 -22.1863 -22.1832 -22.1731 -22.1711 -22.1540
   -22.1477 -22.1462 -22.1430 -22.1396 -22.1362 -22.1348 -22.1309 -22.1277
   -22.1212 -22.1144 -22.0967 -22.0922 -22.0912 -22.0707 -22.0579 -22.0491
   -22.0379 -22.0363 -22.0263 -22.0016 -21.9872 -21.9809 -21.9784 -21.9707
   -21.9652 -21.9590 -21.9558 -21.9506 -21.9451 -21.9297 -21.9295 -21.9191
   -21.9124 -21.9040 -21.9028 -21.8925 -12.8694 -11.6612 -10.5319 -10.0839
   -10.0148  -9.5700  -9.3362  -9.1768  -8.9543  -8.7586  -8.5945  -8.4105
    -8.2955  -3.5094  -3.0475  -2.9341  -2.7831  -2.6282  -2.5124  -2.3765
    -2.1844  -1.5551  -1.4412  -1.3354  -1.2144  -0.3384  -0.1285   0.1222
     0.1739   0.7937   0.9216   1.3987   1.6615   1.7994   1.9508   2.0997
     2.2353   2.5526   2.6400   2.7799   2.9237   3.1166   3.5748

          k = 0.0479 0.0276 0.0000 ( 27394 PWs)   bands (ev):

   -22.3284 -22.3216 -22.3065 -22.3029 -22.2930 -22.2928 -22.2814 -22.2622
   -22.2603 -22.2531 -22.2518 -22.2409 -22.2323 -22.2200 -22.2147 -22.2119
   -22.2063 -22.1939 -22.1897 -22.1867 -22.1809 -22.1761 -22.1717 -22.1580
   -22.1503 -22.1485 -22.1447 -22.1441 -22.1389 -22.1374 -22.1328 -22.1295
   -22.1258 -22.1121 -22.0983 -22.0982 -22.0697 -22.0688 -22.0655 -22.0377
   -22.0352 -22.0328 -22.0230 -22.0006 -21.9873 -21.9839 -21.9792 -21.9707
   -21.9692 -21.9684 -21.9573 -21.9561 -21.9504 -21.9417 -21.9228 -21.9212
   -21.9151 -21.9045 -21.9028 -21.8924 -12.8443 -11.5730 -10.5910 -10.3293
    -9.6990  -9.5880  -9.5150  -9.2259  -9.0259  -8.8281  -8.5637  -8.4204
    -8.2617  -3.4030  -2.8864  -2.8351  -2.7460  -2.5063  -2.3212  -2.0573
    -1.8377  -1.7776  -1.4451  -1.2866  -0.8975  -0.3246  -0.1194   0.1631
     0.1956   0.5479   0.9303   1.1012   1.1705   1.5128   1.7423   2.0064
     2.1044   2.2369   2.5695   2.6022   2.7704   3.1569   3.4674

          k = 0.0479-0.1106 0.0000 ( 27352 PWs)   bands (ev):

   -22.3187 -22.3133 -22.3023 -22.2935 -22.2910 -22.2877 -22.2760 -22.2599
   -22.2594 -22.2473 -22.2409 -22.2348 -22.2314 -22.2255 -22.2152 -22.2062
   -22.2014 -22.1926 -22.1897 -22.1855 -22.1835 -22.1765 -22.1701 -22.1668
   -22.1610 -22.1575 -22.1534 -22.1451 -22.1431 -22.1383 -22.1355 -22.1285
   -22.1263 -22.1191 -22.1081 -22.0867 -22.0671 -22.0605 -22.0449 -22.0366
   -22.0339 -22.0279 -22.0098 -21.9961 -21.9896 -21.9879 -21.9863 -21.9796
   -21.9747 -21.9742 -21.9702 -21.9593 -21.9558 -21.9494 -21.9303 -21.9266
   -21.9190 -21.9049 -21.9034 -21.8949 -12.7944 -11.3078 -10.7614 -10.3214
   -10.1618  -9.7448  -9.4398  -9.1694  -9.0029  -8.7746  -8.6780  -8.3681
    -8.3121  -3.3073  -2.7337  -2.6322  -2.3149  -2.0399  -1.9107  -1.8145
    -1.5129  -1.4140  -1.1866  -1.0338  -0.8141  -0.4375  -0.2693  -0.1014
     0.0897   0.2986   0.7564   0.7942   1.2477   1.4343   1.4856   1.6193
     1.8928   2.0628   2.1592   2.3347   2.4700   2.6938   3.1185

          k = 0.0479-0.0829 0.0000 ( 27291 PWs)   bands (ev):

   -22.3082 -22.3063 -22.3016 -22.2920 -22.2897 -22.2892 -22.2674 -22.2609
   -22.2591 -22.2484 -22.2403 -22.2348 -22.2197 -22.2186 -22.2162 -22.2157
   -22.2051 -22.1962 -22.1911 -22.1844 -22.1803 -22.1732 -22.1712 -22.1696
   -22.1637 -22.1578 -22.1473 -22.1471 -22.1417 -22.1416 -22.1359 -22.1356
   -22.1245 -22.1235 -22.1198 -22.0681 -22.0673 -22.0556 -22.0494 -22.0347
   -22.0345 -22.0175 -22.0159 -21.9935 -21.9933 -21.9884 -21.9866 -21.9858
   -21.9733 -21.9720 -21.9696 -21.9597 -21.9560 -21.9554 -21.9456 -21.9244
   -21.9242 -21.9047 -21.9041 -21.8970 -12.7697 -10.9332 -10.8662 -10.7276
   -10.0687  -9.9354  -9.5049  -9.0900  -9.0364  -8.6714  -8.6125  -8.4450
    -8.3400  -3.2333  -2.6581  -2.5548  -2.0911  -1.9949  -1.7402  -1.5250
    -1.4286  -1.3124  -0.7627  -0.7544  -0.6956  -0.4992  -0.2953  -0.1791
     0.0930   0.1791   0.4681   0.5430   0.8463   1.0908   1.5295   1.6442
     1.9042   2.1945   2.2343   2.4022   2.4457   2.7070   2.9806

          k = 0.0479-0.0553 0.0000 ( 27352 PWs)   bands (ev):

   -22.3187 -22.3133 -22.3023 -22.2935 -22.2910 -22.2877 -22.2761 -22.2599
   -22.2594 -22.2473 -22.2409 -22.2347 -22.2314 -22.2255 -22.2152 -22.2062
   -22.2014 -22.1926 -22.1897 -22.1855 -22.1836 -22.1765 -22.1701 -22.1667
   -22.1610 -22.1575 -22.1534 -22.1451 -22.1431 -22.1383 -22.1355 -22.1285
   -22.1264 -22.1191 -22.1081 -22.0868 -22.0671 -22.0605 -22.0449 -22.0366
   -22.0339 -22.0279 -22.0098 -21.9961 -21.9896 -21.9879 -21.9863 -21.9796
   -21.9747 -21.9743 -21.9702 -21.9592 -21.9558 -21.9495 -21.9303 -21.9266
   -21.9190 -21.9049 -21.9034 -21.8949 -12.7944 -11.3078 -10.7614 -10.3214
   -10.1618  -9.7448  -9.4398  -9.1694  -9.0029  -8.7746  -8.6780  -8.3681
    -8.3121  -3.3073  -2.7337  -2.6322  -2.3149  -2.0399  -1.9107  -1.8145
    -1.5129  -1.4140  -1.1866  -1.0338  -0.8141  -0.4375  -0.2693  -0.1014
     0.0897   0.2986   0.7564   0.7942   1.2477   1.4343   1.4856   1.6193
     1.8928   2.0628   2.1592   2.3347   2.4700   2.6938   3.1185

          k =-0.0718 0.0415 0.0000 ( 27378 PWs)   bands (ev):

   -22.3249 -22.3145 -22.2974 -22.2925 -22.2905 -22.2868 -22.2785 -22.2604
   -22.2558 -22.2445 -22.2403 -22.2359 -22.2346 -22.2209 -22.2159 -22.2016
   -22.1984 -22.1904 -22.1880 -22.1854 -22.1841 -22.1809 -22.1736 -22.1692
   -22.1621 -22.1616 -22.1539 -22.1473 -22.1454 -22.1452 -22.1337 -22.1286
   -22.1252 -22.1140 -22.1029 -22.0943 -22.0699 -22.0499 -22.0397 -22.0367
   -22.0334 -22.0281 -21.9986 -21.9939 -21.9882 -21.9881 -21.9864 -21.9832
   -21.9820 -21.9779 -21.9753 -21.9725 -21.9567 -21.9437 -21.9288 -21.9221
   -21.9193 -21.9052 -21.9030 -21.8933 -12.7926 -11.2058 -11.0345 -10.2845
    -9.8528  -9.6369  -9.5361  -9.2753  -9.0414  -8.9655  -8.5846  -8.4087
    -8.2382  -3.2900  -2.5913  -2.5696  -2.1065  -2.1052  -1.9993  -1.9895
    -1.6719  -1.5118  -1.3344  -0.7341  -0.6707  -0.5267  -0.2441   0.1091
     0.4822   0.5653   0.6144   0.8329   0.8944   1.0611   1.1127   1.4911
     1.5812   1.7230   1.8215   2.2802   2.5639   3.2725   3.3486

          k =-0.0718 0.0691 0.0000 ( 27352 PWs)   bands (ev):

   -22.3187 -22.3133 -22.3023 -22.2935 -22.2910 -22.2877 -22.2761 -22.2599
   -22.2594 -22.2473 -22.2409 -22.2347 -22.2314 -22.2255 -22.2152 -22.2062
   -22.2014 -22.1926 -22.1897 -22.1855 -22.1836 -22.1765 -22.1701 -22.1667
   -22.1610 -22.1575 -22.1534 -22.1451 -22.1431 -22.1383 -22.1355 -22.1285
   -22.1263 -22.1191 -22.1081 -22.0868 -22.0671 -22.0605 -22.0449 -22.0366
   -22.0339 -22.0279 -22.0098 -21.9961 -21.9896 -21.9879 -21.9863 -21.9796
   -21.9747 -21.9743 -21.9702 -21.9592 -21.9558 -21.9495 -21.9303 -21.9266
   -21.9190 -21.9049 -21.9034 -21.8949 -12.7944 -11.3078 -10.7614 -10.3214
   -10.1618  -9.7448  -9.4398  -9.1694  -9.0029  -8.7746  -8.6780  -8.3681
    -8.3121  -3.3073  -2.7337  -2.6322  -2.3149  -2.0399  -1.9107  -1.8145
    -1.5129  -1.4140  -1.1866  -1.0338  -0.8141  -0.4375  -0.2693  -0.1014
     0.0897   0.2986   0.7564   0.7942   1.2477   1.4343   1.4856   1.6193
     1.8928   2.0628   2.1592   2.3347   2.4700   2.6938   3.1184

          k =-0.0718 0.0967 0.0000 ( 27352 PWs)   bands (ev):

   -22.3187 -22.3133 -22.3023 -22.2935 -22.2910 -22.2877 -22.2760 -22.2599
   -22.2594 -22.2473 -22.2409 -22.2348 -22.2314 -22.2255 -22.2152 -22.2062
   -22.2014 -22.1926 -22.1897 -22.1855 -22.1835 -22.1765 -22.1701 -22.1668
   -22.1610 -22.1575 -22.1534 -22.1451 -22.1431 -22.1383 -22.1355 -22.1285
   -22.1263 -22.1191 -22.1081 -22.0867 -22.0671 -22.0605 -22.0449 -22.0366
   -22.0339 -22.0279 -22.0098 -21.9961 -21.9896 -21.9879 -21.9863 -21.9797
   -21.9748 -21.9742 -21.9702 -21.9593 -21.9558 -21.9494 -21.9303 -21.9266
   -21.9190 -21.9049 -21.9034 -21.8949 -12.7944 -11.3078 -10.7614 -10.3214
   -10.1618  -9.7448  -9.4398  -9.1694  -9.0029  -8.7746  -8.6780  -8.3681
    -8.3121  -3.3073  -2.7337  -2.6322  -2.3148  -2.0399  -1.9107  -1.8145
    -1.5129  -1.4140  -1.1866  -1.0338  -0.8141  -0.4375  -0.2693  -0.1014
     0.0897   0.2986   0.7564   0.7942   1.2477   1.4343   1.4856   1.6193
     1.8928   2.0628   2.1592   2.3347   2.4700   2.6938   3.1185

          k =-0.0718-0.0415 0.0000 ( 27378 PWs)   bands (ev):

   -22.3249 -22.3145 -22.2974 -22.2925 -22.2905 -22.2868 -22.2785 -22.2604
   -22.2557 -22.2445 -22.2403 -22.2359 -22.2346 -22.2209 -22.2159 -22.2016
   -22.1984 -22.1905 -22.1880 -22.1854 -22.1841 -22.1809 -22.1736 -22.1692
   -22.1621 -22.1616 -22.1539 -22.1473 -22.1454 -22.1452 -22.1337 -22.1286
   -22.1252 -22.1140 -22.1029 -22.0943 -22.0700 -22.0499 -22.0397 -22.0367
   -22.0334 -22.0282 -21.9987 -21.9938 -21.9883 -21.9882 -21.9863 -21.9832
   -21.9820 -21.9778 -21.9754 -21.9724 -21.9568 -21.9436 -21.9288 -21.9222
   -21.9193 -21.9052 -21.9030 -21.8933 -12.7926 -11.2058 -11.0345 -10.2845
    -9.8529  -9.6369  -9.5361  -9.2753  -9.0414  -8.9655  -8.5846  -8.4087
    -8.2382  -3.2899  -2.5913  -2.5696  -2.1065  -2.1052  -1.9994  -1.9895
    -1.6719  -1.5118  -1.3343  -0.7341  -0.6707  -0.5267  -0.2441   0.1091
     0.4822   0.5652   0.6144   0.8329   0.8944   1.0611   1.1127   1.4911
     1.5812   1.7230   1.8215   2.2802   2.5638   3.2720   3.3472

     the Fermi energy is     1.4240 ev

!    total energy              =   -2270.23225932 Ry
     Harris-Foulkes estimate   =   -2270.23228161 Ry
     estimated scf accuracy    <       0.00000371 Ry

     The total energy is the sum of the following terms:

     one-electron contribution =  -10990.90173349 Ry
     hartree contribution      =    5551.73840481 Ry
     xc contribution           =    -807.89921103 Ry
     ewald contribution        =    3976.88216931 Ry
     electric field correction =       0.00007182 Ry
     smearing contrib. (-TS)   =      -0.05196074 Ry

     convergence has been achieved in  16 iterations
 
 BEEF-vdW xc energy contributions
           1 :   -720.067651181405     
           2 :    669.070778579574     
           3 :   -579.073848586568     
           4 :    469.595020691989     
           5 :   -361.179919745117     
           6 :    269.448407486599     
           7 :   -201.553036584714     
           8 :    155.970038463013     
           9 :   -125.318073702428     
          10 :    100.748542612330     
          11 :   -75.9592532216736     
          12 :    49.2454286064160     
          13 :   -23.0583001411314     
          14 :    1.70411742399779     
          15 :    11.4447232026369     
          16 :   -15.8451196599492     
          17 :    14.0076579826153     
          18 :   -10.1566225996137     
          19 :    8.16052459647369     
          20 :   -9.83344821586820     
          21 :    14.4091117488308     
          22 :   -19.3371913554261     
          23 :    21.8766179740736     
          24 :   -20.6127998291327     
          25 :    16.1409894854843     
          26 :   -10.6457142558835     
          27 :    6.68192003814522     
          28 :   -5.84359565307614     
          29 :    8.01166851597509     
          30 :   -11.5313338713381     
          31 :   -57.7087621177598     
          32 :   -42.4665463280130     

     Forces acting on atoms (Ry/au):


     negative rho (up, down):  5.270E-01 0.000E+00
     atom    1 type  1   force =     0.00276388    0.00159278   -0.01160612
     atom    2 type  1   force =    -0.00277869    0.00159090   -0.01161938
     atom    3 type  1   force =     0.00000897   -0.00320264   -0.01159687
     atom    4 type  1   force =    -0.00000055    0.00000976    0.00089437
     atom    5 type  1   force =     0.00002118    0.00078463   -0.01262557
     atom    6 type  1   force =    -0.00002245    0.00002397    0.00708183
     atom    7 type  1   force =    -0.00065403   -0.00042198   -0.01262089
     atom    8 type  1   force =     0.00066579   -0.00038707   -0.01264800
     atom    9 type  1   force =     0.00000135   -0.00000626    0.00494359
     atom   10 type  1   force =    -0.00001058   -0.02762669   -0.00539041
     atom   11 type  1   force =    -0.02391936    0.01381157   -0.00538640
     atom   12 type  1   force =     0.02392452    0.01382949   -0.00538987
     atom   13 type  2   force =    -0.00000001    0.00000154    0.07596372

     Total force =     0.090398     Total SCF correction =     0.009008


     entering subroutine stress ...


     negative rho (up, down):  5.270E-01 0.000E+00
          total   stress  (Ry/bohr**3)                   (kbar)     P=   13.65
   0.00008998  -0.00000000   0.00000000         13.24     -0.00      0.00
  -0.00000000   0.00008998  -0.00000000         -0.00     13.24     -0.00
   0.00000000  -0.00000000   0.00009843          0.00     -0.00     14.48


     BFGS Geometry Optimization

     number of scf cycles    =   1
     number of bfgs steps    =   0

     energy   new            =   -2270.2322593225 Ry

     new trust radius        =       0.0759637197 bohr
     new conv_thr            =       0.0000099958 Ry


ATOMIC_POSITIONS (crystal)
Bi1      0.166666667   0.166666667   0.389334134    0   0   0
Bi1      0.666666667   0.166666667   0.389334134    0   0   0
Bi1      0.166666667   0.666666667   0.389334134    0   0   0
Bi1      0.666666667   0.666666667   0.389334134    0   0   0
Bi1      0.833333333   0.333333333   0.500000000    0   0   0
Bi1      0.333333333   0.333333333   0.500000000    0   0   0
Bi1      0.833333333   0.833333333   0.500000000    0   0   0
Bi1      0.333333333   0.833333333   0.500000000    0   0   0
Bi1      0.000000377  -0.000000549   0.610767717
Bi1      0.501211475  -0.002424558   0.610554809
Bi1     -0.002424020   0.501212123   0.610554892
Bi1      0.501211502   0.501213696   0.610554820
S1       0.333333265   0.333333469   0.676256920



     Writing output data file calc.save
     Check: negative starting charge=   -0.503118
     NEW-OLD atomic charge density approx. for the potential

     Check: negative/imaginary core charge=   -0.000001    0.000000
     Check: negative starting charge=   -0.502910

     negative rho (up, down):  5.266E-01 0.000E+00
 
     Adding external electric field

     Computed dipole along edir(3) : 
        Dipole               -0.2152 Ry au,         -0.5469 Debye
        Dipole field         -0.0004 Ry au
 
        Potential amp.        0.0352 Ry
        Total length         47.3240 bohr
 

     total cpu time spent up to now is      553.9 secs

     Self-consistent Calculation

     iteration #  1     ecut=    36.75 Ry     beta=0.30
     Davidson diagonalization with overlap
     ethr =  1.00E-06,  avg # of iterations =  4.7

     negative rho (up, down):  5.266E-01 0.000E+00
 
     Adding external electric field

     Computed dipole along edir(3) : 
        Dipole               -0.4659 Ry au,         -1.1843 Debye
        Dipole field         -0.0008 Ry au
 
        Potential amp.        0.0762 Ry
        Total length         47.3240 bohr
 

     total cpu time spent up to now is      595.3 secs

     total energy              =   -2270.23766765 Ry
     Harris-Foulkes estimate   =   -2270.23931578 Ry
     estimated scf accuracy    <       0.00401313 Ry

     iteration #  2     ecut=    36.75 Ry     beta=0.30
     Davidson diagonalization with overlap
     ethr =  2.16E-06,  avg # of iterations =  6.2

     negative rho (up, down):  5.266E-01 0.000E+00
 
     Adding external electric field

     Computed dipole along edir(3) : 
        Dipole               -0.2515 Ry au,         -0.6393 Debye
        Dipole field         -0.0004 Ry au
 
        Potential amp.        0.0411 Ry
        Total length         47.3240 bohr
 

     total cpu time spent up to now is      625.5 secs

     total energy              =   -2270.22969382 Ry
     Harris-Foulkes estimate   =   -2270.24932947 Ry
     estimated scf accuracy    <       0.37532284 Ry

     iteration #  3     ecut=    36.75 Ry     beta=0.30
     Davidson diagonalization with overlap
     ethr =  2.16E-06,  avg # of iterations =  5.3

     negative rho (up, down):  5.266E-01 0.000E+00
 
     Adding external electric field

     Computed dipole along edir(3) : 
        Dipole               -0.2532 Ry au,         -0.6435 Debye
        Dipole field         -0.0004 Ry au
 
        Potential amp.        0.0414 Ry
        Total length         47.3240 bohr
 

     total cpu time spent up to now is      654.4 secs

     total energy              =   -2270.23932749 Ry
     Harris-Foulkes estimate   =   -2270.23942456 Ry
     estimated scf accuracy    <       0.00046336 Ry

     iteration #  4     ecut=    36.75 Ry     beta=0.30
     Davidson diagonalization with overlap
     ethr =  2.49E-07,  avg # of iterations =  3.0

     negative rho (up, down):  5.266E-01 0.000E+00
 
     Adding external electric field

     Computed dipole along edir(3) : 
        Dipole               -0.2546 Ry au,         -0.6472 Debye
        Dipole field         -0.0004 Ry au
 
        Potential amp.        0.0416 Ry
        Total length         47.3240 bohr
 

     total cpu time spent up to now is      679.0 secs

     total energy              =   -2270.23938190 Ry
     Harris-Foulkes estimate   =   -2270.23941345 Ry
     estimated scf accuracy    <       0.00020149 Ry

     iteration #  5     ecut=    36.75 Ry     beta=0.30
     Davidson diagonalization with overlap
     ethr =  1.08E-07,  avg # of iterations =  2.4

     negative rho (up, down):  5.267E-01 0.000E+00
 
     Adding external electric field

     Computed dipole along edir(3) : 
        Dipole               -0.2570 Ry au,         -0.6533 Debye
        Dipole field         -0.0004 Ry au
 
        Potential amp.        0.0420 Ry
        Total length         47.3240 bohr
 

     total cpu time spent up to now is      702.7 secs

     total energy              =   -2270.23940092 Ry
     Harris-Foulkes estimate   =   -2270.23939753 Ry
     estimated scf accuracy    <       0.00001398 Ry

     iteration #  6     ecut=    36.75 Ry     beta=0.30
     Davidson diagonalization with overlap
     ethr =  7.52E-09,  avg # of iterations =  3.0

     negative rho (up, down):  5.267E-01 0.000E+00

     negative rho (up, down):  5.267E-01 0.000E+00

     negative rho (up, down):  5.267E-01 0.000E+00

     negative rho (up, down):  5.267E-01 0.000E+00

     negative rho (up, down):  5.267E-01 0.000E+00

     negative rho (up, down):  5.267E-01 0.000E+00

     negative rho (up, down):  5.267E-01 0.000E+00

     negative rho (up, down):  5.267E-01 0.000E+00

     negative rho (up, down):  5.267E-01 0.000E+00

     negative rho (up, down):  5.267E-01 0.000E+00

     negative rho (up, down):  5.267E-01 0.000E+00

     negative rho (up, down):  5.267E-01 0.000E+00

     negative rho (up, down):  5.267E-01 0.000E+00

     negative rho (up, down):  5.267E-01 0.000E+00

     negative rho (up, down):  5.267E-01 0.000E+00

     negative rho (up, down):  5.267E-01 0.000E+00

     negative rho (up, down):  5.267E-01 0.000E+00

     negative rho (up, down):  5.267E-01 0.000E+00

     negative rho (up, down):  5.267E-01 0.000E+00

     negative rho (up, down):  5.267E-01 0.000E+00

     negative rho (up, down):  5.267E-01 0.000E+00

     negative rho (up, down):  5.267E-01 0.000E+00

     negative rho (up, down):  5.267E-01 0.000E+00

     negative rho (up, down):  5.267E-01 0.000E+00

     negative rho (up, down):  5.267E-01 0.000E+00

     negative rho (up, down):  5.267E-01 0.000E+00

     negative rho (up, down):  5.267E-01 0.000E+00

     negative rho (up, down):  5.267E-01 0.000E+00

     negative rho (up, down):  5.267E-01 0.000E+00

     negative rho (up, down):  5.267E-01 0.000E+00

     negative rho (up, down):  5.267E-01 0.000E+00

     negative rho (up, down):  5.267E-01 0.000E+00

     negative rho (up, down):  5.267E-01 0.000E+00

     negative rho (up, down):  5.267E-01 0.000E+00

     negative rho (up, down):  5.267E-01 0.000E+00
 
     Adding external electric field

     Computed dipole along edir(3) : 
        Dipole               -0.2538 Ry au,         -0.6452 Debye
        Dipole field         -0.0004 Ry au
 
        Potential amp.        0.0415 Ry
        Total length         47.3240 bohr
 

     total cpu time spent up to now is      753.2 secs

     End of self-consistent calculation

          k = 0.0000 0.0000 0.0000 ( 27441 PWs)   bands (ev):

   -22.3626 -22.3626 -22.3594 -22.3456 -22.3238 -22.3238 -22.3006 -22.3005
   -22.2981 -22.2898 -22.2831 -22.2831 -22.2587 -22.2587 -22.2453 -22.2277
   -22.2202 -22.2202 -22.2199 -22.2082 -22.2082 -22.1927 -22.1927 -22.1756
   -22.1620 -22.1620 -22.1568 -22.1553 -22.1552 -22.1494 -22.1494 -22.1400
   -22.1400 -22.1340 -22.1304 -22.1304 -22.1250 -22.0976 -22.0867 -22.0826
   -22.0826 -22.0663 -22.0663 -22.0340 -22.0079 -22.0079 -21.9916 -21.9900
   -21.9818 -21.9818 -21.9615 -21.9614 -21.9461 -21.9461 -21.9382 -21.9321
   -21.9321 -21.9308 -21.9308 -21.9174 -12.8161 -11.9277 -10.6895  -9.6675
    -9.4167  -9.4167  -9.2751  -9.0009  -9.0009  -8.6975  -8.4853  -8.4853
    -8.3475  -3.8118  -3.6352  -3.6352  -3.2252  -3.2252  -3.0711  -2.9819
    -2.6339  -2.5612  -2.5612  -1.2837  -1.2837  -0.5034   0.1526   0.9677
     0.9677   1.0498   1.5744   1.5744   2.1374   2.1968   2.2102   2.2102
     2.8929   3.1550   3.1932   3.1932   3.2494   3.9259   3.9259

          k = 0.0000 0.0276 0.0000 ( 27382 PWs)   bands (ev):

   -22.3596 -22.3536 -22.3510 -22.3390 -22.3222 -22.3216 -22.3015 -22.2944
   -22.2925 -22.2856 -22.2792 -22.2739 -22.2612 -22.2567 -22.2426 -22.2300
   -22.2210 -22.2180 -22.2167 -22.2122 -22.2065 -22.1956 -22.1944 -22.1762
   -22.1645 -22.1624 -22.1600 -22.1573 -22.1557 -22.1555 -22.1525 -22.1470
   -22.1419 -22.1317 -22.1299 -22.1224 -22.1213 -22.1044 -22.0862 -22.0777
   -22.0738 -22.0657 -22.0651 -22.0317 -22.0099 -22.0071 -21.9945 -21.9929
   -21.9854 -21.9827 -21.9687 -21.9652 -21.9556 -21.9521 -21.9445 -21.9373
   -21.9348 -21.9320 -21.9315 -21.9192 -12.7626 -11.8425 -10.6382  -9.8522
    -9.6067  -9.4868  -9.3729  -9.0823  -9.0014  -8.7209  -8.5139  -8.4682
    -8.3299  -3.6421  -3.4357  -3.2709  -3.1031  -3.0845  -2.8717  -2.8140
    -2.3893  -2.3167  -2.0097  -1.3115  -1.3018  -0.4562   0.2164   0.3380
     0.8574   0.9736   1.3098   1.6387   1.7368   1.8463   2.2180   2.2662
     2.5983   2.6396   2.9560   3.3671   3.3938   3.5522   3.6183

          k = 0.0000 0.0553 0.0000 ( 27394 PWs)   bands (ev):

   -22.3543 -22.3328 -22.3327 -22.3222 -22.3186 -22.3162 -22.3037 -22.2850
   -22.2814 -22.2725 -22.2694 -22.2577 -22.2560 -22.2463 -22.2381 -22.2348
   -22.2302 -22.2156 -22.2148 -22.2127 -22.2060 -22.2026 -22.1983 -22.1821
   -22.1736 -22.1735 -22.1717 -22.1696 -22.1615 -22.1607 -22.1585 -22.1523
   -22.1475 -22.1386 -22.1246 -22.1175 -22.0963 -22.0951 -22.0917 -22.0644
   -22.0619 -22.0589 -22.0492 -22.0266 -22.0132 -22.0099 -22.0052 -21.9966
   -21.9951 -21.9944 -21.9834 -21.9821 -21.9766 -21.9679 -21.9500 -21.9476
   -21.9427 -21.9337 -21.9320 -21.9215 -12.6442 -11.5880 -10.6196 -10.3547
    -9.7189  -9.6011  -9.5428  -9.2567  -9.0227  -8.8494  -8.5918  -8.4389
    -8.2953  -3.3274  -2.8938  -2.8130  -2.6904  -2.5104  -2.3125  -2.0815
    -1.8560  -1.7915  -1.4287  -1.2815  -0.9138  -0.3478  -0.1488   0.1445
     0.1694   0.5190   0.9093   1.0712   1.1524   1.4831   1.7168   1.9763
     2.0767   2.2015   2.5500   2.5667   2.7373   3.1276   3.4389

          k = 0.0000-0.0829 0.0000 ( 27378 PWs)   bands (ev):

   -22.3512 -22.3246 -22.3230 -22.3139 -22.3132 -22.3128 -22.3013 -22.2787
   -22.2757 -22.2635 -22.2586 -22.2583 -22.2523 -22.2416 -22.2410 -22.2291
   -22.2218 -22.2169 -22.2167 -22.2121 -22.2114 -22.2068 -22.1988 -22.1936
   -22.1868 -22.1832 -22.1773 -22.1740 -22.1690 -22.1673 -22.1593 -22.1515
   -22.1461 -22.1406 -22.1222 -22.1208 -22.0961 -22.0766 -22.0663 -22.0635
   -22.0601 -22.0544 -22.0247 -22.0200 -22.0141 -22.0141 -22.0123 -22.0093
   -22.0080 -22.0038 -22.0014 -21.9984 -21.9827 -21.9698 -21.9566 -21.9482
   -21.9471 -21.9345 -21.9322 -21.9223 -12.5780 -11.2383 -11.0554 -10.3104
    -9.8828  -9.6502  -9.5611  -9.2961  -9.0382  -8.9974  -8.6151  -8.4270
    -8.2694  -3.1891  -2.5207  -2.5148  -2.1343  -2.1319  -2.0218  -1.9726
    -1.6861  -1.4867  -1.3540  -0.7550  -0.6975  -0.5534  -0.2648   0.0865
     0.4497   0.5499   0.5878   0.8072   0.8757   1.0332   1.0811   1.4711
     1.5480   1.6894   1.7990   2.2352   2.5391   3.2379   3.2865

          k = 0.0239-0.0138 0.0000 ( 27382 PWs)   bands (ev):

   -22.3596 -22.3536 -22.3510 -22.3390 -22.3222 -22.3216 -22.3015 -22.2944
   -22.2925 -22.2856 -22.2792 -22.2739 -22.2612 -22.2567 -22.2426 -22.2300
   -22.2210 -22.2180 -22.2167 -22.2122 -22.2065 -22.1956 -22.1944 -22.1762
   -22.1645 -22.1624 -22.1600 -22.1573 -22.1557 -22.1555 -22.1525 -22.1470
   -22.1419 -22.1317 -22.1300 -22.1224 -22.1213 -22.1044 -22.0862 -22.0777
   -22.0738 -22.0657 -22.0651 -22.0317 -22.0099 -22.0071 -21.9945 -21.9929
   -21.9854 -21.9827 -21.9686 -21.9652 -21.9557 -21.9521 -21.9445 -21.9373
   -21.9348 -21.9320 -21.9315 -21.9192 -12.7626 -11.8425 -10.6382  -9.8522
    -9.6067  -9.4868  -9.3729  -9.0823  -9.0014  -8.7209  -8.5139  -8.4682
    -8.3299  -3.6421  -3.4357  -3.2709  -3.1031  -3.0845  -2.8717  -2.8140
    -2.3893  -2.3167  -2.0097  -1.3115  -1.3018  -0.4562   0.2164   0.3380
     0.8574   0.9736   1.3098   1.6387   1.7368   1.8463   2.2180   2.2662
     2.5983   2.6396   2.9560   3.3671   3.3937   3.5522   3.6183

          k = 0.0239 0.0138 0.0000 ( 27382 PWs)   bands (ev):

   -22.3596 -22.3536 -22.3510 -22.3390 -22.3222 -22.3216 -22.3015 -22.2944
   -22.2925 -22.2856 -22.2792 -22.2739 -22.2612 -22.2567 -22.2426 -22.2300
   -22.2210 -22.2180 -22.2167 -22.2122 -22.2065 -22.1956 -22.1944 -22.1762
   -22.1645 -22.1624 -22.1600 -22.1573 -22.1557 -22.1555 -22.1525 -22.1470
   -22.1419 -22.1317 -22.1299 -22.1224 -22.1213 -22.1044 -22.0862 -22.0777
   -22.0738 -22.0657 -22.0651 -22.0317 -22.0099 -22.0071 -21.9945 -21.9929
   -21.9854 -21.9827 -21.9687 -21.9652 -21.9557 -21.9521 -21.9445 -21.9373
   -21.9348 -21.9320 -21.9315 -21.9192 -12.7626 -11.8425 -10.6382  -9.8522
    -9.6067  -9.4868  -9.3729  -9.0823  -9.0014  -8.7209  -8.5139  -8.4682
    -8.3299  -3.6421  -3.4357  -3.2709  -3.1031  -3.0845  -2.8717  -2.8140
    -2.3893  -2.3167  -2.0097  -1.3115  -1.3018  -0.4562   0.2164   0.3380
     0.8574   0.9736   1.3098   1.6387   1.7368   1.8463   2.2180   2.2662
     2.5983   2.6396   2.9560   3.3671   3.3938   3.5522   3.6183

          k = 0.0239 0.0415 0.0000 ( 27415 PWs)   bands (ev):

   -22.3499 -22.3480 -22.3342 -22.3260 -22.3194 -22.3178 -22.2998 -22.2930
   -22.2782 -22.2774 -22.2751 -22.2640 -22.2578 -22.2507 -22.2381 -22.2335
   -22.2261 -22.2199 -22.2130 -22.2111 -22.2056 -22.2001 -22.1983 -22.1782
   -22.1728 -22.1704 -22.1682 -22.1647 -22.1612 -22.1571 -22.1539 -22.1525
   -22.1448 -22.1400 -22.1190 -22.1177 -22.1155 -22.0971 -22.0842 -22.0752
   -22.0646 -22.0630 -22.0525 -22.0276 -22.0132 -22.0070 -22.0044 -21.9965
   -21.9911 -21.9850 -21.9818 -21.9767 -21.9714 -21.9558 -21.9556 -21.9466
   -21.9396 -21.9332 -21.9320 -21.9218 -12.6760 -11.6721 -10.5577 -10.1113
   -10.0371  -9.5929  -9.3432  -9.1973  -8.9796  -8.7678  -8.6133  -8.4348
    -8.3316  -3.4643  -3.0280  -2.8789  -2.7623  -2.6540  -2.5164  -2.3777
    -2.2029  -1.5691  -1.4343  -1.3161  -1.2275  -0.3604  -0.1576   0.0979
     0.1531   0.7691   0.8960   1.3749   1.6431   1.7657   1.9308   2.0645
     2.1997   2.5309   2.6067   2.7586   2.8897   3.0794   3.5621

          k = 0.0239-0.0967 0.0000 ( 27352 PWs)   bands (ev):

   -22.3448 -22.3301 -22.3238 -22.3162 -22.3144 -22.3076 -22.2977 -22.2814
   -22.2773 -22.2692 -22.2595 -22.2550 -22.2516 -22.2483 -22.2377 -22.2325
   -22.2263 -22.2191 -22.2157 -22.2120 -22.2106 -22.2013 -22.1954 -22.1920
   -22.1857 -22.1807 -22.1788 -22.1697 -22.1669 -22.1622 -22.1599 -22.1510
   -22.1493 -22.1434 -22.1277 -22.1132 -22.0936 -22.0867 -22.0714 -22.0633
   -22.0606 -22.0542 -22.0359 -22.0221 -22.0156 -22.0139 -22.0123 -22.0056
   -22.0008 -22.0002 -21.9961 -21.9853 -21.9820 -21.9754 -21.9564 -21.9542
   -21.9466 -21.9342 -21.9326 -21.9242 -12.5809 -11.3323 -10.7898 -10.3495
   -10.1851  -9.7671  -9.4532  -9.1898  -9.0251  -8.7981  -8.6882  -8.3996
    -8.3401  -3.2175  -2.6994  -2.5713  -2.2774  -2.0511  -1.9237  -1.8367
    -1.5206  -1.4247  -1.2037  -1.0496  -0.8323  -0.4598  -0.2948  -0.1255
     0.0703   0.2789   0.7212   0.7664   1.2220   1.4110   1.4659   1.5922
     1.8684   2.0353   2.1211   2.3081   2.4400   2.6645   3.0987

          k = 0.0239-0.0691 0.0000 ( 27352 PWs)   bands (ev):

   -22.3448 -22.3301 -22.3238 -22.3162 -22.3144 -22.3076 -22.2977 -22.2814
   -22.2773 -22.2692 -22.2595 -22.2550 -22.2516 -22.2483 -22.2377 -22.2325
   -22.2263 -22.2191 -22.2157 -22.2120 -22.2106 -22.2013 -22.1953 -22.1920
   -22.1857 -22.1807 -22.1788 -22.1697 -22.1669 -22.1622 -22.1599 -22.1510
   -22.1493 -22.1434 -22.1277 -22.1132 -22.0936 -22.0867 -22.0714 -22.0633
   -22.0606 -22.0542 -22.0359 -22.0221 -22.0156 -22.0138 -22.0123 -22.0056
   -22.0008 -22.0002 -21.9961 -21.9853 -21.9820 -21.9754 -21.9564 -21.9542
   -21.9466 -21.9342 -21.9326 -21.9242 -12.5809 -11.3323 -10.7898 -10.3495
   -10.1851  -9.7671  -9.4532  -9.1898  -9.0251  -8.7981  -8.6882  -8.3996
    -8.3401  -3.2175  -2.6994  -2.5713  -2.2775  -2.0511  -1.9237  -1.8367
    -1.5206  -1.4247  -1.2036  -1.0496  -0.8323  -0.4598  -0.2948  -0.1255
     0.0703   0.2789   0.7212   0.7664   1.2220   1.4110   1.4659   1.5922
     1.8684   2.0353   2.1211   2.3081   2.4400   2.6645   3.0987

          k = 0.0239-0.0415 0.0000 ( 27415 PWs)   bands (ev):

   -22.3499 -22.3480 -22.3342 -22.3260 -22.3194 -22.3178 -22.2998 -22.2930
   -22.2782 -22.2774 -22.2751 -22.2640 -22.2578 -22.2507 -22.2381 -22.2335
   -22.2261 -22.2199 -22.2130 -22.2111 -22.2056 -22.2001 -22.1983 -22.1782
   -22.1728 -22.1704 -22.1682 -22.1647 -22.1612 -22.1571 -22.1539 -22.1525
   -22.1448 -22.1400 -22.1190 -22.1177 -22.1155 -22.0971 -22.0842 -22.0752
   -22.0646 -22.0630 -22.0525 -22.0276 -22.0132 -22.0070 -22.0044 -21.9966
   -21.9911 -21.9850 -21.9818 -21.9767 -21.9714 -21.9558 -21.9556 -21.9466
   -21.9396 -21.9332 -21.9320 -21.9218 -12.6760 -11.6721 -10.5577 -10.1113
   -10.0371  -9.5929  -9.3432  -9.1973  -8.9796  -8.7678  -8.6133  -8.4348
    -8.3316  -3.4643  -3.0280  -2.8789  -2.7623  -2.6540  -2.5164  -2.3777
    -2.2029  -1.5691  -1.4343  -1.3161  -1.2275  -0.3604  -0.1576   0.0979
     0.1531   0.7691   0.8960   1.3749   1.6431   1.7657   1.9308   2.0645
     2.1997   2.5309   2.6067   2.7586   2.8897   3.0794   3.5621

          k = 0.0479-0.0276 0.0000 ( 27394 PWs)   bands (ev):

   -22.3543 -22.3328 -22.3327 -22.3222 -22.3186 -22.3162 -22.3037 -22.2850
   -22.2814 -22.2725 -22.2694 -22.2577 -22.2560 -22.2463 -22.2381 -22.2348
   -22.2302 -22.2156 -22.2148 -22.2127 -22.2060 -22.2026 -22.1983 -22.1821
   -22.1736 -22.1735 -22.1717 -22.1696 -22.1615 -22.1607 -22.1585 -22.1523
   -22.1475 -22.1386 -22.1246 -22.1175 -22.0963 -22.0951 -22.0917 -22.0645
   -22.0619 -22.0589 -22.0493 -22.0266 -22.0132 -22.0099 -22.0052 -21.9966
   -21.9952 -21.9943 -21.9834 -21.9820 -21.9766 -21.9680 -21.9500 -21.9475
   -21.9427 -21.9337 -21.9320 -21.9215 -12.6442 -11.5880 -10.6196 -10.3547
    -9.7189  -9.6011  -9.5429  -9.2567  -9.0227  -8.8494  -8.5918  -8.4389
    -8.2953  -3.3274  -2.8938  -2.8130  -2.6904  -2.5104  -2.3125  -2.0815
    -1.8560  -1.7915  -1.4287  -1.2815  -0.9138  -0.3478  -0.1488   0.1445
     0.1694   0.5190   0.9093   1.0712   1.1524   1.4831   1.7168   1.9763
     2.0767   2.2015   2.5500   2.5667   2.7373   3.1276   3.4389

          k = 0.0479 0.0000 0.0000 ( 27415 PWs)   bands (ev):

   -22.3499 -22.3480 -22.3342 -22.3260 -22.3194 -22.3178 -22.2998 -22.2930
   -22.2782 -22.2774 -22.2751 -22.2640 -22.2578 -22.2507 -22.2381 -22.2335
   -22.2261 -22.2199 -22.2130 -22.2111 -22.2056 -22.2001 -22.1983 -22.1782
   -22.1728 -22.1704 -22.1682 -22.1647 -22.1612 -22.1571 -22.1539 -22.1525
   -22.1448 -22.1400 -22.1190 -22.1177 -22.1155 -22.0971 -22.0842 -22.0752
   -22.0646 -22.0630 -22.0525 -22.0276 -22.0132 -22.0070 -22.0044 -21.9966
   -21.9911 -21.9850 -21.9818 -21.9767 -21.9714 -21.9558 -21.9556 -21.9466
   -21.9396 -21.9332 -21.9320 -21.9218 -12.6760 -11.6721 -10.5577 -10.1113
   -10.0371  -9.5929  -9.3432  -9.1973  -8.9796  -8.7678  -8.6133  -8.4348
    -8.3316  -3.4643  -3.0280  -2.8789  -2.7623  -2.6540  -2.5164  -2.3777
    -2.2029  -1.5691  -1.4343  -1.3161  -1.2275  -0.3604  -0.1576   0.0979
     0.1531   0.7691   0.8960   1.3749   1.6431   1.7657   1.9308   2.0645
     2.1997   2.5309   2.6067   2.7586   2.8897   3.0794   3.5621

          k = 0.0479 0.0276 0.0000 ( 27394 PWs)   bands (ev):

   -22.3543 -22.3328 -22.3327 -22.3222 -22.3186 -22.3162 -22.3037 -22.2850
   -22.2814 -22.2725 -22.2694 -22.2577 -22.2560 -22.2463 -22.2381 -22.2348
   -22.2302 -22.2156 -22.2148 -22.2127 -22.2060 -22.2026 -22.1983 -22.1821
   -22.1736 -22.1735 -22.1717 -22.1696 -22.1615 -22.1607 -22.1585 -22.1523
   -22.1475 -22.1386 -22.1246 -22.1175 -22.0963 -22.0951 -22.0917 -22.0644
   -22.0619 -22.0589 -22.0492 -22.0266 -22.0132 -22.0099 -22.0052 -21.9966
   -21.9952 -21.9944 -21.9834 -21.9820 -21.9766 -21.9679 -21.9500 -21.9476
   -21.9427 -21.9337 -21.9320 -21.9215 -12.6442 -11.5880 -10.6196 -10.3547
    -9.7189  -9.6011  -9.5428  -9.2567  -9.0227  -8.8494  -8.5918  -8.4389
    -8.2953  -3.3274  -2.8938  -2.8130  -2.6904  -2.5104  -2.3125  -2.0815
    -1.8560  -1.7915  -1.4287  -1.2815  -0.9138  -0.3478  -0.1488   0.1445
     0.1694   0.5190   0.9093   1.0712   1.1524   1.4831   1.7168   1.9763
     2.0767   2.2015   2.5500   2.5667   2.7373   3.1276   3.4389

          k = 0.0479-0.1106 0.0000 ( 27352 PWs)   bands (ev):

   -22.3448 -22.3301 -22.3238 -22.3162 -22.3144 -22.3076 -22.2977 -22.2814
   -22.2773 -22.2692 -22.2595 -22.2550 -22.2516 -22.2483 -22.2377 -22.2325
   -22.2263 -22.2191 -22.2157 -22.2120 -22.2106 -22.2013 -22.1954 -22.1920
   -22.1857 -22.1807 -22.1788 -22.1697 -22.1669 -22.1622 -22.1599 -22.1510
   -22.1493 -22.1434 -22.1277 -22.1132 -22.0936 -22.0867 -22.0714 -22.0633
   -22.0606 -22.0542 -22.0359 -22.0221 -22.0156 -22.0139 -22.0123 -22.0056
   -22.0008 -22.0002 -21.9961 -21.9853 -21.9820 -21.9754 -21.9564 -21.9542
   -21.9466 -21.9342 -21.9326 -21.9242 -12.5809 -11.3323 -10.7898 -10.3495
   -10.1851  -9.7671  -9.4532  -9.1898  -9.0251  -8.7981  -8.6882  -8.3996
    -8.3401  -3.2175  -2.6994  -2.5713  -2.2774  -2.0511  -1.9237  -1.8367
    -1.5206  -1.4247  -1.2037  -1.0496  -0.8323  -0.4598  -0.2948  -0.1255
     0.0703   0.2789   0.7212   0.7664   1.2220   1.4110   1.4659   1.5922
     1.8684   2.0353   2.1211   2.3081   2.4400   2.6645   3.0987

          k = 0.0479-0.0829 0.0000 ( 27291 PWs)   bands (ev):

   -22.3316 -22.3283 -22.3251 -22.3168 -22.3148 -22.2981 -22.2858 -22.2830
   -22.2785 -22.2689 -22.2592 -22.2575 -22.2436 -22.2419 -22.2409 -22.2390
   -22.2278 -22.2235 -22.2153 -22.2127 -22.2078 -22.2002 -22.1975 -22.1927
   -22.1884 -22.1832 -22.1707 -22.1703 -22.1666 -22.1660 -22.1602 -22.1591
   -22.1462 -22.1457 -22.1401 -22.0947 -22.0939 -22.0819 -22.0756 -22.0614
   -22.0613 -22.0435 -22.0420 -22.0195 -22.0194 -22.0143 -22.0126 -22.0120
   -21.9993 -21.9979 -21.9955 -21.9857 -21.9821 -21.9814 -21.9716 -21.9521
   -21.9518 -21.9339 -21.9334 -21.9266 -12.5497 -10.9714 -10.8912 -10.7492
   -10.0965  -9.9505  -9.5310  -9.1112  -9.0470  -8.7022  -8.6138  -8.4853
    -8.3660  -3.1294  -2.5885  -2.4868  -2.1103  -2.0075  -1.7570  -1.5275
    -1.4215  -1.3295  -0.7998  -0.7819  -0.7221  -0.5135  -0.3183  -0.1776
     0.0635   0.1527   0.4446   0.5287   0.8081   1.0658   1.5079   1.6155
     1.8519   2.1793   2.2111   2.3726   2.4141   2.6831   2.9497

          k = 0.0479-0.0553 0.0000 ( 27352 PWs)   bands (ev):

   -22.3448 -22.3301 -22.3238 -22.3162 -22.3144 -22.3076 -22.2977 -22.2814
   -22.2773 -22.2692 -22.2595 -22.2550 -22.2516 -22.2483 -22.2377 -22.2325
   -22.2263 -22.2191 -22.2157 -22.2120 -22.2106 -22.2013 -22.1954 -22.1920
   -22.1857 -22.1807 -22.1788 -22.1697 -22.1669 -22.1622 -22.1599 -22.1510
   -22.1493 -22.1434 -22.1277 -22.1132 -22.0936 -22.0867 -22.0714 -22.0633
   -22.0606 -22.0542 -22.0359 -22.0221 -22.0156 -22.0139 -22.0122 -22.0056
   -22.0008 -22.0002 -21.9961 -21.9853 -21.9820 -21.9755 -21.9564 -21.9542
   -21.9466 -21.9342 -21.9326 -21.9242 -12.5809 -11.3323 -10.7898 -10.3495
   -10.1851  -9.7671  -9.4532  -9.1898  -9.0251  -8.7981  -8.6882  -8.3996
    -8.3401  -3.2175  -2.6994  -2.5713  -2.2775  -2.0511  -1.9237  -1.8367
    -1.5206  -1.4247  -1.2037  -1.0496  -0.8323  -0.4598  -0.2948  -0.1255
     0.0703   0.2789   0.7212   0.7664   1.2220   1.4110   1.4659   1.5922
     1.8684   2.0353   2.1211   2.3081   2.4400   2.6645   3.0987

          k =-0.0718 0.0415 0.0000 ( 27378 PWs)   bands (ev):

   -22.3512 -22.3246 -22.3230 -22.3139 -22.3132 -22.3128 -22.3013 -22.2787
   -22.2757 -22.2635 -22.2586 -22.2583 -22.2523 -22.2416 -22.2410 -22.2291
   -22.2217 -22.2169 -22.2167 -22.2121 -22.2114 -22.2068 -22.1988 -22.1936
   -22.1868 -22.1832 -22.1773 -22.1740 -22.1690 -22.1673 -22.1593 -22.1515
   -22.1461 -22.1406 -22.1222 -22.1208 -22.0961 -22.0766 -22.0663 -22.0635
   -22.0600 -22.0544 -22.0247 -22.0201 -22.0141 -22.0140 -22.0123 -22.0093
   -22.0079 -22.0038 -22.0013 -21.9985 -21.9827 -21.9698 -21.9566 -21.9482
   -21.9471 -21.9345 -21.9322 -21.9223 -12.5780 -11.2383 -11.0554 -10.3104
    -9.8828  -9.6502  -9.5611  -9.2961  -9.0382  -8.9975  -8.6151  -8.4270
    -8.2694  -3.1891  -2.5207  -2.5148  -2.1343  -2.1319  -2.0218  -1.9726
    -1.6861  -1.4867  -1.3540  -0.7550  -0.6975  -0.5534  -0.2648   0.0865
     0.4497   0.5499   0.5878   0.8072   0.8757   1.0332   1.0811   1.4710
     1.5480   1.6894   1.7990   2.2352   2.5391   3.2379   3.2865

          k =-0.0718 0.0691 0.0000 ( 27352 PWs)   bands (ev):

   -22.3448 -22.3301 -22.3238 -22.3162 -22.3144 -22.3076 -22.2977 -22.2814
   -22.2773 -22.2692 -22.2595 -22.2550 -22.2516 -22.2483 -22.2377 -22.2325
   -22.2263 -22.2191 -22.2157 -22.2120 -22.2106 -22.2013 -22.1954 -22.1920
   -22.1857 -22.1807 -22.1788 -22.1697 -22.1669 -22.1622 -22.1599 -22.1510
   -22.1493 -22.1434 -22.1277 -22.1132 -22.0936 -22.0867 -22.0714 -22.0633
   -22.0606 -22.0542 -22.0359 -22.0221 -22.0156 -22.0139 -22.0122 -22.0056
   -22.0008 -22.0002 -21.9961 -21.9853 -21.9820 -21.9755 -21.9564 -21.9542
   -21.9466 -21.9342 -21.9326 -21.9242 -12.5809 -11.3323 -10.7898 -10.3495
   -10.1851  -9.7671  -9.4532  -9.1898  -9.0251  -8.7981  -8.6882  -8.3996
    -8.3401  -3.2175  -2.6994  -2.5713  -2.2775  -2.0511  -1.9237  -1.8367
    -1.5206  -1.4247  -1.2037  -1.0496  -0.8323  -0.4598  -0.2948  -0.1255
     0.0703   0.2789   0.7212   0.7664   1.2220   1.4110   1.4659   1.5922
     1.8684   2.0353   2.1211   2.3081   2.4400   2.6645   3.0987

          k =-0.0718 0.0967 0.0000 ( 27352 PWs)   bands (ev):

   -22.3448 -22.3301 -22.3238 -22.3162 -22.3144 -22.3076 -22.2977 -22.2814
   -22.2773 -22.2692 -22.2595 -22.2550 -22.2516 -22.2483 -22.2377 -22.2325
   -22.2263 -22.2191 -22.2157 -22.2120 -22.2106 -22.2013 -22.1953 -22.1920
   -22.1857 -22.1807 -22.1788 -22.1697 -22.1669 -22.1622 -22.1599 -22.1510
   -22.1493 -22.1434 -22.1277 -22.1132 -22.0936 -22.0867 -22.0714 -22.0633
   -22.0606 -22.0542 -22.0359 -22.0221 -22.0156 -22.0138 -22.0122 -22.0056
   -22.0008 -22.0002 -21.9961 -21.9853 -21.9820 -21.9754 -21.9564 -21.9542
   -21.9466 -21.9342 -21.9326 -21.9242 -12.5809 -11.3323 -10.7898 -10.3495
   -10.1851  -9.7671  -9.4532  -9.1898  -9.0251  -8.7981  -8.6882  -8.3996
    -8.3401  -3.2175  -2.6994  -2.5713  -2.2775  -2.0511  -1.9237  -1.8367
    -1.5206  -1.4247  -1.2036  -1.0496  -0.8323  -0.4598  -0.2948  -0.1255
     0.0703   0.2789   0.7212   0.7664   1.2220   1.4110   1.4659   1.5922
     1.8684   2.0353   2.1211   2.3081   2.4400   2.6645   3.0987

          k =-0.0718-0.0415 0.0000 ( 27378 PWs)   bands (ev):

   -22.3512 -22.3246 -22.3230 -22.3139 -22.3132 -22.3128 -22.3013 -22.2787
   -22.2757 -22.2635 -22.2586 -22.2583 -22.2523 -22.2416 -22.2410 -22.2291
   -22.2218 -22.2169 -22.2167 -22.2121 -22.2114 -22.2068 -22.1988 -22.1936
   -22.1868 -22.1832 -22.1773 -22.1740 -22.1690 -22.1673 -22.1593 -22.1515
   -22.1461 -22.1406 -22.1222 -22.1208 -22.0961 -22.0766 -22.0663 -22.0635
   -22.0600 -22.0544 -22.0247 -22.0201 -22.0141 -22.0140 -22.0123 -22.0093
   -22.0080 -22.0038 -22.0013 -21.9984 -21.9827 -21.9698 -21.9566 -21.9482
   -21.9471 -21.9345 -21.9322 -21.9223 -12.5780 -11.2383 -11.0554 -10.3104
    -9.8828  -9.6502  -9.5611  -9.2961  -9.0382  -8.9975  -8.6151  -8.4270
    -8.2694  -3.1891  -2.5207  -2.5148  -2.1343  -2.1319  -2.0218  -1.9726
    -1.6861  -1.4867  -1.3540  -0.7550  -0.6975  -0.5534  -0.2648   0.0865
     0.4497   0.5499   0.5878   0.8072   0.8757   1.0332   1.0811   1.4711
     1.5480   1.6894   1.7990   2.2352   2.5391   3.2379   3.2865

     the Fermi energy is     1.3994 ev

!    total energy              =   -2270.23940297 Ry
     Harris-Foulkes estimate   =   -2270.23940508 Ry
     estimated scf accuracy    <       0.00000355 Ry

     The total energy is the sum of the following terms:

     one-electron contribution =  -10983.58124179 Ry
     hartree contribution      =    5547.94440494 Ry
     xc contribution           =    -807.86999988 Ry
     ewald contribution        =    3973.31939037 Ry
     electric field correction =       0.00011126 Ry
     smearing contrib. (-TS)   =      -0.05206787 Ry

     convergence has been achieved in   6 iterations
 
 BEEF-vdW xc energy contributions
           1 :   -720.037666294388     
           2 :    669.029462838254     
           3 :   -579.019222122565     
           4 :    469.535781457164     
           5 :   -361.129964622851     
           6 :    269.419269219018     
           7 :   -201.548144991822     
           8 :    155.983310174374     
           9 :   -125.337217143082     
          10 :    100.761432186809     
          11 :   -75.9600889716506     
          12 :    49.2373744832634     
          13 :   -23.0511124180902     
          14 :    1.70803245549700     
          15 :    11.4253540382512     
          16 :   -15.8149524825020     
          17 :    13.9785196557128     
          18 :   -10.1416864778267     
          19 :    8.16752261590261     
          20 :   -9.86035778476992     
          21 :    14.4446232955089     
          22 :   -19.3657393459952     
          23 :    21.8854785787532     
          24 :   -20.5978543208793     
          25 :    16.1084063460627     
          26 :   -10.6089431174026     
          27 :    6.65566472326748     
          28 :   -5.83785250248036     
          29 :    8.02850326098462     
          30 :   -11.5654782881135     
          31 :   -57.7065993199100     
          32 :   -42.4617399479207     

     Forces acting on atoms (Ry/au):


     negative rho (up, down):  5.267E-01 0.000E+00
     atom    1 type  1   force =     0.00263147    0.00151757   -0.01018047
     atom    2 type  1   force =    -0.00263170    0.00152102   -0.01019121
     atom    3 type  1   force =     0.00000153   -0.00303838   -0.01017945
     atom    4 type  1   force =    -0.00000205    0.00000159    0.00212282
     atom    5 type  1   force =     0.00000364    0.00063333   -0.01317524
     atom    6 type  1   force =    -0.00000429    0.00000314    0.00443012
     atom    7 type  1   force =    -0.00054633   -0.00032075   -0.01317768
     atom    8 type  1   force =     0.00054679   -0.00031780   -0.01318553
     atom    9 type  1   force =    -0.00000099   -0.00000100    0.00393470
     atom   10 type  1   force =    -0.00000059   -0.01893541    0.00056043
     atom   11 type  1   force =    -0.01639679    0.00946882    0.00056218
     atom   12 type  1   force =     0.01639800    0.00946833    0.00055986
     atom   13 type  2   force =     0.00000130   -0.00000045    0.05791946

     Total force =     0.066684     Total SCF correction =     0.002573


     entering subroutine stress ...


     negative rho (up, down):  5.267E-01 0.000E+00
          total   stress  (Ry/bohr**3)                   (kbar)     P=   11.65
   0.00007707  -0.00000000   0.00000000         11.34     -0.00      0.00
  -0.00000000   0.00007707  -0.00000000         -0.00     11.34     -0.00
   0.00000000  -0.00000000   0.00008338          0.00     -0.00     12.27


     number of scf cycles    =   2
     number of bfgs steps    =   1

     energy   old            =   -2270.2322593225 Ry
     energy   new            =   -2270.2394029697 Ry

     CASE: energy  _new < energy  _old

     new trust radius        =       0.1139455795 bohr
     new conv_thr            =       0.0000001000 Ry


ATOMIC_POSITIONS (crystal)
Bi1      0.166666667   0.166666667   0.389334134    0   0   0
Bi1      0.666666667   0.166666667   0.389334134    0   0   0
[...]
   -22.0660 -22.0648 -22.0611 -22.0546 -22.0507 -22.0377 -22.0275 -22.0098
   -22.0029 -21.9790 -21.9782 -21.9679 -12.1277 -11.2028 -10.6251 -10.1866
   -10.0581  -9.7049  -9.4928  -9.2155  -9.0097  -8.9009  -8.7744  -8.5334
    -8.3772  -2.7791  -2.4937  -2.2659  -2.0813  -1.9434  -1.8172  -1.7107
    -1.4318  -1.3350  -1.1449  -0.9949  -0.8650  -0.4982  -0.3253  -0.1235
     0.0516   0.2864   0.5709   0.6979   1.2162   1.3585   1.4721   1.4956
     1.8477   1.9006   2.0170   2.2976   2.4624   2.5947   2.8726

          k = 0.0239-0.0691 0.0000 ( 27352 PWs)   bands (ev):

   -22.3386 -22.3331 -22.3214 -22.3151 -22.3084 -22.3064 -22.3042 -22.2983
   -22.2932 -22.2901 -22.2793 -22.2737 -22.2680 -22.2608 -22.2483 -22.2453
   -22.2371 -22.2328 -22.2289 -22.2274 -22.2203 -22.2184 -22.2168 -22.2139
   -22.2116 -22.2053 -22.2034 -22.2027 -22.1955 -22.1925 -22.1894 -22.1878
   -22.1794 -22.1710 -22.1687 -22.1577 -22.1573 -22.1501 -22.1212 -22.1201
   -22.1004 -22.0984 -22.0949 -22.0890 -22.0858 -22.0832 -22.0802 -22.0730
   -22.0660 -22.0648 -22.0611 -22.0546 -22.0507 -22.0377 -22.0275 -22.0098
   -22.0029 -21.9790 -21.9782 -21.9679 -12.1277 -11.2028 -10.6251 -10.1865
   -10.0581  -9.7049  -9.4928  -9.2155  -9.0097  -8.9010  -8.7744  -8.5334
    -8.3772  -2.7791  -2.4937  -2.2658  -2.0813  -1.9434  -1.8172  -1.7107
    -1.4318  -1.3350  -1.1449  -0.9949  -0.8650  -0.4982  -0.3253  -0.1235
     0.0516   0.2864   0.5708   0.6979   1.2162   1.3585   1.4721   1.4956
     1.8477   1.9006   2.0171   2.2976   2.4624   2.5947   2.8726

          k = 0.0239-0.0415 0.0000 ( 27415 PWs)   bands (ev):

   -22.3443 -22.3429 -22.3422 -22.3241 -22.3204 -22.3139 -22.3097 -22.3062
   -22.2978 -22.2926 -22.2884 -22.2855 -22.2770 -22.2638 -22.2497 -22.2466
   -22.2397 -22.2343 -22.2285 -22.2276 -22.2216 -22.2114 -22.2098 -22.2080
   -22.2021 -22.1992 -22.1987 -22.1964 -22.1944 -22.1904 -22.1813 -22.1802
   -22.1772 -22.1731 -22.1715 -22.1594 -22.1552 -22.1516 -22.1432 -22.1383
   -22.1168 -22.1023 -22.1010 -22.0942 -22.0750 -22.0674 -22.0632 -22.0630
   -22.0595 -22.0531 -22.0524 -22.0384 -22.0358 -22.0278 -22.0269 -22.0024
   -21.9971 -21.9789 -21.9779 -21.9659 -12.2079 -11.5968 -10.3921  -9.9260
    -9.9130  -9.7544  -9.2699  -9.0793  -9.0058  -8.7735  -8.7147  -8.5416
    -8.4050  -3.1481  -2.8961  -2.6071  -2.4963  -2.4570  -2.3334  -2.2451
    -2.1416  -1.5791  -1.4579  -1.3602  -1.2156  -0.6346  -0.1778   0.0699
     0.1522   0.7568   0.8075   1.2797   1.6744   1.7664   1.9512   2.0475
     2.0621   2.4436   2.5300   2.7715   2.7948   3.0494   3.2862

          k = 0.0479-0.0276 0.0000 ( 27394 PWs)   bands (ev):

   -22.3485 -22.3421 -22.3249 -22.3223 -22.3191 -22.3102 -22.3064 -22.3015
   -22.3003 -22.2945 -22.2877 -22.2756 -22.2732 -22.2582 -22.2485 -22.2465
   -22.2464 -22.2317 -22.2288 -22.2259 -22.2214 -22.2157 -22.2114 -22.2094
   -22.2042 -22.2016 -22.2004 -22.1973 -22.1968 -22.1924 -22.1834 -22.1832
   -22.1799 -22.1771 -22.1621 -22.1595 -22.1539 -22.1524 -22.1460 -22.1186
   -22.1175 -22.1016 -22.0996 -22.0928 -22.0761 -22.0686 -22.0680 -22.0637
   -22.0614 -22.0591 -22.0542 -22.0524 -22.0474 -22.0284 -22.0200 -22.0057
   -21.9986 -21.9788 -21.9782 -21.9662 -12.1806 -11.4988 -10.4104 -10.2613
    -9.7642  -9.4454  -9.3896  -9.3272  -8.9880  -8.9385  -8.7012  -8.4954
    -8.4061  -2.9742  -2.6962  -2.6463  -2.3957  -2.3058  -2.0954  -1.9442
    -1.8404  -1.8072  -1.3972  -1.3139  -0.9528  -0.5101  -0.1320   0.0657
     0.2099   0.6288   0.8558   0.8849   1.2229   1.3284   1.7209   1.8423
     2.0250   2.1316   2.4274   2.4916   2.8779   2.9029   3.1411

          k = 0.0479 0.0000 0.0000 ( 27415 PWs)   bands (ev):

   -22.3443 -22.3429 -22.3422 -22.3241 -22.3204 -22.3139 -22.3097 -22.3062
   -22.2978 -22.2926 -22.2884 -22.2855 -22.2770 -22.2638 -22.2497 -22.2466
   -22.2397 -22.2343 -22.2285 -22.2276 -22.2216 -22.2114 -22.2098 -22.2080
   -22.2021 -22.1992 -22.1987 -22.1964 -22.1944 -22.1904 -22.1813 -22.1802
   -22.1772 -22.1731 -22.1715 -22.1594 -22.1552 -22.1516 -22.1432 -22.1383
   -22.1168 -22.1023 -22.1010 -22.0942 -22.0750 -22.0674 -22.0632 -22.0630
   -22.0595 -22.0531 -22.0524 -22.0384 -22.0358 -22.0278 -22.0269 -22.0024
   -21.9971 -21.9789 -21.9779 -21.9659 -12.2079 -11.5968 -10.3921  -9.9260
    -9.9130  -9.7544  -9.2700  -9.0793  -9.0058  -8.7735  -8.7147  -8.5416
    -8.4050  -3.1481  -2.8962  -2.6071  -2.4963  -2.4570  -2.3334  -2.2451
    -2.1416  -1.5791  -1.4579  -1.3602  -1.2156  -0.6347  -0.1778   0.0699
     0.1522   0.7568   0.8075   1.2797   1.6743   1.7664   1.9512   2.0475
     2.0621   2.4436   2.5300   2.7715   2.7948   3.0494   3.2862

          k = 0.0479 0.0276 0.0000 ( 27394 PWs)   bands (ev):

   -22.3485 -22.3421 -22.3249 -22.3223 -22.3191 -22.3102 -22.3064 -22.3015
   -22.3003 -22.2945 -22.2877 -22.2756 -22.2732 -22.2582 -22.2485 -22.2465
   -22.2464 -22.2317 -22.2288 -22.2258 -22.2214 -22.2157 -22.2114 -22.2094
   -22.2042 -22.2016 -22.2004 -22.1973 -22.1968 -22.1924 -22.1834 -22.1832
   -22.1799 -22.1771 -22.1621 -22.1595 -22.1539 -22.1524 -22.1460 -22.1186
   -22.1175 -22.1016 -22.0996 -22.0928 -22.0761 -22.0686 -22.0680 -22.0637
   -22.0614 -22.0591 -22.0542 -22.0524 -22.0474 -22.0284 -22.0200 -22.0057
   -21.9986 -21.9788 -21.9782 -21.9662 -12.1806 -11.4988 -10.4104 -10.2613
    -9.7642  -9.4454  -9.3896  -9.3272  -8.9880  -8.9385  -8.7012  -8.4954
    -8.4061  -2.9742  -2.6962  -2.6463  -2.3957  -2.3058  -2.0954  -1.9442
    -1.8404  -1.8072  -1.3972  -1.3139  -0.9529  -0.5101  -0.1320   0.0657
     0.2099   0.6288   0.8558   0.8848   1.2229   1.3284   1.7209   1.8423
     2.0250   2.1316   2.4273   2.4916   2.8779   2.9029   3.1411

          k = 0.0479-0.1106 0.0000 ( 27352 PWs)   bands (ev):

   -22.3386 -22.3331 -22.3214 -22.3151 -22.3084 -22.3064 -22.3042 -22.2983
   -22.2932 -22.2901 -22.2793 -22.2737 -22.2680 -22.2608 -22.2483 -22.2453
   -22.2371 -22.2328 -22.2289 -22.2274 -22.2203 -22.2184 -22.2168 -22.2139
   -22.2116 -22.2053 -22.2034 -22.2027 -22.1955 -22.1925 -22.1894 -22.1878
   -22.1794 -22.1710 -22.1687 -22.1577 -22.1573 -22.1501 -22.1212 -22.1201
   -22.1004 -22.0984 -22.0949 -22.0890 -22.0858 -22.0832 -22.0802 -22.0730
   -22.0660 -22.0648 -22.0611 -22.0546 -22.0507 -22.0377 -22.0275 -22.0098
   -22.0029 -21.9790 -21.9782 -21.9679 -12.1277 -11.2028 -10.6251 -10.1866
   -10.0581  -9.7049  -9.4929  -9.2155  -9.0097  -8.9009  -8.7744  -8.5334
    -8.3772  -2.7791  -2.4937  -2.2659  -2.0813  -1.9434  -1.8172  -1.7107
    -1.4318  -1.3350  -1.1449  -0.9949  -0.8650  -0.4982  -0.3253  -0.1235
     0.0516   0.2864   0.5708   0.6979   1.2162   1.3585   1.4721   1.4956
     1.8477   1.9006   2.0171   2.2976   2.4624   2.5947   2.8726

          k = 0.0479-0.0829 0.0000 ( 27291 PWs)   bands (ev):

   -22.3261 -22.3226 -22.3221 -22.3121 -22.3074 -22.3058 -22.3038 -22.2965
   -22.2932 -22.2885 -22.2801 -22.2730 -22.2586 -22.2552 -22.2530 -22.2521
   -22.2408 -22.2355 -22.2311 -22.2193 -22.2191 -22.2169 -22.2166 -22.2162
   -22.2136 -22.2058 -22.2036 -22.2011 -22.1944 -22.1910 -22.1889 -22.1884
   -22.1841 -22.1792 -22.1702 -22.1532 -22.1524 -22.1474 -22.1236 -22.1125
   -22.1102 -22.0980 -22.0966 -22.0872 -22.0864 -22.0815 -22.0811 -22.0776
   -22.0630 -22.0613 -22.0611 -22.0538 -22.0509 -22.0499 -22.0418 -22.0085
   -22.0078 -21.9787 -21.9783 -21.9692 -12.1021 -10.7608 -10.7044 -10.6763
    -9.9373  -9.9042  -9.4508  -9.2344  -9.1504  -8.9282  -8.6118  -8.5000
    -8.4265  -2.5657  -2.3057  -2.2098  -1.9631  -1.9193  -1.6634  -1.5048
    -1.3925  -1.3537  -0.6973  -0.6815  -0.6174  -0.4590  -0.3530  -0.2763
     0.1581   0.2555   0.3338   0.5253   0.7184   0.7585   1.3668   1.6398
     2.0309   2.2398   2.2472   2.3127   2.4260   2.5969   2.7519

          k = 0.0479-0.0553 0.0000 ( 27352 PWs)   bands (ev):

   -22.3386 -22.3331 -22.3214 -22.3151 -22.3084 -22.3064 -22.3042 -22.2983
   -22.2932 -22.2901 -22.2793 -22.2737 -22.2680 -22.2608 -22.2483 -22.2453
   -22.2371 -22.2328 -22.2289 -22.2274 -22.2203 -22.2184 -22.2168 -22.2139
   -22.2116 -22.2053 -22.2034 -22.2027 -22.1955 -22.1925 -22.1894 -22.1878
   -22.1794 -22.1710 -22.1687 -22.1577 -22.1573 -22.1501 -22.1212 -22.1201
   -22.1004 -22.0984 -22.0949 -22.0890 -22.0858 -22.0832 -22.0802 -22.0730
   -22.0660 -22.0648 -22.0611 -22.0546 -22.0507 -22.0377 -22.0275 -22.0098
   -22.0029 -21.9790 -21.9782 -21.9679 -12.1277 -11.2028 -10.6251 -10.1865
   -10.0581  -9.7049  -9.4929  -9.2155  -9.0097  -8.9009  -8.7744  -8.5334
    -8.3772  -2.7791  -2.4937  -2.2659  -2.0813  -1.9434  -1.8172  -1.7107
    -1.4318  -1.3350  -1.1449  -0.9949  -0.8650  -0.4982  -0.3253  -0.1235
     0.0516   0.2864   0.5708   0.6979   1.2162   1.3585   1.4721   1.4956
     1.8477   1.9006   2.0171   2.2976   2.4624   2.5947   2.8726

          k =-0.0718 0.0415 0.0000 ( 27378 PWs)   bands (ev):

   -22.3453 -22.3371 -22.3178 -22.3112 -22.3074 -22.3051 -22.3039 -22.3013
   -22.2914 -22.2858 -22.2774 -22.2729 -22.2642 -22.2575 -22.2569 -22.2429
   -22.2306 -22.2285 -22.2274 -22.2244 -22.2224 -22.2209 -22.2175 -22.2172
   -22.2159 -22.2109 -22.2054 -22.2038 -22.2037 -22.1983 -22.1910 -22.1827
   -22.1797 -22.1753 -22.1662 -22.1645 -22.1527 -22.1308 -22.1276 -22.1025
   -22.1007 -22.0948 -22.0904 -22.0859 -22.0844 -22.0836 -22.0827 -22.0810
   -22.0759 -22.0722 -22.0688 -22.0608 -22.0522 -22.0293 -22.0202 -22.0117
   -22.0019 -21.9791 -21.9783 -21.9673 -12.1255 -11.0379 -10.9754 -10.1845
    -9.7718  -9.4737  -9.4348  -9.4158  -9.1906  -9.0073  -8.7250  -8.4875
    -8.4025  -2.7723  -2.2267  -2.1686  -2.0426  -1.9529  -1.9336  -1.7590
    -1.7450  -1.4863  -1.3711  -0.6951  -0.5941  -0.3767  -0.2881  -0.0019
     0.4540   0.6387   0.6479   0.8164   0.8877   0.9522   1.0145   1.2445
     1.3523   1.4357   1.6704   2.0004   2.4328   2.9820   3.2576

          k =-0.0718 0.0691 0.0000 ( 27352 PWs)   bands (ev):

   -22.3386 -22.3331 -22.3214 -22.3151 -22.3084 -22.3064 -22.3042 -22.2983
   -22.2932 -22.2901 -22.2793 -22.2737 -22.2680 -22.2608 -22.2483 -22.2453
   -22.2371 -22.2328 -22.2289 -22.2274 -22.2203 -22.2184 -22.2168 -22.2139
   -22.2116 -22.2053 -22.2034 -22.2027 -22.1955 -22.1925 -22.1894 -22.1878
   -22.1794 -22.1710 -22.1687 -22.1577 -22.1573 -22.1501 -22.1212 -22.1201
   -22.1004 -22.0984 -22.0949 -22.0890 -22.0858 -22.0832 -22.0802 -22.0730
   -22.0660 -22.0648 -22.0611 -22.0546 -22.0507 -22.0377 -22.0275 -22.0098
   -22.0029 -21.9790 -21.9782 -21.9679 -12.1277 -11.2028 -10.6251 -10.1865
   -10.0581  -9.7049  -9.4929  -9.2155  -9.0097  -8.9009  -8.7744  -8.5334
    -8.3772  -2.7791  -2.4937  -2.2659  -2.0813  -1.9434  -1.8172  -1.7107
    -1.4318  -1.3350  -1.1449  -0.9949  -0.8650  -0.4982  -0.3253  -0.1235
     0.0516   0.2864   0.5709   0.6979   1.2162   1.3585   1.4721   1.4956
     1.8477   1.9006   2.0171   2.2976   2.4624   2.5947   2.8726

          k =-0.0718 0.0967 0.0000 ( 27352 PWs)   bands (ev):

   -22.3386 -22.3331 -22.3214 -22.3151 -22.3084 -22.3064 -22.3042 -22.2983
   -22.2932 -22.2901 -22.2793 -22.2737 -22.2680 -22.2608 -22.2483 -22.2453
   -22.2371 -22.2328 -22.2289 -22.2274 -22.2203 -22.2184 -22.2168 -22.2139
   -22.2116 -22.2053 -22.2034 -22.2027 -22.1955 -22.1925 -22.1894 -22.1878
   -22.1794 -22.1710 -22.1687 -22.1577 -22.1573 -22.1501 -22.1212 -22.1201
   -22.1004 -22.0984 -22.0949 -22.0890 -22.0858 -22.0832 -22.0802 -22.0730
   -22.0660 -22.0648 -22.0611 -22.0546 -22.0507 -22.0377 -22.0275 -22.0098
   -22.0029 -21.9790 -21.9782 -21.9679 -12.1277 -11.2028 -10.6251 -10.1865
   -10.0581  -9.7050  -9.4928  -9.2155  -9.0097  -8.9009  -8.7744  -8.5334
    -8.3772  -2.7791  -2.4937  -2.2658  -2.0813  -1.9434  -1.8172  -1.7107
    -1.4318  -1.3350  -1.1449  -0.9949  -0.8650  -0.4982  -0.3253  -0.1235
     0.0516   0.2864   0.5709   0.6979   1.2162   1.3585   1.4721   1.4956
     1.8477   1.9006   2.0171   2.2976   2.4624   2.5947   2.8726

          k =-0.0718-0.0415 0.0000 ( 27378 PWs)   bands (ev):

   -22.3453 -22.3371 -22.3178 -22.3112 -22.3074 -22.3051 -22.3039 -22.3013
   -22.2914 -22.2858 -22.2774 -22.2729 -22.2642 -22.2575 -22.2569 -22.2429
   -22.2306 -22.2285 -22.2274 -22.2244 -22.2224 -22.2209 -22.2175 -22.2172
   -22.2159 -22.2109 -22.2054 -22.2038 -22.2037 -22.1983 -22.1910 -22.1827
   -22.1797 -22.1753 -22.1662 -22.1645 -22.1527 -22.1308 -22.1276 -22.1025
   -22.1007 -22.0948 -22.0904 -22.0859 -22.0844 -22.0836 -22.0827 -22.0810
   -22.0759 -22.0722 -22.0688 -22.0608 -22.0522 -22.0293 -22.0202 -22.0117
   -22.0019 -21.9791 -21.9783 -21.9673 -12.1255 -11.0379 -10.9754 -10.1845
    -9.7718  -9.4737  -9.4348  -9.4158  -9.1905  -9.0073  -8.7250  -8.4875
    -8.4025  -2.7723  -2.2267  -2.1686  -2.0426  -1.9529  -1.9336  -1.7590
    -1.7450  -1.4863  -1.3711  -0.6951  -0.5941  -0.3767  -0.2881  -0.0019
     0.4540   0.6387   0.6479   0.8164   0.8877   0.9522   1.0145   1.2445
     1.3523   1.4357   1.6704   2.0004   2.4328   2.9821   3.2576

     the Fermi energy is     1.3471 ev

!    total energy              =   -2270.26985936 Ry
     Harris-Foulkes estimate   =   -2270.26986008 Ry
     estimated scf accuracy    <       0.00000010 Ry

     The total energy is the sum of the following terms:

     one-electron contribution =  -10312.21627704 Ry
     hartree contribution      =    5212.02652456 Ry
     xc contribution           =    -807.51676814 Ry
     ewald contribution        =    3637.48829959 Ry
     electric field correction =       0.00021738 Ry
     smearing contrib. (-TS)   =      -0.05185572 Ry

     convergence has been achieved in   7 iterations
 
 BEEF-vdW xc energy contributions
           1 :   -719.670125240826     
           2 :    668.458412073883     
           3 :   -578.193964670215     
           4 :    468.600971816825     
           5 :   -360.349641438631     
           6 :    269.032795315301     
           7 :   -201.631485816110     
           8 :    156.393911722897     
           9 :   -125.778652877951     
          10 :    100.936764432472     
          11 :   -75.7308948289709     
          12 :    48.6992259237230     
          13 :   -22.4812923807792     
          14 :    1.41313523817666     
          15 :    11.2783898873658     
          16 :   -15.2927580332043     
          17 :    13.3482712006885     
          18 :   -9.72818790133908     
          19 :    8.17829905320013     
          20 :   -10.2742267461338     
          21 :    15.0241102040176     
          22 :   -19.7862747316503     
          23 :    21.9108021358018     
          24 :   -20.2063013122148     
          25 :    15.5027313061166     
          26 :   -10.1057832781344     
          27 :    6.51483696314006     
          28 :   -6.12418433526477     
          29 :    8.58015335249411     
          30 :   -12.0837399852692     
          31 :   -57.6746786242643     
          32 :   -42.3753340448188     

     Forces acting on atoms (Ry/au):


     negative rho (up, down):  5.255E-01 0.000E+00
     atom    1 type  1   force =     0.00266599    0.00153945   -0.00594489
     atom    2 type  1   force =    -0.00266593    0.00153918   -0.00594467
     atom    3 type  1   force =    -0.00000005   -0.00307856   -0.00594522
     atom    4 type  1   force =     0.00000010    0.00000004   -0.00113224
     atom    5 type  1   force =    -0.00000025    0.00174196    0.00584859
     atom    6 type  1   force =     0.00000004   -0.00000002    0.00204727
     atom    7 type  1   force =    -0.00150802   -0.00087080    0.00584915
     atom    8 type  1   force =     0.00150826   -0.00087117    0.00584952
     atom    9 type  1   force =    -0.00000121   -0.00000033   -0.00188842
     atom   10 type  1   force =     0.00000088   -0.00165151   -0.00005589
     atom   11 type  1   force =    -0.00143120    0.00082606   -0.00005577
     atom   12 type  1   force =     0.00143140    0.00082550   -0.00005505
     atom   13 type  2   force =    -0.00000002    0.00000021    0.00142761

     Total force =     0.003715     Total SCF correction =     0.001372
     SCF correction compared to forces is large: reduce conv_thr to get better values


     entering subroutine stress ...


     negative rho (up, down):  5.255E-01 0.000E+00
          total   stress  (Ry/bohr**3)                   (kbar)     P=    1.42
   0.00001439   0.00000000  -0.00000000          2.12      0.00     -0.00
   0.00000000   0.00001439  -0.00000000          0.00      2.12     -0.00
  -0.00000000  -0.00000000   0.00000022         -0.00     -0.00      0.03


     bfgs converged in  15 scf cycles and  14 bfgs steps
     (criteria: energy <  1.0E+00, force <  1.9E-03)

     End of BFGS Geometry Optimization

     Final energy   =   -2270.2698593586 Ry
Begin final coordinates

ATOMIC_POSITIONS (crystal)
Bi1      0.166666667   0.166666667   0.389334134    0   0   0
Bi1      0.666666667   0.166666667   0.389334134    0   0   0
Bi1      0.166666667   0.666666667   0.389334134    0   0   0
Bi1      0.666666667   0.666666667   0.389334134    0   0   0
Bi1      0.833333333   0.333333333   0.500000000    0   0   0
Bi1      0.333333333   0.333333333   0.500000000    0   0   0
Bi1      0.833333333   0.833333333   0.500000000    0   0   0
Bi1      0.333333333   0.833333333   0.500000000    0   0   0
Bi1      0.000000255  -0.000003493   0.615016129
Bi1      0.496841630   0.006311459   0.628818353
Bi1      0.006308280   0.496846323   0.628818837
Bi1      0.496844168   0.496851827   0.628818871
S1       0.333334105   0.333334230   0.703377697
End final coordinates



     Writing output data file calc.save
 
     init_run     :      8.50s CPU     11.17s WALL (       1 calls)
     electrons    :   3435.57s CPU   4578.58s WALL (      15 calls)
     update_pot   :     27.62s CPU     31.47s WALL (      14 calls)
     forces       :    107.17s CPU    114.46s WALL (      15 calls)
     stress       :    359.45s CPU    381.30s WALL (      15 calls)

     Called by init_run:
     wfcinit      :      5.25s CPU      7.40s WALL (       1 calls)
     potinit      :      0.94s CPU      1.20s WALL (       1 calls)

     Called by electrons:
     c_bands      :   2406.01s CPU   3224.22s WALL (     144 calls)
     sum_band     :    477.77s CPU    631.79s WALL (     144 calls)
     v_of_rho     :     98.15s CPU    130.57s WALL (     159 calls)
     newd         :    187.04s CPU    227.88s WALL (     159 calls)
     mix_rho      :      2.98s CPU      4.01s WALL (     144 calls)
     vdW_energy   :     88.16s CPU    112.04s WALL (     699 calls)
     vdW_ffts     :    141.73s CPU    194.14s WALL (    1428 calls)
     vdW_v        :     55.71s CPU     65.94s WALL (     699 calls)

     Called by c_bands:
     init_us_2    :     16.96s CPU     19.67s WALL (    6380 calls)
     cegterg      :   2300.97s CPU   3114.24s WALL (    2880 calls)

     Called by *egterg:
     h_psi        :   1415.98s CPU   2106.77s WALL (   15813 calls)
     s_psi        :     96.75s CPU    100.91s WALL (   15813 calls)
     g_psi        :     11.55s CPU     11.71s WALL (   12913 calls)
     cdiaghg      :    409.07s CPU    419.06s WALL (   15513 calls)

     Called by h_psi:
     add_vuspsi   :     97.49s CPU    102.28s WALL (   15813 calls)

     General routines
     calbec       :    135.26s CPU    138.46s WALL (   19293 calls)
     fft          :    223.97s CPU    301.79s WALL (   42053 calls)
     ffts         :      0.28s CPU      0.46s WALL (     303 calls)
     fftw         :   1095.81s CPU   1911.53s WALL ( 1881728 calls)
     interpolate  :      1.84s CPU      3.27s WALL (     303 calls)
     davcio       :      0.02s CPU      0.35s WALL (      20 calls)
 
     Parallel routines
     fft_scatter  :    694.24s CPU   1193.52s WALL ( 1924084 calls)
 
     PWSCF        :     1h 5m CPU        1h25m WALL

 
   This run was terminated on:   0:33:10  23Feb2018            

=------------------------------------------------------------------------------=
   JOB DONE.
=------------------------------------------------------------------------------=
