  python dir          : /u/if/mamunm/src/espresso
  espresso dir        : /nfs/slac/g/suncatfs/sw/espv18/espresso-dynpy-beef/bin
  pseudo dir          : /u/if/mamunm/psp/gbrv1.5pbe
  ase-espresso py git : GITVERSION



     Program PWSCF v.5.1rc2 (svn rev. 11289) starts on  3May2018 at 19:20:15 

     This program is part of the open-source Quantum ESPRESSO suite
     for quantum simulation of materials; please cite
         "P. Giannozzi et al., J. Phys.:Condens. Matter 21 395502 (2009);
          URL http://www.quantum-espresso.org", 
     in publications or presentations arising from this work. More details at
     http://www.quantum-espresso.org/quote

     Parallel version (MPI), running on    32 processors
     K-points division:     npool     =       4
     R & G space division:  proc/nbgrp/npool/nimage =       8
     Reading input from pw.inp
     Message from routine read_cards :
     DEPRECATED: no units specified in CELL_PARAMETERS card

     Current dimensions of program PWSCF are:
     Max number of different atomic species (ntypx) = 10
     Max number of k-points (npk) =  40000
     Max angular momentum in pseudopotentials (lmaxx) =  3
     Presently stress not available with electric field


     **************************************************************************
     Initializing libbeef V0.1.1 with the BEEF-vdW functional.
     Citation: Wellendorff et al., PRB 85, 235149 (2012).
     **************************************************************************


     IMPORTANT: XC functional enforced from input :
     Exchange-correlation      = BEEF-VDW ( 1  4 27 13 2)
     Any further DFT definition will be discarded
     Please, verify this is what you really want


     Subspace diagonalization in iterative solution of the eigenvalue problem:
     a serial algorithm will be used

 
     Parallelization info
     --------------------
     sticks:   dense  smooth     PW     G-vecs:    dense   smooth      PW
     Min         417     168     47                80423    20354    3153
     Max         418     169     48                80438    20375    3172
     Sum        3343    1345    379               643481   162939   25279
 


     bravais-lattice index     =            0
     lattice parameter (alat)  =       1.8897  a.u.
     unit-cell volume          =    5409.9593 (a.u.)^3
     number of atoms/cell      =           13
     number of atomic types    =            2
     number of electrons       =       234.00
     number of Kohn-Sham states=          127
     kinetic-energy cutoff     =      36.7493  Ry
     charge density cutoff     =     367.4932  Ry
     convergence threshold     =      1.0E-05
     mixing beta               =       0.3000
     number of iterations used =           10  plain     mixing
     Exchange-correlation      = BEEF-VDW ( 1  4 27 13 2)
     nstep                     =           50


     celldm(1)=   1.889726  celldm(2)=   0.000000  celldm(3)=   0.000000
     celldm(4)=   0.000000  celldm(5)=   0.000000  celldm(6)=   0.000000

     crystal axes: (cart. coord. in units of alat)
               a(1) = (   6.088539   0.000000   0.000000 )  
               a(2) = (   3.044269   5.272829   0.000000 )  
               a(3) = (   0.000000   0.000000  24.971271 )  

     reciprocal axes: (cart. coord. in units 2 pi/alat)
               b(1) = (  0.164243 -0.094826  0.000000 )  
               b(2) = (  0.000000  0.189652  0.000000 )  
               b(3) = (  0.000000  0.000000  0.040046 )  


     PseudoPot. # 1 for Ga read from file:
     /u/if/mamunm/psp/gbrv1.5pbe/Ga.UPF
     MD5 check sum: ccd671392a58a050fbb373893b4fcd66
     Pseudo is Ultrasoft + core correction, Zval = 19.0
     Generated by new atomic code, or converted to UPF format
     Using radial grid of  871 points,  6 beta functions with: 
                l(1) =   0
                l(2) =   0
                l(3) =   1
                l(4) =   1
                l(5) =   2
                l(6) =   2
     Q(r) pseudized with  8 coefficients,  rinner =    1.250   1.250   1.250
                                                       1.250   1.250

     PseudoPot. # 2 for O  read from file:
     /u/if/mamunm/psp/gbrv1.5pbe/O.UPF
     MD5 check sum: 734c27235a0248c51dbae37a1fbe46ec
     Pseudo is Ultrasoft + core correction, Zval =  6.0
     Generated by new atomic code, or converted to UPF format
     Using radial grid of  737 points,  5 beta functions with: 
                l(1) =   0
                l(2) =   0
                l(3) =   1
                l(4) =   1
                l(5) =   2
     Q(r) pseudized with  8 coefficients,  rinner =    0.900   0.900   0.900
                                                       0.900   0.900

     vdW kernel table read from file vdW_kernel_table
     MD5 check sum: 095c7af220d748ca6e76c0b4c6cfb241

     atomic species   valence    mass     pseudopotential
        Ga1           19.00    69.72300     Ga( 1.00)
        O1             6.00    15.99900     O ( 1.00)

     No symmetry found



   Cartesian axes

     site n.     atom                  positions (alat units)
         1           Ga1 tau(   1) = (   1.5221346   0.8788048  10.0000000  )
         2           Ga1 tau(   2) = (   4.5664039   0.8788048  10.0000000  )
         3           Ga1 tau(   3) = (   3.0442693   3.5152194  10.0000000  )
         4           Ga1 tau(   4) = (   6.0885386   3.5152194  10.0000000  )
         5           Ga1 tau(   5) = (   6.0885386   1.7576097  12.4856355  )
         6           Ga1 tau(   6) = (   3.0442693   1.7576097  12.4856355  )
         7           Ga1 tau(   7) = (   7.6106732   4.3940242  12.4856355  )
         8           Ga1 tau(   8) = (   4.5664039   4.3940242  12.4856355  )
         9           Ga1 tau(   9) = (   0.0000000   0.0000000  14.9712709  )
        10           Ga1 tau(  10) = (   3.0442693   0.0000000  14.9712709  )
        11           Ga1 tau(  11) = (   1.5221346   2.6364145  14.9712709  )
        12           Ga1 tau(  12) = (   4.5664039   2.6364145  14.9712709  )
        13           O1  tau(  13) = (   0.0000000   0.0000000  16.5692709  )

     number of k points=    20  Fermi-Dirac smearing, width (Ry)=  0.0110
                       cart. coord. in units 2pi/alat
        k(    1) = (   0.0000000   0.0000000   0.0000000), wk =   0.0555556
        k(    2) = (   0.0000000   0.0316086   0.0000000), wk =   0.1111111
        k(    3) = (   0.0000000   0.0632172   0.0000000), wk =   0.1111111
        k(    4) = (   0.0000000  -0.0948258   0.0000000), wk =   0.0555556
        k(    5) = (   0.0273738  -0.0158043   0.0000000), wk =   0.1111111
        k(    6) = (   0.0273738   0.0158043   0.0000000), wk =   0.1111111
        k(    7) = (   0.0273738   0.0474129   0.0000000), wk =   0.1111111
        k(    8) = (   0.0273738  -0.1106300   0.0000000), wk =   0.1111111
        k(    9) = (   0.0273738  -0.0790215   0.0000000), wk =   0.1111111
        k(   10) = (   0.0273738  -0.0474129   0.0000000), wk =   0.1111111
        k(   11) = (   0.0547477  -0.0316086   0.0000000), wk =   0.1111111
        k(   12) = (   0.0547477   0.0000000   0.0000000), wk =   0.1111111
        k(   13) = (   0.0547477   0.0316086   0.0000000), wk =   0.1111111
        k(   14) = (   0.0547477  -0.1264343   0.0000000), wk =   0.1111111
        k(   15) = (   0.0547477  -0.0948258   0.0000000), wk =   0.1111111
        k(   16) = (   0.0547477  -0.0632172   0.0000000), wk =   0.1111111
        k(   17) = (  -0.0821215   0.0474129   0.0000000), wk =   0.0555556
        k(   18) = (  -0.0821215   0.0790215   0.0000000), wk =   0.1111111
        k(   19) = (  -0.0821215   0.1106300   0.0000000), wk =   0.1111111
        k(   20) = (  -0.0821215  -0.0474129   0.0000000), wk =   0.0555556

     Dense  grid:   643481 G-vectors     FFT dimensions: (  72,  72, 288)

     Smooth grid:   162939 G-vectors     FFT dimensions: (  45,  45, 192)

     Largest allocated arrays     est. size (Mb)     dimensions
        Kohn-Sham Wavefunctions         4.97 Mb     (    2564,  127)
        NL pseudopotentials             8.96 Mb     (    2564,  229)
        Each V/rho on FFT grid          2.85 Mb     (  186624)
        Each G-vector array             0.61 Mb     (   80438)
        G-vector shells                 0.16 Mb     (   21346)
     Largest temporary arrays     est. size (Mb)     dimensions
        Auxiliary wavefunctions        19.87 Mb     (    2564,  508)
        Each subspace H/S matrix        3.94 Mb     (     508,  508)
        Each <psi_i|beta_j> matrix      0.44 Mb     (     229,  127)
        Arrays for rho mixing          28.48 Mb     (  186624,   10)

     Initial potential from superposition of free atoms
     Check: negative starting charge=   -0.001331

     starting charge  221.99999, renormalised to  234.00000

     negative rho (up, down):  1.403E-03 0.000E+00


     ************************************************************************
     *
     * You are using vdW-DF for exchange-correlation in this calculation.
     * Please cite the following three references that made this development
     * possible:
     *
     *   M. Dion, H. Rydberg, E. Schroder, D. C. Langreth, and
     *   B. I. Lundqvist, Phys. Rev. Lett. 92, 246401 (2004).
     *
     *   T. Thonhauser, V. R. Cooper, S. Li, A. Puzder, P. Hyldgaard, and
     *   D. C. Langreth, Phys. Rev. B 76, 125112 (2007).
     *
     *   G. Roman-Perez and J. M. Soler, Phys. Rev. Lett. 103, 096102 (2009).
     *
     *
     * If you are using vdW-DF2, please also cite:
     *
     *   K. Lee, E. D. Murray, L. Kong, B. I. Lundqvist, and
     *   D. C. Langreth, Phys. Rev. B 82, 081101(R) (2010).
     *
     *
     * If you are calculating the stress with vdW-DF, please also cite:
     *
     *   R. Sabatini, E. Kucukbenli, B. Kolb, T. Thonhauser, and
     *   S. de Gironcoli, J. Phys.: Condens. Matter 24, 424209 (2012).
     *
     ************************************************************************

     Carrying out vdW-DF run using the following parameters:

     Nqs =      20    Nr_points =    1024   r_max =   100.000
     q_mesh =
               0.00001000     0.04494208     0.09755937     0.15916263
               0.23128650     0.31572767     0.41458969     0.53033537
               0.66584808     0.82450364     1.01025438     1.22772762
               1.48234092     1.78043706     2.12944203     2.53805004
               3.01644009     3.57652955     4.23227104     5.00000000

     Gradients computed in reciprocal space

     ************************************************************************


 
     Adding external electric field

     Computed dipole along edir(3) : 
        Dipole               -2.5028 Ry au,         -6.3614 Debye
        Dipole field         -0.0058 Ry au
 
        Potential amp.        0.5350 Ry
        Total length         46.0091 bohr
 
     Starting wfc are  148 randomized atomic wfcs

     total cpu time spent up to now is       13.6 secs

     per-process dynamical memory:    97.0 Mb

     Self-consistent Calculation

     iteration #  1     ecut=    36.75 Ry     beta=0.30
     Davidson diagonalization with overlap
     ethr =  1.00E-02,  avg # of iterations =  7.3

     negative rho (up, down):  1.625E-06 0.000E+00
 
     Adding external electric field

     Computed dipole along edir(3) : 
        Dipole               81.4708 Ry au,        207.0781 Debye
        Dipole field          0.1892 Ry au
 
        Potential amp.      -17.4137 Ry
        Total length         46.0091 bohr
 

     total cpu time spent up to now is       54.1 secs

     total energy              =   -4727.49937274 Ry
     Harris-Foulkes estimate   =   -5041.51404841 Ry
     estimated scf accuracy    <     663.02344158 Ry

     iteration #  2     ecut=    36.75 Ry     beta=0.30
     Davidson diagonalization with overlap
     ethr =  1.00E-02,  avg # of iterations = 20.9
 
     Adding external electric field

     Computed dipole along edir(3) : 
        Dipole               20.8007 Ry au,         52.8701 Debye
        Dipole field          0.0483 Ry au
 
        Potential amp.       -4.4460 Ry
        Total length         46.0091 bohr
 

     total cpu time spent up to now is      148.7 secs

     total energy              =   -4584.15460266 Ry
     Harris-Foulkes estimate   =   -5795.15329968 Ry
     estimated scf accuracy    <   19944.82767551 Ry

     iteration #  3     ecut=    36.75 Ry     beta=0.30
     Davidson diagonalization with overlap
     ethr =  1.00E-02,  avg # of iterations =  8.5
 
     Adding external electric field

     Computed dipole along edir(3) : 
        Dipole               24.0275 Ry au,         61.0717 Debye
        Dipole field          0.0558 Ry au
 
        Potential amp.       -5.1357 Ry
        Total length         46.0091 bohr
 

     total cpu time spent up to now is      196.5 secs

     total energy              =   -4902.38815057 Ry
     Harris-Foulkes estimate   =   -5150.48091573 Ry
     estimated scf accuracy    <    2536.48476183 Ry

     iteration #  4     ecut=    36.75 Ry     beta=0.30
     Davidson diagonalization with overlap
     ethr =  1.00E-02,  avg # of iterations =  6.3
 
     Adding external electric field

     Computed dipole along edir(3) : 
        Dipole               18.7181 Ry au,         47.5767 Debye
        Dipole field          0.0435 Ry au
 
        Potential amp.       -4.0008 Ry
        Total length         46.0091 bohr
 

     total cpu time spent up to now is      236.8 secs

     total energy              =   -5038.31989288 Ry
     Harris-Foulkes estimate   =   -5053.20565149 Ry
     estimated scf accuracy    <      41.93968388 Ry

     iteration #  5     ecut=    36.75 Ry     beta=0.30
     Davidson diagonalization with overlap
     ethr =  1.00E-02,  avg # of iterations =  2.0
 
     Adding external electric field

     Computed dipole along edir(3) : 
        Dipole               14.1872 Ry au,         36.0602 Debye
        Dipole field          0.0330 Ry au
 
        Potential amp.       -3.0324 Ry
        Total length         46.0091 bohr
 

     total cpu time spent up to now is      260.0 secs

     total energy              =   -5035.18517617 Ry
     Harris-Foulkes estimate   =   -5040.66528695 Ry
     estimated scf accuracy    <      21.91228793 Ry

     iteration #  6     ecut=    36.75 Ry     beta=0.30
     Davidson diagonalization with overlap
     ethr =  9.36E-03,  avg # of iterations =  1.0

     negative rho (up, down):  2.388E-07 0.000E+00
 
     Adding external electric field

     Computed dipole along edir(3) : 
        Dipole                8.7352 Ry au,         22.2026 Debye
        Dipole field          0.0203 Ry au
 
        Potential amp.       -1.8671 Ry
        Total length         46.0091 bohr
 

     total cpu time spent up to now is      282.2 secs

     total energy              =   -5032.04853197 Ry
     Harris-Foulkes estimate   =   -5035.96070504 Ry
     estimated scf accuracy    <      12.50880345 Ry

     iteration #  7     ecut=    36.75 Ry     beta=0.30
     Davidson diagonalization with overlap
     ethr =  5.35E-03,  avg # of iterations =  2.0
 
     Adding external electric field

     Computed dipole along edir(3) : 
        Dipole                8.6673 Ry au,         22.0300 Debye
        Dipole field          0.0201 Ry au
 
        Potential amp.       -1.8526 Ry
        Total length         46.0091 bohr
 

     total cpu time spent up to now is      305.9 secs

     total energy              =   -5032.65492633 Ry
     Harris-Foulkes estimate   =   -5032.74155846 Ry
     estimated scf accuracy    <       2.62852650 Ry

     iteration #  8     ecut=    36.75 Ry     beta=0.30
     Davidson diagonalization with overlap
     ethr =  1.12E-03,  avg # of iterations =  3.0

     negative rho (up, down):  5.546E-02 0.000E+00
 
     Adding external electric field

     Computed dipole along edir(3) : 
        Dipole                5.7740 Ry au,         14.6761 Debye
        Dipole field          0.0134 Ry au
 
        Potential amp.       -1.2341 Ry
        Total length         46.0091 bohr
 

     total cpu time spent up to now is      329.6 secs

     total energy              =   -5031.94219844 Ry
     Harris-Foulkes estimate   =   -5032.84268188 Ry
     estimated scf accuracy    <       4.47819508 Ry

     iteration #  9     ecut=    36.75 Ry     beta=0.30
     Davidson diagonalization with overlap
     ethr =  1.12E-03,  avg # of iterations =  1.9

     negative rho (up, down):  1.221E-01 0.000E+00
 
     Adding external electric field

     Computed dipole along edir(3) : 
        Dipole                1.1797 Ry au,          2.9985 Debye
        Dipole field          0.0027 Ry au
 
        Potential amp.       -0.2522 Ry
        Total length         46.0091 bohr
 

     total cpu time spent up to now is      352.4 secs

     total energy              =   -5031.35460208 Ry
     Harris-Foulkes estimate   =   -5032.08858324 Ry
     estimated scf accuracy    <       1.96726982 Ry

     iteration # 10     ecut=    36.75 Ry     beta=0.30
     Davidson diagonalization with overlap
     ethr =  8.41E-04,  avg # of iterations =  4.5

     negative rho (up, down):  1.129E-01 0.000E+00
 
     Adding external electric field

     Computed dipole along edir(3) : 
        Dipole                1.1611 Ry au,          2.9511 Debye
        Dipole field          0.0027 Ry au
 
        Potential amp.       -0.2482 Ry
        Total length         46.0091 bohr
 

     total cpu time spent up to now is      380.0 secs

     total energy              =   -5031.51570915 Ry
     Harris-Foulkes estimate   =   -5031.54299007 Ry
     estimated scf accuracy    <       0.13224338 Ry

     iteration # 11     ecut=    36.75 Ry     beta=0.30
     Davidson diagonalization with overlap
     ethr =  5.65E-05,  avg # of iterations =  3.3

     negative rho (up, down):  7.847E-02 0.000E+00
 
     Adding external electric field

     Computed dipole along edir(3) : 
        Dipole                1.2962 Ry au,          3.2947 Debye
        Dipole field          0.0030 Ry au
 
        Potential amp.       -0.2771 Ry
        Total length         46.0091 bohr
 

     total cpu time spent up to now is      405.5 secs

     total energy              =   -5031.49063397 Ry
     Harris-Foulkes estimate   =   -5031.52634173 Ry
     estimated scf accuracy    <       0.09392310 Ry

     iteration # 12     ecut=    36.75 Ry     beta=0.30
     Davidson diagonalization with overlap
     ethr =  4.01E-05,  avg # of iterations =  4.2

     negative rho (up, down):  8.549E-02 0.000E+00
 
     Adding external electric field

     Computed dipole along edir(3) : 
        Dipole                0.1139 Ry au,          0.2894 Debye
        Dipole field          0.0003 Ry au
 
        Potential amp.       -0.0243 Ry
        Total length         46.0091 bohr
 

     total cpu time spent up to now is      433.9 secs

     total energy              =   -5031.47535263 Ry
     Harris-Foulkes estimate   =   -5031.54581044 Ry
     estimated scf accuracy    <       0.33635455 Ry

     iteration # 13     ecut=    36.75 Ry     beta=0.30
     Davidson diagonalization with overlap
     ethr =  4.01E-05,  avg # of iterations =  4.6

     negative rho (up, down):  4.287E-02 0.000E+00
 
     Adding external electric field

     Computed dipole along edir(3) : 
        Dipole               -0.2646 Ry au,         -0.6726 Debye
        Dipole field         -0.0006 Ry au
 
        Potential amp.        0.0566 Ry
        Total length         46.0091 bohr
 

     total cpu time spent up to now is      461.9 secs

     total energy              =   -5031.49418295 Ry
     Harris-Foulkes estimate   =   -5031.50396376 Ry
     estimated scf accuracy    <       0.02560855 Ry

     iteration # 14     ecut=    36.75 Ry     beta=0.30
     Davidson diagonalization with overlap
     ethr =  1.09E-05,  avg # of iterations =  4.0

     negative rho (up, down):  1.127E-02 0.000E+00
 
     Adding external electric field

     Computed dipole along edir(3) : 
        Dipole               -0.5608 Ry au,         -1.4254 Debye
        Dipole field         -0.0013 Ry au
 
        Potential amp.        0.1199 Ry
        Total length         46.0091 bohr
 

     total cpu time spent up to now is      487.8 secs

     total energy              =   -5031.49313729 Ry
     Harris-Foulkes estimate   =   -5031.49636657 Ry
     estimated scf accuracy    <       0.01204988 Ry

     iteration # 15     ecut=    36.75 Ry     beta=0.30
     Davidson diagonalization with overlap
     ethr =  5.15E-06,  avg # of iterations =  2.8

     negative rho (up, down):  5.230E-03 0.000E+00
 
     Adding external electric field

     Computed dipole along edir(3) : 
        Dipole               -0.6985 Ry au,         -1.7755 Debye
        Dipole field         -0.0016 Ry au
 
        Potential amp.        0.1493 Ry
        Total length         46.0091 bohr
 

     total cpu time spent up to now is      511.7 secs

     total energy              =   -5031.49334636 Ry
     Harris-Foulkes estimate   =   -5031.49350602 Ry
     estimated scf accuracy    <       0.00119334 Ry

     iteration # 16     ecut=    36.75 Ry     beta=0.30
     Davidson diagonalization with overlap
     ethr =  5.10E-07,  avg # of iterations =  3.6

     negative rho (up, down):  3.087E-03 0.000E+00
 
     Adding external electric field

     Computed dipole along edir(3) : 
        Dipole               -0.7022 Ry au,         -1.7847 Debye
        Dipole field         -0.0016 Ry au
 
        Potential amp.        0.1501 Ry
        Total length         46.0091 bohr
 

     total cpu time spent up to now is      538.3 secs

     total energy              =   -5031.49340474 Ry
     Harris-Foulkes estimate   =   -5031.49354530 Ry
     estimated scf accuracy    <       0.00047973 Ry

     iteration # 17     ecut=    36.75 Ry     beta=0.30
     Davidson diagonalization with overlap
     ethr =  2.05E-07,  avg # of iterations =  3.0

     negative rho (up, down):  1.198E-03 0.000E+00
 
     Adding external electric field

     Computed dipole along edir(3) : 
        Dipole               -0.7058 Ry au,         -1.7939 Debye
        Dipole field         -0.0016 Ry au
 
        Potential amp.        0.1508 Ry
        Total length         46.0091 bohr
 

     total cpu time spent up to now is      562.6 secs

     total energy              =   -5031.49344718 Ry
     Harris-Foulkes estimate   =   -5031.49344509 Ry
     estimated scf accuracy    <       0.00003061 Ry

     iteration # 18     ecut=    36.75 Ry     beta=0.30
     Davidson diagonalization with overlap
     ethr =  1.31E-08,  avg # of iterations =  4.0

     negative rho (up, down):  1.115E-03 0.000E+00

     negative rho (up, down):  1.115E-03 0.000E+00

     negative rho (up, down):  1.115E-03 0.000E+00

     negative rho (up, down):  1.115E-03 0.000E+00

     negative rho (up, down):  1.115E-03 0.000E+00

     negative rho (up, down):  1.115E-03 0.000E+00

     negative rho (up, down):  1.115E-03 0.000E+00

     negative rho (up, down):  1.115E-03 0.000E+00

     negative rho (up, down):  1.115E-03 0.000E+00

     negative rho (up, down):  1.115E-03 0.000E+00

     negative rho (up, down):  1.115E-03 0.000E+00

     negative rho (up, down):  1.115E-03 0.000E+00

     negative rho (up, down):  1.115E-03 0.000E+00

     negative rho (up, down):  1.115E-03 0.000E+00

     negative rho (up, down):  1.115E-03 0.000E+00

     negative rho (up, down):  1.115E-03 0.000E+00

     negative rho (up, down):  1.115E-03 0.000E+00

     negative rho (up, down):  1.115E-03 0.000E+00

     negative rho (up, down):  1.115E-03 0.000E+00

     negative rho (up, down):  1.115E-03 0.000E+00

     negative rho (up, down):  1.115E-03 0.000E+00

     negative rho (up, down):  1.115E-03 0.000E+00

     negative rho (up, down):  1.115E-03 0.000E+00

     negative rho (up, down):  1.115E-03 0.000E+00

     negative rho (up, down):  1.115E-03 0.000E+00

     negative rho (up, down):  1.115E-03 0.000E+00

     negative rho (up, down):  1.115E-03 0.000E+00

     negative rho (up, down):  1.115E-03 0.000E+00

     negative rho (up, down):  1.115E-03 0.000E+00

     negative rho (up, down):  1.115E-03 0.000E+00

     negative rho (up, down):  1.115E-03 0.000E+00

     negative rho (up, down):  1.115E-03 0.000E+00

     negative rho (up, down):  1.115E-03 0.000E+00

     negative rho (up, down):  1.115E-03 0.000E+00

     negative rho (up, down):  1.115E-03 0.000E+00
 
     Adding external electric field

     Computed dipole along edir(3) : 
        Dipole               -0.7158 Ry au,         -1.8194 Debye
        Dipole field         -0.0017 Ry au
 
        Potential amp.        0.1530 Ry
        Total length         46.0091 bohr
 

     total cpu time spent up to now is      639.2 secs

     End of self-consistent calculation

          k = 0.0000 0.0000 0.0000 ( 20347 PWs)   bands (ev):

   -95.3881 -95.3879 -95.3879 -95.3815 -95.3815 -95.3810 -95.3773 -95.3772
   -95.3772 -95.3677 -95.3628 -95.3623 -95.3613 -95.3613 -95.3611 -95.3611
   -95.3584 -95.3584 -95.3580 -95.3577 -95.3577 -95.3570 -95.3566 -95.3551
   -95.3551 -95.3528 -95.3526 -95.3526 -95.3504 -95.3504 -95.3262 -95.3262
   -95.3207 -94.8784 -94.8784 -94.7608 -18.8794 -15.8585 -15.8585 -15.8576
   -15.8200 -15.8147 -15.8093 -15.8093 -15.8036 -15.8036 -15.7978 -15.7951
   -15.7829 -15.7829 -15.7761 -15.7544 -15.7544 -15.7534 -15.7499 -15.7457
   -15.7456 -15.7356 -15.7356 -15.7335 -15.7308 -15.7308 -15.7249 -15.7068
   -15.7068 -15.6966 -15.6966 -15.6727 -15.6585 -15.6585 -15.6486 -15.6486
   -15.6303 -15.6303 -15.6116 -15.6116 -15.6089 -15.5996 -15.5992 -15.5992
   -15.5795 -15.5795 -15.5746 -15.5738 -15.5738 -15.5647 -15.5630 -15.5549
   -15.5549 -15.5532 -15.5459 -15.5459 -15.2368 -15.2368 -15.2164 -15.2164
   -14.3566 -10.6991  -9.1245  -6.8496  -5.5503  -5.5503  -5.5202  -5.1582
    -5.1448  -5.1448  -4.1782  -3.9468  -3.9468  -3.5933  -3.5933  -3.4130
    -2.9393  -2.4086  -2.4086  -2.3312  -1.5151  -1.5151  -1.4119  -0.5485
    -0.5485  -0.1017   0.7501   2.4421   2.5435   2.5435   2.6629

          k = 0.0000 0.0316 0.0000 ( 20271 PWs)   bands (ev):

   -95.3881 -95.3879 -95.3879 -95.3815 -95.3814 -95.3810 -95.3773 -95.3772
   -95.3771 -95.3677 -95.3627 -95.3623 -95.3614 -95.3613 -95.3611 -95.3610
   -95.3584 -95.3584 -95.3579 -95.3577 -95.3576 -95.3570 -95.3565 -95.3552
   -95.3551 -95.3528 -95.3526 -95.3526 -95.3504 -95.3504 -95.3262 -95.3262
   -95.3207 -94.8784 -94.8784 -94.7607 -18.8792 -15.8523 -15.8455 -15.8449
   -15.8140 -15.8084 -15.8006 -15.7993 -15.7945 -15.7923 -15.7911 -15.7868
   -15.7795 -15.7720 -15.7714 -15.7548 -15.7508 -15.7504 -15.7465 -15.7459
   -15.7409 -15.7352 -15.7312 -15.7310 -15.7268 -15.7215 -15.7208 -15.7078
   -15.7045 -15.6992 -15.6934 -15.6737 -15.6650 -15.6613 -15.6515 -15.6480
   -15.6401 -15.6356 -15.6170 -15.6149 -15.6132 -15.6050 -15.6037 -15.6011
   -15.5872 -15.5862 -15.5838 -15.5805 -15.5780 -15.5728 -15.5714 -15.5651
   -15.5631 -15.5614 -15.5567 -15.5525 -15.2422 -15.2403 -15.2178 -15.2168
   -14.3570 -10.5482  -8.9799  -6.9193  -6.7108  -6.0586  -6.0241  -5.5222
    -4.8960  -4.8668  -4.0412  -3.9767  -3.7889  -3.2523  -3.0224  -2.9344
    -2.6831  -2.5069  -2.3277  -2.0403  -1.3018  -1.2674  -1.0411  -0.1685
    -0.1155   0.4912   1.1385   1.4488   2.0815   2.3382   2.8211

          k = 0.0000 0.0632 0.0000 ( 20353 PWs)   bands (ev):

   -95.3880 -95.3879 -95.3879 -95.3815 -95.3814 -95.3810 -95.3773 -95.3772
   -95.3772 -95.3677 -95.3624 -95.3621 -95.3616 -95.3613 -95.3613 -95.3610
   -95.3584 -95.3583 -95.3580 -95.3576 -95.3575 -95.3571 -95.3563 -95.3554
   -95.3551 -95.3527 -95.3526 -95.3526 -95.3504 -95.3504 -95.3262 -95.3262
   -95.3207 -94.8784 -94.8784 -94.7607 -18.8788 -15.8365 -15.8154 -15.8144
   -15.8030 -15.7926 -15.7878 -15.7798 -15.7777 -15.7747 -15.7715 -15.7683
   -15.7667 -15.7583 -15.7580 -15.7521 -15.7456 -15.7454 -15.7398 -15.7330
   -15.7279 -15.7263 -15.7207 -15.7206 -15.7152 -15.7108 -15.7065 -15.7026
   -15.6986 -15.6929 -15.6862 -15.6788 -15.6757 -15.6683 -15.6645 -15.6569
   -15.6522 -15.6443 -15.6384 -15.6289 -15.6280 -15.6249 -15.6212 -15.6128
   -15.6110 -15.6057 -15.6029 -15.6010 -15.5945 -15.5926 -15.5905 -15.5841
   -15.5825 -15.5735 -15.5641 -15.5555 -15.2535 -15.2474 -15.2208 -15.2176
   -14.3578 -10.0941  -8.5513  -8.2586  -6.7938  -6.4870  -6.4613  -6.2849
    -5.1353  -5.1052  -4.7234  -3.6514  -3.4085  -2.7605  -2.7143  -2.3904
    -2.0442  -1.8729  -1.5475  -0.9066  -0.7452  -0.6482  -0.1264   0.6164
     0.7682   0.9112   1.0523   1.2393   1.7925   2.1666   2.1700

          k = 0.0000-0.0948 0.0000 ( 20384 PWs)   bands (ev):

   -95.3880 -95.3879 -95.3879 -95.3815 -95.3813 -95.3811 -95.3773 -95.3772
   -95.3772 -95.3677 -95.3623 -95.3619 -95.3618 -95.3615 -95.3613 -95.3610
   -95.3584 -95.3583 -95.3581 -95.3576 -95.3574 -95.3571 -95.3561 -95.3556
   -95.3551 -95.3527 -95.3527 -95.3526 -95.3504 -95.3504 -95.3262 -95.3262
   -95.3207 -94.8784 -94.8784 -94.7608 -18.8787 -15.8202 -15.8091 -15.7932
   -15.7915 -15.7895 -15.7872 -15.7809 -15.7714 -15.7631 -15.7612 -15.7546
   -15.7540 -15.7508 -15.7496 -15.7474 -15.7377 -15.7338 -15.7312 -15.7242
   -15.7231 -15.7131 -15.7079 -15.7069 -15.7066 -15.7055 -15.7044 -15.6986
   -15.6986 -15.6950 -15.6877 -15.6818 -15.6754 -15.6699 -15.6662 -15.6595
   -15.6489 -15.6470 -15.6458 -15.6444 -15.6412 -15.6409 -15.6364 -15.6348
   -15.6316 -15.6301 -15.6206 -15.6201 -15.6099 -15.6073 -15.5959 -15.5857
   -15.5856 -15.5747 -15.5643 -15.5557 -15.2593 -15.2510 -15.2222 -15.2180
   -14.3583  -9.3610  -9.3064  -7.8893  -7.7261  -6.6341  -6.5932  -5.7054
    -5.5688  -5.2624  -5.2130  -3.6419  -3.3982  -2.4928  -2.3419  -2.2247
    -1.3148  -1.0593  -1.0046  -0.8976  -0.5141  -0.4840   0.4426   0.5697
     0.7822   0.9653   1.5607   1.7396   1.7494   1.8280   1.9181

          k = 0.0274-0.0158 0.0000 ( 20271 PWs)   bands (ev):

   -95.3881 -95.3879 -95.3879 -95.3815 -95.3815 -95.3810 -95.3773 -95.3772
   -95.3771 -95.3677 -95.3627 -95.3623 -95.3614 -95.3613 -95.3611 -95.3610
   -95.3584 -95.3584 -95.3579 -95.3577 -95.3576 -95.3570 -95.3565 -95.3552
   -95.3551 -95.3528 -95.3526 -95.3526 -95.3504 -95.3504 -95.3262 -95.3262
   -95.3207 -94.8784 -94.8784 -94.7607 -18.8792 -15.8523 -15.8455 -15.8449
   -15.8140 -15.8084 -15.8006 -15.7993 -15.7945 -15.7923 -15.7911 -15.7868
   -15.7795 -15.7720 -15.7714 -15.7548 -15.7508 -15.7504 -15.7465 -15.7459
   -15.7409 -15.7352 -15.7312 -15.7310 -15.7268 -15.7215 -15.7208 -15.7078
   -15.7045 -15.6992 -15.6934 -15.6737 -15.6650 -15.6613 -15.6515 -15.6480
   -15.6401 -15.6356 -15.6170 -15.6149 -15.6132 -15.6050 -15.6037 -15.6011
   -15.5872 -15.5862 -15.5838 -15.5805 -15.5780 -15.5728 -15.5714 -15.5651
   -15.5631 -15.5614 -15.5567 -15.5525 -15.2422 -15.2403 -15.2178 -15.2168
   -14.3570 -10.5482  -8.9799  -6.9193  -6.7108  -6.0586  -6.0241  -5.5222
    -4.8960  -4.8668  -4.0412  -3.9767  -3.7889  -3.2523  -3.0224  -2.9344
    -2.6831  -2.5069  -2.3277  -2.0403  -1.3018  -1.2674  -1.0411  -0.1685
    -0.1155   0.4912   1.1385   1.4488   2.0815   2.3382   2.8211

          k = 0.0274 0.0158 0.0000 ( 20271 PWs)   bands (ev):

   -95.3881 -95.3879 -95.3879 -95.3815 -95.3815 -95.3810 -95.3773 -95.3772
   -95.3771 -95.3677 -95.3627 -95.3623 -95.3614 -95.3613 -95.3611 -95.3611
   -95.3584 -95.3584 -95.3579 -95.3576 -95.3576 -95.3570 -95.3565 -95.3552
   -95.3551 -95.3528 -95.3526 -95.3526 -95.3504 -95.3504 -95.3262 -95.3262
   -95.3207 -94.8784 -94.8784 -94.7607 -18.8792 -15.8524 -15.8455 -15.8449
   -15.8140 -15.8084 -15.8006 -15.7993 -15.7945 -15.7923 -15.7911 -15.7868
   -15.7795 -15.7720 -15.7714 -15.7548 -15.7508 -15.7504 -15.7465 -15.7459
   -15.7409 -15.7352 -15.7312 -15.7310 -15.7268 -15.7215 -15.7208 -15.7078
   -15.7045 -15.6992 -15.6934 -15.6737 -15.6650 -15.6613 -15.6515 -15.6480
   -15.6401 -15.6356 -15.6170 -15.6149 -15.6132 -15.6050 -15.6037 -15.6012
   -15.5872 -15.5862 -15.5838 -15.5805 -15.5780 -15.5728 -15.5714 -15.5651
   -15.5631 -15.5614 -15.5567 -15.5525 -15.2422 -15.2403 -15.2178 -15.2168
   -14.3570 -10.5482  -8.9799  -6.9193  -6.7108  -6.0586  -6.0241  -5.5222
    -4.8960  -4.8668  -4.0412  -3.9767  -3.7889  -3.2523  -3.0224  -2.9344
    -2.6831  -2.5069  -2.3277  -2.0403  -1.3018  -1.2674  -1.0411  -0.1685
    -0.1155   0.4912   1.1385   1.4488   2.0815   2.3382   2.8211

          k = 0.0274 0.0474 0.0000 ( 20341 PWs)   bands (ev):

   -95.3880 -95.3879 -95.3879 -95.3815 -95.3814 -95.3810 -95.3773 -95.3772
   -95.3772 -95.3677 -95.3625 -95.3621 -95.3615 -95.3613 -95.3613 -95.3610
   -95.3584 -95.3583 -95.3580 -95.3576 -95.3575 -95.3570 -95.3564 -95.3554
   -95.3551 -95.3528 -95.3526 -95.3526 -95.3504 -95.3504 -95.3262 -95.3262
   -95.3207 -94.8784 -94.8784 -94.7607 -18.8789 -15.8357 -15.8331 -15.8201
   -15.8013 -15.7962 -15.7899 -15.7824 -15.7800 -15.7796 -15.7772 -15.7731
   -15.7710 -15.7670 -15.7603 -15.7544 -15.7489 -15.7461 -15.7409 -15.7354
   -15.7326 -15.7314 -15.7300 -15.7232 -15.7177 -15.7129 -15.7080 -15.7034
   -15.7007 -15.6980 -15.6886 -15.6760 -15.6712 -15.6689 -15.6614 -15.6542
   -15.6483 -15.6443 -15.6328 -15.6252 -15.6202 -15.6156 -15.6149 -15.6100
   -15.6039 -15.5997 -15.5980 -15.5927 -15.5913 -15.5824 -15.5820 -15.5790
   -15.5769 -15.5700 -15.5670 -15.5620 -15.2501 -15.2460 -15.2198 -15.2177
   -14.3576 -10.2457  -8.6909  -7.5260  -7.4930  -6.4615  -6.0967  -6.0163
    -5.1255  -4.7481  -4.2240  -4.0521  -3.6824  -3.1854  -2.7827  -2.3233
    -2.2365  -1.8334  -1.6566  -1.5047  -0.8287  -0.6131  -0.3816  -0.0310
     0.5474   0.7826   1.1654   1.3938   1.7683   2.1442   2.4602

          k = 0.0274-0.1106 0.0000 ( 20377 PWs)   bands (ev):

   -95.3880 -95.3879 -95.3879 -95.3815 -95.3813 -95.3811 -95.3773 -95.3772
   -95.3772 -95.3677 -95.3623 -95.3619 -95.3618 -95.3615 -95.3613 -95.3610
   -95.3585 -95.3583 -95.3581 -95.3576 -95.3574 -95.3571 -95.3561 -95.3556
   -95.3552 -95.3527 -95.3527 -95.3526 -95.3504 -95.3504 -95.3262 -95.3262
   -95.3207 -94.8784 -94.8784 -94.7607 -18.8787 -15.8170 -15.8019 -15.7974
   -15.7941 -15.7836 -15.7795 -15.7751 -15.7710 -15.7678 -15.7645 -15.7619
   -15.7572 -15.7525 -15.7492 -15.7459 -15.7399 -15.7362 -15.7335 -15.7260
   -15.7234 -15.7178 -15.7141 -15.7081 -15.7053 -15.7049 -15.7018 -15.7005
   -15.6963 -15.6930 -15.6864 -15.6851 -15.6780 -15.6755 -15.6664 -15.6606
   -15.6572 -15.6542 -15.6464 -15.6449 -15.6387 -15.6361 -15.6342 -15.6286
   -15.6238 -15.6206 -15.6141 -15.6112 -15.6029 -15.5982 -15.5961 -15.5925
   -15.5854 -15.5781 -15.5727 -15.5645 -15.2578 -15.2522 -15.2215 -15.2187
   -14.3583  -9.6387  -8.7259  -8.1098  -7.8085  -7.2164  -6.3535  -5.8988
    -5.1906  -5.1053  -4.3726  -4.1404  -3.4015  -2.6965  -2.4872  -2.3036
    -1.7706  -1.3287  -0.9238  -0.6245  -0.4032  -0.2819   0.1412   0.5643
     0.7426   1.0011   1.1107   1.6090   1.8788   2.1542   2.2709

          k = 0.0274-0.0790 0.0000 ( 20377 PWs)   bands (ev):

   -95.3880 -95.3879 -95.3879 -95.3815 -95.3813 -95.3811 -95.3773 -95.3772
   -95.3772 -95.3677 -95.3623 -95.3619 -95.3618 -95.3615 -95.3613 -95.3610
   -95.3585 -95.3583 -95.3581 -95.3576 -95.3574 -95.3571 -95.3561 -95.3556
   -95.3552 -95.3527 -95.3527 -95.3526 -95.3504 -95.3504 -95.3262 -95.3262
   -95.3207 -94.8784 -94.8784 -94.7607 -18.8787 -15.8170 -15.8019 -15.7974
   -15.7941 -15.7836 -15.7795 -15.7751 -15.7710 -15.7678 -15.7645 -15.7619
   -15.7572 -15.7525 -15.7491 -15.7459 -15.7399 -15.7362 -15.7335 -15.7260
   -15.7234 -15.7178 -15.7141 -15.7081 -15.7053 -15.7049 -15.7018 -15.7005
   -15.6963 -15.6930 -15.6864 -15.6851 -15.6780 -15.6755 -15.6664 -15.6606
   -15.6572 -15.6542 -15.6464 -15.6449 -15.6387 -15.6361 -15.6342 -15.6286
   -15.6238 -15.6206 -15.6141 -15.6112 -15.6029 -15.5982 -15.5961 -15.5925
   -15.5854 -15.5781 -15.5727 -15.5645 -15.2578 -15.2522 -15.2215 -15.2187
   -14.3583  -9.6387  -8.7259  -8.1098  -7.8086  -7.2164  -6.3535  -5.8988
    -5.1906  -5.1053  -4.3726  -4.1404  -3.4015  -2.6965  -2.4872  -2.3036
    -1.7706  -1.3287  -0.9238  -0.6245  -0.4032  -0.2819   0.1412   0.5643
     0.7426   1.0011   1.1107   1.6090   1.8788   2.1542   2.2709

          k = 0.0274-0.0474 0.0000 ( 20341 PWs)   bands (ev):

   -95.3880 -95.3879 -95.3879 -95.3815 -95.3814 -95.3810 -95.3773 -95.3772
   -95.3772 -95.3677 -95.3625 -95.3621 -95.3615 -95.3613 -95.3613 -95.3610
   -95.3584 -95.3583 -95.3580 -95.3576 -95.3575 -95.3570 -95.3564 -95.3554
   -95.3551 -95.3528 -95.3526 -95.3526 -95.3504 -95.3504 -95.3262 -95.3262
   -95.3207 -94.8784 -94.8784 -94.7607 -18.8789 -15.8357 -15.8331 -15.8201
   -15.8013 -15.7962 -15.7899 -15.7824 -15.7800 -15.7796 -15.7772 -15.7731
   -15.7710 -15.7670 -15.7603 -15.7544 -15.7489 -15.7461 -15.7409 -15.7354
   -15.7326 -15.7314 -15.7300 -15.7232 -15.7177 -15.7129 -15.7080 -15.7034
   -15.7007 -15.6980 -15.6886 -15.6760 -15.6712 -15.6689 -15.6614 -15.6542
   -15.6483 -15.6443 -15.6328 -15.6252 -15.6202 -15.6156 -15.6149 -15.6100
   -15.6039 -15.5997 -15.5980 -15.5927 -15.5913 -15.5824 -15.5820 -15.5790
   -15.5769 -15.5700 -15.5671 -15.5620 -15.2501 -15.2460 -15.2198 -15.2177
   -14.3576 -10.2457  -8.6909  -7.5260  -7.4930  -6.4615  -6.0967  -6.0163
    -5.1255  -4.7481  -4.2240  -4.0521  -3.6824  -3.1854  -2.7827  -2.3233
    -2.2366  -1.8334  -1.6566  -1.5047  -0.8287  -0.6131  -0.3816  -0.0310
     0.5474   0.7826   1.1654   1.3938   1.7683   2.1442   2.4602

          k = 0.0547-0.0316 0.0000 ( 20353 PWs)   bands (ev):

   -95.3880 -95.3880 -95.3879 -95.3815 -95.3814 -95.3810 -95.3773 -95.3772
   -95.3772 -95.3677 -95.3624 -95.3621 -95.3616 -95.3613 -95.3613 -95.3610
   -95.3584 -95.3583 -95.3580 -95.3576 -95.3575 -95.3571 -95.3563 -95.3554
   -95.3551 -95.3527 -95.3526 -95.3526 -95.3504 -95.3504 -95.3262 -95.3262
   -95.3207 -94.8784 -94.8784 -94.7607 -18.8788 -15.8365 -15.8154 -15.8144
   -15.8030 -15.7926 -15.7878 -15.7798 -15.7777 -15.7747 -15.7715 -15.7683
   -15.7667 -15.7582 -15.7580 -15.7521 -15.7456 -15.7454 -15.7398 -15.7330
   -15.7279 -15.7264 -15.7207 -15.7206 -15.7152 -15.7107 -15.7065 -15.7026
   -15.6986 -15.6929 -15.6862 -15.6788 -15.6757 -15.6683 -15.6645 -15.6569
   -15.6522 -15.6443 -15.6384 -15.6289 -15.6280 -15.6249 -15.6212 -15.6128
   -15.6110 -15.6057 -15.6029 -15.6010 -15.5945 -15.5926 -15.5905 -15.5841
   -15.5825 -15.5735 -15.5641 -15.5555 -15.2535 -15.2474 -15.2208 -15.2176
   -14.3578 -10.0941  -8.5513  -8.2586  -6.7938  -6.4870  -6.4613  -6.2849
    -5.1353  -5.1052  -4.7234  -3.6514  -3.4085  -2.7605  -2.7143  -2.3904
    -2.0442  -1.8729  -1.5475  -0.9066  -0.7452  -0.6482  -0.1264   0.6164
     0.7682   0.9112   1.0523   1.2393   1.7925   2.1666   2.1700

          k = 0.0547 0.0000 0.0000 ( 20341 PWs)   bands (ev):

   -95.3880 -95.3880 -95.3879 -95.3815 -95.3814 -95.3810 -95.3773 -95.3772
   -95.3772 -95.3677 -95.3625 -95.3621 -95.3615 -95.3613 -95.3612 -95.3610
   -95.3584 -95.3583 -95.3580 -95.3576 -95.3575 -95.3570 -95.3564 -95.3554
   -95.3551 -95.3528 -95.3526 -95.3526 -95.3504 -95.3504 -95.3262 -95.3262
   -95.3207 -94.8784 -94.8784 -94.7607 -18.8789 -15.8357 -15.8331 -15.8201
   -15.8013 -15.7962 -15.7899 -15.7824 -15.7800 -15.7796 -15.7772 -15.7731
   -15.7710 -15.7670 -15.7603 -15.7544 -15.7489 -15.7461 -15.7409 -15.7354
   -15.7326 -15.7314 -15.7300 -15.7232 -15.7177 -15.7129 -15.7080 -15.7034
   -15.7007 -15.6980 -15.6886 -15.6760 -15.6712 -15.6689 -15.6614 -15.6542
   -15.6483 -15.6443 -15.6328 -15.6252 -15.6202 -15.6156 -15.6149 -15.6100
   -15.6039 -15.5997 -15.5980 -15.5927 -15.5913 -15.5824 -15.5820 -15.5790
   -15.5769 -15.5700 -15.5670 -15.5620 -15.2501 -15.2460 -15.2198 -15.2177
   -14.3576 -10.2457  -8.6909  -7.5260  -7.4930  -6.4615  -6.0967  -6.0163
    -5.1255  -4.7481  -4.2240  -4.0521  -3.6824  -3.1854  -2.7827  -2.3233
    -2.2366  -1.8334  -1.6566  -1.5047  -0.8287  -0.6131  -0.3816  -0.0310
     0.5474   0.7826   1.1654   1.3938   1.7683   2.1442   2.4602

          k = 0.0547 0.0316 0.0000 ( 20353 PWs)   bands (ev):

   -95.3880 -95.3880 -95.3879 -95.3815 -95.3814 -95.3810 -95.3773 -95.3772
   -95.3771 -95.3677 -95.3624 -95.3621 -95.3616 -95.3613 -95.3613 -95.3610
   -95.3585 -95.3583 -95.3580 -95.3576 -95.3575 -95.3571 -95.3563 -95.3555
   -95.3551 -95.3528 -95.3526 -95.3526 -95.3504 -95.3504 -95.3262 -95.3262
   -95.3207 -94.8784 -94.8784 -94.7607 -18.8788 -15.8365 -15.8154 -15.8144
   -15.8030 -15.7926 -15.7878 -15.7798 -15.7777 -15.7747 -15.7715 -15.7683
   -15.7667 -15.7583 -15.7580 -15.7521 -15.7456 -15.7454 -15.7398 -15.7330
   -15.7279 -15.7263 -15.7207 -15.7206 -15.7152 -15.7107 -15.7065 -15.7026
   -15.6986 -15.6929 -15.6862 -15.6788 -15.6757 -15.6683 -15.6645 -15.6569
   -15.6522 -15.6443 -15.6384 -15.6289 -15.6280 -15.6249 -15.6212 -15.6128
   -15.6110 -15.6057 -15.6029 -15.6010 -15.5945 -15.5926 -15.5905 -15.5841
   -15.5825 -15.5735 -15.5641 -15.5555 -15.2535 -15.2474 -15.2208 -15.2176
   -14.3578 -10.0941  -8.5513  -8.2586  -6.7938  -6.4870  -6.4613  -6.2849
    -5.1353  -5.1052  -4.7234  -3.6514  -3.4085  -2.7605  -2.7143  -2.3904
    -2.0442  -1.8729  -1.5475  -0.9066  -0.7452  -0.6482  -0.1264   0.6164
     0.7682   0.9112   1.0523   1.2393   1.7925   2.1666   2.1700

          k = 0.0547-0.1264 0.0000 ( 20377 PWs)   bands (ev):

   -95.3880 -95.3880 -95.3879 -95.3815 -95.3813 -95.3811 -95.3773 -95.3772
   -95.3772 -95.3677 -95.3623 -95.3619 -95.3618 -95.3614 -95.3613 -95.3610
   -95.3585 -95.3583 -95.3581 -95.3576 -95.3574 -95.3571 -95.3561 -95.3556
   -95.3551 -95.3527 -95.3526 -95.3526 -95.3504 -95.3504 -95.3262 -95.3262
   -95.3207 -94.8784 -94.8784 -94.7607 -18.8787 -15.8170 -15.8019 -15.7974
   -15.7941 -15.7836 -15.7795 -15.7751 -15.7710 -15.7678 -15.7645 -15.7619
   -15.7571 -15.7525 -15.7491 -15.7459 -15.7399 -15.7362 -15.7335 -15.7260
   -15.7234 -15.7178 -15.7141 -15.7081 -15.7053 -15.7049 -15.7018 -15.7005
   -15.6963 -15.6930 -15.6864 -15.6851 -15.6780 -15.6755 -15.6664 -15.6606
   -15.6572 -15.6542 -15.6464 -15.6449 -15.6387 -15.6361 -15.6342 -15.6285
   -15.6238 -15.6206 -15.6141 -15.6112 -15.6029 -15.5982 -15.5961 -15.5925
   -15.5854 -15.5781 -15.5727 -15.5645 -15.2578 -15.2522 -15.2215 -15.2187
   -14.3583  -9.6387  -8.7259  -8.1098  -7.8085  -7.2164  -6.3535  -5.8988
    -5.1906  -5.1053  -4.3726  -4.1404  -3.4015  -2.6965  -2.4872  -2.3036
    -1.7706  -1.3287  -0.9238  -0.6245  -0.4032  -0.2819   0.1412   0.5643
     0.7426   1.0011   1.1107   1.6090   1.8788   2.1542   2.2709

          k = 0.0547-0.0948 0.0000 ( 20397 PWs)   bands (ev):

   -95.3880 -95.3880 -95.3879 -95.3815 -95.3812 -95.3812 -95.3772 -95.3772
   -95.3772 -95.3677 -95.3620 -95.3620 -95.3617 -95.3617 -95.3613 -95.3610
   -95.3585 -95.3582 -95.3582 -95.3575 -95.3573 -95.3573 -95.3559 -95.3559
   -95.3552 -95.3527 -95.3527 -95.3526 -95.3504 -95.3504 -95.3262 -95.3262
   -95.3207 -94.8784 -94.8784 -94.7608 -18.8786 -15.7948 -15.7895 -15.7890
   -15.7841 -15.7826 -15.7767 -15.7726 -15.7715 -15.7687 -15.7674 -15.7611
   -15.7570 -15.7452 -15.7373 -15.7370 -15.7312 -15.7292 -15.7289 -15.7240
   -15.7234 -15.7218 -15.7138 -15.7133 -15.7048 -15.7015 -15.6994 -15.6992
   -15.6952 -15.6935 -15.6850 -15.6813 -15.6751 -15.6727 -15.6685 -15.6663
   -15.6643 -15.6621 -15.6571 -15.6556 -15.6537 -15.6409 -15.6389 -15.6362
   -15.6232 -15.6155 -15.6114 -15.6069 -15.6021 -15.6021 -15.6007 -15.5962
   -15.5954 -15.5848 -15.5811 -15.5764 -15.2575 -15.2570 -15.2209 -15.2202
   -14.3585  -8.9033  -8.8977  -8.8299  -7.4366  -7.4364  -7.2226  -5.2770
    -5.2763  -5.1684  -4.0143  -3.8848  -3.6744  -2.5877  -2.5283  -2.4192
    -1.3686  -1.2773  -1.2694  -0.8555  -0.8251  -0.1260   0.7078   0.8528
     0.9839   1.7266   1.7835   1.8263   2.2394   2.2492   2.3617

          k = 0.0547-0.0632 0.0000 ( 20377 PWs)   bands (ev):

   -95.3880 -95.3880 -95.3879 -95.3815 -95.3813 -95.3811 -95.3773 -95.3772
   -95.3772 -95.3677 -95.3623 -95.3619 -95.3618 -95.3615 -95.3613 -95.3610
   -95.3585 -95.3583 -95.3581 -95.3576 -95.3574 -95.3571 -95.3561 -95.3556
   -95.3552 -95.3527 -95.3527 -95.3526 -95.3504 -95.3504 -95.3262 -95.3262
   -95.3207 -94.8784 -94.8784 -94.7607 -18.8787 -15.8170 -15.8019 -15.7974
   -15.7941 -15.7836 -15.7795 -15.7751 -15.7710 -15.7678 -15.7645 -15.7619
   -15.7571 -15.7525 -15.7491 -15.7459 -15.7399 -15.7362 -15.7335 -15.7260
   -15.7234 -15.7178 -15.7141 -15.7081 -15.7053 -15.7049 -15.7018 -15.7005
   -15.6963 -15.6930 -15.6864 -15.6851 -15.6780 -15.6755 -15.6664 -15.6606
   -15.6572 -15.6542 -15.6464 -15.6449 -15.6387 -15.6361 -15.6342 -15.6286
   -15.6238 -15.6206 -15.6141 -15.6112 -15.6029 -15.5982 -15.5961 -15.5925
   -15.5854 -15.5781 -15.5727 -15.5645 -15.2578 -15.2522 -15.2215 -15.2187
   -14.3583  -9.6387  -8.7259  -8.1098  -7.8085  -7.2164  -6.3535  -5.8988
    -5.1906  -5.1053  -4.3726  -4.1404  -3.4015  -2.6965  -2.4872  -2.3036
    -1.7706  -1.3287  -0.9238  -0.6245  -0.4032  -0.2819   0.1412   0.5643
     0.7426   1.0011   1.1107   1.6090   1.8788   2.1542   2.2709

          k =-0.0821 0.0474 0.0000 ( 20384 PWs)   bands (ev):

   -95.3880 -95.3880 -95.3879 -95.3815 -95.3813 -95.3811 -95.3773 -95.3772
   -95.3772 -95.3677 -95.3623 -95.3619 -95.3618 -95.3614 -95.3613 -95.3610
   -95.3585 -95.3583 -95.3581 -95.3576 -95.3574 -95.3571 -95.3561 -95.3556
   -95.3551 -95.3527 -95.3527 -95.3526 -95.3504 -95.3504 -95.3262 -95.3262
   -95.3207 -94.8784 -94.8784 -94.7608 -18.8787 -15.8202 -15.8091 -15.7932
   -15.7915 -15.7895 -15.7872 -15.7809 -15.7714 -15.7631 -15.7612 -15.7546
   -15.7540 -15.7508 -15.7496 -15.7474 -15.7377 -15.7338 -15.7312 -15.7242
   -15.7231 -15.7131 -15.7079 -15.7069 -15.7066 -15.7055 -15.7044 -15.6987
   -15.6986 -15.6950 -15.6878 -15.6818 -15.6754 -15.6699 -15.6662 -15.6595
   -15.6489 -15.6470 -15.6458 -15.6444 -15.6412 -15.6410 -15.6364 -15.6348
   -15.6316 -15.6301 -15.6206 -15.6201 -15.6099 -15.6073 -15.5959 -15.5856
   -15.5856 -15.5747 -15.5643 -15.5557 -15.2593 -15.2510 -15.2222 -15.2180
   -14.3583  -9.3610  -9.3064  -7.8893  -7.7261  -6.6341  -6.5932  -5.7054
    -5.5688  -5.2624  -5.2130  -3.6419  -3.3982  -2.4928  -2.3419  -2.2247
    -1.3148  -1.0593  -1.0046  -0.8976  -0.5141  -0.4840   0.4426   0.5697
     0.7822   0.9653   1.5607   1.7396   1.7494   1.8280   1.9181

          k =-0.0821 0.0790 0.0000 ( 20377 PWs)   bands (ev):

   -95.3880 -95.3880 -95.3879 -95.3815 -95.3813 -95.3811 -95.3773 -95.3772
   -95.3772 -95.3677 -95.3623 -95.3619 -95.3618 -95.3615 -95.3613 -95.3610
   -95.3585 -95.3583 -95.3581 -95.3576 -95.3574 -95.3571 -95.3561 -95.3556
   -95.3552 -95.3527 -95.3527 -95.3526 -95.3504 -95.3504 -95.3262 -95.3262
   -95.3207 -94.8784 -94.8784 -94.7607 -18.8787 -15.8170 -15.8019 -15.7974
   -15.7941 -15.7836 -15.7795 -15.7751 -15.7710 -15.7678 -15.7645 -15.7619
   -15.7571 -15.7525 -15.7491 -15.7459 -15.7399 -15.7362 -15.7335 -15.7260
   -15.7234 -15.7178 -15.7141 -15.7081 -15.7053 -15.7050 -15.7018 -15.7005
   -15.6963 -15.6930 -15.6864 -15.6851 -15.6780 -15.6755 -15.6664 -15.6606
   -15.6572 -15.6542 -15.6464 -15.6449 -15.6387 -15.6361 -15.6342 -15.6286
   -15.6238 -15.6206 -15.6141 -15.6112 -15.6029 -15.5982 -15.5961 -15.5925
   -15.5854 -15.5781 -15.5727 -15.5645 -15.2578 -15.2522 -15.2215 -15.2187
   -14.3583  -9.6387  -8.7259  -8.1098  -7.8085  -7.2164  -6.3535  -5.8988
    -5.1906  -5.1053  -4.3726  -4.1404  -3.4015  -2.6965  -2.4872  -2.3036
    -1.7706  -1.3287  -0.9238  -0.6245  -0.4032  -0.2819   0.1412   0.5643
     0.7426   1.0011   1.1107   1.6090   1.8788   2.1542   2.2709

          k =-0.0821 0.1106 0.0000 ( 20377 PWs)   bands (ev):

   -95.3880 -95.3880 -95.3879 -95.3815 -95.3813 -95.3811 -95.3773 -95.3772
   -95.3772 -95.3677 -95.3623 -95.3619 -95.3618 -95.3614 -95.3613 -95.3610
   -95.3585 -95.3583 -95.3581 -95.3576 -95.3574 -95.3571 -95.3561 -95.3556
   -95.3551 -95.3527 -95.3526 -95.3526 -95.3504 -95.3504 -95.3262 -95.3262
   -95.3207 -94.8784 -94.8784 -94.7607 -18.8787 -15.8170 -15.8019 -15.7974
   -15.7941 -15.7836 -15.7795 -15.7751 -15.7710 -15.7678 -15.7645 -15.7619
   -15.7571 -15.7525 -15.7492 -15.7459 -15.7399 -15.7362 -15.7335 -15.7260
   -15.7234 -15.7178 -15.7141 -15.7081 -15.7053 -15.7050 -15.7018 -15.7005
   -15.6963 -15.6930 -15.6864 -15.6851 -15.6780 -15.6755 -15.6664 -15.6606
   -15.6572 -15.6542 -15.6464 -15.6449 -15.6387 -15.6361 -15.6342 -15.6285
   -15.6238 -15.6206 -15.6141 -15.6112 -15.6029 -15.5982 -15.5961 -15.5925
   -15.5854 -15.5781 -15.5727 -15.5645 -15.2578 -15.2522 -15.2215 -15.2187
   -14.3583  -9.6387  -8.7259  -8.1098  -7.8085  -7.2164  -6.3535  -5.8988
    -5.1906  -5.1053  -4.3726  -4.1404  -3.4015  -2.6965  -2.4872  -2.3036
    -1.7706  -1.3287  -0.9238  -0.6245  -0.4032  -0.2819   0.1412   0.5643
     0.7426   1.0011   1.1107   1.6090   1.8788   2.1542   2.2709

          k =-0.0821-0.0474 0.0000 ( 20384 PWs)   bands (ev):

   -95.3880 -95.3880 -95.3879 -95.3815 -95.3813 -95.3811 -95.3773 -95.3772
   -95.3772 -95.3677 -95.3623 -95.3619 -95.3618 -95.3614 -95.3613 -95.3610
   -95.3585 -95.3583 -95.3581 -95.3576 -95.3574 -95.3571 -95.3561 -95.3557
   -95.3551 -95.3527 -95.3526 -95.3526 -95.3504 -95.3504 -95.3262 -95.3262
   -95.3207 -94.8784 -94.8784 -94.7608 -18.8787 -15.8202 -15.8091 -15.7932
   -15.7915 -15.7895 -15.7872 -15.7810 -15.7714 -15.7631 -15.7612 -15.7546
   -15.7540 -15.7508 -15.7496 -15.7474 -15.7377 -15.7338 -15.7312 -15.7242
   -15.7231 -15.7131 -15.7079 -15.7069 -15.7066 -15.7055 -15.7044 -15.6986
   -15.6986 -15.6950 -15.6878 -15.6818 -15.6754 -15.6699 -15.6662 -15.6595
   -15.6489 -15.6469 -15.6458 -15.6444 -15.6412 -15.6410 -15.6364 -15.6348
   -15.6316 -15.6301 -15.6206 -15.6201 -15.6099 -15.6073 -15.5959 -15.5856
   -15.5856 -15.5747 -15.5643 -15.5557 -15.2593 -15.2510 -15.2222 -15.2180
   -14.3583  -9.3610  -9.3064  -7.8893  -7.7261  -6.6341  -6.5932  -5.7054
    -5.5688  -5.2624  -5.2130  -3.6419  -3.3982  -2.4928  -2.3419  -2.2247
    -1.3148  -1.0593  -1.0046  -0.8976  -0.5141  -0.4840   0.4426   0.5697
     0.7822   0.9653   1.5607   1.7396   1.7494   1.8280   1.9181

     the Fermi energy is    -0.6195 ev

!    total energy              =   -5031.49345066 Ry
     Harris-Foulkes estimate   =   -5031.49341861 Ry
     estimated scf accuracy    <       0.00000215 Ry

     The total energy is the sum of the following terms:

     one-electron contribution =  -27603.87740063 Ry
     hartree contribution      =   13803.59998313 Ry
     xc contribution           =    -604.11436195 Ry
     ewald contribution        =    9372.93388306 Ry
     electric field correction =       0.00119014 Ry
     smearing contrib. (-TS)   =      -0.03674441 Ry

     convergence has been achieved in  18 iterations
 
 BEEF-vdW xc energy contributions
           1 :   -539.874629600741     
           2 :    489.920485861285     
           3 :   -406.229094317585     
           4 :    313.162541822407     
           5 :   -232.225062779840     
           6 :    174.044654868346     
           7 :   -136.888122019816     
           8 :    111.439364635885     
           9 :   -88.2512662453876     
          10 :    63.2676918387746     
          11 :   -38.6390130049281     
          12 :    19.3130187798820     
          13 :   -8.44140964229769     
          14 :    4.90423875685542     
          15 :   -4.30962280416463     
          16 :    2.23276106291451     
          17 :    2.90280206997659     
          18 :   -9.30276348969755     
          19 :    13.7270342023883     
          20 :   -14.2030722053213     
          21 :    11.4801051761037     
          22 :   -8.30080998817584     
          23 :    7.24231570049096     
          24 :   -8.86120912892170     
          25 :    11.4954636742075     
          26 :   -12.7353084436861     
          27 :    11.3378108481336     
          28 :   -8.12722537948957     
          29 :    5.27490766093820     
          30 :   -4.60314957164235     
          31 :   -39.9948670295487     
          32 :   -27.1323877443269     

     Forces acting on atoms (Ry/au):


     negative rho (up, down):  1.115E-03 0.000E+00
     atom    1 type  1   force =    -0.00020208   -0.00007870    0.00502860
     atom    2 type  1   force =     0.00015217   -0.00010521    0.00501488
     atom    3 type  1   force =     0.00003183    0.00020396    0.00502523
     atom    4 type  1   force =     0.00001638   -0.00001284    0.00075706
     atom    5 type  1   force =     0.00000382   -0.00104058    0.00178393
     atom    6 type  1   force =     0.00000236   -0.00000131   -0.00694354
     atom    7 type  1   force =     0.00090513    0.00051581    0.00161235
     atom    8 type  1   force =    -0.00090883    0.00052576    0.00160456
     atom    9 type  1   force =    -0.00001146   -0.00000435   -0.22052490
     atom   10 type  1   force =     0.00000871   -0.00052452   -0.00025163
     atom   11 type  1   force =    -0.00044831    0.00026562   -0.00018463
     atom   12 type  1   force =     0.00045124    0.00025701   -0.00017028
     atom   13 type  2   force =    -0.00000098   -0.00000065    0.20724837

     Total force =     0.302629     Total SCF correction =     0.003883


     entering subroutine stress ...


     negative rho (up, down):  1.115E-03 0.000E+00
          total   stress  (Ry/bohr**3)                   (kbar)     P=   -1.93
  -0.00005897  -0.00000000  -0.00000000         -8.67     -0.00     -0.00
  -0.00000000  -0.00005897   0.00000000         -0.00     -8.67      0.00
  -0.00000000   0.00000000   0.00007853         -0.00      0.00     11.55


     BFGS Geometry Optimization

     number of scf cycles    =   1
     number of bfgs steps    =   0

     energy   new            =   -5031.4934506610 Ry

     new trust radius        =       0.2205249032 bohr
     new conv_thr            =       0.0000099958 Ry


ATOMIC_POSITIONS (crystal)
Ga1      0.166666667   0.166666667   0.400460194    0   0   0
Ga1      0.666666667   0.166666667   0.400460194    0   0   0
Ga1      0.166666667   0.666666667   0.400460194    0   0   0
Ga1      0.666666667   0.666666667   0.400460194    0   0   0
Ga1      0.833333333   0.333333333   0.500000000    0   0   0
Ga1      0.333333333   0.333333333   0.500000000    0   0   0
Ga1      0.833333333   0.833333333   0.500000000    0   0   0
Ga1      0.333333333   0.833333333   0.500000000    0   0   0
Ga1     -0.000000777  -0.000000437   0.594866565
Ga1      0.500027078  -0.000052640   0.599534474
Ga1     -0.000052292   0.500026657   0.599535893
Ga1      0.500026322   0.500025793   0.599536197
O1      -0.000000052  -0.000000065   0.667925237



     Writing output data file calc.save
     Check: negative starting charge=   -0.001331
     NEW-OLD atomic charge density approx. for the potential
     Check: negative starting charge=   -0.001314

     negative rho (up, down):  1.597E-03 0.000E+00
 
     Adding external electric field

     Computed dipole along edir(3) : 
        Dipole               -0.9369 Ry au,         -2.3814 Debye
        Dipole field         -0.0022 Ry au
 
        Potential amp.        0.2003 Ry
        Total length         46.0091 bohr
 

     total cpu time spent up to now is      710.7 secs

     per-process dynamical memory:   136.6 Mb

     Self-consistent Calculation

     iteration #  1     ecut=    36.75 Ry     beta=0.30
     Davidson diagonalization with overlap
     ethr =  1.00E-06,  avg # of iterations =  5.5

     negative rho (up, down):  1.258E-03 0.000E+00
 
     Adding external electric field

     Computed dipole along edir(3) : 
        Dipole                2.5052 Ry au,          6.3677 Debye
        Dipole field          0.0058 Ry au
 
        Potential amp.       -0.5355 Ry
        Total length         46.0091 bohr
 

     total cpu time spent up to now is      751.4 secs

     total energy              =   -5030.72931391 Ry
     Harris-Foulkes estimate   =   -5031.54460937 Ry
     estimated scf accuracy    <       1.67529157 Ry

     iteration #  2     ecut=    36.75 Ry     beta=0.30
     Davidson diagonalization with overlap
     ethr =  7.16E-04,  avg # of iterations =  9.2

     negative rho (up, down):  6.971E-04 0.000E+00
 
     Adding external electric field

     Computed dipole along edir(3) : 
        Dipole               -0.8013 Ry au,         -2.0368 Debye
        Dipole field         -0.0019 Ry au
 
        Potential amp.        0.1713 Ry
        Total length         46.0091 bohr
 

     total cpu time spent up to now is      783.2 secs

     total energy              =   -5029.59425247 Ry
     Harris-Foulkes estimate   =   -5033.82480856 Ry
     estimated scf accuracy    <      53.46033280 Ry

     iteration #  3     ecut=    36.75 Ry     beta=0.30
     Davidson diagonalization with overlap
     ethr =  7.16E-04,  avg # of iterations =  5.3

     negative rho (up, down):  6.939E-04 0.000E+00
 
     Adding external electric field

     Computed dipole along edir(3) : 
        Dipole               -0.5813 Ry au,         -1.4775 Debye
        Dipole field         -0.0014 Ry au
 
        Potential amp.        0.1242 Ry
        Total length         46.0091 bohr
 

     total cpu time spent up to now is      810.7 secs

     total energy              =   -5031.47474757 Ry
     Harris-Foulkes estimate   =   -5031.72513913 Ry
     estimated scf accuracy    <       1.40806027 Ry

     iteration #  4     ecut=    36.75 Ry     beta=0.30
     Davidson diagonalization with overlap
     ethr =  6.02E-04,  avg # of iterations =  2.0

     negative rho (up, down):  7.687E-04 0.000E+00
 
     Adding external electric field

     Computed dipole along edir(3) : 
        Dipole               -0.6737 Ry au,         -1.7123 Debye
        Dipole field         -0.0016 Ry au
 
        Potential amp.        0.1440 Ry
        Total length         46.0091 bohr
 

     total cpu time spent up to now is      834.2 secs

     total energy              =   -5031.52868456 Ry
     Harris-Foulkes estimate   =   -5031.55648182 Ry
     estimated scf accuracy    <       0.53620378 Ry

     iteration #  5     ecut=    36.75 Ry     beta=0.30
     Davidson diagonalization with overlap
     ethr =  2.29E-04,  avg # of iterations =  1.0

     negative rho (up, down):  8.633E-04 0.000E+00
 
     Adding external electric field

     Computed dipole along edir(3) : 
        Dipole               -0.7474 Ry au,         -1.8996 Debye
        Dipole field         -0.0017 Ry au
 
        Potential amp.        0.1597 Ry
        Total length         46.0091 bohr
 

     total cpu time spent up to now is      856.7 secs

     total energy              =   -5031.51238759 Ry
     Harris-Foulkes estimate   =   -5031.53289333 Ry
     estimated scf accuracy    <       0.25760216 Ry

     iteration #  6     ecut=    36.75 Ry     beta=0.30
     Davidson diagonalization with overlap
     ethr =  1.10E-04,  avg # of iterations =  1.9

     negative rho (up, down):  9.195E-04 0.000E+00
 
     Adding external electric field

     Computed dipole along edir(3) : 
        Dipole               -0.8006 Ry au,         -2.0349 Debye
        Dipole field         -0.0019 Ry au
 
        Potential amp.        0.1711 Ry
        Total length         46.0091 bohr
 

     total cpu time spent up to now is      879.9 secs

     total energy              =   -5031.51413435 Ry
     Harris-Foulkes estimate   =   -5031.51762148 Ry
     estimated scf accuracy    <       0.04839738 Ry

     iteration #  7     ecut=    36.75 Ry     beta=0.30
     Davidson diagonalization with overlap
     ethr =  2.07E-05,  avg # of iterations =  2.8

     negative rho (up, down):  1.000E-03 0.000E+00
 
     Adding external electric field

     Computed dipole along edir(3) : 
        Dipole               -0.8209 Ry au,         -2.0866 Debye
        Dipole field         -0.0019 Ry au
 
        Potential amp.        0.1755 Ry
        Total length         46.0091 bohr
 

     total cpu time spent up to now is      904.6 secs

     total energy              =   -5031.51460463 Ry
     Harris-Foulkes estimate   =   -5031.51528868 Ry
     estimated scf accuracy    <       0.00552084 Ry

     iteration #  8     ecut=    36.75 Ry     beta=0.30
     Davidson diagonalization with overlap
     ethr =  2.36E-06,  avg # of iterations =  3.1

     negative rho (up, down):  1.018E-03 0.000E+00
 
     Adding external electric field

     Computed dipole along edir(3) : 
        Dipole               -0.8110 Ry au,         -2.0614 Debye
        Dipole field         -0.0019 Ry au
 
        Potential amp.        0.1734 Ry
        Total length         46.0091 bohr
 

     total cpu time spent up to now is      929.8 secs

     total energy              =   -5031.51503690 Ry
     Harris-Foulkes estimate   =   -5031.51515264 Ry
     estimated scf accuracy    <       0.00089226 Ry

     iteration #  9     ecut=    36.75 Ry     beta=0.30
     Davidson diagonalization with overlap
     ethr =  3.81E-07,  avg # of iterations =  2.0

     negative rho (up, down):  1.068E-03 0.000E+00
 
     Adding external electric field

     Computed dipole along edir(3) : 
        Dipole               -0.8048 Ry au,         -2.0456 Debye
        Dipole field         -0.0019 Ry au
 
        Potential amp.        0.1720 Ry
        Total length         46.0091 bohr
 

     total cpu time spent up to now is      953.8 secs

     total energy              =   -5031.51506956 Ry
     Harris-Foulkes estimate   =   -5031.51509466 Ry
     estimated scf accuracy    <       0.00003229 Ry

     iteration # 10     ecut=    36.75 Ry     beta=0.30
     Davidson diagonalization with overlap
     ethr =  1.38E-08,  avg # of iterations =  3.5

     negative rho (up, down):  1.089E-03 0.000E+00
 
     Adding external electric field

     Computed dipole along edir(3) : 
        Dipole               -0.8022 Ry au,         -2.0391 Debye
        Dipole field         -0.0019 Ry au
 
        Potential amp.        0.1715 Ry
        Total length         46.0091 bohr
 

     total cpu time spent up to now is      980.2 secs

     total energy              =   -5031.51507327 Ry
     Harris-Foulkes estimate   =   -5031.51508522 Ry
     estimated scf accuracy    <       0.00003118 Ry

     iteration # 11     ecut=    36.75 Ry     beta=0.30
     Davidson diagonalization with overlap
     ethr =  1.33E-08,  avg # of iterations =  2.0

     negative rho (up, down):  1.109E-03 0.000E+00

     negative rho (up, down):  1.109E-03 0.000E+00

     negative rho (up, down):  1.109E-03 0.000E+00

     negative rho (up, down):  1.109E-03 0.000E+00

     negative rho (up, down):  1.109E-03 0.000E+00

     negative rho (up, down):  1.109E-03 0.000E+00

     negative rho (up, down):  1.109E-03 0.000E+00

     negative rho (up, down):  1.109E-03 0.000E+00

     negative rho (up, down):  1.109E-03 0.000E+00

     negative rho (up, down):  1.109E-03 0.000E+00

     negative rho (up, down):  1.109E-03 0.000E+00

     negative rho (up, down):  1.109E-03 0.000E+00

     negative rho (up, down):  1.109E-03 0.000E+00

     negative rho (up, down):  1.109E-03 0.000E+00

     negative rho (up, down):  1.109E-03 0.000E+00

     negative rho (up, down):  1.109E-03 0.000E+00

     negative rho (up, down):  1.109E-03 0.000E+00

     negative rho (up, down):  1.109E-03 0.000E+00

     negative rho (up, down):  1.109E-03 0.000E+00

     negative rho (up, down):  1.109E-03 0.000E+00

     negative rho (up, down):  1.109E-03 0.000E+00

     negative rho (up, down):  1.109E-03 0.000E+00

     negative rho (up, down):  1.109E-03 0.000E+00

     negative rho (up, down):  1.109E-03 0.000E+00

     negative rho (up, down):  1.109E-03 0.000E+00

     negative rho (up, down):  1.109E-03 0.000E+00

     negative rho (up, down):  1.109E-03 0.000E+00

     negative rho (up, down):  1.109E-03 0.000E+00

     negative rho (up, down):  1.109E-03 0.000E+00

     negative rho (up, down):  1.109E-03 0.000E+00

     negative rho (up, down):  1.109E-03 0.000E+00

     negative rho (up, down):  1.109E-03 0.000E+00

     negative rho (up, down):  1.109E-03 0.000E+00

     negative rho (up, down):  1.109E-03 0.000E+00

     negative rho (up, down):  1.109E-03 0.000E+00
 
     Adding external electric field

     Computed dipole along edir(3) : 
        Dipole               -0.7979 Ry au,         -2.0282 Debye
        Dipole field         -0.0019 Ry au
 
        Potential amp.        0.1706 Ry
        Total length         46.0091 bohr
 

     total cpu time spent up to now is     1054.5 secs

     End of self-consistent calculation

          k = 0.0000 0.0000 0.0000 ( 20347 PWs)   bands (ev):

   -95.4790 -95.4788 -95.4788 -95.4744 -95.4742 -95.4742 -95.4732 -95.4659
   -95.4646 -95.4646 -95.4638 -95.4638 -95.4632 -95.4619 -95.4619 -95.4614
   -95.4600 -95.4600 -95.4593 -95.4587 -95.4572 -95.4572 -95.4563 -95.4561
   -95.4561 -95.4555 -95.4555 -95.4499 -95.4484 -95.4484 -95.4329 -95.4329
   -95.4293 -95.1007 -95.1007 -94.9508 -17.5070 -15.9609 -15.9608 -15.9608
   -15.9194 -15.9093 -15.9093 -15.9091 -15.9045 -15.9045 -15.8990 -15.8939
   -15.8766 -15.8766 -15.8752 -15.8545 -15.8545 -15.8526 -15.8446 -15.8446
   -15.8440 -15.8348 -15.8348 -15.8316 -15.8316 -15.8306 -15.8211 -15.8074
   -15.8074 -15.7903 -15.7903 -15.7651 -15.7542 -15.7542 -15.7473 -15.7473
   -15.7269 -15.7269 -15.7168 -15.7168 -15.7132 -15.6980 -15.6980 -15.6980
   -15.6815 -15.6815 -15.6715 -15.6715 -15.6698 -15.6691 -15.6588 -15.6588
   -15.6580 -15.6538 -15.6506 -15.6506 -15.4394 -15.4394 -15.3461 -15.3461
   -14.8515 -10.8423  -9.2632  -6.9495  -5.6670  -5.6670  -5.6652  -5.3183
    -5.2439  -5.2439  -4.1548  -3.9917  -3.9917  -3.5714  -3.5714  -3.4996
    -3.0626  -2.3765  -2.1971  -2.1971  -1.6021  -1.6020  -1.4998  -0.6506
    -0.6506  -0.2281   0.6831   2.3462   2.4659   2.4659   2.5713

          k = 0.0000 0.0316 0.0000 ( 20271 PWs)   bands (ev):

   -95.4790 -95.4788 -95.4788 -95.4743 -95.4742 -95.4742 -95.4732 -95.4658
   -95.4646 -95.4645 -95.4638 -95.4637 -95.4632 -95.4619 -95.4619 -95.4614
   -95.4600 -95.4599 -95.4592 -95.4586 -95.4573 -95.4572 -95.4562 -95.4561
   -95.4561 -95.4555 -95.4555 -95.4498 -95.4485 -95.4484 -95.4329 -95.4329
   -95.4292 -95.1006 -95.1006 -94.9508 -17.5068 -15.9548 -15.9477 -15.9476
   -15.9133 -15.9067 -15.9026 -15.8957 -15.8942 -15.8922 -15.8911 -15.8852
   -15.8750 -15.8702 -15.8673 -15.8534 -15.8496 -15.8495 -15.8448 -15.8408
   -15.8403 -15.8351 -15.8323 -15.8283 -15.8251 -15.8233 -15.8175 -15.8070
   -15.8049 -15.7931 -15.7856 -15.7664 -15.7615 -15.7573 -15.7492 -15.7463
   -15.7360 -15.7324 -15.7222 -15.7190 -15.7178 -15.7041 -15.7028 -15.6995
   -15.6884 -15.6841 -15.6831 -15.6793 -15.6768 -15.6764 -15.6698 -15.6673
   -15.6658 -15.6626 -15.6601 -15.6574 -15.4463 -15.4439 -15.3476 -15.3465
   -14.8527 -10.6908  -9.1158  -7.0517  -6.8078  -6.1708  -6.1685  -5.6180
    -4.9967  -4.9487  -4.0718  -4.0340  -3.8489  -3.1940  -2.9355  -2.9180
    -2.8094  -2.4227  -2.2839  -2.0511  -1.3616  -1.3105  -1.0860  -0.2947
    -0.2144   0.3825   1.0388   1.3532   1.9888   2.2070   2.7363

          k = 0.0000 0.0632 0.0000 ( 20353 PWs)   bands (ev):

   -95.4790 -95.4789 -95.4788 -95.4743 -95.4742 -95.4742 -95.4732 -95.4656
   -95.4648 -95.4645 -95.4638 -95.4637 -95.4633 -95.4619 -95.4618 -95.4615
   -95.4599 -95.4598 -95.4593 -95.4584 -95.4575 -95.4572 -95.4562 -95.4561
   -95.4561 -95.4555 -95.4555 -95.4496 -95.4487 -95.4484 -95.4329 -95.4329
   -95.4293 -95.1006 -95.1006 -94.9508 -17.5064 -15.9385 -15.9174 -15.9160
   -15.8991 -15.8943 -15.8895 -15.8830 -15.8753 -15.8723 -15.8698 -15.8662
   -15.8646 -15.8568 -15.8562 -15.8516 -15.8463 -15.8398 -15.8392 -15.8330
   -15.8239 -15.8231 -15.8165 -15.8158 -15.8114 -15.8111 -15.8021 -15.7999
   -15.7988 -15.7939 -15.7784 -15.7761 -15.7698 -15.7631 -15.7628 -15.7548
   -15.7480 -15.7412 -15.7410 -15.7339 -15.7274 -15.7214 -15.7210 -15.7135
   -15.7111 -15.7061 -15.7053 -15.7027 -15.6980 -15.6944 -15.6925 -15.6861
   -15.6813 -15.6742 -15.6633 -15.6606 -15.4609 -15.4531 -15.3507 -15.3473
   -14.8552 -10.2346  -8.6737  -8.4017  -6.9033  -6.6073  -6.5995  -6.3803
    -5.2055  -5.2020  -4.7699  -3.6312  -3.4461  -2.6899  -2.5291  -2.3982
    -1.9062  -1.8174  -1.5860  -1.0020  -0.8623  -0.7855  -0.2129   0.4921
     0.6572   0.7675   0.9464   1.1229   1.6721   2.0560   2.0657

          k = 0.0000-0.0948 0.0000 ( 20384 PWs)   bands (ev):

   -95.4789 -95.4789 -95.4788 -95.4743 -95.4742 -95.4742 -95.4732 -95.4655
   -95.4649 -95.4645 -95.4638 -95.4636 -95.4634 -95.4619 -95.4618 -95.4615
   -95.4599 -95.4597 -95.4594 -95.4582 -95.4577 -95.4572 -95.4562 -95.4562
   -95.4561 -95.4556 -95.4555 -95.4494 -95.4489 -95.4484 -95.4329 -95.4329
   -95.4293 -95.1006 -95.1006 -94.9508 -17.5062 -15.9206 -15.9109 -15.8950
   -15.8901 -15.8878 -15.8852 -15.8830 -15.8741 -15.8639 -15.8597 -15.8561
   -15.8506 -15.8490 -15.8470 -15.8447 -15.8400 -15.8341 -15.8262 -15.8189
   -15.8165 -15.8110 -15.8064 -15.8064 -15.8047 -15.8014 -15.8000 -15.7954
   -15.7885 -15.7880 -15.7855 -15.7788 -15.7718 -15.7691 -15.7684 -15.7516
   -15.7473 -15.7472 -15.7451 -15.7423 -15.7419 -15.7400 -15.7389 -15.7351
   -15.7318 -15.7313 -15.7237 -15.7232 -15.7131 -15.7116 -15.6957 -15.6892
   -15.6824 -15.6752 -15.6634 -15.6610 -15.4687 -15.4578 -15.3522 -15.3477
   -14.8565  -9.4755  -9.4672  -7.9770  -7.8848  -6.7468  -6.7459  -5.7699
    -5.6527  -5.3283  -5.3132  -3.6090  -3.4041  -2.2764  -2.1123  -1.9960
    -1.3609  -1.1432  -1.1024  -1.0135  -0.6418  -0.6092   0.3356   0.4158
     0.6198   0.8449   1.4595   1.6314   1.6517   1.7082   1.8007

          k = 0.0274-0.0158 0.0000 ( 20271 PWs)   bands (ev):

   -95.4790 -95.4788 -95.4788 -95.4743 -95.4742 -95.4742 -95.4732 -95.4658
   -95.4646 -95.4645 -95.4638 -95.4637 -95.4632 -95.4619 -95.4619 -95.4614
   -95.4600 -95.4599 -95.4592 -95.4586 -95.4573 -95.4572 -95.4562 -95.4561
   -95.4561 -95.4555 -95.4555 -95.4498 -95.4485 -95.4484 -95.4329 -95.4329
   -95.4292 -95.1006 -95.1006 -94.9508 -17.5068 -15.9548 -15.9477 -15.9476
   -15.9133 -15.9067 -15.9026 -15.8957 -15.8942 -15.8922 -15.8911 -15.8852
   -15.8750 -15.8702 -15.8673 -15.8534 -15.8496 -15.8495 -15.8448 -15.8408
   -15.8403 -15.8351 -15.8323 -15.8283 -15.8251 -15.8233 -15.8175 -15.8070
   -15.8049 -15.7931 -15.7856 -15.7664 -15.7615 -15.7573 -15.7492 -15.7463
   -15.7360 -15.7324 -15.7222 -15.7190 -15.7178 -15.7041 -15.7028 -15.6995
   -15.6884 -15.6841 -15.6831 -15.6793 -15.6768 -15.6764 -15.6698 -15.6673
   -15.6658 -15.6626 -15.6600 -15.6574 -15.4463 -15.4439 -15.3476 -15.3465
   -14.8527 -10.6908  -9.1158  -7.0517  -6.8079  -6.1708  -6.1685  -5.6180
    -4.9966  -4.9487  -4.0718  -4.0340  -3.8489  -3.1940  -2.9355  -2.9180
    -2.8094  -2.4227  -2.2839  -2.0511  -1.3616  -1.3105  -1.0860  -0.2947
    -0.2144   0.3826   1.0388   1.3532   1.9888   2.2071   2.7363

          k = 0.0274 0.0158 0.0000 ( 20271 PWs)   bands (ev):

   -95.4790 -95.4788 -95.4788 -95.4743 -95.4742 -95.4742 -95.4732 -95.4658
   -95.4646 -95.4645 -95.4638 -95.4637 -95.4632 -95.4619 -95.4619 -95.4614
   -95.4600 -95.4599 -95.4592 -95.4586 -95.4573 -95.4572 -95.4562 -95.4561
   -95.4561 -95.4555 -95.4555 -95.4498 -95.4485 -95.4484 -95.4329 -95.4329
   -95.4292 -95.1006 -95.1006 -94.9508 -17.5068 -15.9548 -15.9477 -15.9476
   -15.9133 -15.9067 -15.9026 -15.8957 -15.8942 -15.8922 -15.8911 -15.8852
   -15.8750 -15.8702 -15.8673 -15.8534 -15.8496 -15.8495 -15.8448 -15.8408
   -15.8403 -15.8351 -15.8323 -15.8283 -15.8251 -15.8233 -15.8175 -15.8070
   -15.8049 -15.7931 -15.7856 -15.7664 -15.7615 -15.7573 -15.7492 -15.7463
   -15.7360 -15.7324 -15.7222 -15.7190 -15.7178 -15.7041 -15.7028 -15.6995
   -15.6884 -15.6841 -15.6831 -15.6793 -15.6768 -15.6764 -15.6698 -15.6673
   -15.6658 -15.6626 -15.6600 -15.6574 -15.4463 -15.4439 -15.3476 -15.3465
   -14.8527 -10.6908  -9.1158  -7.0517  -6.8079  -6.1708  -6.1685  -5.6180
    -4.9966  -4.9487  -4.0718  -4.0340  -3.8489  -3.1940  -2.9354  -2.9180
    -2.8094  -2.4227  -2.2839  -2.0511  -1.3616  -1.3105  -1.0860  -0.2947
    -0.2144   0.3826   1.0388   1.3532   1.9888   2.2071   2.7363

          k = 0.0274 0.0474 0.0000 ( 20341 PWs)   bands (ev):

   -95.4790 -95.4789 -95.4788 -95.4743 -95.4742 -95.4742 -95.4732 -95.4657
   -95.4648 -95.4645 -95.4638 -95.4637 -95.4633 -95.4619 -95.4618 -95.4615
   -95.4599 -95.4598 -95.4593 -95.4585 -95.4575 -95.4572 -95.4562 -95.4561
   -95.4561 -95.4555 -95.4555 -95.4496 -95.4486 -95.4484 -95.4329 -95.4329
   -95.4293 -95.1006 -95.1006 -94.9508 -17.5065 -15.9373 -15.9359 -15.9219
   -15.9003 -15.8951 -15.8904 -15.8849 -15.8790 -15.8774 -15.8738 -15.8718
   -15.8675 -15.8636 -15.8616 -15.8521 -15.8486 -15.8444 -15.8411 -15.8341
   -15.8315 -15.8282 -15.8256 -15.8184 -15.8149 -15.8117 -15.8051 -15.8041
   -15.7988 -15.7965 -15.7802 -15.7701 -15.7690 -15.7648 -15.7561 -15.7516
   -15.7468 -15.7407 -15.7349 -15.7284 -15.7239 -15.7156 -15.7137 -15.7106
   -15.7041 -15.7018 -15.6976 -15.6902 -15.6897 -15.6850 -15.6836 -15.6808
   -15.6781 -15.6719 -15.6696 -15.6659 -15.4566 -15.4513 -15.3496 -15.3473
   -14.8546 -10.3869  -8.8207  -7.6578  -7.6316  -6.5495  -6.1815  -6.1419
    -5.2467  -4.8550  -4.2122  -4.1059  -3.7167  -3.1171  -2.7321  -2.1779
    -2.0688  -1.8531  -1.7271  -1.5225  -0.9343  -0.6940  -0.5242  -0.1747
     0.4410   0.6898   1.0459   1.2846   1.6631   2.0078   2.3338

          k = 0.0274-0.1106 0.0000 ( 20377 PWs)   bands (ev):

   -95.4789 -95.4789 -95.4788 -95.4743 -95.4742 -95.4742 -95.4732 -95.4654
   -95.4650 -95.4645 -95.4638 -95.4636 -95.4634 -95.4620 -95.4618 -95.4616
   -95.4598 -95.4597 -95.4594 -95.4582 -95.4577 -95.4572 -95.4562 -95.4562
   -95.4561 -95.4556 -95.4555 -95.4494 -95.4489 -95.4484 -95.4329 -95.4329
   -95.4293 -95.1006 -95.1006 -94.9508 -17.5062 -15.9181 -15.9035 -15.8984
   -15.8943 -15.8821 -15.8789 -15.8754 -15.8715 -15.8669 -15.8645 -15.8618
   -15.8548 -15.8516 -15.8475 -15.8443 -15.8381 -15.8359 -15.8309 -15.8202
   -15.8175 -15.8147 -15.8114 -15.8067 -15.8041 -15.8022 -15.7985 -15.7970
   -15.7908 -15.7871 -15.7858 -15.7804 -15.7768 -15.7708 -15.7650 -15.7608
   -15.7564 -15.7486 -15.7467 -15.7434 -15.7391 -15.7360 -15.7327 -15.7284
   -15.7251 -15.7232 -15.7156 -15.7139 -15.7048 -15.7006 -15.6983 -15.6901
   -15.6873 -15.6797 -15.6727 -15.6688 -15.4667 -15.4594 -15.3514 -15.3484
   -14.8565  -9.7769  -8.8606  -8.2296  -7.9467  -7.3384  -6.4628  -5.9788
    -5.3132  -5.1615  -4.3919  -4.2058  -3.4521  -2.5737  -2.2415  -2.0316
    -1.7824  -1.3587  -1.0374  -0.7378  -0.4989  -0.3913   0.0219   0.4373
     0.6194   0.8568   0.9823   1.5187   1.7613   2.0302   2.1490

          k = 0.0274-0.0790 0.0000 ( 20377 PWs)   bands (ev):

   -95.4789 -95.4789 -95.4788 -95.4743 -95.4742 -95.4742 -95.4732 -95.4654
   -95.4650 -95.4645 -95.4638 -95.4636 -95.4634 -95.4620 -95.4618 -95.4616
   -95.4598 -95.4597 -95.4594 -95.4582 -95.4577 -95.4572 -95.4562 -95.4562
   -95.4561 -95.4556 -95.4555 -95.4494 -95.4489 -95.4484 -95.4329 -95.4329
   -95.4293 -95.1006 -95.1006 -94.9508 -17.5062 -15.9181 -15.9035 -15.8984
   -15.8943 -15.8821 -15.8789 -15.8754 -15.8715 -15.8669 -15.8645 -15.8618
   -15.8548 -15.8516 -15.8475 -15.8443 -15.8381 -15.8359 -15.8309 -15.8202
   -15.8175 -15.8147 -15.8114 -15.8067 -15.8041 -15.8022 -15.7985 -15.7970
   -15.7908 -15.7871 -15.7858 -15.7804 -15.7768 -15.7708 -15.7650 -15.7608
   -15.7564 -15.7486 -15.7467 -15.7434 -15.7391 -15.7360 -15.7327 -15.7284
   -15.7251 -15.7232 -15.7156 -15.7139 -15.7048 -15.7006 -15.6983 -15.6901
   -15.6873 -15.6797 -15.6727 -15.6688 -15.4667 -15.4594 -15.3514 -15.3484
   -14.8565  -9.7769  -8.8606  -8.2296  -7.9467  -7.3384  -6.4628  -5.9788
    -5.3132  -5.1615  -4.3919  -4.2058  -3.4521  -2.5737  -2.2415  -2.0316
    -1.7824  -1.3587  -1.0374  -0.7378  -0.4989  -0.3913   0.0219   0.4373
     0.6194   0.8568   0.9823   1.5187   1.7613   2.0302   2.1490

          k = 0.0274-0.0474 0.0000 ( 20341 PWs)   bands (ev):

   -95.4790 -95.4789 -95.4788 -95.4743 -95.4742 -95.4742 -95.4732 -95.4657
   -95.4648 -95.4645 -95.4638 -95.4637 -95.4633 -95.4619 -95.4618 -95.4615
   -95.4599 -95.4598 -95.4593 -95.4585 -95.4575 -95.4572 -95.4562 -95.4561
   -95.4561 -95.4555 -95.4555 -95.4496 -95.4486 -95.4484 -95.4329 -95.4329
   -95.4293 -95.1006 -95.1006 -94.9508 -17.5065 -15.9373 -15.9359 -15.9219
   -15.9003 -15.8951 -15.8904 -15.8849 -15.8790 -15.8774 -15.8738 -15.8718
   -15.8675 -15.8636 -15.8616 -15.8521 -15.8486 -15.8444 -15.8411 -15.8341
   -15.8315 -15.8282 -15.8256 -15.8184 -15.8149 -15.8117 -15.8051 -15.8041
   -15.7988 -15.7965 -15.7802 -15.7701 -15.7690 -15.7648 -15.7561 -15.7516
   -15.7468 -15.7407 -15.7349 -15.7284 -15.7239 -15.7156 -15.7137 -15.7106
   -15.7041 -15.7018 -15.6976 -15.6902 -15.6897 -15.6850 -15.6836 -15.6808
   -15.6781 -15.6719 -15.6696 -15.6659 -15.4566 -15.4513 -15.3496 -15.3473
   -14.8546 -10.3869  -8.8207  -7.6578  -7.6316  -6.5495  -6.1815  -6.1419
    -5.2467  -4.8550  -4.2122  -4.1059  -3.7167  -3.1171  -2.7321  -2.1779
    -2.0688  -1.8531  -1.7271  -1.5225  -0.9343  -0.6940  -0.5242  -0.1747
     0.4410   0.6898   1.0459   1.2846   1.6631   2.0078   2.3339

          k = 0.0547-0.0316 0.0000 ( 20353 PWs)   bands (ev):

   -95.4790 -95.4789 -95.4788 -95.4743 -95.4742 -95.4742 -95.4732 -95.4656
   -95.4648 -95.4645 -95.4638 -95.4637 -95.4633 -95.4619 -95.4618 -95.4615
   -95.4599 -95.4598 -95.4593 -95.4584 -95.4575 -95.4572 -95.4562 -95.4561
   -95.4561 -95.4555 -95.4555 -95.4496 -95.4487 -95.4484 -95.4329 -95.4329
   -95.4293 -95.1006 -95.1006 -94.9508 -17.5064 -15.9385 -15.9174 -15.9160
   -15.8991 -15.8943 -15.8895 -15.8830 -15.8753 -15.8723 -15.8698 -15.8662
   -15.8646 -15.8568 -15.8562 -15.8516 -15.8463 -15.8398 -15.8392 -15.8330
   -15.8239 -15.8231 -15.8165 -15.8158 -15.8114 -15.8111 -15.8021 -15.7999
   -15.7988 -15.7939 -15.7784 -15.7761 -15.7698 -15.7631 -15.7628 -15.7548
   -15.7480 -15.7412 -15.7410 -15.7339 -15.7274 -15.7214 -15.7210 -15.7135
   -15.7111 -15.7061 -15.7053 -15.7027 -15.6980 -15.6944 -15.6925 -15.6861
   -15.6813 -15.6742 -15.6633 -15.6606 -15.4609 -15.4531 -15.3507 -15.3473
   -14.8552 -10.2346  -8.6737  -8.4017  -6.9033  -6.6073  -6.5995  -6.3803
    -5.2055  -5.2020  -4.7699  -3.6312  -3.4461  -2.6899  -2.5291  -2.3982
    -1.9062  -1.8174  -1.5860  -1.0020  -0.8623  -0.7855  -0.2129   0.4921
     0.6572   0.7675   0.9464   1.1229   1.6721   2.0560   2.0657

          k = 0.0547 0.0000 0.0000 ( 20341 PWs)   bands (ev):

   -95.4790 -95.4789 -95.4788 -95.4743 -95.4742 -95.4742 -95.4732 -95.4657
   -95.4648 -95.4645 -95.4638 -95.4637 -95.4633 -95.4619 -95.4618 -95.4615
   -95.4599 -95.4598 -95.4593 -95.4585 -95.4575 -95.4572 -95.4562 -95.4561
   -95.4561 -95.4555 -95.4555 -95.4496 -95.4486 -95.4484 -95.4329 -95.4329
   -95.4293 -95.1006 -95.1006 -94.9508 -17.5065 -15.9373 -15.9359 -15.9219
   -15.9003 -15.8951 -15.8904 -15.8849 -15.8790 -15.8774 -15.8738 -15.8718
   -15.8675 -15.8636 -15.8616 -15.8521 -15.8486 -15.8444 -15.8411 -15.8341
   -15.8315 -15.8282 -15.8256 -15.8184 -15.8149 -15.8117 -15.8051 -15.8041
   -15.7988 -15.7965 -15.7802 -15.7701 -15.7690 -15.7648 -15.7561 -15.7516
   -15.7468 -15.7407 -15.7349 -15.7284 -15.7239 -15.7156 -15.7137 -15.7106
   -15.7041 -15.7018 -15.6976 -15.6902 -15.6897 -15.6850 -15.6836 -15.6808
   -15.6781 -15.6719 -15.6696 -15.6659 -15.4566 -15.4513 -15.3496 -15.3473
   -14.8546 -10.3869  -8.8207  -7.6578  -7.6316  -6.5495  -6.1815  -6.1419
    -5.2467  -4.8550  -4.2122  -4.1059  -3.7167  -3.1171  -2.7322  -2.1779
    -2.0688  -1.8531  -1.7271  -1.5225  -0.9343  -0.6940  -0.5242  -0.1747
     0.4410   0.6898   1.0459   1.2846   1.6631   2.0078   2.3338

          k = 0.0547 0.0316 0.0000 ( 20353 PWs)   bands (ev):

   -95.4790 -95.4789 -95.4788 -95.4743 -95.4742 -95.4742 -95.4732 -95.4656
   -95.4648 -95.4645 -95.4638 -95.4637 -95.4633 -95.4619 -95.4618 -95.4615
   -95.4599 -95.4598 -95.4593 -95.4584 -95.4575 -95.4572 -95.4562 -95.4561
   -95.4561 -95.4555 -95.4555 -95.4496 -95.4487 -95.4484 -95.4329 -95.4329
   -95.4293 -95.1006 -95.1006 -94.9508 -17.5064 -15.9385 -15.9174 -15.9160
[...]

          k = 0.0547 0.0316 0.0000 ( 20353 PWs)   bands (ev):

   -95.1345 -95.1344 -95.1344 -95.1336 -95.1335 -95.1332 -95.1060 -95.1051
   -95.1048 -95.0746 -95.0527 -95.0527 -95.0462 -95.0454 -95.0451 -95.0431
   -95.0430 -95.0427 -95.0411 -95.0410 -95.0409 -95.0274 -95.0273 -95.0273
   -95.0253 -95.0251 -95.0248 -95.0226 -95.0218 -95.0214 -94.9936 -94.9936
   -94.9900 -94.8530 -94.8530 -94.7111 -17.8737 -15.5431 -15.5212 -15.5128
   -15.5117 -15.5028 -15.4928 -15.4867 -15.4835 -15.4786 -15.4741 -15.4701
   -15.4657 -15.4593 -15.4587 -15.4557 -15.4499 -15.4452 -15.4444 -15.4388
   -15.4300 -15.4296 -15.4272 -15.4230 -15.4178 -15.4166 -15.4109 -15.4071
   -15.4046 -15.3951 -15.3861 -15.3812 -15.3809 -15.3782 -15.3703 -15.3598
   -15.3517 -15.3496 -15.3432 -15.3427 -15.3305 -15.3262 -15.3128 -15.3097
   -15.2976 -15.2944 -15.2897 -15.2828 -15.2803 -15.2736 -15.2704 -15.2662
   -15.2650 -15.2559 -15.2429 -15.2422 -15.1876 -15.1873 -15.0843 -15.0800
   -14.5971  -9.8008  -8.2022  -7.9626  -6.6293  -6.1641  -6.1224  -5.9658
    -4.9056  -4.7972  -4.4687  -3.4221  -3.2055  -2.4982  -2.3835  -2.2655
    -1.7476  -1.5925  -1.1485  -0.5208  -0.3242  -0.3085   0.1164   0.8494
     1.0395   1.0869   1.2076   1.7061   2.0879   2.3933   2.4384

          k = 0.0547-0.1264 0.0000 ( 20377 PWs)   bands (ev):

   -95.1345 -95.1344 -95.1344 -95.1337 -95.1335 -95.1332 -95.1058 -95.1053
   -95.1048 -95.0746 -95.0527 -95.0527 -95.0460 -95.0455 -95.0451 -95.0432
   -95.0429 -95.0427 -95.0411 -95.0410 -95.0409 -95.0274 -95.0273 -95.0273
   -95.0253 -95.0251 -95.0249 -95.0224 -95.0219 -95.0215 -94.9936 -94.9936
   -94.9900 -94.8531 -94.8530 -94.7111 -17.8728 -15.5283 -15.5075 -15.5014
   -15.4979 -15.4923 -15.4853 -15.4826 -15.4771 -15.4735 -15.4686 -15.4651
   -15.4598 -15.4555 -15.4528 -15.4492 -15.4448 -15.4400 -15.4374 -15.4340
   -15.4313 -15.4259 -15.4220 -15.4179 -15.4144 -15.4107 -15.4081 -15.4032
   -15.3990 -15.3913 -15.3861 -15.3817 -15.3805 -15.3773 -15.3692 -15.3642
   -15.3596 -15.3533 -15.3504 -15.3418 -15.3351 -15.3325 -15.3272 -15.3207
   -15.3177 -15.3054 -15.2998 -15.2949 -15.2900 -15.2854 -15.2791 -15.2732
   -15.2680 -15.2610 -15.2528 -15.2507 -15.1908 -15.1902 -15.0859 -15.0794
   -14.5978  -9.3653  -8.4316  -7.7596  -7.4898  -6.8998  -6.1066  -5.6225
    -4.9373  -4.7945  -4.1349  -3.9299  -3.1427  -2.4115  -2.1555  -1.9842
    -1.5423  -1.1315  -0.7088  -0.2965  -0.1301   0.0888   0.3539   0.8950
     1.2502   1.3488   1.4737   1.6961   2.1456   2.3329   2.5787

          k = 0.0547-0.0948 0.0000 ( 20397 PWs)   bands (ev):

   -95.1345 -95.1345 -95.1344 -95.1337 -95.1334 -95.1333 -95.1056 -95.1055
   -95.1048 -95.0746 -95.0527 -95.0527 -95.0458 -95.0458 -95.0450 -95.0432
   -95.0428 -95.0428 -95.0410 -95.0410 -95.0410 -95.0273 -95.0273 -95.0273
   -95.0253 -95.0250 -95.0250 -95.0222 -95.0222 -95.0215 -94.9936 -94.9936
   -94.9900 -94.8531 -94.8531 -94.7111 -17.8724 -15.5090 -15.4969 -15.4938
   -15.4911 -15.4894 -15.4840 -15.4839 -15.4732 -15.4717 -15.4710 -15.4641
   -15.4614 -15.4565 -15.4534 -15.4448 -15.4420 -15.4417 -15.4332 -15.4325
   -15.4244 -15.4186 -15.4148 -15.4132 -15.4086 -15.4085 -15.4030 -15.3993
   -15.3980 -15.3924 -15.3880 -15.3789 -15.3774 -15.3756 -15.3755 -15.3706
   -15.3610 -15.3585 -15.3556 -15.3468 -15.3444 -15.3436 -15.3320 -15.3262
   -15.3219 -15.3111 -15.2990 -15.2962 -15.2899 -15.2814 -15.2813 -15.2759
   -15.2744 -15.2654 -15.2632 -15.2626 -15.1926 -15.1924 -15.0868 -15.0790
   -14.5981  -8.8587  -8.4537  -8.4249  -7.0964  -7.0216  -7.0064  -5.1504
    -5.1090  -4.7104  -3.7263  -3.7238  -3.3594  -2.2902  -2.1913  -2.1504
    -1.1820  -1.1403  -1.0800  -0.4997  -0.4658   0.3282   1.0783   1.1847
     1.4340   1.9057   2.0067   2.0446   2.1626   2.4358   2.6926

          k = 0.0547-0.0632 0.0000 ( 20377 PWs)   bands (ev):

   -95.1345 -95.1344 -95.1344 -95.1337 -95.1334 -95.1332 -95.1058 -95.1053
   -95.1048 -95.0746 -95.0527 -95.0527 -95.0460 -95.0455 -95.0451 -95.0432
   -95.0429 -95.0427 -95.0411 -95.0410 -95.0409 -95.0274 -95.0273 -95.0273
   -95.0253 -95.0251 -95.0249 -95.0224 -95.0219 -95.0215 -94.9936 -94.9936
   -94.9900 -94.8531 -94.8530 -94.7111 -17.8728 -15.5283 -15.5075 -15.5014
   -15.4979 -15.4924 -15.4853 -15.4826 -15.4771 -15.4735 -15.4686 -15.4651
   -15.4598 -15.4555 -15.4528 -15.4492 -15.4448 -15.4400 -15.4374 -15.4340
   -15.4313 -15.4259 -15.4220 -15.4179 -15.4144 -15.4107 -15.4081 -15.4032
   -15.3990 -15.3913 -15.3861 -15.3817 -15.3805 -15.3773 -15.3692 -15.3642
   -15.3596 -15.3533 -15.3504 -15.3418 -15.3351 -15.3325 -15.3272 -15.3207
   -15.3177 -15.3054 -15.2998 -15.2949 -15.2900 -15.2854 -15.2791 -15.2732
   -15.2680 -15.2610 -15.2528 -15.2507 -15.1908 -15.1902 -15.0859 -15.0794
   -14.5978  -9.3653  -8.4316  -7.7596  -7.4898  -6.8999  -6.1066  -5.6225
    -4.9373  -4.7945  -4.1349  -3.9299  -3.1427  -2.4115  -2.1555  -1.9842
    -1.5423  -1.1315  -0.7088  -0.2965  -0.1300   0.0888   0.3539   0.8950
     1.2502   1.3488   1.4737   1.6961   2.1456   2.3329   2.5788

          k =-0.0821 0.0474 0.0000 ( 20384 PWs)   bands (ev):

   -95.1345 -95.1344 -95.1344 -95.1337 -95.1335 -95.1332 -95.1058 -95.1053
   -95.1048 -95.0746 -95.0527 -95.0527 -95.0460 -95.0455 -95.0451 -95.0431
   -95.0430 -95.0427 -95.0411 -95.0410 -95.0409 -95.0274 -95.0273 -95.0273
   -95.0253 -95.0251 -95.0249 -95.0224 -95.0219 -95.0214 -94.9936 -94.9936
   -94.9900 -94.8531 -94.8530 -94.7111 -17.8728 -15.5371 -15.5075 -15.5014
   -15.4965 -15.4914 -15.4879 -15.4798 -15.4774 -15.4695 -15.4641 -15.4635
   -15.4567 -15.4548 -15.4505 -15.4475 -15.4461 -15.4435 -15.4385 -15.4342
   -15.4320 -15.4272 -15.4258 -15.4214 -15.4115 -15.4092 -15.4059 -15.4025
   -15.4024 -15.3914 -15.3879 -15.3813 -15.3801 -15.3759 -15.3714 -15.3594
   -15.3539 -15.3490 -15.3453 -15.3368 -15.3346 -15.3296 -15.3284 -15.3240
   -15.3184 -15.3134 -15.3075 -15.3001 -15.2934 -15.2898 -15.2876 -15.2738
   -15.2693 -15.2583 -15.2448 -15.2442 -15.1900 -15.1899 -15.0855 -15.0799
   -14.5978  -9.1833  -8.8978  -7.5140  -7.4427  -6.3575  -6.2674  -5.5583
    -5.3391  -4.9287  -4.8517  -3.4236  -3.2130  -2.1174  -2.0051  -1.9087
    -1.3332  -0.7856  -0.7020  -0.6459  -0.1579  -0.0646   0.6173   0.7165
     1.3104   1.4906   1.6446   1.8761   2.1356   2.1441   2.1948

          k =-0.0821 0.0790 0.0000 ( 20377 PWs)   bands (ev):

   -95.1345 -95.1344 -95.1344 -95.1337 -95.1335 -95.1332 -95.1058 -95.1053
   -95.1048 -95.0746 -95.0527 -95.0527 -95.0460 -95.0455 -95.0451 -95.0432
   -95.0429 -95.0427 -95.0411 -95.0410 -95.0409 -95.0274 -95.0273 -95.0273
   -95.0253 -95.0251 -95.0249 -95.0224 -95.0219 -95.0215 -94.9936 -94.9936
   -94.9900 -94.8531 -94.8530 -94.7111 -17.8728 -15.5283 -15.5075 -15.5014
   -15.4979 -15.4924 -15.4853 -15.4826 -15.4771 -15.4735 -15.4686 -15.4651
   -15.4598 -15.4555 -15.4528 -15.4492 -15.4448 -15.4400 -15.4374 -15.4340
   -15.4313 -15.4259 -15.4220 -15.4179 -15.4144 -15.4107 -15.4081 -15.4032
   -15.3990 -15.3913 -15.3861 -15.3817 -15.3805 -15.3773 -15.3692 -15.3642
   -15.3596 -15.3533 -15.3504 -15.3418 -15.3351 -15.3325 -15.3272 -15.3207
   -15.3177 -15.3054 -15.2998 -15.2949 -15.2900 -15.2854 -15.2791 -15.2732
   -15.2680 -15.2610 -15.2528 -15.2507 -15.1908 -15.1902 -15.0859 -15.0794
   -14.5978  -9.3653  -8.4316  -7.7596  -7.4898  -6.8998  -6.1066  -5.6225
    -4.9373  -4.7945  -4.1349  -3.9299  -3.1427  -2.4115  -2.1555  -1.9842
    -1.5423  -1.1315  -0.7088  -0.2965  -0.1301   0.0888   0.3539   0.8950
     1.2502   1.3488   1.4737   1.6961   2.1456   2.3329   2.5788

          k =-0.0821 0.1106 0.0000 ( 20377 PWs)   bands (ev):

   -95.1345 -95.1344 -95.1344 -95.1337 -95.1335 -95.1332 -95.1058 -95.1053
   -95.1048 -95.0746 -95.0527 -95.0527 -95.0460 -95.0455 -95.0451 -95.0432
   -95.0429 -95.0427 -95.0411 -95.0410 -95.0409 -95.0274 -95.0273 -95.0273
   -95.0253 -95.0251 -95.0249 -95.0224 -95.0219 -95.0215 -94.9936 -94.9936
   -94.9900 -94.8531 -94.8530 -94.7111 -17.8728 -15.5283 -15.5075 -15.5014
   -15.4979 -15.4923 -15.4853 -15.4826 -15.4771 -15.4735 -15.4686 -15.4651
   -15.4598 -15.4555 -15.4528 -15.4493 -15.4448 -15.4400 -15.4374 -15.4340
   -15.4313 -15.4259 -15.4220 -15.4179 -15.4144 -15.4107 -15.4081 -15.4032
   -15.3990 -15.3913 -15.3861 -15.3817 -15.3805 -15.3773 -15.3692 -15.3642
   -15.3596 -15.3533 -15.3504 -15.3418 -15.3351 -15.3325 -15.3272 -15.3207
   -15.3177 -15.3054 -15.2998 -15.2949 -15.2900 -15.2854 -15.2791 -15.2732
   -15.2680 -15.2610 -15.2528 -15.2507 -15.1908 -15.1902 -15.0859 -15.0794
   -14.5978  -9.3653  -8.4316  -7.7596  -7.4898  -6.8998  -6.1066  -5.6225
    -4.9373  -4.7945  -4.1349  -3.9299  -3.1427  -2.4115  -2.1555  -1.9842
    -1.5423  -1.1315  -0.7087  -0.2965  -0.1301   0.0888   0.3539   0.8950
     1.2502   1.3488   1.4737   1.6962   2.1456   2.3329   2.5787

          k =-0.0821-0.0474 0.0000 ( 20384 PWs)   bands (ev):

   -95.1345 -95.1344 -95.1344 -95.1336 -95.1335 -95.1332 -95.1058 -95.1053
   -95.1048 -95.0746 -95.0527 -95.0527 -95.0460 -95.0455 -95.0451 -95.0431
   -95.0430 -95.0427 -95.0411 -95.0410 -95.0409 -95.0274 -95.0273 -95.0273
   -95.0253 -95.0251 -95.0249 -95.0224 -95.0219 -95.0214 -94.9936 -94.9936
   -94.9900 -94.8531 -94.8530 -94.7111 -17.8728 -15.5371 -15.5076 -15.5014
   -15.4965 -15.4914 -15.4879 -15.4798 -15.4774 -15.4695 -15.4641 -15.4635
   -15.4567 -15.4548 -15.4505 -15.4475 -15.4461 -15.4435 -15.4385 -15.4342
   -15.4320 -15.4272 -15.4258 -15.4214 -15.4115 -15.4092 -15.4059 -15.4025
   -15.4024 -15.3914 -15.3879 -15.3813 -15.3801 -15.3759 -15.3714 -15.3594
   -15.3539 -15.3490 -15.3453 -15.3368 -15.3346 -15.3296 -15.3284 -15.3240
   -15.3184 -15.3134 -15.3075 -15.3001 -15.2934 -15.2898 -15.2876 -15.2738
   -15.2693 -15.2583 -15.2448 -15.2442 -15.1900 -15.1899 -15.0855 -15.0799
   -14.5978  -9.1833  -8.8978  -7.5140  -7.4427  -6.3575  -6.2674  -5.5583
    -5.3391  -4.9287  -4.8517  -3.4236  -3.2130  -2.1174  -2.0051  -1.9087
    -1.3332  -0.7856  -0.7020  -0.6459  -0.1579  -0.0646   0.6173   0.7165
     1.3104   1.4906   1.6446   1.8761   2.1356   2.1441   2.1948

     the Fermi energy is    -0.2796 ev

!    total energy              =   -5031.53386887 Ry
     Harris-Foulkes estimate   =   -5031.53386860 Ry
     estimated scf accuracy    <          6.3E-09 Ry

     The total energy is the sum of the following terms:

     one-electron contribution =  -27526.25172822 Ry
     hartree contribution      =   13766.94287708 Ry
     xc contribution           =    -604.01311005 Ry
     ewald contribution        =    9331.82335842 Ry
     electric field correction =       0.00047573 Ry
     smearing contrib. (-TS)   =      -0.03574184 Ry

     convergence has been achieved in   9 iterations
 
 BEEF-vdW xc energy contributions
           1 :   -539.771544931396     
           2 :    489.783708174008     
           3 :   -406.026911960947     
           4 :    312.902563255587     
           5 :   -231.966211311736     
           6 :    173.854021174804     
           7 :   -136.789133041173     
           8 :    111.399050247367     
           9 :   -88.2128661226493     
          10 :    63.1963016101017     
          11 :   -38.5429556361586     
          12 :    19.2313675724256     
          13 :   -8.41247852698370     
          14 :    4.93544343363442     
          15 :   -4.36852551801621     
          16 :    2.26809237828320     
          17 :    2.92620713502856     
          18 :   -9.38159409294065     
          19 :    13.8234796548985     
          20 :   -14.2696302628262     
          21 :    11.4874901625506     
          22 :   -8.25228036480280     
          23 :    7.16810501995610     
          24 :   -8.79707784852690     
          25 :    11.4587085345537     
          26 :   -12.7142652839595     
          27 :    11.2996113193486     
          28 :   -8.03694701687300     
          29 :    5.11771337711536     
          30 :   -4.39982817746625     
          31 :   -39.9890829726554     
          32 :   -27.1158209625771     

     Forces acting on atoms (Ry/au):


     negative rho (up, down):  1.101E-03 0.000E+00
     atom    1 type  1   force =    -0.00212319   -0.00122574    0.00378689
     atom    2 type  1   force =     0.00212300   -0.00122572    0.00378551
     atom    3 type  1   force =    -0.00000006    0.00245147    0.00378595
     atom    4 type  1   force =    -0.00000007   -0.00000018    0.00122469
     atom    5 type  1   force =    -0.00000025    0.01550192   -0.00560401
     atom    6 type  1   force =    -0.00000000    0.00000002    0.00302626
     atom    7 type  1   force =    -0.01342474   -0.00775079   -0.00560500
     atom    8 type  1   force =     0.01342515   -0.00775129   -0.00560387
     atom    9 type  1   force =    -0.00000210   -0.00000107   -0.00007293
     atom   10 type  1   force =     0.00000090    0.00166167    0.00070884
     atom   11 type  1   force =     0.00143898   -0.00083007    0.00070827
     atom   12 type  1   force =    -0.00143947   -0.00083134    0.00070846
     atom   13 type  2   force =     0.00000184    0.00000114   -0.00084907

     Total force =     0.003243     Total SCF correction =     0.000464
     SCF correction compared to forces is large: reduce conv_thr to get better values


     entering subroutine stress ...


     negative rho (up, down):  1.101E-03 0.000E+00
          total   stress  (Ry/bohr**3)                   (kbar)     P=   -4.45
  -0.00003715   0.00000000   0.00000000         -5.47      0.00      0.00
   0.00000000  -0.00003715   0.00000000          0.00     -5.47      0.00
   0.00000000   0.00000000  -0.00001646          0.00      0.00     -2.42


     bfgs converged in  18 scf cycles and  17 bfgs steps
     (criteria: energy <  1.0E+00, force <  1.9E-03)

     End of BFGS Geometry Optimization

     Final energy   =   -5031.5338688727 Ry
Begin final coordinates

ATOMIC_POSITIONS (crystal)
Ga1      0.166666667   0.166666667   0.400460194    0   0   0
Ga1      0.666666667   0.166666667   0.400460194    0   0   0
Ga1      0.166666667   0.666666667   0.400460194    0   0   0
Ga1      0.666666667   0.666666667   0.400460194    0   0   0
Ga1      0.833333333   0.333333333   0.500000000    0   0   0
Ga1      0.333333333   0.333333333   0.500000000    0   0   0
Ga1      0.833333333   0.833333333   0.500000000    0   0   0
Ga1      0.333333333   0.833333333   0.500000000    0   0   0
Ga1     -0.000000423  -0.000000383   0.579592686
Ga1      0.501264532  -0.002539633   0.608477579
Ga1     -0.002535982   0.501263700   0.608478429
Ga1      0.501268123   0.501267157   0.608479367
O1       0.000001701   0.000002091   0.650074063
End final coordinates



     Writing output data file calc.save
 
     init_run     :     12.66s CPU     13.11s WALL (       1 calls)
     electrons    :   5399.96s CPU   5644.16s WALL (      18 calls)
     update_pot   :     51.04s CPU     53.45s WALL (      17 calls)
     forces       :    307.41s CPU    320.70s WALL (      18 calls)
     stress       :    964.91s CPU    998.52s WALL (      18 calls)

     Called by init_run:
     wfcinit      :      4.97s CPU      5.07s WALL (       1 calls)
     potinit      :      2.20s CPU      2.41s WALL (       1 calls)

     Called by electrons:
     c_bands      :   2393.32s CPU   2471.19s WALL (     164 calls)
     sum_band     :    993.10s CPU   1038.14s WALL (     164 calls)
     v_of_rho     :    278.36s CPU    297.66s WALL (     179 calls)
     newd         :    876.21s CPU    887.87s WALL (     179 calls)
     mix_rho      :      9.82s CPU      9.95s WALL (     164 calls)
     vdW_energy   :    195.91s CPU    215.23s WALL (     827 calls)
     vdW_ffts     :    475.13s CPU    493.24s WALL (    1690 calls)
     vdW_v        :    174.59s CPU    181.36s WALL (     827 calls)

     Called by c_bands:
     init_us_2    :     11.40s CPU     11.46s WALL (    1825 calls)
     cegterg      :   2272.66s CPU   2319.39s WALL (     822 calls)

     Called by *egterg:
     h_psi        :   1366.77s CPU   1389.73s WALL (    3751 calls)
     s_psi        :    125.78s CPU    126.12s WALL (    3751 calls)
     g_psi        :      8.17s CPU      8.16s WALL (    2924 calls)
     cdiaghg      :    267.55s CPU    269.64s WALL (    3646 calls)

     Called by h_psi:
     add_vuspsi   :    128.83s CPU    129.07s WALL (    3751 calls)

     General routines
     calbec       :    201.36s CPU    204.94s WALL (    4751 calls)
     fft          :    726.51s CPU    771.24s WALL (   49697 calls)
     ffts         :      0.70s CPU      0.76s WALL (     343 calls)
     fftw         :    856.62s CPU    881.97s WALL (  617948 calls)
     interpolate  :      6.83s CPU      6.97s WALL (     343 calls)
     davcio       :      0.00s CPU      0.05s WALL (       5 calls)
 
     Parallel routines
     fft_scatter  :    912.18s CPU    977.35s WALL (  667988 calls)
 
     PWSCF        :     1h53m CPU        1h58m WALL

 
   This run was terminated on:  21:19: 6   3May2018            

=------------------------------------------------------------------------------=
   JOB DONE.
=------------------------------------------------------------------------------=
Job  /afs/slac/g/suncat/bin/suncat-tsmpirun -x LD_LIBRARY_PATH -wdir /scratch/qe828917_wJ7sF pw.x -npool 4 -in pw.inp

TID   HOST_NAME   COMMAND_LINE            STATUS            TERMINATION_TIME
===== ========== ================  =======================  ===================
00000 suncat0191 pw.x -npool 4 -i  Done                     05/03/2018 21:19:06
00001 suncat0191 pw.x -npool 4 -i  Done                     05/03/2018 21:19:06
00002 suncat0191 pw.x -npool 4 -i  Done                     05/03/2018 21:19:06
00003 suncat0191 pw.x -npool 4 -i  Done                     05/03/2018 21:19:06
00004 suncat0191 pw.x -npool 4 -i  Done                     05/03/2018 21:19:06
00005 suncat0191 pw.x -npool 4 -i  Done                     05/03/2018 21:19:06
00006 suncat0191 pw.x -npool 4 -i  Done                     05/03/2018 21:19:06
00007 suncat0191 pw.x -npool 4 -i  Done                     05/03/2018 21:19:06
00008 suncat0187 pw.x -npool 4 -i  Done                     05/03/2018 21:19:06
00009 suncat0187 pw.x -npool 4 -i  Done                     05/03/2018 21:19:06
00010 suncat0187 pw.x -npool 4 -i  Done                     05/03/2018 21:19:06
00011 suncat0187 pw.x -npool 4 -i  Done                     05/03/2018 21:19:06
00012 suncat0187 pw.x -npool 4 -i  Done                     05/03/2018 21:19:06
00013 suncat0187 pw.x -npool 4 -i  Done                     05/03/2018 21:19:06
00014 suncat0187 pw.x -npool 4 -i  Done                     05/03/2018 21:19:06
00015 suncat0187 pw.x -npool 4 -i  Done                     05/03/2018 21:19:06
00016 suncat0179 pw.x -npool 4 -i  Done                     05/03/2018 21:19:06
00017 suncat0179 pw.x -npool 4 -i  Done                     05/03/2018 21:19:06
00018 suncat0179 pw.x -npool 4 -i  Done                     05/03/2018 21:19:06
00019 suncat0179 pw.x -npool 4 -i  Done                     05/03/2018 21:19:06
00020 suncat0179 pw.x -npool 4 -i  Done                     05/03/2018 21:19:06
00021 suncat0179 pw.x -npool 4 -i  Done                     05/03/2018 21:19:06
00022 suncat0179 pw.x -npool 4 -i  Done                     05/03/2018 21:19:06
00023 suncat0179 pw.x -npool 4 -i  Done                     05/03/2018 21:19:06
00024 suncat0174 pw.x -npool 4 -i  Done                     05/03/2018 21:19:06
00025 suncat0174 pw.x -npool 4 -i  Done                     05/03/2018 21:19:06
00026 suncat0174 pw.x -npool 4 -i  Done                     05/03/2018 21:19:06
00027 suncat0174 pw.x -npool 4 -i  Done                     05/03/2018 21:19:06
00028 suncat0174 pw.x -npool 4 -i  Done                     05/03/2018 21:19:06
00029 suncat0174 pw.x -npool 4 -i  Done                     05/03/2018 21:19:06
00030 suncat0174 pw.x -npool 4 -i  Done                     05/03/2018 21:19:06
00031 suncat0174 pw.x -npool 4 -i  Done                     05/03/2018 21:19:06
