  python dir    : /nfs/slac/g/suncatfs/mamunm/src/decaf-espresso/decaf
espresso dir  : /nfs/slac/g/suncatfs/sw/espv18/espresso-dynpy-beef/bin/pw.x
executable    : pam -g /afs/slac/g/suncat/bin/suncat-tsmpirun -x LD_LIBRARY_PATH -wdir /tmp/qe_379046qdrabo2r_scratch pw.x -npool 3 -in pw.pwi

     Program PWSCF v.5.1rc2 (svn rev. 11289) starts on 17Jan2019 at  0:57: 6 

     This program is part of the open-source Quantum ESPRESSO suite
     for quantum simulation of materials; please cite
         "P. Giannozzi et al., J. Phys.:Condens. Matter 21 395502 (2009);
          URL http://www.quantum-espresso.org", 
     in publications or presentations arising from this work. More details at
     http://www.quantum-espresso.org/quote

     Parallel version (MPI), running on    36 processors
     K-points division:     npool     =       3
     R & G space division:  proc/nbgrp/npool/nimage =      12
     Reading input from pw.pwi
Warning: card &CELL ignored
Warning: card / ignored

     Current dimensions of program PWSCF are:
     Max number of different atomic species (ntypx) = 10
     Max number of k-points (npk) =  40000
     Max angular momentum in pseudopotentials (lmaxx) =  3

     **************************************************************************
     Initializing libbeef V0.1.1 with the BEEF-vdW functional.
     Citation: Wellendorff et al., PRB 85, 235149 (2012).
     **************************************************************************


     IMPORTANT: XC functional enforced from input :
     Exchange-correlation      = BEEF-VDW ( 1  4 27 13 2)
     Any further DFT definition will be discarded
     Please, verify this is what you really want


     Subspace diagonalization in iterative solution of the eigenvalue problem:
     a serial algorithm will be used

 
     Parallelization info
     --------------------
     sticks:   dense  smooth     PW     G-vecs:    dense   smooth      PW
     Min         340     136     38                66826    16906    2568
     Max         341     137     39                66845    16933    2579
     Sum        4081    1639    463               801953   203051   30885
 


     bravais-lattice index     =            0
     lattice parameter (alat)  =      12.7122  a.u.
     unit-cell volume          =    6741.9071 (a.u.)^3
     number of atoms/cell      =           13
     number of atomic types    =            2
     number of electrons       =       169.00
     number of Kohn-Sham states=           94
     kinetic-energy cutoff     =      36.7493  Ry
     charge density cutoff     =     367.4933  Ry
     convergence threshold     =      1.0E-04
     mixing beta               =       0.2000
     number of iterations used =            8  plain     mixing
     Exchange-correlation      = BEEF-VDW ( 1  4 27 13 2)
     nstep                     =           50


     celldm(1)=  12.712175  celldm(2)=   0.000000  celldm(3)=   0.000000
     celldm(4)=   0.000000  celldm(5)=   0.000000  celldm(6)=   0.000000

     crystal axes: (cart. coord. in units of alat)
               a(1) = (   1.000000   0.000000   0.000000 )  
               a(2) = (   0.500000   0.866025   0.000000 )  
               a(3) = (   0.000000   0.000000   3.789593 )  

     reciprocal axes: (cart. coord. in units 2 pi/alat)
               b(1) = (  1.000000 -0.577350  0.000000 )  
               b(2) = (  0.000000  1.154701  0.000000 )  
               b(3) = (  0.000000  0.000000  0.263881 )  


     PseudoPot. # 1 for Sn read from file:
     /nfs/slac/g/suncatfs/mamunm/src/decaf-espresso/gbrv15pbe/Sn.UPF
     MD5 check sum: 469debedee59599fedebd795477fea03
     Pseudo is Ultrasoft + core correction, Zval = 14.0
     Generated by new atomic code, or converted to UPF format
     Using radial grid of  891 points,  6 beta functions with: 
                l(1) =   0
                l(2) =   0
                l(3) =   1
                l(4) =   1
                l(5) =   2
                l(6) =   2
     Q(r) pseudized with  8 coefficients,  rinner =    1.350   1.350   1.350
                                                       1.350   1.350

     PseudoPot. # 2 for H  read from file:
     /nfs/slac/g/suncatfs/mamunm/src/decaf-espresso/gbrv15pbe/H.UPF
     MD5 check sum: 761ae9a214b05c3daf00ab9f6b793d6f
     Pseudo is Ultrasoft, Zval =  1.0
     Generated by new atomic code, or converted to UPF format
     Using radial grid of  615 points,  2 beta functions with: 
                l(1) =   0
                l(2) =   0
     Q(r) pseudized with  8 coefficients,  rinner =    0.700

     vdW kernel table read from file vdW_kernel_table
     MD5 check sum: 095c7af220d748ca6e76c0b4c6cfb241

     atomic species   valence    mass     pseudopotential
        Sn            14.00   118.71000     Sn( 1.00)
        H              1.00     1.00800     H ( 1.00)

     No symmetry found



   Cartesian axes

     site n.     atom                  positions (alat units)
         1           Sn  tau(   1) = (   0.2500000   0.1443376   1.4865483  )
         2           Sn  tau(   2) = (   0.7500000   0.1443376   1.4865483  )
         3           Sn  tau(   3) = (   0.5000000   0.5773503   1.4865483  )
         4           Sn  tau(   4) = (   1.0000000   0.5773503   1.4865483  )
         5           Sn  tau(   5) = (   1.0000000   0.2886751   1.8947966  )
         6           Sn  tau(   6) = (   0.5000000   0.2886751   1.8947966  )
         7           Sn  tau(   7) = (   1.2500000   0.7216878   1.8947966  )
         8           Sn  tau(   8) = (   0.7500000   0.7216878   1.8947966  )
         9           Sn  tau(   9) = (   0.0001368   0.0000794   2.3107548  )
        10           Sn  tau(  10) = (   0.4998530   0.0000768   2.3107520  )
        11           Sn  tau(  11) = (   0.2500006   0.4328455   2.3107507  )
        12           Sn  tau(  12) = (   0.7500034   0.4330099   2.2999733  )
        13           H   tau(  13) = (   0.2500015   0.1443382   2.4664359  )

     number of k points=    20  Fermi-Dirac smearing, width (Ry)=  0.0110
                       cart. coord. in units 2pi/alat
        k(    1) = (   0.0000000   0.0000000   0.0000000), wk =   0.0555556
        k(    2) = (   0.0000000   0.1924501   0.0000000), wk =   0.1111111
        k(    3) = (   0.0000000   0.3849002   0.0000000), wk =   0.1111111
        k(    4) = (   0.0000000  -0.5773503   0.0000000), wk =   0.0555556
        k(    5) = (   0.1666667  -0.0962250   0.0000000), wk =   0.1111111
        k(    6) = (   0.1666667   0.0962250   0.0000000), wk =   0.1111111
        k(    7) = (   0.1666667   0.2886751   0.0000000), wk =   0.1111111
        k(    8) = (   0.1666667  -0.6735753   0.0000000), wk =   0.1111111
        k(    9) = (   0.1666667  -0.4811252   0.0000000), wk =   0.1111111
        k(   10) = (   0.1666667  -0.2886751   0.0000000), wk =   0.1111111
        k(   11) = (   0.3333333  -0.1924501   0.0000000), wk =   0.1111111
        k(   12) = (   0.3333333   0.0000000   0.0000000), wk =   0.1111111
        k(   13) = (   0.3333333   0.1924501   0.0000000), wk =   0.1111111
        k(   14) = (   0.3333333  -0.7698004   0.0000000), wk =   0.1111111
        k(   15) = (   0.3333333  -0.5773503   0.0000000), wk =   0.1111111
        k(   16) = (   0.3333333  -0.3849002   0.0000000), wk =   0.1111111
        k(   17) = (  -0.5000000   0.2886751   0.0000000), wk =   0.0555556
        k(   18) = (  -0.5000000   0.4811252   0.0000000), wk =   0.1111111
        k(   19) = (  -0.5000000   0.6735753   0.0000000), wk =   0.1111111
        k(   20) = (  -0.5000000  -0.2886751   0.0000000), wk =   0.0555556

     Dense  grid:   801953 G-vectors     FFT dimensions: (  80,  80, 300)

     Smooth grid:   203051 G-vectors     FFT dimensions: (  50,  50, 192)

     Largest allocated arrays     est. size (Mb)     dimensions
        Kohn-Sham Wavefunctions         3.10 Mb     (    2161,   94)
        NL pseudopotentials             7.19 Mb     (    2161,  218)
        Each V/rho on FFT grid          2.44 Mb     (  160000)
        Each G-vector array             0.51 Mb     (   66828)
        G-vector shells                 0.18 Mb     (   23357)
     Largest temporary arrays     est. size (Mb)     dimensions
        Auxiliary wavefunctions        12.40 Mb     (    2161,  376)
        Each subspace H/S matrix        2.16 Mb     (     376,  376)
        Each <psi_i|beta_j> matrix      0.31 Mb     (     218,   94)
        Arrays for rho mixing          19.53 Mb     (  160000,    8)

     Initial potential from superposition of free atoms
     Check: negative starting charge=   -0.001541

     starting charge  156.99945, renormalised to  169.00000

     negative rho (up, down):  1.659E-03 0.000E+00


     ************************************************************************
     *
     * You are using vdW-DF for exchange-correlation in this calculation.
     * Please cite the following three references that made this development
     * possible:
     *
     *   M. Dion, H. Rydberg, E. Schroder, D. C. Langreth, and
     *   B. I. Lundqvist, Phys. Rev. Lett. 92, 246401 (2004).
     *
     *   T. Thonhauser, V. R. Cooper, S. Li, A. Puzder, P. Hyldgaard, and
     *   D. C. Langreth, Phys. Rev. B 76, 125112 (2007).
     *
     *   G. Roman-Perez and J. M. Soler, Phys. Rev. Lett. 103, 096102 (2009).
     *
     *
     * If you are using vdW-DF2, please also cite:
     *
     *   K. Lee, E. D. Murray, L. Kong, B. I. Lundqvist, and
     *   D. C. Langreth, Phys. Rev. B 82, 081101(R) (2010).
     *
     *
     * If you are calculating the stress with vdW-DF, please also cite:
     *
     *   R. Sabatini, E. Kucukbenli, B. Kolb, T. Thonhauser, and
     *   S. de Gironcoli, J. Phys.: Condens. Matter 24, 424209 (2012).
     *
     ************************************************************************

     Carrying out vdW-DF run using the following parameters:

     Nqs =      20    Nr_points =    1024   r_max =   100.000
     q_mesh =
               0.00001000     0.04494208     0.09755937     0.15916263
               0.23128650     0.31572767     0.41458969     0.53033537
               0.66584808     0.82450364     1.01025438     1.22772762
               1.48234092     1.78043706     2.12944203     2.53805004
               3.01644009     3.57652955     4.23227104     5.00000000

     Gradients computed in reciprocal space

     ************************************************************************


 
     Adding external electric field

     Computed dipole along edir(3) : 
        Dipole               -0.5538 Ry au,         -1.4075 Debye
        Dipole field         -0.0010 Ry au
 
        Potential amp.        0.0895 Ry
        Total length         43.3566 bohr
 
     Starting wfc are  109 randomized atomic wfcs

     total cpu time spent up to now is       14.1 secs

     per-process dynamical memory:    86.5 Mb

     Self-consistent Calculation

     iteration #  1     ecut=    36.75 Ry     beta=0.20
     Davidson diagonalization with overlap
     ethr =  1.00E-02,  avg # of iterations =  4.8

     negative rho (up, down):  4.982E-04 0.000E+00
 
     Adding external electric field

     Computed dipole along edir(3) : 
        Dipole                3.4956 Ry au,          8.8848 Debye
        Dipole field          0.0065 Ry au
 
        Potential amp.       -0.5650 Ry
        Total length         43.3566 bohr
 

     total cpu time spent up to now is       47.7 secs

     total energy              =   -1929.76692934 Ry
     Harris-Foulkes estimate   =   -1935.15966061 Ry
     estimated scf accuracy    <      16.31857915 Ry

     iteration #  2     ecut=    36.75 Ry     beta=0.20
     Davidson diagonalization with overlap
     ethr =  9.66E-03,  avg # of iterations =  4.3

     negative rho (up, down):  1.997E-04 0.000E+00
 
     Adding external electric field

     Computed dipole along edir(3) : 
        Dipole               -1.0156 Ry au,         -2.5814 Debye
        Dipole field         -0.0019 Ry au
 
        Potential amp.        0.1641 Ry
        Total length         43.3566 bohr
 

     total cpu time spent up to now is       74.1 secs

     total energy              =   -1927.89825058 Ry
     Harris-Foulkes estimate   =   -1933.24510968 Ry
     estimated scf accuracy    <      60.49448994 Ry

     iteration #  3     ecut=    36.75 Ry     beta=0.20
     Davidson diagonalization with overlap
     ethr =  9.66E-03,  avg # of iterations =  5.0

     negative rho (up, down):  1.108E-04 0.000E+00
 
     Adding external electric field

     Computed dipole along edir(3) : 
        Dipole               -0.4981 Ry au,         -1.2662 Debye
        Dipole field         -0.0009 Ry au
 
        Potential amp.        0.0805 Ry
        Total length         43.3566 bohr
 

     total cpu time spent up to now is      101.5 secs

     total energy              =   -1929.24581202 Ry
     Harris-Foulkes estimate   =   -1931.30003984 Ry
     estimated scf accuracy    <      10.76705708 Ry

     iteration #  4     ecut=    36.75 Ry     beta=0.20
     Davidson diagonalization with overlap
     ethr =  6.37E-03,  avg # of iterations =  2.4

     negative rho (up, down):  9.871E-05 0.000E+00
 
     Adding external electric field

     Computed dipole along edir(3) : 
        Dipole               -0.4140 Ry au,         -1.0523 Debye
        Dipole field         -0.0008 Ry au
 
        Potential amp.        0.0669 Ry
        Total length         43.3566 bohr
 

     total cpu time spent up to now is      125.5 secs

     total energy              =   -1929.18728699 Ry
     Harris-Foulkes estimate   =   -1929.90226287 Ry
     estimated scf accuracy    <       2.16325229 Ry

     iteration #  5     ecut=    36.75 Ry     beta=0.20
     Davidson diagonalization with overlap
     ethr =  1.28E-03,  avg # of iterations =  2.4

     negative rho (up, down):  1.361E-04 0.000E+00
 
     Adding external electric field

     Computed dipole along edir(3) : 
        Dipole               -0.1690 Ry au,         -0.4295 Debye
        Dipole field         -0.0003 Ry au
 
        Potential amp.        0.0273 Ry
        Total length         43.3566 bohr
 

     total cpu time spent up to now is      149.2 secs

     total energy              =   -1929.33479620 Ry
     Harris-Foulkes estimate   =   -1929.40303992 Ry
     estimated scf accuracy    <       0.23051714 Ry

     iteration #  6     ecut=    36.75 Ry     beta=0.20
     Davidson diagonalization with overlap
     ethr =  1.36E-04,  avg # of iterations =  5.0

     negative rho (up, down):  2.211E-04 0.000E+00
 
     Adding external electric field

     Computed dipole along edir(3) : 
        Dipole                0.0081 Ry au,          0.0206 Debye
        Dipole field          0.0000 Ry au
 
        Potential amp.       -0.0013 Ry
        Total length         43.3566 bohr
 

     total cpu time spent up to now is      184.3 secs

     total energy              =   -1929.42411966 Ry
     Harris-Foulkes estimate   =   -1929.45556859 Ry
     estimated scf accuracy    <       0.08458689 Ry

     iteration #  7     ecut=    36.75 Ry     beta=0.20
     Davidson diagonalization with overlap
     ethr =  5.01E-05,  avg # of iterations =  4.5

     negative rho (up, down):  2.363E-04 0.000E+00
 
     Adding external electric field

     Computed dipole along edir(3) : 
        Dipole               -0.0254 Ry au,         -0.0644 Debye
        Dipole field         -0.0000 Ry au
 
        Potential amp.        0.0041 Ry
        Total length         43.3566 bohr
 

     total cpu time spent up to now is      210.5 secs

     total energy              =   -1929.43811899 Ry
     Harris-Foulkes estimate   =   -1929.44362715 Ry
     estimated scf accuracy    <       0.04063551 Ry

     iteration #  8     ecut=    36.75 Ry     beta=0.20
     Davidson diagonalization with overlap
     ethr =  2.40E-05,  avg # of iterations =  1.9

     negative rho (up, down):  4.149E-04 0.000E+00
 
     Adding external electric field

     Computed dipole along edir(3) : 
        Dipole               -0.0132 Ry au,         -0.0336 Debye
        Dipole field         -0.0000 Ry au
 
        Potential amp.        0.0021 Ry
        Total length         43.3566 bohr
 

     total cpu time spent up to now is      233.7 secs

     total energy              =   -1929.43724095 Ry
     Harris-Foulkes estimate   =   -1929.43946840 Ry
     estimated scf accuracy    <       0.00961288 Ry

     iteration #  9     ecut=    36.75 Ry     beta=0.20
     Davidson diagonalization with overlap
     ethr =  5.69E-06,  avg # of iterations =  3.5

     negative rho (up, down):  4.374E-04 0.000E+00
 
     Adding external electric field

     Computed dipole along edir(3) : 
        Dipole               -0.0216 Ry au,         -0.0550 Debye
        Dipole field         -0.0000 Ry au
 
        Potential amp.        0.0035 Ry
        Total length         43.3566 bohr
 

     total cpu time spent up to now is      259.5 secs

     total energy              =   -1929.43820242 Ry
     Harris-Foulkes estimate   =   -1929.43840197 Ry
     estimated scf accuracy    <       0.00140830 Ry

     iteration # 10     ecut=    36.75 Ry     beta=0.20
     Davidson diagonalization with overlap
     ethr =  8.33E-07,  avg # of iterations =  3.6

     negative rho (up, down):  4.263E-04 0.000E+00
 
     Adding external electric field

     Computed dipole along edir(3) : 
        Dipole               -0.0118 Ry au,         -0.0301 Debye
        Dipole field         -0.0000 Ry au
 
        Potential amp.        0.0019 Ry
        Total length         43.3566 bohr
 

     total cpu time spent up to now is      284.9 secs

     total energy              =   -1929.43833672 Ry
     Harris-Foulkes estimate   =   -1929.43839196 Ry
     estimated scf accuracy    <       0.00058081 Ry

     iteration # 11     ecut=    36.75 Ry     beta=0.20
     Davidson diagonalization with overlap
     ethr =  3.44E-07,  avg # of iterations =  3.0

     negative rho (up, down):  4.555E-04 0.000E+00
 
     Adding external electric field

     Computed dipole along edir(3) : 
        Dipole               -0.0168 Ry au,         -0.0427 Debye
        Dipole field         -0.0000 Ry au
 
        Potential amp.        0.0027 Ry
        Total length         43.3566 bohr
 

     total cpu time spent up to now is      309.3 secs

     total energy              =   -1929.43836699 Ry
     Harris-Foulkes estimate   =   -1929.43840375 Ry
     estimated scf accuracy    <       0.00025430 Ry

     iteration # 12     ecut=    36.75 Ry     beta=0.20
     Davidson diagonalization with overlap
     ethr =  1.50E-07,  avg # of iterations =  3.2

     negative rho (up, down):  4.700E-04 0.000E+00
 
     Adding external electric field

     Computed dipole along edir(3) : 
        Dipole               -0.0142 Ry au,         -0.0362 Debye
        Dipole field         -0.0000 Ry au
 
        Potential amp.        0.0023 Ry
        Total length         43.3566 bohr
 

     total cpu time spent up to now is      335.5 secs

     total energy              =   -1929.43839933 Ry
     Harris-Foulkes estimate   =   -1929.43843263 Ry
     estimated scf accuracy    <       0.00013381 Ry

     iteration # 13     ecut=    36.75 Ry     beta=0.20
     Davidson diagonalization with overlap
     ethr =  7.92E-08,  avg # of iterations =  3.2

     negative rho (up, down):  4.084E-04 0.000E+00
 
     Adding external electric field

     Computed dipole along edir(3) : 
        Dipole               -0.0144 Ry au,         -0.0367 Debye
        Dipole field         -0.0000 Ry au
 
        Potential amp.        0.0023 Ry
        Total length         43.3566 bohr
 

     total cpu time spent up to now is      360.9 secs

     End of self-consistent calculation

          k = 0.0000 0.0000 0.0000 ( 25377 PWs)   bands (ev):

   -21.4151 -21.3897 -21.3897 -21.3596 -21.3447 -21.3447 -21.3424 -21.3400
   -21.3319 -21.3319 -21.3219 -21.3219 -21.3004 -21.2973 -21.2912 -21.2912
   -21.2880 -21.2880 -21.2876 -21.2796 -21.2796 -21.2782 -21.2725 -21.2725
   -21.2711 -21.2711 -21.2523 -21.2523 -21.2511 -21.2462 -21.2449 -21.2422
   -21.2422 -21.2259 -21.2259 -21.2179 -21.2179 -21.2133 -21.1835 -21.1813
   -21.1813 -21.1759 -21.1759 -21.1632 -21.1632 -21.1572 -21.1410 -21.1410
   -21.1378 -21.1326 -21.1288 -21.1288 -21.1197 -21.1197 -21.1097 -21.1088
   -21.1088 -21.0997 -21.0996 -21.0952 -10.0499  -8.9632  -7.2824  -5.9475
    -5.9460  -5.9460  -5.6495  -5.4942  -5.4942  -4.9356  -4.6265  -4.6265
    -3.8034  -3.2703  -3.2703  -2.9947  -2.4789  -2.0139  -2.0139  -1.9320
    -1.8890  -1.8890  -0.2052   1.0522   1.6267   1.6267   1.6837   1.7221
     1.7221   2.7280   3.1809   3.2612   3.2613   3.9450

          k = 0.0000 0.1925 0.0000 ( 25365 PWs)   bands (ev):

   -21.4074 -21.3846 -21.3791 -21.3560 -21.3432 -21.3381 -21.3372 -21.3334
   -21.3286 -21.3232 -21.3202 -21.3159 -21.2979 -21.2957 -21.2924 -21.2920
   -21.2881 -21.2879 -21.2856 -21.2790 -21.2758 -21.2753 -21.2709 -21.2698
   -21.2670 -21.2628 -21.2558 -21.2512 -21.2490 -21.2469 -21.2458 -21.2421
   -21.2333 -21.2296 -21.2275 -21.2206 -21.2194 -21.2145 -21.1878 -21.1870
   -21.1845 -21.1786 -21.1785 -21.1678 -21.1661 -21.1632 -21.1446 -21.1415
   -21.1402 -21.1375 -21.1319 -21.1306 -21.1277 -21.1248 -21.1171 -21.1140
   -21.1119 -21.1073 -21.1028 -21.1018  -9.9229  -8.8408  -7.1958  -6.8930
    -6.2691  -6.2248  -5.9407  -5.4829  -5.4146  -4.8093  -4.5625  -4.5412
    -3.4927  -2.9759  -2.8963  -2.6910  -2.4183  -2.1454  -1.9885  -1.3951
    -1.2555  -0.6756  -0.1770   0.4848   0.9832   1.1777   1.9975   2.0713
     2.3291   2.4492   2.4923   2.6493   3.0709   3.3108

          k = 0.0000 0.3849 0.0000 ( 25367 PWs)   bands (ev):

   -21.3935 -21.3669 -21.3511 -21.3483 -21.3429 -21.3313 -21.3254 -21.3205
   -21.3158 -21.3074 -21.3041 -21.3014 -21.2983 -21.2971 -21.2942 -21.2919
   -21.2884 -21.2864 -21.2842 -21.2787 -21.2736 -21.2731 -21.2655 -21.2630
   -21.2569 -21.2561 -21.2529 -21.2513 -21.2458 -21.2421 -21.2402 -21.2381
   -21.2380 -21.2344 -21.2272 -21.2265 -21.2113 -21.2090 -21.1999 -21.1989
   -21.1896 -21.1878 -21.1808 -21.1803 -21.1712 -21.1657 -21.1567 -21.1538
   -21.1512 -21.1469 -21.1454 -21.1411 -21.1391 -21.1379 -21.1328 -21.1320
   -21.1239 -21.1193 -21.1054 -21.1039  -9.5421  -8.4855  -8.0078  -7.0751
    -6.7108  -6.5381  -6.5267  -5.6787  -5.5323  -5.3096  -4.4472  -4.3595
    -2.9890  -2.3192  -2.2950  -1.9128  -1.5531  -1.2881  -1.0126  -0.6377
    -0.4658  -0.1944   0.1611   0.4885   0.5151   1.0220   1.3349   1.3378
     1.6572   1.7874   1.9960   2.5411   2.6051   2.9904

          k = 0.0000-0.5774 0.0000 ( 25386 PWs)   bands (ev):

   -21.3874 -21.3529 -21.3461 -21.3330 -21.3275 -21.3216 -21.3213 -21.3152
   -21.3148 -21.3097 -21.3074 -21.3072 -21.3045 -21.2958 -21.2891 -21.2879
   -21.2789 -21.2768 -21.2727 -21.2710 -21.2709 -21.2705 -21.2698 -21.2626
   -21.2612 -21.2596 -21.2537 -21.2534 -21.2471 -21.2464 -21.2412 -21.2410
   -21.2393 -21.2280 -21.2238 -21.2155 -21.2138 -21.2102 -21.1965 -21.1931
   -21.1888 -21.1869 -21.1807 -21.1763 -21.1753 -21.1689 -21.1673 -21.1644
   -21.1635 -21.1622 -21.1607 -21.1606 -21.1479 -21.1447 -21.1387 -21.1384
   -21.1251 -21.1220 -21.1056 -21.1039  -8.9477  -8.8713  -7.9775  -7.7000
    -6.7167  -6.6361  -6.3082  -6.0328  -5.6488  -5.6058  -4.4035  -4.3192
    -2.6277  -1.5888  -1.4902  -1.4425  -1.3454  -1.2625  -0.8256  -0.3107
    -0.2206  -0.1102   0.4089   0.6860   0.9110   1.0171   1.0673   1.3284
     1.4734   1.6615   1.7889   1.9513   1.9741   2.0005

          k = 0.1667-0.0962 0.0000 ( 25365 PWs)   bands (ev):

   -21.4074 -21.3846 -21.3791 -21.3560 -21.3432 -21.3381 -21.3372 -21.3334
   -21.3286 -21.3232 -21.3202 -21.3159 -21.2979 -21.2957 -21.2924 -21.2920
   -21.2881 -21.2879 -21.2856 -21.2790 -21.2758 -21.2753 -21.2709 -21.2698
   -21.2670 -21.2628 -21.2558 -21.2512 -21.2490 -21.2469 -21.2458 -21.2421
   -21.2333 -21.2296 -21.2275 -21.2206 -21.2194 -21.2145 -21.1878 -21.1870
   -21.1845 -21.1786 -21.1785 -21.1678 -21.1661 -21.1632 -21.1446 -21.1415
   -21.1402 -21.1375 -21.1319 -21.1306 -21.1277 -21.1248 -21.1171 -21.1140
   -21.1119 -21.1073 -21.1028 -21.1018  -9.9229  -8.8408  -7.1958  -6.8930
    -6.2691  -6.2248  -5.9407  -5.4829  -5.4146  -4.8093  -4.5625  -4.5412
    -3.4927  -2.9759  -2.8963  -2.6909  -2.4183  -2.1454  -1.9885  -1.3951
    -1.2555  -0.6756  -0.1770   0.4848   0.9832   1.1777   1.9975   2.0713
     2.3291   2.4492   2.4923   2.6493   3.0709   3.3109

          k = 0.1667 0.0962 0.0000 ( 25365 PWs)   bands (ev):

   -21.4074 -21.3846 -21.3791 -21.3560 -21.3432 -21.3381 -21.3372 -21.3334
   -21.3286 -21.3232 -21.3202 -21.3159 -21.2979 -21.2957 -21.2924 -21.2920
   -21.2881 -21.2879 -21.2856 -21.2790 -21.2758 -21.2753 -21.2709 -21.2698
   -21.2670 -21.2628 -21.2558 -21.2512 -21.2490 -21.2469 -21.2458 -21.2421
   -21.2333 -21.2296 -21.2275 -21.2206 -21.2194 -21.2145 -21.1878 -21.1870
   -21.1845 -21.1786 -21.1785 -21.1678 -21.1661 -21.1632 -21.1446 -21.1415
   -21.1402 -21.1375 -21.1319 -21.1306 -21.1277 -21.1248 -21.1171 -21.1140
   -21.1119 -21.1073 -21.1028 -21.1018  -9.9229  -8.8408  -7.1958  -6.8930
    -6.2691  -6.2249  -5.9407  -5.4829  -5.4146  -4.8093  -4.5625  -4.5412
    -3.4927  -2.9759  -2.8963  -2.6909  -2.4183  -2.1454  -1.9885  -1.3951
    -1.2555  -0.6756  -0.1770   0.4848   0.9832   1.1777   1.9975   2.0713
     2.3291   2.4492   2.4923   2.6494   3.0709   3.3110

          k = 0.1667 0.2887 0.0000 ( 25362 PWs)   bands (ev):

   -21.3944 -21.3768 -21.3586 -21.3491 -21.3394 -21.3329 -21.3280 -21.3263
   -21.3198 -21.3171 -21.3053 -21.3023 -21.3016 -21.2951 -21.2919 -21.2905
   -21.2890 -21.2866 -21.2855 -21.2794 -21.2774 -21.2725 -21.2650 -21.2616
   -21.2585 -21.2556 -21.2550 -21.2523 -21.2470 -21.2441 -21.2423 -21.2402
   -21.2366 -21.2334 -21.2266 -21.2234 -21.2219 -21.2048 -21.2009 -21.1943
   -21.1896 -21.1827 -21.1805 -21.1785 -21.1690 -21.1675 -21.1530 -21.1517
   -21.1467 -21.1414 -21.1401 -21.1399 -21.1341 -21.1335 -21.1308 -21.1236
   -21.1163 -21.1150 -21.1092 -21.1084  -9.6689  -8.5994  -7.4482  -7.3668
    -6.9396  -6.3959  -6.2598  -5.6065  -5.2138  -4.9817  -4.7827  -4.4481
    -3.2247  -2.7033  -2.1231  -1.9905  -1.8470  -1.5921  -1.3095  -1.1426
    -0.3505  -0.1457  -0.0332   0.5071   0.5584   0.6370   1.2588   1.9575
     2.1540   2.2424   2.3383   2.5657   2.6869   2.8994

          k = 0.1667-0.6736 0.0000 ( 25368 PWs)   bands (ev):

   -21.3805 -21.3590 -21.3449 -21.3394 -21.3250 -21.3244 -21.3203 -21.3173
   -21.3135 -21.3098 -21.3068 -21.3026 -21.2969 -21.2949 -21.2918 -21.2891
   -21.2840 -21.2804 -21.2762 -21.2738 -21.2725 -21.2715 -21.2648 -21.2626
   -21.2595 -21.2557 -21.2534 -21.2499 -21.2481 -21.2458 -21.2442 -21.2383
   -21.2343 -21.2295 -21.2249 -21.2195 -21.2134 -21.2058 -21.2014 -21.1993
   -21.1931 -21.1886 -21.1847 -21.1788 -21.1732 -21.1717 -21.1680 -21.1652
   -21.1631 -21.1586 -21.1519 -21.1466 -21.1429 -21.1411 -21.1391 -21.1342
   -21.1281 -21.1235 -21.1117 -21.1101  -9.1633  -8.4211  -8.1014  -7.6401
    -7.3254  -6.6397  -6.3356  -5.6885  -5.5498  -5.0265  -4.8337  -4.2572
    -2.8082  -2.1381  -1.6284  -1.3640  -1.1531  -0.9556  -0.7028  -0.4931
    -0.2963  -0.1405   0.1711   0.5501   0.7804   0.8889   1.1546   1.4446
     1.8487   1.9903   2.1070   2.2269   2.3338   2.5689

          k = 0.1667-0.4811 0.0000 ( 25368 PWs)   bands (ev):

   -21.3805 -21.3590 -21.3449 -21.3394 -21.3250 -21.3244 -21.3203 -21.3173
   -21.3135 -21.3098 -21.3068 -21.3026 -21.2969 -21.2949 -21.2918 -21.2891
   -21.2840 -21.2805 -21.2762 -21.2738 -21.2725 -21.2715 -21.2648 -21.2626
   -21.2595 -21.2557 -21.2534 -21.2499 -21.2481 -21.2458 -21.2442 -21.2383
   -21.2343 -21.2295 -21.2249 -21.2195 -21.2134 -21.2058 -21.2014 -21.1993
   -21.1931 -21.1886 -21.1847 -21.1788 -21.1732 -21.1717 -21.1680 -21.1652
   -21.1631 -21.1586 -21.1519 -21.1466 -21.1429 -21.1411 -21.1391 -21.1342
   -21.1281 -21.1235 -21.1117 -21.1101  -9.1633  -8.4211  -8.1013  -7.6401
    -7.3254  -6.6397  -6.3357  -5.6885  -5.5498  -5.0265  -4.8337  -4.2572
    -2.8082  -2.1381  -1.6284  -1.3640  -1.1531  -0.9556  -0.7028  -0.4931
    -0.2963  -0.1405   0.1711   0.5501   0.7804   0.8889   1.1546   1.4446
     1.8487   1.9903   2.1069   2.2269   2.3338   2.5690

          k = 0.1667-0.2887 0.0000 ( 25362 PWs)   bands (ev):

   -21.3944 -21.3768 -21.3586 -21.3491 -21.3394 -21.3329 -21.3280 -21.3263
   -21.3198 -21.3171 -21.3053 -21.3023 -21.3016 -21.2951 -21.2919 -21.2905
   -21.2890 -21.2866 -21.2855 -21.2794 -21.2774 -21.2725 -21.2650 -21.2615
   -21.2585 -21.2556 -21.2550 -21.2523 -21.2470 -21.2441 -21.2423 -21.2402
   -21.2366 -21.2334 -21.2266 -21.2234 -21.2219 -21.2048 -21.2009 -21.1943
   -21.1896 -21.1827 -21.1805 -21.1785 -21.1690 -21.1675 -21.1530 -21.1517
   -21.1468 -21.1414 -21.1401 -21.1399 -21.1341 -21.1335 -21.1308 -21.1236
   -21.1163 -21.1150 -21.1092 -21.1084  -9.6689  -8.5994  -7.4483  -7.3668
    -6.9396  -6.3960  -6.2598  -5.6065  -5.2138  -4.9817  -4.7827  -4.4481
    -3.2246  -2.7033  -2.1231  -1.9905  -1.8469  -1.5920  -1.3095  -1.1426
    -0.3505  -0.1457  -0.0332   0.5071   0.5584   0.6371   1.2588   1.9575
     2.1540   2.2424   2.3383   2.5657   2.6870   2.8994

          k = 0.3333-0.1925 0.0000 ( 25367 PWs)   bands (ev):

   -21.3935 -21.3669 -21.3511 -21.3483 -21.3429 -21.3313 -21.3254 -21.3205
   -21.3158 -21.3074 -21.3041 -21.3014 -21.2983 -21.2971 -21.2942 -21.2919
   -21.2884 -21.2864 -21.2842 -21.2787 -21.2736 -21.2731 -21.2655 -21.2630
   -21.2569 -21.2561 -21.2529 -21.2513 -21.2458 -21.2421 -21.2402 -21.2381
   -21.2380 -21.2344 -21.2272 -21.2264 -21.2113 -21.2090 -21.1999 -21.1989
   -21.1896 -21.1878 -21.1808 -21.1803 -21.1712 -21.1657 -21.1567 -21.1538
   -21.1512 -21.1469 -21.1454 -21.1411 -21.1391 -21.1379 -21.1328 -21.1320
   -21.1239 -21.1194 -21.1054 -21.1039  -9.5421  -8.4855  -8.0078  -7.0751
    -6.7108  -6.5381  -6.5267  -5.6787  -5.5323  -5.3096  -4.4472  -4.3595
    -2.9890  -2.3192  -2.2950  -1.9128  -1.5531  -1.2881  -1.0126  -0.6377
    -0.4658  -0.1944   0.1611   0.4885   0.5151   1.0220   1.3349   1.3378
     1.6572   1.7874   1.9960   2.5411   2.6051   2.9904

          k = 0.3333 0.0000 0.0000 ( 25362 PWs)   bands (ev):

   -21.3944 -21.3768 -21.3586 -21.3491 -21.3394 -21.3329 -21.3280 -21.3263
   -21.3198 -21.3171 -21.3053 -21.3023 -21.3016 -21.2951 -21.2919 -21.2905
   -21.2890 -21.2866 -21.2855 -21.2794 -21.2774 -21.2725 -21.2650 -21.2616
   -21.2585 -21.2556 -21.2550 -21.2523 -21.2470 -21.2441 -21.2423 -21.2402
   -21.2366 -21.2334 -21.2266 -21.2234 -21.2219 -21.2048 -21.2009 -21.1943
   -21.1896 -21.1827 -21.1805 -21.1785 -21.1690 -21.1675 -21.1530 -21.1517
   -21.1468 -21.1414 -21.1401 -21.1399 -21.1341 -21.1335 -21.1308 -21.1236
   -21.1163 -21.1150 -21.1092 -21.1084  -9.6689  -8.5994  -7.4482  -7.3668
    -6.9396  -6.3959  -6.2598  -5.6065  -5.2138  -4.9817  -4.7827  -4.4481
    -3.2247  -2.7033  -2.1231  -1.9905  -1.8469  -1.5921  -1.3095  -1.1426
    -0.3505  -0.1457  -0.0332   0.5071   0.5584   0.6370   1.2588   1.9575
     2.1540   2.2424   2.3383   2.5657   2.6869   2.8994

          k = 0.3333 0.1925 0.0000 ( 25367 PWs)   bands (ev):

   -21.3935 -21.3669 -21.3511 -21.3483 -21.3429 -21.3313 -21.3254 -21.3205
   -21.3158 -21.3074 -21.3041 -21.3014 -21.2983 -21.2971 -21.2942 -21.2919
   -21.2884 -21.2864 -21.2842 -21.2787 -21.2736 -21.2731 -21.2655 -21.2630
   -21.2569 -21.2561 -21.2529 -21.2513 -21.2458 -21.2421 -21.2402 -21.2381
   -21.2380 -21.2344 -21.2272 -21.2264 -21.2113 -21.2090 -21.1999 -21.1989
   -21.1896 -21.1878 -21.1808 -21.1803 -21.1712 -21.1657 -21.1567 -21.1538
   -21.1512 -21.1469 -21.1454 -21.1411 -21.1391 -21.1379 -21.1328 -21.1320
   -21.1239 -21.1193 -21.1054 -21.1039  -9.5421  -8.4855  -8.0078  -7.0751
    -6.7108  -6.5381  -6.5267  -5.6787  -5.5323  -5.3096  -4.4472  -4.3595
    -2.9890  -2.3192  -2.2950  -1.9128  -1.5531  -1.2881  -1.0126  -0.6377
    -0.4658  -0.1944   0.1611   0.4885   0.5151   1.0220   1.3349   1.3378
     1.6572   1.7874   1.9960   2.5411   2.6051   2.9904

          k = 0.3333-0.7698 0.0000 ( 25368 PWs)   bands (ev):

   -21.3805 -21.3590 -21.3449 -21.3394 -21.3250 -21.3244 -21.3203 -21.3173
   -21.3135 -21.3098 -21.3068 -21.3026 -21.2969 -21.2949 -21.2918 -21.2891
   -21.2840 -21.2804 -21.2762 -21.2738 -21.2725 -21.2715 -21.2648 -21.2626
   -21.2595 -21.2557 -21.2534 -21.2499 -21.2481 -21.2458 -21.2442 -21.2383
   -21.2343 -21.2295 -21.2249 -21.2195 -21.2134 -21.2058 -21.2014 -21.1993
   -21.1931 -21.1886 -21.1847 -21.1788 -21.1732 -21.1717 -21.1680 -21.1652
   -21.1631 -21.1586 -21.1519 -21.1466 -21.1429 -21.1411 -21.1391 -21.1342
   -21.1281 -21.1235 -21.1117 -21.1101  -9.1633  -8.4211  -8.1013  -7.6401
    -7.3254  -6.6397  -6.3356  -5.6885  -5.5498  -5.0265  -4.8337  -4.2572
    -2.8082  -2.1381  -1.6284  -1.3640  -1.1531  -0.9556  -0.7028  -0.4931
    -0.2964  -0.1405   0.1711   0.5501   0.7803   0.8889   1.1546   1.4446
     1.8487   1.9903   2.1069   2.2269   2.3338   2.5689

          k = 0.3333-0.5774 0.0000 ( 25314 PWs)   bands (ev):

   -21.3602 -21.3547 -21.3534 -21.3376 -21.3303 -21.3175 -21.3154 -21.3142
   -21.3094 -21.3062 -21.3015 -21.2972 -21.2957 -21.2931 -21.2879 -21.2868
   -21.2828 -21.2801 -21.2786 -21.2753 -21.2752 -21.2740 -21.2712 -21.2645
   -21.2611 -21.2570 -21.2541 -21.2509 -21.2469 -21.2432 -21.2316 -21.2292
   -21.2279 -21.2263 -21.2234 -21.2202 -21.2164 -21.2161 -21.2084 -21.1994
   -21.1954 -21.1889 -21.1878 -21.1854 -21.1755 -21.1717 -21.1715 -21.1706
   -21.1640 -21.1583 -21.1486 -21.1481 -21.1433 -21.1400 -21.1387 -21.1368
   -21.1334 -21.1263 -21.1247 -21.1151  -8.6132  -8.5100  -8.4738  -7.6887
    -7.3304  -7.3268  -6.0053  -5.7055  -5.6670  -4.7599  -4.5609  -4.5098
    -2.7778  -1.7213  -1.6303  -1.5174  -1.2350  -1.2123  -0.6109  -0.1782
    -0.1203   0.4078   0.6341   0.6577   0.9872   1.2440   1.2729   1.4490
     1.5940   1.7045   1.9343   2.2170   2.2361   2.9393

          k = 0.3333-0.3849 0.0000 ( 25368 PWs)   bands (ev):

   -21.3805 -21.3590 -21.3449 -21.3394 -21.3250 -21.3244 -21.3203 -21.3173
   -21.3135 -21.3098 -21.3068 -21.3026 -21.2969 -21.2949 -21.2918 -21.2891
   -21.2840 -21.2805 -21.2762 -21.2738 -21.2725 -21.2715 -21.2648 -21.2626
   -21.2595 -21.2557 -21.2534 -21.2499 -21.2481 -21.2458 -21.2442 -21.2383
   -21.2343 -21.2295 -21.2249 -21.2195 -21.2134 -21.2058 -21.2014 -21.1993
   -21.1931 -21.1886 -21.1847 -21.1788 -21.1732 -21.1717 -21.1680 -21.1652
   -21.1631 -21.1586 -21.1519 -21.1466 -21.1429 -21.1411 -21.1391 -21.1342
   -21.1281 -21.1235 -21.1118 -21.1101  -9.1633  -8.4211  -8.1013  -7.6401
    -7.3254  -6.6397  -6.3357  -5.6885  -5.5498  -5.0265  -4.8337  -4.2572
    -2.8082  -2.1381  -1.6284  -1.3640  -1.1531  -0.9556  -0.7028  -0.4931
    -0.2963  -0.1405   0.1711   0.5501   0.7803   0.8889   1.1546   1.4446
     1.8487   1.9903   2.1070   2.2269   2.3338   2.5689

          k =-0.5000 0.2887 0.0000 ( 25386 PWs)   bands (ev):

   -21.3874 -21.3529 -21.3461 -21.3330 -21.3275 -21.3216 -21.3213 -21.3152
   -21.3148 -21.3097 -21.3074 -21.3072 -21.3045 -21.2958 -21.2891 -21.2879
   -21.2789 -21.2768 -21.2727 -21.2710 -21.2709 -21.2705 -21.2698 -21.2626
   -21.2612 -21.2596 -21.2537 -21.2534 -21.2471 -21.2464 -21.2412 -21.2410
   -21.2393 -21.2280 -21.2238 -21.2155 -21.2138 -21.2102 -21.1965 -21.1931
   -21.1888 -21.1869 -21.1807 -21.1763 -21.1753 -21.1688 -21.1673 -21.1644
   -21.1635 -21.1622 -21.1607 -21.1606 -21.1479 -21.1447 -21.1387 -21.1384
   -21.1251 -21.1220 -21.1056 -21.1039  -8.9477  -8.8713  -7.9775  -7.7000
    -6.7167  -6.6361  -6.3082  -6.0328  -5.6488  -5.6058  -4.4035  -4.3192
    -2.6277  -1.5888  -1.4902  -1.4425  -1.3454  -1.2625  -0.8256  -0.3107
    -0.2206  -0.1102   0.4089   0.6860   0.9110   1.0171   1.0673   1.3284
     1.4734   1.6615   1.7889   1.9513   1.9741   2.0005

          k =-0.5000 0.4811 0.0000 ( 25368 PWs)   bands (ev):

   -21.3805 -21.3590 -21.3449 -21.3394 -21.3250 -21.3244 -21.3203 -21.3173
   -21.3135 -21.3098 -21.3068 -21.3026 -21.2969 -21.2949 -21.2918 -21.2891
   -21.2840 -21.2804 -21.2762 -21.2738 -21.2725 -21.2715 -21.2648 -21.2626
   -21.2595 -21.2557 -21.2534 -21.2499 -21.2481 -21.2458 -21.2442 -21.2383
   -21.2343 -21.2294 -21.2249 -21.2195 -21.2134 -21.2058 -21.2014 -21.1993
   -21.1931 -21.1886 -21.1847 -21.1788 -21.1732 -21.1717 -21.1680 -21.1652
   -21.1631 -21.1586 -21.1519 -21.1466 -21.1429 -21.1411 -21.1391 -21.1342
   -21.1281 -21.1235 -21.1118 -21.1101  -9.1633  -8.4211  -8.1014  -7.6401
    -7.3254  -6.6397  -6.3356  -5.6885  -5.5498  -5.0265  -4.8337  -4.2571
    -2.8082  -2.1381  -1.6284  -1.3640  -1.1531  -0.9556  -0.7028  -0.4931
    -0.2963  -0.1405   0.1711   0.5501   0.7803   0.8890   1.1546   1.4446
     1.8487   1.9903   2.1070   2.2269   2.3338   2.5690

          k =-0.5000 0.6736 0.0000 ( 25368 PWs)   bands (ev):

   -21.3805 -21.3590 -21.3449 -21.3394 -21.3250 -21.3244 -21.3203 -21.3173
   -21.3135 -21.3098 -21.3068 -21.3026 -21.2969 -21.2949 -21.2918 -21.2891
   -21.2840 -21.2804 -21.2762 -21.2738 -21.2725 -21.2715 -21.2648 -21.2626
   -21.2595 -21.2557 -21.2534 -21.2499 -21.2481 -21.2458 -21.2442 -21.2383
   -21.2343 -21.2295 -21.2249 -21.2195 -21.2134 -21.2058 -21.2014 -21.1993
   -21.1931 -21.1886 -21.1847 -21.1788 -21.1732 -21.1717 -21.1680 -21.1652
   -21.1631 -21.1586 -21.1519 -21.1466 -21.1429 -21.1411 -21.1391 -21.1342
   -21.1281 -21.1235 -21.1117 -21.1101  -9.1633  -8.4211  -8.1013  -7.6401
    -7.3254  -6.6397  -6.3357  -5.6885  -5.5498  -5.0265  -4.8337  -4.2571
    -2.8082  -2.1381  -1.6284  -1.3640  -1.1531  -0.9556  -0.7028  -0.4931
    -0.2963  -0.1406   0.1711   0.5501   0.7803   0.8889   1.1546   1.4446
     1.8487   1.9903   2.1069   2.2269   2.3338   2.5690

          k =-0.5000-0.2887 0.0000 ( 25386 PWs)   bands (ev):

   -21.3874 -21.3529 -21.3461 -21.3330 -21.3275 -21.3216 -21.3213 -21.3152
   -21.3148 -21.3097 -21.3074 -21.3072 -21.3045 -21.2958 -21.2891 -21.2879
   -21.2789 -21.2768 -21.2727 -21.2710 -21.2709 -21.2705 -21.2698 -21.2626
   -21.2612 -21.2596 -21.2537 -21.2534 -21.2471 -21.2464 -21.2412 -21.2410
   -21.2393 -21.2280 -21.2238 -21.2155 -21.2138 -21.2102 -21.1965 -21.1931
   -21.1888 -21.1869 -21.1807 -21.1763 -21.1753 -21.1689 -21.1673 -21.1644
   -21.1635 -21.1622 -21.1607 -21.1606 -21.1479 -21.1447 -21.1387 -21.1384
   -21.1251 -21.1220 -21.1056 -21.1039  -8.9477  -8.8713  -7.9775  -7.7000
    -6.7167  -6.6361  -6.3082  -6.0328  -5.6488  -5.6058  -4.4035  -4.3192
    -2.6277  -1.5888  -1.4902  -1.4425  -1.3454  -1.2625  -0.8256  -0.3107
    -0.2205  -0.1102   0.4089   0.6860   0.9111   1.0171   1.0673   1.3284
     1.4734   1.6615   1.7889   1.9512   1.9741   2.0005

     the Fermi energy is     0.7458 ev

!    total energy              =   -1929.43841918 Ry
     Harris-Foulkes estimate   =   -1929.43842802 Ry
     estimated scf accuracy    <       0.00001065 Ry

     The total energy is the sum of the following terms:

     one-electron contribution =  -10353.12261085 Ry
     hartree contribution      =    5239.55103926 Ry
     xc contribution           =    -534.56616245 Ry
     ewald contribution        =    3718.74025940 Ry
     electric field correction =       0.00000039 Ry
     smearing contrib. (-TS)   =      -0.04094493 Ry

     convergence has been achieved in  13 iterations

     Forces acting on atoms (Ry/au):


     negative rho (up, down):  4.084E-04 0.000E+00
     atom    1 type  1   force =     0.00002044   -0.00000849   -0.00175318
     atom    2 type  1   force =     0.00000710   -0.00180595    0.00273324
     atom    3 type  1   force =    -0.00157208    0.00090885    0.00277974
     atom    4 type  1   force =     0.00158171    0.00090244    0.00275498
     atom    5 type  1   force =     0.00339395   -0.00197963    0.00156792
     atom    6 type  1   force =    -0.00340856   -0.00198263    0.00154618
     atom    7 type  1   force =    -0.00001191    0.00000412   -0.00542870
     atom    8 type  1   force =    -0.00000926    0.00394928    0.00155473
     atom    9 type  1   force =     0.00008966    0.00005887   -0.00138097
     atom   10 type  1   force =    -0.00008101    0.00004640   -0.00136575
     atom   11 type  1   force =    -0.00000258   -0.00009988   -0.00136914
     atom   12 type  1   force =    -0.00000840    0.00000375   -0.00307957
     atom   13 type  2   force =     0.00000094    0.00000288    0.00144051

     Total force =     0.004152     Total SCF correction =     0.008584
     SCF correction compared to forces is large: reduce conv_thr to get better values

     BFGS Geometry Optimization

     number of scf cycles    =   1
     number of bfgs steps    =   0

     energy   new            =   -1929.4384191811 Ry

     new trust radius        =       0.0030795834 bohr
     new conv_thr            =       0.0001000000 Ry


ATOMIC_POSITIONS (angstrom)
Sn       1.681748263   0.970957812  10.000000000    0   0   0
Sn       5.045244789   0.970957812  10.000000000    0   0   0
Sn       3.363496526   3.883831250  10.000000000    0   0   0
Sn       6.726993052   3.883831250  10.000000000    0   0   0
Sn       6.726993052   1.941915625  12.746283414    0   0   0
Sn       3.363496526   1.941915625  12.746283414    0   0   0
Sn       8.408741315   4.854789062  12.746283414    0   0   0
Sn       5.045244789   4.854789062  12.746283414    0   0   0
Sn       0.000967938   0.000565228  15.543700822
Sn       3.362464567   0.000541218  15.543690212
Sn       1.681750956   2.911695747  15.543679626
Sn       5.045263342   2.912856301  15.470274587
H        1.681759167   0.970963327  16.592459780



     Writing output data file calc.save
     Check: negative starting charge=   -0.001541
     NEW-OLD atomic charge density approx. for the potential
     Check: negative starting charge=   -0.001542

     negative rho (up, down):  4.095E-04 0.000E+00
 
     Adding external electric field

     Computed dipole along edir(3) : 
        Dipole               -0.0216 Ry au,         -0.0550 Debye
        Dipole field         -0.0000 Ry au
 
        Potential amp.        0.0035 Ry
        Total length         43.3566 bohr
 

     total cpu time spent up to now is      386.5 secs

     per-process dynamical memory:   140.0 Mb

     Self-consistent Calculation

     iteration #  1     ecut=    36.75 Ry     beta=0.20
     Davidson diagonalization with overlap
     ethr =  1.00E-06,  avg # of iterations =  3.0

     negative rho (up, down):  4.096E-04 0.000E+00
 
     Adding external electric field

     Computed dipole along edir(3) : 
        Dipole                0.0068 Ry au,          0.0173 Debye
        Dipole field          0.0000 Ry au
 
        Potential amp.       -0.0011 Ry
        Total length         43.3566 bohr
 

     total cpu time spent up to now is      415.5 secs

     total energy              =   -1929.43828258 Ry
     Harris-Foulkes estimate   =   -1929.43848639 Ry
     estimated scf accuracy    <       0.00058626 Ry

     iteration #  2     ecut=    36.75 Ry     beta=0.20
     Davidson diagonalization with overlap
     ethr =  3.47E-07,  avg # of iterations =  4.3

     negative rho (up, down):  4.094E-04 0.000E+00
 
     Adding external electric field

     Computed dipole along edir(3) : 
        Dipole               -0.0296 Ry au,         -0.0753 Debye
        Dipole field         -0.0001 Ry au
 
        Potential amp.        0.0048 Ry
        Total length         43.3566 bohr
 

     total cpu time spent up to now is      442.1 secs

     total energy              =   -1929.43820513 Ry
     Harris-Foulkes estimate   =   -1929.43855763 Ry
     estimated scf accuracy    <       0.00373647 Ry

     iteration #  3     ecut=    36.75 Ry     beta=0.20
     Davidson diagonalization with overlap
     ethr =  3.47E-07,  avg # of iterations =  5.1

     negative rho (up, down):  4.093E-04 0.000E+00
 
     Adding external electric field

     Computed dipole along edir(3) : 
        Dipole               -0.0155 Ry au,         -0.0395 Debye
        Dipole field         -0.0000 Ry au
 
        Potential amp.        0.0025 Ry
        Total length         43.3566 bohr
 

     total cpu time spent up to now is      468.3 secs

     total energy              =   -1929.43838372 Ry
     Harris-Foulkes estimate   =   -1929.43847751 Ry
     estimated scf accuracy    <       0.00134746 Ry

     iteration #  4     ecut=    36.75 Ry     beta=0.20
     Davidson diagonalization with overlap
     ethr =  3.47E-07,  avg # of iterations =  2.8

     negative rho (up, down):  4.089E-04 0.000E+00
 
     Adding external electric field

     Computed dipole along edir(3) : 
        Dipole               -0.0037 Ry au,         -0.0094 Debye
        Dipole field         -0.0000 Ry au
 
        Potential amp.        0.0006 Ry
        Total length         43.3566 bohr
 

     total cpu time spent up to now is      492.5 secs

     End of self-consistent calculation

          k = 0.0000 0.0000 0.0000 ( 25377 PWs)   bands (ev):

   -21.4234 -21.3982 -21.3982 -21.3680 -21.3532 -21.3532 -21.3509 -21.3484
   -21.3403 -21.3403 -21.3304 -21.3304 -21.3088 -21.3057 -21.2998 -21.2997
   -21.2964 -21.2964 -21.2961 -21.2880 -21.2880 -21.2871 -21.2811 -21.2811
   -21.2797 -21.2797 -21.2611 -21.2611 -21.2598 -21.2546 -21.2538 -21.2506
   -21.2506 -21.2344 -21.2344 -21.2264 -21.2264 -21.2219 -21.1919 -21.1898
   -21.1898 -21.1844 -21.1844 -21.1717 -21.1717 -21.1658 -21.1497 -21.1497
   -21.1468 -21.1411 -21.1376 -21.1376 -21.1283 -21.1283 -21.1183 -21.1177
   -21.1177 -21.1084 -21.1084 -21.1043 -10.0558  -8.9670  -7.2859  -5.9534
    -5.9520  -5.9520  -5.6537  -5.4992  -5.4992  -4.9389  -4.6311  -4.6311
    -3.8058  -3.2755  -3.2755  -2.9996  -2.4825  -2.0183  -2.0183  -1.9360
    -1.8925  -1.8925  -0.2080   1.0487   1.6231   1.6231   1.6805   1.7187
     1.7187   2.7257   3.1804   3.2554   3.2554   3.2938

          k = 0.0000 0.1925 0.0000 ( 25365 PWs)   bands (ev):

   -21.4158 -21.3930 -21.3876 -21.3643 -21.3516 -21.3465 -21.3456 -21.3418
   -21.3370 -21.3316 -21.3287 -21.3244 -21.3063 -21.3042 -21.3008 -21.3005
   -21.2966 -21.2964 -21.2940 -21.2875 -21.2843 -21.2837 -21.2795 -21.2784
   -21.2757 -21.2713 -21.2645 -21.2598 -21.2576 -21.2557 -21.2543 -21.2506
   -21.2420 -21.2381 -21.2360 -21.2291 -21.2280 -21.2231 -21.1963 -21.1955
   -21.1930 -21.1871 -21.1870 -21.1763 -21.1746 -21.1717 -21.1533 -21.1503
   -21.1490 -21.1461 -21.1407 -21.1394 -21.1363 -21.1334 -21.1259 -21.1226
   -21.1208 -21.1160 -21.1115 -21.1108  -9.9288  -8.8445  -7.1994  -6.8988
    -6.2747  -6.2308  -5.9447  -5.4872  -5.4192  -4.8134  -4.5669  -4.5460
    -3.4951  -2.9811  -2.9015  -2.6963  -2.4221  -2.1496  -1.9930  -1.3991
    -1.2594  -0.6794  -0.1805   0.4820   0.9796   1.1740   1.9937   2.0670
     2.3262   2.4441   2.4875   2.6460   3.0712   3.3068

          k = 0.0000 0.3849 0.0000 ( 25367 PWs)   bands (ev):

   -21.4018 -21.3753 -21.3596 -21.3567 -21.3513 -21.3398 -21.3339 -21.3290
   -21.3243 -21.3159 -21.3126 -21.3099 -21.3068 -21.3056 -21.3028 -21.3003
   -21.2968 -21.2949 -21.2927 -21.2872 -21.2820 -21.2816 -21.2741 -21.2716
   -21.2654 -21.2647 -21.2614 -21.2600 -21.2544 -21.2506 -21.2487 -21.2468
   -21.2466 -21.2430 -21.2359 -21.2350 -21.2199 -21.2175 -21.2085 -21.2076
   -21.1981 -21.1964 -21.1893 -21.1888 -21.1797 -21.1742 -21.1653 -21.1624
   -21.1599 -21.1557 -21.1542 -21.1500 -21.1477 -21.1467 -21.1418 -21.1406
   -21.1324 -21.1281 -21.1144 -21.1126  -9.5480  -8.4891  -8.0137  -7.0787
    -6.7149  -6.5438  -6.5326  -5.6824  -5.5367  -5.3136  -4.4513  -4.3641
    -2.9919  -2.3246  -2.3002  -1.9164  -1.5577  -1.2937  -1.0175  -0.6418
    -0.4700  -0.1982   0.1568   0.4837   0.5119   1.0184   1.3304   1.3342
     1.6536   1.7833   1.9932   2.5384   2.6022   2.9861

          k = 0.0000-0.5774 0.0000 ( 25386 PWs)   bands (ev):

   -21.3958 -21.3613 -21.3545 -21.3415 -21.3359 -21.3300 -21.3298 -21.3236
   -21.3233 -21.3182 -21.3159 -21.3157 -21.3131 -21.3043 -21.2976 -21.2963
   -21.2875 -21.2853 -21.2812 -21.2795 -21.2794 -21.2790 -21.2783 -21.2711
   -21.2696 -21.2681 -21.2622 -21.2618 -21.2557 -21.2551 -21.2497 -21.2497
   -21.2477 -21.2366 -21.2323 -21.2240 -21.2226 -21.2189 -21.2051 -21.2016
   -21.1975 -21.1954 -21.1892 -21.1849 -21.1839 -21.1777 -21.1760 -21.1732
   -21.1722 -21.1711 -21.1694 -21.1692 -21.1565 -21.1536 -21.1473 -21.1471
   -21.1337 -21.1307 -21.1145 -21.1126  -8.9533  -8.8773  -7.9806  -7.7045
    -6.7223  -6.6420  -6.3121  -6.0365  -5.6527  -5.6102  -4.4074  -4.3236
    -2.6306  -1.5928  -1.4958  -1.4480  -1.3500  -1.2681  -0.8297  -0.3149
    -0.2247  -0.1154   0.4041   0.6813   0.9062   1.0134   1.0633   1.3259
     1.4707   1.6578   1.7848   1.9471   1.9699   1.9965

          k = 0.1667-0.0962 0.0000 ( 25365 PWs)   bands (ev):

   -21.4158 -21.3930 -21.3876 -21.3643 -21.3516 -21.3465 -21.3456 -21.3418
   -21.3370 -21.3316 -21.3287 -21.3244 -21.3063 -21.3042 -21.3008 -21.3005
   -21.2966 -21.2964 -21.2940 -21.2875 -21.2843 -21.2837 -21.2795 -21.2784
   -21.2757 -21.2713 -21.2645 -21.2598 -21.2576 -21.2557 -21.2543 -21.2506
   -21.2420 -21.2381 -21.2360 -21.2291 -21.2280 -21.2231 -21.1963 -21.1955
   -21.1930 -21.1871 -21.1870 -21.1763 -21.1746 -21.1717 -21.1533 -21.1503
   -21.1490 -21.1461 -21.1407 -21.1394 -21.1363 -21.1334 -21.1259 -21.1226
   -21.1208 -21.1160 -21.1115 -21.1108  -9.9288  -8.8445  -7.1994  -6.8988
    -6.2747  -6.2308  -5.9447  -5.4872  -5.4192  -4.8134  -4.5669  -4.5460
    -3.4951  -2.9811  -2.9015  -2.6963  -2.4221  -2.1496  -1.9930  -1.3991
    -1.2594  -0.6794  -0.1805   0.4820   0.9796   1.1740   1.9937   2.0670
     2.3262   2.4441   2.4875   2.6460   3.0712   3.3068

          k = 0.1667 0.0962 0.0000 ( 25365 PWs)   bands (ev):

   -21.4158 -21.3930 -21.3876 -21.3643 -21.3516 -21.3465 -21.3456 -21.3418
   -21.3370 -21.3316 -21.3287 -21.3244 -21.3063 -21.3042 -21.3009 -21.3005
   -21.2966 -21.2964 -21.2940 -21.2875 -21.2843 -21.2837 -21.2795 -21.2784
   -21.2757 -21.2713 -21.2645 -21.2598 -21.2576 -21.2557 -21.2543 -21.2506
   -21.2420 -21.2381 -21.2360 -21.2291 -21.2280 -21.2231 -21.1963 -21.1955
   -21.1930 -21.1871 -21.1870 -21.1763 -21.1746 -21.1717 -21.1533 -21.1503
   -21.1490 -21.1461 -21.1407 -21.1394 -21.1363 -21.1334 -21.1259 -21.1226
   -21.1208 -21.1160 -21.1115 -21.1108  -9.9288  -8.8445  -7.1994  -6.8988
    -6.2747  -6.2308  -5.9447  -5.4872  -5.4193  -4.8134  -4.5670  -4.5460
    -3.4951  -2.9811  -2.9015  -2.6963  -2.4221  -2.1496  -1.9930  -1.3991
    -1.2594  -0.6794  -0.1805   0.4820   0.9796   1.1740   1.9937   2.0670
     2.3262   2.4441   2.4875   2.6461   3.0712   3.3069

          k = 0.1667 0.2887 0.0000 ( 25362 PWs)   bands (ev):

   -21.4028 -21.3853 -21.3671 -21.3575 -21.3478 -21.3414 -21.3365 -21.3348
   -21.3282 -21.3256 -21.3138 -21.3108 -21.3101 -21.3036 -21.3005 -21.2989
   -21.2975 -21.2950 -21.2939 -21.2879 -21.2859 -21.2810 -21.2736 -21.2701
   -21.2670 -21.2643 -21.2635 -21.2608 -21.2556 -21.2527 -21.2508 -21.2488
   -21.2452 -21.2419 -21.2351 -21.2321 -21.2305 -21.2134 -21.2095 -21.2029
   -21.1981 -21.1913 -21.1890 -21.1870 -21.1775 -21.1760 -21.1617 -21.1604
   -21.1555 -21.1502 -21.1488 -21.1488 -21.1428 -21.1421 -21.1394 -21.1322
   -21.1252 -21.1239 -21.1179 -21.1172  -9.6748  -8.6031  -7.4539  -7.3727
    -6.9432  -6.3996  -6.2643  -5.6124  -5.2186  -4.9856  -4.7866  -4.4525
    -3.2275  -2.7082  -2.1276  -1.9965  -1.8515  -1.5964  -1.3135  -1.1474
    -0.3545  -0.1494  -0.0371   0.5043   0.5535   0.6334   1.2549   1.9538
     2.1510   2.2390   2.3361   2.5605   2.6817   2.8954

          k = 0.1667-0.6736 0.0000 ( 25368 PWs)   bands (ev):

   -21.3889 -21.3674 -21.3534 -21.3478 -21.3335 -21.3329 -21.3288 -21.3258
   -21.3220 -21.3183 -21.3153 -21.3111 -21.3054 -21.3034 -21.3003 -21.2976
   -21.2925 -21.2890 -21.2846 -21.2823 -21.2810 -21.2800 -21.2734 -21.2711
   -21.2681 -21.2642 -21.2619 -21.2585 -21.2567 -21.2543 -21.2527 -21.2469
   -21.2429 -21.2381 -21.2334 -21.2281 -21.2220 -21.2144 -21.2101 -21.2079
   -21.2016 -21.1972 -21.1933 -21.1874 -21.1819 -21.1804 -21.1765 -21.1740
   -21.1718 -21.1673 -21.1607 -21.1553 -21.1518 -21.1499 -21.1478 -21.1430
   -21.1367 -21.1322 -21.1206 -21.1187  -9.1691  -8.4266  -8.1052  -7.6459
    -7.3295  -6.6436  -6.3396  -5.6923  -5.5555  -5.0302  -4.8382  -4.2620
    -2.8109  -2.1432  -1.6321  -1.3691  -1.1573  -0.9613  -0.7072  -0.4976
    -0.3011  -0.1459   0.1668   0.5462   0.7764   0.8854   1.1509   1.4420
     1.8454   1.9858   2.1016   2.2238   2.3302   2.5654

          k = 0.1667-0.4811 0.0000 ( 25368 PWs)   bands (ev):

   -21.3889 -21.3674 -21.3534 -21.3478 -21.3335 -21.3329 -21.3288 -21.3258
   -21.3220 -21.3183 -21.3153 -21.3111 -21.3054 -21.3034 -21.3003 -21.2976
   -21.2925 -21.2890 -21.2846 -21.2823 -21.2810 -21.2800 -21.2734 -21.2711
   -21.2681 -21.2642 -21.2619 -21.2585 -21.2567 -21.2543 -21.2527 -21.2469
   -21.2429 -21.2381 -21.2334 -21.2281 -21.2220 -21.2144 -21.2101 -21.2079
   -21.2016 -21.1972 -21.1933 -21.1874 -21.1819 -21.1804 -21.1765 -21.1740
   -21.1718 -21.1673 -21.1607 -21.1553 -21.1518 -21.1499 -21.1478 -21.1430
   -21.1367 -21.1322 -21.1206 -21.1187  -9.1691  -8.4266  -8.1052  -7.6459
    -7.3295  -6.6436  -6.3396  -5.6923  -5.5555  -5.0302  -4.8382  -4.2620
    -2.8109  -2.1432  -1.6321  -1.3691  -1.1573  -0.9612  -0.7072  -0.4976
    -0.3011  -0.1459   0.1668   0.5462   0.7764   0.8854   1.1509   1.4420
     1.8455   1.9858   2.1016   2.2238   2.3302   2.5654

          k = 0.1667-0.2887 0.0000 ( 25362 PWs)   bands (ev):

   -21.4028 -21.3853 -21.3671 -21.3575 -21.3478 -21.3414 -21.3365 -21.3348
   -21.3282 -21.3256 -21.3138 -21.3108 -21.3101 -21.3036 -21.3005 -21.2989
   -21.2975 -21.2950 -21.2939 -21.2879 -21.2859 -21.2810 -21.2736 -21.2701
   -21.2670 -21.2643 -21.2635 -21.2608 -21.2556 -21.2527 -21.2508 -21.2488
   -21.2452 -21.2419 -21.2351 -21.2321 -21.2305 -21.2134 -21.2095 -21.2029
   -21.1981 -21.1913 -21.1890 -21.1870 -21.1775 -21.1760 -21.1617 -21.1604
   -21.1555 -21.1502 -21.1488 -21.1488 -21.1428 -21.1421 -21.1394 -21.1322
   -21.1252 -21.1239 -21.1179 -21.1172  -9.6748  -8.6031  -7.4539  -7.3727
    -6.9432  -6.3997  -6.2643  -5.6124  -5.2186  -4.9856  -4.7866  -4.4525
    -3.2275  -2.7083  -2.1276  -1.9965  -1.8515  -1.5964  -1.3136  -1.1473
    -0.3545  -0.1494  -0.0371   0.5043   0.5535   0.6334   1.2549   1.9538
     2.1510   2.2390   2.3361   2.5605   2.6817   2.8954

          k = 0.3333-0.1925 0.0000 ( 25367 PWs)   bands (ev):

   -21.4018 -21.3753 -21.3596 -21.3567 -21.3513 -21.3398 -21.3339 -21.3290
   -21.3243 -21.3159 -21.3126 -21.3099 -21.3068 -21.3056 -21.3028 -21.3003
   -21.2968 -21.2949 -21.2927 -21.2872 -21.2820 -21.2816 -21.2741 -21.2716
   -21.2654 -21.2647 -21.2614 -21.2600 -21.2544 -21.2506 -21.2487 -21.2468
   -21.2466 -21.2430 -21.2359 -21.2350 -21.2199 -21.2175 -21.2085 -21.2076
   -21.1981 -21.1964 -21.1893 -21.1888 -21.1797 -21.1742 -21.1653 -21.1624
   -21.1599 -21.1557 -21.1542 -21.1500 -21.1477 -21.1467 -21.1418 -21.1406
   -21.1324 -21.1281 -21.1144 -21.1126  -9.5480  -8.4891  -8.0137  -7.0787
    -6.7150  -6.5438  -6.5326  -5.6824  -5.5367  -5.3136  -4.4513  -4.3641
    -2.9919  -2.3246  -2.3002  -1.9164  -1.5577  -1.2937  -1.0175  -0.6418
    -0.4700  -0.1982   0.1568   0.4837   0.5119   1.0183   1.3304   1.3342
     1.6536   1.7833   1.9932   2.5384   2.6022   2.9861

          k = 0.3333 0.0000 0.0000 ( 25362 PWs)   bands (ev):

   -21.4028 -21.3853 -21.3671 -21.3575 -21.3478 -21.3414 -21.3365 -21.3348
   -21.3282 -21.3256 -21.3138 -21.3108 -21.3101 -21.3036 -21.3005 -21.2989
   -21.2975 -21.2950 -21.2939 -21.2879 -21.2859 -21.2810 -21.2736 -21.2701
   -21.2670 -21.2643 -21.2635 -21.2608 -21.2556 -21.2527 -21.2508 -21.2488
   -21.2452 -21.2419 -21.2351 -21.2321 -21.2305 -21.2134 -21.2095 -21.2029
   -21.1981 -21.1913 -21.1890 -21.1870 -21.1775 -21.1760 -21.1617 -21.1604
   -21.1555 -21.1502 -21.1488 -21.1488 -21.1428 -21.1421 -21.1394 -21.1322
   -21.1252 -21.1239 -21.1179 -21.1172  -9.6748  -8.6031  -7.4539  -7.3727
    -6.9432  -6.3997  -6.2643  -5.6125  -5.2186  -4.9856  -4.7866  -4.4525
    -3.2275  -2.7082  -2.1276  -1.9965  -1.8515  -1.5965  -1.3136  -1.1474
    -0.3545  -0.1494  -0.0371   0.5043   0.5535   0.6334   1.2549   1.9538
     2.1510   2.2390   2.3361   2.5605   2.6817   2.8954

          k = 0.3333 0.1925 0.0000 ( 25367 PWs)   bands (ev):

   -21.4018 -21.3753 -21.3596 -21.3567 -21.3513 -21.3398 -21.3339 -21.3290
   -21.3243 -21.3159 -21.3126 -21.3099 -21.3068 -21.3056 -21.3028 -21.3003
   -21.2968 -21.2949 -21.2927 -21.2872 -21.2820 -21.2816 -21.2741 -21.2716
   -21.2654 -21.2647 -21.2614 -21.2600 -21.2544 -21.2506 -21.2487 -21.2468
   -21.2466 -21.2430 -21.2359 -21.2350 -21.2199 -21.2175 -21.2085 -21.2076
   -21.1981 -21.1964 -21.1893 -21.1888 -21.1797 -21.1742 -21.1653 -21.1624
   -21.1599 -21.1557 -21.1542 -21.1500 -21.1477 -21.1467 -21.1418 -21.1406
   -21.1324 -21.1281 -21.1144 -21.1126  -9.5480  -8.4892  -8.0137  -7.0787
    -6.7149  -6.5438  -6.5326  -5.6824  -5.5368  -5.3136  -4.4513  -4.3640
    -2.9919  -2.3246  -2.3002  -1.9164  -1.5577  -1.2937  -1.0175  -0.6418
    -0.4700  -0.1982   0.1568   0.4837   0.5119   1.0183   1.3304   1.3342
     1.6536   1.7833   1.9933   2.5384   2.6022   2.9861

          k = 0.3333-0.7698 0.0000 ( 25368 PWs)   bands (ev):

   -21.3889 -21.3674 -21.3534 -21.3478 -21.3335 -21.3329 -21.3288 -21.3258
   -21.3220 -21.3183 -21.3153 -21.3111 -21.3054 -21.3034 -21.3003 -21.2976
   -21.2925 -21.2890 -21.2846 -21.2823 -21.2810 -21.2800 -21.2734 -21.2711
   -21.2681 -21.2642 -21.2619 -21.2585 -21.2567 -21.2543 -21.2527 -21.2469
   -21.2429 -21.2381 -21.2334 -21.2281 -21.2220 -21.2144 -21.2101 -21.2079
   -21.2016 -21.1972 -21.1933 -21.1874 -21.1819 -21.1804 -21.1765 -21.1740
   -21.1718 -21.1673 -21.1607 -21.1553 -21.1518 -21.1499 -21.1478 -21.1430
   -21.1367 -21.1322 -21.1206 -21.1187  -9.1691  -8.4266  -8.1052  -7.6459
    -7.3295  -6.6436  -6.3396  -5.6923  -5.5555  -5.0302  -4.8382  -4.2620
    -2.8109  -2.1432  -1.6321  -1.3691  -1.1573  -0.9612  -0.7072  -0.4976
    -0.3011  -0.1459   0.1669   0.5462   0.7764   0.8854   1.1509   1.4420
     1.8455   1.9858   2.1016   2.2238   2.3302   2.5654

          k = 0.3333-0.5774 0.0000 ( 25314 PWs)   bands (ev):

   -21.3686 -21.3632 -21.3619 -21.3461 -21.3387 -21.3260 -21.3239 -21.3228
   -21.3180 -21.3148 -21.3100 -21.3057 -21.3042 -21.3016 -21.2963 -21.2953
   -21.2913 -21.2886 -21.2871 -21.2837 -21.2836 -21.2824 -21.2797 -21.2729
   -21.2695 -21.2655 -21.2627 -21.2595 -21.2554 -21.2518 -21.2402 -21.2377
   -21.2368 -21.2348 -21.2319 -21.2287 -21.2250 -21.2247 -21.2172 -21.2080
   -21.2042 -21.1975 -21.1964 -21.1939 -21.1843 -21.1802 -21.1801 -21.1793
   -21.1726 -21.1670 -21.1572 -21.1569 -21.1521 -21.1487 -21.1475 -21.1456
   -21.1423 -21.1349 -21.1335 -21.1238  -8.6185  -8.5163  -8.4795  -7.6917
    -7.3349  -7.3312  -6.0091  -5.7093  -5.6705  -4.7662  -4.5661  -4.5140
    -2.7803  -1.7259  -1.6354  -1.5229  -1.2389  -1.2161  -0.6145  -0.1815
    -0.1249   0.4032   0.6287   0.6526   0.9823   1.2387   1.2678   1.4442
     1.5915   1.7029   1.9308   2.2127   2.2318   2.9352

          k = 0.3333-0.3849 0.0000 ( 25368 PWs)   bands (ev):

   -21.3889 -21.3674 -21.3534 -21.3478 -21.3335 -21.3329 -21.3288 -21.3258
   -21.3220 -21.3183 -21.3153 -21.3111 -21.3054 -21.3034 -21.3003 -21.2976
   -21.2925 -21.2890 -21.2846 -21.2823 -21.2810 -21.2800 -21.2734 -21.2711
   -21.2681 -21.2642 -21.2619 -21.2585 -21.2567 -21.2543 -21.2527 -21.2469
   -21.2429 -21.2381 -21.2334 -21.2281 -21.2220 -21.2144 -21.2101 -21.2079
   -21.2016 -21.1972 -21.1933 -21.1874 -21.1819 -21.1804 -21.1765 -21.1740
   -21.1718 -21.1673 -21.1607 -21.1553 -21.1518 -21.1499 -21.1478 -21.1430
   -21.1367 -21.1322 -21.1206 -21.1187  -9.1691  -8.4266  -8.1052  -7.6459
    -7.3295  -6.6436  -6.3396  -5.6923  -5.5555  -5.0302  -4.8382  -4.2620
    -2.8109  -2.1432  -1.6321  -1.3691  -1.1574  -0.9612  -0.7072  -0.4976
    -0.3011  -0.1459   0.1668   0.5462   0.7764   0.8854   1.1509   1.4420
     1.8455   1.9858   2.1016   2.2238   2.3302   2.5653

          k =-0.5000 0.2887 0.0000 ( 25386 PWs)   bands (ev):

   -21.3958 -21.3613 -21.3545 -21.3415 -21.3359 -21.3300 -21.3298 -21.3236
   -21.3233 -21.3182 -21.3159 -21.3157 -21.3131 -21.3043 -21.2976 -21.2963
   -21.2875 -21.2853 -21.2812 -21.2795 -21.2794 -21.2790 -21.2783 -21.2711
   -21.2696 -21.2681 -21.2622 -21.2618 -21.2557 -21.2551 -21.2497 -21.2497
   -21.2477 -21.2366 -21.2323 -21.2240 -21.2226 -21.2189 -21.2051 -21.2016
   -21.1975 -21.1954 -21.1892 -21.1849 -21.1839 -21.1777 -21.1760 -21.1732
   -21.1722 -21.1711 -21.1694 -21.1692 -21.1565 -21.1536 -21.1473 -21.1471
   -21.1337 -21.1307 -21.1145 -21.1126  -8.9533  -8.8773  -7.9806  -7.7045
    -6.7223  -6.6420  -6.3121  -6.0365  -5.6527  -5.6102  -4.4074  -4.3236
    -2.6306  -1.5928  -1.4958  -1.4480  -1.3500  -1.2681  -0.8297  -0.3149
    -0.2247  -0.1154   0.4041   0.6813   0.9062   1.0134   1.0633   1.3259
     1.4707   1.6579   1.7848   1.9471   1.9699   1.9965

          k =-0.5000 0.4811 0.0000 ( 25368 PWs)   bands (ev):

   -21.3889 -21.3674 -21.3534 -21.3478 -21.3335 -21.3329 -21.3288 -21.3258
   -21.3220 -21.3183 -21.3153 -21.3111 -21.3054 -21.3034 -21.3003 -21.2976
   -21.2925 -21.2890 -21.2846 -21.2823 -21.2810 -21.2800 -21.2734 -21.2711
   -21.2681 -21.2642 -21.2619 -21.2585 -21.2567 -21.2543 -21.2527 -21.2469
   -21.2429 -21.2381 -21.2334 -21.2281 -21.2220 -21.2144 -21.2101 -21.2079
   -21.2016 -21.1972 -21.1933 -21.1874 -21.1819 -21.1804 -21.1765 -21.1740
   -21.1718 -21.1673 -21.1607 -21.1553 -21.1518 -21.1499 -21.1478 -21.1430
   -21.1367 -21.1322 -21.1206 -21.1187  -9.1691  -8.4266  -8.1052  -7.6459
    -7.3295  -6.6436  -6.3396  -5.6923  -5.5555  -5.0302  -4.8382  -4.2620
    -2.8109  -2.1432  -1.6321  -1.3691  -1.1573  -0.9612  -0.7072  -0.4976
    -0.3011  -0.1459   0.1668   0.5462   0.7764   0.8854   1.1509   1.4420
     1.8455   1.9858   2.1016   2.2238   2.3302   2.5654

          k =-0.5000 0.6736 0.0000 ( 25368 PWs)   bands (ev):

   -21.3889 -21.3674 -21.3534 -21.3478 -21.3335 -21.3329 -21.3288 -21.3258
   -21.3220 -21.3183 -21.3153 -21.3111 -21.3054 -21.3034 -21.3003 -21.2976
   -21.2925 -21.2890 -21.2846 -21.2823 -21.2810 -21.2800 -21.2734 -21.2711
   -21.2681 -21.2642 -21.2619 -21.2585 -21.2567 -21.2543 -21.2527 -21.2469
   -21.2429 -21.2381 -21.2334 -21.2281 -21.2220 -21.2144 -21.2101 -21.2079
   -21.2016 -21.1972 -21.1933 -21.1874 -21.1819 -21.1804 -21.1765 -21.1740
   -21.1718 -21.1673 -21.1607 -21.1553 -21.1518 -21.1499 -21.1478 -21.1430
   -21.1367 -21.1322 -21.1206 -21.1187  -9.1691  -8.4266  -8.1052  -7.6459
    -7.3295  -6.6436  -6.3396  -5.6923  -5.5555  -5.0302  -4.8382  -4.2620
    -2.8109  -2.1432  -1.6321  -1.3691  -1.1574  -0.9612  -0.7072  -0.4976
    -0.3011  -0.1459   0.1669   0.5462   0.7764   0.8854   1.1509   1.4420
     1.8455   1.9858   2.1016   2.2238   2.3302   2.5654

          k =-0.5000-0.2887 0.0000 ( 25386 PWs)   bands (ev):

   -21.3958 -21.3613 -21.3545 -21.3415 -21.3359 -21.3300 -21.3298 -21.3236
   -21.3233 -21.3182 -21.3159 -21.3157 -21.3131 -21.3042 -21.2976 -21.2963
   -21.2875 -21.2853 -21.2812 -21.2795 -21.2794 -21.2790 -21.2783 -21.2711
   -21.2696 -21.2681 -21.2622 -21.2618 -21.2557 -21.2551 -21.2497 -21.2497
   -21.2477 -21.2366 -21.2323 -21.2240 -21.2226 -21.2189 -21.2051 -21.2016
   -21.1975 -21.1954 -21.1892 -21.1849 -21.1839 -21.1777 -21.1760 -21.1732
   -21.1722 -21.1711 -21.1694 -21.1692 -21.1565 -21.1536 -21.1473 -21.1471
   -21.1337 -21.1307 -21.1145 -21.1126  -8.9533  -8.8773  -7.9806  -7.7045
    -6.7223  -6.6420  -6.3121  -6.0365  -5.6527  -5.6102  -4.4074  -4.3236
    -2.6306  -1.5928  -1.4958  -1.4480  -1.3500  -1.2680  -0.8297  -0.3149
    -0.2247  -0.1154   0.4041   0.6813   0.9063   1.0133   1.0633   1.3259
     1.4707   1.6579   1.7848   1.9470   1.9699   1.9965

     the Fermi energy is     0.7418 ev

!    total energy              =   -1929.43842705 Ry
     Harris-Foulkes estimate   =   -1929.43842913 Ry
     estimated scf accuracy    <       0.00000193 Ry

     The total energy is the sum of the following terms:

     one-electron contribution =  -10354.63848033 Ry
     hartree contribution      =    5240.42408203 Ry
     xc contribution           =    -534.58182306 Ry
     ewald contribution        =    3719.39872798 Ry
     electric field correction =       0.00000003 Ry
     smearing contrib. (-TS)   =      -0.04093369 Ry

     convergence has been achieved in   4 iterations

     Forces acting on atoms (Ry/au):


     negative rho (up, down):  4.089E-04 0.000E+00
     atom    1 type  1   force =    -0.00000663   -0.00000116   -0.00465980
     atom    2 type  1   force =    -0.00000479   -0.00192199    0.00069140
     atom    3 type  1   force =    -0.00166465    0.00096015    0.00066849
     atom    4 type  1   force =     0.00166215    0.00096091    0.00068018
     atom    5 type  1   force =     0.00314582   -0.00180549    0.00171412
     atom    6 type  1   force =    -0.00314604   -0.00180586    0.00173651
     atom    7 type  1   force =    -0.00000199   -0.00000421   -0.00597634
     atom    8 type  1   force =     0.00000177    0.00361895    0.00172984
     atom    9 type  1   force =    -0.00033885   -0.00020480    0.00103038
     atom   10 type  1   force =     0.00034267   -0.00019478    0.00102125
     atom   11 type  1   force =     0.00000485    0.00040138    0.00104085
     atom   12 type  1   force =     0.00000668   -0.00000318   -0.00037300
     atom   13 type  2   force =    -0.00000098    0.00000008    0.00069610

     Total force =     0.002070     Total SCF correction =     0.000825
     SCF correction compared to forces is large: reduce conv_thr to get better values

     bfgs converged in   2 scf cycles and   1 bfgs steps
     (criteria: energy <  1.0E+12, force <  1.9E-03)

     End of BFGS Geometry Optimization

     Final energy   =   -1929.4384270479 Ry
Begin final coordinates

ATOMIC_POSITIONS (angstrom)
Sn       1.681748263   0.970957812  10.000000000    0   0   0
Sn       5.045244789   0.970957812  10.000000000    0   0   0
Sn       3.363496526   3.883831250  10.000000000    0   0   0
Sn       6.726993052   3.883831250  10.000000000    0   0   0
Sn       6.726993052   1.941915625  12.746283414    0   0   0
Sn       3.363496526   1.941915625  12.746283414    0   0   0
Sn       8.408741315   4.854789062  12.746283414    0   0   0
Sn       5.045244789   4.854789062  12.746283414    0   0   0
Sn       0.000967938   0.000565228  15.543700822
Sn       3.362464567   0.000541218  15.543690212
Sn       1.681750956   2.911695747  15.543679626
Sn       5.045263342   2.912856301  15.470274587
H        1.681759167   0.970963327  16.592459780
End final coordinates



     Writing output data file calc.save
 
     init_run     :     12.91s CPU     13.50s WALL (       1 calls)
     electrons    :    426.59s CPU    453.13s WALL (       2 calls)
     update_pot   :      3.01s CPU      3.22s WALL (       1 calls)
     forces       :     32.78s CPU     33.47s WALL (       2 calls)

     Called by init_run:
     wfcinit      :      4.97s CPU      5.12s WALL (       1 calls)
     potinit      :      2.02s CPU      2.26s WALL (       1 calls)

     Called by electrons:
     c_bands      :    223.94s CPU    236.39s WALL (      17 calls)
     sum_band     :     96.21s CPU    101.99s WALL (      17 calls)
     v_of_rho     :     29.65s CPU     32.78s WALL (      19 calls)
     newd         :     84.39s CPU     87.06s WALL (      19 calls)
     mix_rho      :      1.05s CPU      1.08s WALL (      17 calls)
     vdW_energy   :      4.66s CPU      5.20s WALL (      21 calls)
     vdW_ffts     :     12.84s CPU     14.03s WALL (      42 calls)
     vdW_v        :      4.41s CPU      4.63s WALL (      21 calls)

     Called by c_bands:
     init_us_2    :      1.58s CPU      1.58s WALL (     259 calls)
     cegterg      :    210.15s CPU    216.09s WALL (     119 calls)

     Called by *egterg:
     h_psi        :    141.76s CPU    146.43s WALL (     579 calls)
     s_psi        :     12.06s CPU     12.09s WALL (     579 calls)
     g_psi        :      0.71s CPU      0.71s WALL (     453 calls)
     cdiaghg      :     19.88s CPU     20.09s WALL (     565 calls)

     Called by h_psi:
     add_vuspsi   :     12.71s CPU     12.76s WALL (     579 calls)

     General routines
     calbec       :     19.69s CPU     20.22s WALL (     712 calls)
     fft          :     22.10s CPU     25.99s WALL (    1369 calls)
     ffts         :      0.07s CPU      0.08s WALL (      36 calls)
     fftw         :     83.95s CPU     89.21s WALL (   65420 calls)
     interpolate  :      0.73s CPU      0.77s WALL (      36 calls)
     davcio       :      0.00s CPU      0.05s WALL (       7 calls)
 
     Parallel routines
     fft_scatter  :     61.77s CPU     70.55s WALL (   66825 calls)
 
     PWSCF        :  8m 1.05s CPU     8m30.22s WALL

 
   This run was terminated on:   1: 5:36  17Jan2019            

=------------------------------------------------------------------------------=
   JOB DONE.
=------------------------------------------------------------------------------=
Job  /afs/slac/g/suncat/bin/suncat-tsmpirun -x LD_LIBRARY_PATH -wdir /tmp/qe_379046qdrabo2r_scratch pw.x -npool 3 -in pw.pwi

TID   HOST_NAME   COMMAND_LINE            STATUS            TERMINATION_TIME
===== ========== ================  =======================  ===================
00000 suncat1054 pw.x -npool 3 -i  Done                     01/17/2019 01:05:36
00001 suncat1054 pw.x -npool 3 -i  Done                     01/17/2019 01:05:36
00002 suncat1054 pw.x -npool 3 -i  Done                     01/17/2019 01:05:36
00003 suncat1054 pw.x -npool 3 -i  Done                     01/17/2019 01:05:36
00004 suncat1054 pw.x -npool 3 -i  Done                     01/17/2019 01:05:36
00005 suncat1054 pw.x -npool 3 -i  Done                     01/17/2019 01:05:36
00006 suncat1054 pw.x -npool 3 -i  Done                     01/17/2019 01:05:36
00007 suncat1054 pw.x -npool 3 -i  Done                     01/17/2019 01:05:36
00008 suncat1054 pw.x -npool 3 -i  Done                     01/17/2019 01:05:36
00009 suncat1054 pw.x -npool 3 -i  Done                     01/17/2019 01:05:36
00010 suncat1054 pw.x -npool 3 -i  Done                     01/17/2019 01:05:36
00011 suncat1054 pw.x -npool 3 -i  Done                     01/17/2019 01:05:36
00012 suncat1004 pw.x -npool 3 -i  Done                     01/17/2019 01:05:36
00013 suncat1004 pw.x -npool 3 -i  Done                     01/17/2019 01:05:36
00014 suncat1004 pw.x -npool 3 -i  Done                     01/17/2019 01:05:36
00015 suncat1004 pw.x -npool 3 -i  Done                     01/17/2019 01:05:36
00016 suncat1004 pw.x -npool 3 -i  Done                     01/17/2019 01:05:36
00017 suncat1004 pw.x -npool 3 -i  Done                     01/17/2019 01:05:36
00018 suncat1004 pw.x -npool 3 -i  Done                     01/17/2019 01:05:36
00019 suncat1004 pw.x -npool 3 -i  Done                     01/17/2019 01:05:36
00020 suncat1004 pw.x -npool 3 -i  Done                     01/17/2019 01:05:36
00021 suncat1004 pw.x -npool 3 -i  Done                     01/17/2019 01:05:36
00022 suncat1004 pw.x -npool 3 -i  Done                     01/17/2019 01:05:36
00023 suncat1004 pw.x -npool 3 -i  Done                     01/17/2019 01:05:36
00024 suncat1001 pw.x -npool 3 -i  Done                     01/17/2019 01:05:36
00025 suncat1001 pw.x -npool 3 -i  Done                     01/17/2019 01:05:36
00026 suncat1001 pw.x -npool 3 -i  Done                     01/17/2019 01:05:36
00027 suncat1001 pw.x -npool 3 -i  Done                     01/17/2019 01:05:36
00028 suncat1001 pw.x -npool 3 -i  Done                     01/17/2019 01:05:36
00029 suncat1001 pw.x -npool 3 -i  Done                     01/17/2019 01:05:36
00030 suncat1001 pw.x -npool 3 -i  Done                     01/17/2019 01:05:36
00031 suncat1001 pw.x -npool 3 -i  Done                     01/17/2019 01:05:36
00032 suncat1001 pw.x -npool 3 -i  Done                     01/17/2019 01:05:36
00033 suncat1001 pw.x -npool 3 -i  Done                     01/17/2019 01:05:36
00034 suncat1001 pw.x -npool 3 -i  Done                     01/17/2019 01:05:36
00035 suncat1001 pw.x -npool 3 -i  Done                     01/17/2019 01:05:36
