  python dir          : /u/if/mamunm/src/espresso
  espresso dir        : /nfs/slac/g/suncatfs/sw/espv18/espresso-dynpy-beef/bin
  pseudo dir          : /u/if/mamunm/psp/gbrv1.5pbe
  ase-espresso py git : GITVERSION



     Program PWSCF v.5.1rc2 (svn rev. 11289) starts on 24Apr2018 at 23:32:11 

     This program is part of the open-source Quantum ESPRESSO suite
     for quantum simulation of materials; please cite
         "P. Giannozzi et al., J. Phys.:Condens. Matter 21 395502 (2009);
          URL http://www.quantum-espresso.org", 
     in publications or presentations arising from this work. More details at
     http://www.quantum-espresso.org/quote

     Parallel version (MPI), running on    32 processors
     K-points division:     npool     =       4
     R & G space division:  proc/nbgrp/npool/nimage =       8
     Reading input from pw.inp
     Message from routine read_cards :
     DEPRECATED: no units specified in CELL_PARAMETERS card

     Current dimensions of program PWSCF are:
     Max number of different atomic species (ntypx) = 10
     Max number of k-points (npk) =  40000
     Max angular momentum in pseudopotentials (lmaxx) =  3
     Presently stress not available with electric field


     **************************************************************************
     Initializing libbeef V0.1.1 with the BEEF-vdW functional.
     Citation: Wellendorff et al., PRB 85, 235149 (2012).
     **************************************************************************


     IMPORTANT: XC functional enforced from input :
     Exchange-correlation      = BEEF-VDW ( 1  4 27 13 2)
     Any further DFT definition will be discarded
     Please, verify this is what you really want


     Subspace diagonalization in iterative solution of the eigenvalue problem:
     a serial algorithm will be used

 
     Parallelization info
     --------------------
     sticks:   dense  smooth     PW     G-vecs:    dense   smooth      PW
     Min         579     230     64               114907    29014    4366
     Max         580     231     66               114920    29056    4372
     Sum        4639    1843    517               919335   232275   34949
 


     bravais-lattice index     =            0
     lattice parameter (alat)  =       1.8897  a.u.
     unit-cell volume          =    7725.1200 (a.u.)^3
     number of atoms/cell      =           15
     number of atomic types    =            3
     number of electrons       =       138.00
     number of Kohn-Sham states=           79
     kinetic-energy cutoff     =      36.7493  Ry
     charge density cutoff     =     367.4932  Ry
     convergence threshold     =      1.0E-05
     mixing beta               =       0.3000
     number of iterations used =           10  plain     mixing
     Exchange-correlation      = BEEF-VDW ( 1  4 27 13 2)
     nstep                     =           50


     celldm(1)=   1.889726  celldm(2)=   0.000000  celldm(3)=   0.000000
     celldm(4)=   0.000000  celldm(5)=   0.000000  celldm(6)=   0.000000

     crystal axes: (cart. coord. in units of alat)
               a(1) = (   7.152277   0.000000   0.000000 )  
               a(2) = (   3.576139   6.194054   0.000000 )  
               a(3) = (   0.000000   0.000000  25.839810 )  

     reciprocal axes: (cart. coord. in units 2 pi/alat)
               b(1) = (  0.139816 -0.080723  0.000000 )  
               b(2) = (  0.000000  0.161445  0.000000 )  
               b(3) = (  0.000000  0.000000  0.038700 )  


     PseudoPot. # 1 for Y  read from file:
     /u/if/mamunm/psp/gbrv1.5pbe/Y.UPF
     MD5 check sum: d034151ed7554c50b6e82763ed42c788
     Pseudo is Ultrasoft + core correction, Zval = 11.0
     Generated by new atomic code, or converted to UPF format
     Using radial grid of  885 points,  6 beta functions with: 
                l(1) =   0
                l(2) =   0
                l(3) =   1
                l(4) =   1
                l(5) =   2
                l(6) =   2
     Q(r) pseudized with  8 coefficients,  rinner =    1.200   1.200   1.200
                                                       1.200   1.200

     PseudoPot. # 2 for C  read from file:
     /u/if/mamunm/psp/gbrv1.5pbe/C.UPF
     MD5 check sum: d1aef80898a10debaa0f26306b886e00
     Pseudo is Ultrasoft + core correction, Zval =  4.0
     Generated by new atomic code, or converted to UPF format
     Using radial grid of  721 points,  4 beta functions with: 
                l(1) =   0
                l(2) =   0
                l(3) =   1
                l(4) =   1
     Q(r) pseudized with  8 coefficients,  rinner =    1.100   1.100   1.100


     PseudoPot. # 3 for H  read from file:
     /u/if/mamunm/psp/gbrv1.5pbe/H.UPF
     MD5 check sum: 761ae9a214b05c3daf00ab9f6b793d6f
     Pseudo is Ultrasoft, Zval =  1.0
     Generated by new atomic code, or converted to UPF format
     Using radial grid of  615 points,  2 beta functions with: 
                l(1) =   0
                l(2) =   0
     Q(r) pseudized with  8 coefficients,  rinner =    0.700

     vdW kernel table read from file vdW_kernel_table
     MD5 check sum: 095c7af220d748ca6e76c0b4c6cfb241

     atomic species   valence    mass     pseudopotential
        Y1            11.00    88.90584     Y ( 1.00)
        C1             4.00    12.01100     C ( 1.00)
        H1             1.00     1.00800     H ( 1.00)

     No symmetry found



   Cartesian axes

     site n.     atom                  positions (alat units)
         1           Y1  tau(   1) = (   1.7880693   1.0323423  10.0000000  )
         2           Y1  tau(   2) = (   5.3642080   1.0323423  10.0000000  )
         3           Y1  tau(   3) = (   3.5761386   4.1293692  10.0000000  )
         4           Y1  tau(   4) = (   7.1522773   4.1293692  10.0000000  )
         5           Y1  tau(   5) = (   7.1522773   2.0646846  12.9199050  )
         6           Y1  tau(   6) = (   3.5761386   2.0646846  12.9199050  )
         7           Y1  tau(   7) = (   8.9403466   5.1617115  12.9199050  )
         8           Y1  tau(   8) = (   5.3642080   5.1617115  12.9199050  )
         9           Y1  tau(   9) = (   0.0000000   0.0000000  15.8398100  )
        10           Y1  tau(  10) = (   3.5761386   0.0000000  15.8398100  )
        11           Y1  tau(  11) = (   1.7880693   3.0970269  15.8398100  )
        12           Y1  tau(  12) = (   5.3642080   3.0970269  15.8398100  )
        13           C1  tau(  13) = (   1.7880693   0.0000000  17.8348100  )
        14           H1  tau(  14) = (   2.4180693   0.6300000  18.4648100  )
        15           H1  tau(  15) = (   4.7342080   5.5640538  18.4648100  )

     number of k points=    20  Fermi-Dirac smearing, width (Ry)=  0.0110
                       cart. coord. in units 2pi/alat
        k(    1) = (   0.0000000   0.0000000   0.0000000), wk =   0.0555556
        k(    2) = (   0.0000000   0.0269075   0.0000000), wk =   0.1111111
        k(    3) = (   0.0000000   0.0538151   0.0000000), wk =   0.1111111
        k(    4) = (   0.0000000  -0.0807226   0.0000000), wk =   0.0555556
        k(    5) = (   0.0233026  -0.0134538   0.0000000), wk =   0.1111111
        k(    6) = (   0.0233026   0.0134538   0.0000000), wk =   0.1111111
        k(    7) = (   0.0233026   0.0403613   0.0000000), wk =   0.1111111
        k(    8) = (   0.0233026  -0.0941763   0.0000000), wk =   0.1111111
        k(    9) = (   0.0233026  -0.0672688   0.0000000), wk =   0.1111111
        k(   10) = (   0.0233026  -0.0403613   0.0000000), wk =   0.1111111
        k(   11) = (   0.0466052  -0.0269075   0.0000000), wk =   0.1111111
        k(   12) = (   0.0466052   0.0000000   0.0000000), wk =   0.1111111
        k(   13) = (   0.0466052   0.0269075   0.0000000), wk =   0.1111111
        k(   14) = (   0.0466052  -0.1076301   0.0000000), wk =   0.1111111
        k(   15) = (   0.0466052  -0.0807226   0.0000000), wk =   0.1111111
        k(   16) = (   0.0466052  -0.0538151   0.0000000), wk =   0.1111111
        k(   17) = (  -0.0699078   0.0403613   0.0000000), wk =   0.0555556
        k(   18) = (  -0.0699078   0.0672688   0.0000000), wk =   0.1111111
        k(   19) = (  -0.0699078   0.0941763   0.0000000), wk =   0.1111111
        k(   20) = (  -0.0699078  -0.0403613   0.0000000), wk =   0.0555556

     Dense  grid:   919335 G-vectors     FFT dimensions: (  90,  90, 300)

     Smooth grid:   232275 G-vectors     FFT dimensions: (  54,  54, 192)

     Largest allocated arrays     est. size (Mb)     dimensions
        Kohn-Sham Wavefunctions         4.44 Mb     (    3683,   79)
        NL pseudopotentials            12.81 Mb     (    3683,  228)
        Each V/rho on FFT grid          4.70 Mb     (  307800)
        Each G-vector array             0.88 Mb     (  114920)
        G-vector shells                 0.22 Mb     (   29028)
     Largest temporary arrays     est. size (Mb)     dimensions
        Auxiliary wavefunctions        17.76 Mb     (    3683,  316)
        Each subspace H/S matrix        1.52 Mb     (     316,  316)
        Each <psi_i|beta_j> matrix      0.27 Mb     (     228,   79)
        Arrays for rho mixing          46.97 Mb     (  307800,   10)

     Initial potential from superposition of free atoms
     Check: negative starting charge=   -0.000513

     starting charge  137.94631, renormalised to  138.00000

     negative rho (up, down):  5.133E-04 0.000E+00


     ************************************************************************
     *
     * You are using vdW-DF for exchange-correlation in this calculation.
     * Please cite the following three references that made this development
     * possible:
     *
     *   M. Dion, H. Rydberg, E. Schroder, D. C. Langreth, and
     *   B. I. Lundqvist, Phys. Rev. Lett. 92, 246401 (2004).
     *
     *   T. Thonhauser, V. R. Cooper, S. Li, A. Puzder, P. Hyldgaard, and
     *   D. C. Langreth, Phys. Rev. B 76, 125112 (2007).
     *
     *   G. Roman-Perez and J. M. Soler, Phys. Rev. Lett. 103, 096102 (2009).
     *
     *
     * If you are using vdW-DF2, please also cite:
     *
     *   K. Lee, E. D. Murray, L. Kong, B. I. Lundqvist, and
     *   D. C. Langreth, Phys. Rev. B 82, 081101(R) (2010).
     *
     *
     * If you are calculating the stress with vdW-DF, please also cite:
     *
     *   R. Sabatini, E. Kucukbenli, B. Kolb, T. Thonhauser, and
     *   S. de Gironcoli, J. Phys.: Condens. Matter 24, 424209 (2012).
     *
     ************************************************************************

     Carrying out vdW-DF run using the following parameters:

     Nqs =      20    Nr_points =    1024   r_max =   100.000
     q_mesh =
               0.00001000     0.04494208     0.09755937     0.15916263
               0.23128650     0.31572767     0.41458969     0.53033537
               0.66584808     0.82450364     1.01025438     1.22772762
               1.48234092     1.78043706     2.12944203     2.53805004
               3.01644009     3.57652955     4.23227104     5.00000000

     Gradients computed in reciprocal space

     ************************************************************************


 
     Adding external electric field

     Computed dipole along edir(3) : 
        Dipole               -0.0221 Ry au,         -0.0560 Debye
        Dipole field         -0.0000 Ry au
 
        Potential amp.        0.0034 Ry
        Total length         47.6094 bohr
 
     Starting wfc are  162 randomized atomic wfcs

     total cpu time spent up to now is       20.7 secs

     per-process dynamical memory:   121.2 Mb

     Self-consistent Calculation

     iteration #  1     ecut=    36.75 Ry     beta=0.30
     Davidson diagonalization with overlap
     ethr =  1.00E-02,  avg # of iterations =  2.0

     negative rho (up, down):  3.143E-04 0.000E+00
 
     Adding external electric field

     Computed dipole along edir(3) : 
        Dipole               -4.4070 Ry au,        -11.2015 Debye
        Dipole field         -0.0072 Ry au
 
        Potential amp.        0.6826 Ry
        Total length         47.6094 bohr
 

     total cpu time spent up to now is       47.0 secs

     total energy              =   -1136.34101679 Ry
     Harris-Foulkes estimate   =   -1138.88872214 Ry
     estimated scf accuracy    <       5.59595949 Ry

     iteration #  2     ecut=    36.75 Ry     beta=0.30
     Davidson diagonalization with overlap
     ethr =  4.06E-03,  avg # of iterations =  9.0

     negative rho (up, down):  1.477E-04 0.000E+00
 
     Adding external electric field

     Computed dipole along edir(3) : 
        Dipole                2.1107 Ry au,          5.3650 Debye
        Dipole field          0.0034 Ry au
 
        Potential amp.       -0.3269 Ry
        Total length         47.6094 bohr
 

     total cpu time spent up to now is       84.4 secs

     total energy              =   -1129.21875577 Ry
     Harris-Foulkes estimate   =   -1146.38800111 Ry
     estimated scf accuracy    <     376.46111564 Ry

     iteration #  3     ecut=    36.75 Ry     beta=0.30
     Davidson diagonalization with overlap
     ethr =  4.06E-03,  avg # of iterations =  9.2

     negative rho (up, down):  1.333E-04 0.000E+00
 
     Adding external electric field

     Computed dipole along edir(3) : 
        Dipole                0.4314 Ry au,          1.0966 Debye
        Dipole field          0.0007 Ry au
 
        Potential amp.       -0.0668 Ry
        Total length         47.6094 bohr
 

     total cpu time spent up to now is      123.3 secs

     total energy              =   -1135.31661750 Ry
     Harris-Foulkes estimate   =   -1141.71993067 Ry
     estimated scf accuracy    <     170.83437201 Ry

     iteration #  4     ecut=    36.75 Ry     beta=0.30
     Davidson diagonalization with overlap
     ethr =  4.06E-03,  avg # of iterations =  6.8

     negative rho (up, down):  9.662E-05 0.000E+00
 
     Adding external electric field

     Computed dipole along edir(3) : 
        Dipole                0.5189 Ry au,          1.3188 Debye
        Dipole field          0.0008 Ry au
 
        Potential amp.       -0.0804 Ry
        Total length         47.6094 bohr
 

     total cpu time spent up to now is      155.6 secs

     total energy              =   -1138.20410138 Ry
     Harris-Foulkes estimate   =   -1138.33252997 Ry
     estimated scf accuracy    <       1.19681987 Ry

     iteration #  5     ecut=    36.75 Ry     beta=0.30
     Davidson diagonalization with overlap
     ethr =  8.67E-04,  avg # of iterations =  7.3

     negative rho (up, down):  8.941E-05 0.000E+00
 
     Adding external electric field

     Computed dipole along edir(3) : 
        Dipole                0.2119 Ry au,          0.5386 Debye
        Dipole field          0.0003 Ry au
 
        Potential amp.       -0.0328 Ry
        Total length         47.6094 bohr
 

     total cpu time spent up to now is      186.9 secs

     total energy              =   -1138.24108313 Ry
     Harris-Foulkes estimate   =   -1138.28614115 Ry
     estimated scf accuracy    <       0.31171766 Ry

     iteration #  6     ecut=    36.75 Ry     beta=0.30
     Davidson diagonalization with overlap
     ethr =  2.26E-04,  avg # of iterations =  8.1

     negative rho (up, down):  7.381E-05 0.000E+00
 
     Adding external electric field

     Computed dipole along edir(3) : 
        Dipole                0.0665 Ry au,          0.1690 Debye
        Dipole field          0.0001 Ry au
 
        Potential amp.       -0.0103 Ry
        Total length         47.6094 bohr
 

     total cpu time spent up to now is      218.2 secs

     total energy              =   -1138.24599622 Ry
     Harris-Foulkes estimate   =   -1138.26304418 Ry
     estimated scf accuracy    <       0.13732323 Ry

     iteration #  7     ecut=    36.75 Ry     beta=0.30
     Davidson diagonalization with overlap
     ethr =  9.95E-05,  avg # of iterations =  9.6

     negative rho (up, down):  9.672E-05 0.000E+00
 
     Adding external electric field

     Computed dipole along edir(3) : 
        Dipole               -0.0997 Ry au,         -0.2534 Debye
        Dipole field         -0.0002 Ry au
 
        Potential amp.        0.0154 Ry
        Total length         47.6094 bohr
 

     total cpu time spent up to now is      251.0 secs

     total energy              =   -1138.25280573 Ry
     Harris-Foulkes estimate   =   -1138.25588662 Ry
     estimated scf accuracy    <       0.02705888 Ry

     iteration #  8     ecut=    36.75 Ry     beta=0.30
     Davidson diagonalization with overlap
     ethr =  1.96E-05,  avg # of iterations =  8.2

     negative rho (up, down):  1.256E-04 0.000E+00
 
     Adding external electric field

     Computed dipole along edir(3) : 
        Dipole               -0.2213 Ry au,         -0.5626 Debye
        Dipole field         -0.0004 Ry au
 
        Potential amp.        0.0343 Ry
        Total length         47.6094 bohr
 

     total cpu time spent up to now is      284.6 secs

     total energy              =   -1138.25503022 Ry
     Harris-Foulkes estimate   =   -1138.25758945 Ry
     estimated scf accuracy    <       0.04561054 Ry

     iteration #  9     ecut=    36.75 Ry     beta=0.30
     Davidson diagonalization with overlap
     ethr =  1.96E-05,  avg # of iterations =  3.0

     negative rho (up, down):  1.333E-04 0.000E+00
 
     Adding external electric field

     Computed dipole along edir(3) : 
        Dipole               -0.2175 Ry au,         -0.5528 Debye
        Dipole field         -0.0004 Ry au
 
        Potential amp.        0.0337 Ry
        Total length         47.6094 bohr
 

     total cpu time spent up to now is      312.0 secs

     total energy              =   -1138.25678504 Ry
     Harris-Foulkes estimate   =   -1138.25689609 Ry
     estimated scf accuracy    <       0.00291721 Ry

     iteration # 10     ecut=    36.75 Ry     beta=0.30
     Davidson diagonalization with overlap
     ethr =  2.11E-06,  avg # of iterations =  8.7

     negative rho (up, down):  1.358E-04 0.000E+00
 
     Adding external electric field

     Computed dipole along edir(3) : 
        Dipole               -0.2017 Ry au,         -0.5126 Debye
        Dipole field         -0.0003 Ry au
 
        Potential amp.        0.0312 Ry
        Total length         47.6094 bohr
 

     total cpu time spent up to now is      347.5 secs

     total energy              =   -1138.25702003 Ry
     Harris-Foulkes estimate   =   -1138.25749572 Ry
     estimated scf accuracy    <       0.00479790 Ry

     iteration # 11     ecut=    36.75 Ry     beta=0.30
     Davidson diagonalization with overlap
     ethr =  2.11E-06,  avg # of iterations =  3.0

     negative rho (up, down):  1.466E-04 0.000E+00
 
     Adding external electric field

     Computed dipole along edir(3) : 
        Dipole               -0.1992 Ry au,         -0.5063 Debye
        Dipole field         -0.0003 Ry au
 
        Potential amp.        0.0309 Ry
        Total length         47.6094 bohr
 

     total cpu time spent up to now is      374.8 secs

     total energy              =   -1138.25719246 Ry
     Harris-Foulkes estimate   =   -1138.25720828 Ry
     estimated scf accuracy    <       0.00115080 Ry

     iteration # 12     ecut=    36.75 Ry     beta=0.30
     Davidson diagonalization with overlap
     ethr =  8.34E-07,  avg # of iterations =  5.8

     negative rho (up, down):  1.482E-04 0.000E+00
 
     Adding external electric field

     Computed dipole along edir(3) : 
        Dipole               -0.2068 Ry au,         -0.5257 Debye
        Dipole field         -0.0003 Ry au
 
        Potential amp.        0.0320 Ry
        Total length         47.6094 bohr
 

     total cpu time spent up to now is      406.8 secs

     total energy              =   -1138.25728131 Ry
     Harris-Foulkes estimate   =   -1138.25732623 Ry
     estimated scf accuracy    <       0.00031556 Ry

     iteration # 13     ecut=    36.75 Ry     beta=0.30
     Davidson diagonalization with overlap
     ethr =  2.29E-07,  avg # of iterations =  3.6

     negative rho (up, down):  1.578E-04 0.000E+00
 
     Adding external electric field

     Computed dipole along edir(3) : 
        Dipole               -0.2205 Ry au,         -0.5606 Debye
        Dipole field         -0.0004 Ry au
 
        Potential amp.        0.0342 Ry
        Total length         47.6094 bohr
 

     total cpu time spent up to now is      435.1 secs

     total energy              =   -1138.25729869 Ry
     Harris-Foulkes estimate   =   -1138.25729550 Ry
     estimated scf accuracy    <       0.00005657 Ry

     iteration # 14     ecut=    36.75 Ry     beta=0.30
     Davidson diagonalization with overlap
     ethr =  4.10E-08,  avg # of iterations =  8.2

     negative rho (up, down):  1.623E-04 0.000E+00
 
     Adding external electric field

     Computed dipole along edir(3) : 
        Dipole               -0.2179 Ry au,         -0.5540 Debye
        Dipole field         -0.0004 Ry au
 
        Potential amp.        0.0338 Ry
        Total length         47.6094 bohr
 

     total cpu time spent up to now is      472.1 secs

     total energy              =   -1138.25731319 Ry
     Harris-Foulkes estimate   =   -1138.25732614 Ry
     estimated scf accuracy    <       0.00004817 Ry

     iteration # 15     ecut=    36.75 Ry     beta=0.30
     Davidson diagonalization with overlap
     ethr =  3.49E-08,  avg # of iterations =  5.9

     negative rho (up, down):  1.619E-04 0.000E+00

     negative rho (up, down):  1.619E-04 0.000E+00

     negative rho (up, down):  1.619E-04 0.000E+00

     negative rho (up, down):  1.619E-04 0.000E+00

     negative rho (up, down):  1.619E-04 0.000E+00

     negative rho (up, down):  1.619E-04 0.000E+00

     negative rho (up, down):  1.619E-04 0.000E+00

     negative rho (up, down):  1.619E-04 0.000E+00

     negative rho (up, down):  1.619E-04 0.000E+00

     negative rho (up, down):  1.619E-04 0.000E+00

     negative rho (up, down):  1.619E-04 0.000E+00

     negative rho (up, down):  1.619E-04 0.000E+00

     negative rho (up, down):  1.619E-04 0.000E+00

     negative rho (up, down):  1.619E-04 0.000E+00

     negative rho (up, down):  1.619E-04 0.000E+00

     negative rho (up, down):  1.619E-04 0.000E+00

     negative rho (up, down):  1.619E-04 0.000E+00

     negative rho (up, down):  1.619E-04 0.000E+00

     negative rho (up, down):  1.619E-04 0.000E+00

     negative rho (up, down):  1.619E-04 0.000E+00

     negative rho (up, down):  1.619E-04 0.000E+00

     negative rho (up, down):  1.619E-04 0.000E+00

     negative rho (up, down):  1.619E-04 0.000E+00

     negative rho (up, down):  1.619E-04 0.000E+00

     negative rho (up, down):  1.619E-04 0.000E+00

     negative rho (up, down):  1.619E-04 0.000E+00

     negative rho (up, down):  1.619E-04 0.000E+00

     negative rho (up, down):  1.619E-04 0.000E+00

     negative rho (up, down):  1.619E-04 0.000E+00

     negative rho (up, down):  1.619E-04 0.000E+00

     negative rho (up, down):  1.619E-04 0.000E+00

     negative rho (up, down):  1.619E-04 0.000E+00

     negative rho (up, down):  1.619E-04 0.000E+00

     negative rho (up, down):  1.619E-04 0.000E+00

     negative rho (up, down):  1.619E-04 0.000E+00
 
     Adding external electric field

     Computed dipole along edir(3) : 
        Dipole               -0.2185 Ry au,         -0.5555 Debye
        Dipole field         -0.0004 Ry au
 
        Potential amp.        0.0338 Ry
        Total length         47.6094 bohr
 

     total cpu time spent up to now is      604.3 secs

     End of self-consistent calculation

          k = 0.0000 0.0000 0.0000 ( 28997 PWs)   bands (ev):

   -42.5038 -42.4686 -42.4234 -42.3822 -42.3805 -42.3790 -42.1926 -42.1717
   -41.8700 -41.8320 -41.8269 -41.8214 -22.5621 -22.5460 -22.5326 -22.5286
   -22.5255 -22.5154 -22.4939 -22.4583 -22.4507 -22.3853 -22.3830 -22.3815
   -22.2328 -22.2219 -22.2051 -22.2038 -22.2027 -22.1751 -22.1232 -22.1050
   -22.1046 -22.0607 -22.0258 -21.9863 -21.9805 -21.9769 -21.9001 -21.7744
   -21.7571 -21.7501 -21.7427 -21.6922 -21.6874 -21.6847 -21.5918 -21.5902
   -10.5563  -4.8057  -3.3773  -2.5421  -1.6887  -1.2158  -0.7530  -0.6831
    -0.6397  -0.5793  -0.5665  -0.4935  -0.3824  -0.2473  -0.0558   0.2081
     0.2413   0.2708   0.4126   0.6578   0.7915   0.9039   1.1103   1.4949
     1.5392   1.5855   1.6305   1.6418   1.7327   2.0336   2.1120

          k = 0.0000 0.0269 0.0000 ( 29019 PWs)   bands (ev):

   -42.5035 -42.4686 -42.4205 -42.3839 -42.3813 -42.3794 -42.1930 -42.1717
   -41.8672 -41.8337 -41.8269 -41.8225 -22.5535 -22.5425 -22.5142 -22.5105
   -22.5069 -22.4966 -22.4875 -22.4484 -22.4400 -22.3880 -22.3822 -22.3817
   -22.2308 -22.2286 -22.2219 -22.2198 -22.1972 -22.1742 -22.1371 -22.1317
   -22.1115 -22.0704 -22.0498 -21.9726 -21.9698 -21.9561 -21.9012 -21.7717
   -21.7567 -21.7493 -21.7426 -21.7061 -21.7028 -21.6806 -21.6199 -21.5971
   -10.5558  -4.8087  -3.2305  -2.4145  -1.6355  -1.1442  -0.8571  -0.6870
    -0.6264  -0.5370  -0.4948  -0.4421  -0.2135  -0.1087   0.0159   0.2654
     0.3163   0.3449   0.4515   0.7030   0.7956   0.9499   1.1233   1.4143
     1.4852   1.5262   1.5366   1.5780   1.6683   1.9917   1.9937

          k = 0.0000 0.0538 0.0000 ( 29058 PWs)   bands (ev):

   -42.5030 -42.4684 -42.4128 -42.3914 -42.3815 -42.3795 -42.1938 -42.1717
   -41.8596 -41.8397 -41.8269 -41.8241 -22.5435 -22.5270 -22.4932 -22.4757
   -22.4736 -22.4465 -22.4341 -22.4249 -22.4001 -22.3966 -22.3805 -22.3796
   -22.2627 -22.2605 -22.2546 -22.2251 -22.2150 -22.1793 -22.1757 -22.1543
   -22.1298 -22.1063 -22.0908 -21.9455 -21.9384 -21.8999 -21.8923 -21.7669
   -21.7565 -21.7500 -21.7451 -21.7412 -21.7384 -21.6960 -21.6635 -21.6149
   -10.5548  -4.8143  -2.8185  -2.1071  -1.6229  -1.3217  -0.8715  -0.5890
    -0.5472  -0.5110  -0.2854  -0.2151  -0.0041   0.1010   0.3381   0.4150
     0.5209   0.5529   0.6149   0.8098   0.8581   1.0398   1.0629   1.2453
     1.2936   1.2997   1.3372   1.4203   1.4931   1.6704   1.7291

          k = 0.0000-0.0807 0.0000 ( 29048 PWs)   bands (ev):

   -42.5027 -42.4683 -42.4031 -42.4011 -42.3815 -42.3795 -42.1942 -42.1717
   -41.8501 -41.8487 -41.8269 -41.8247 -22.5409 -22.5160 -22.4916 -22.4502
   -22.4485 -22.4247 -22.4161 -22.4018 -22.3834 -22.3784 -22.3615 -22.3228
   -22.3209 -22.2904 -22.2874 -22.2797 -22.2223 -22.1838 -22.1637 -22.1550
   -22.1543 -22.1374 -22.1014 -21.9335 -21.9146 -21.8927 -21.7996 -21.7963
   -21.7695 -21.7676 -21.7644 -21.7557 -21.7454 -21.7411 -21.6421 -21.6366
   -10.5543  -4.8170  -2.3055  -2.1670  -1.7868  -1.3561  -0.9347  -0.5057
    -0.4680  -0.3920  -0.1067  -0.0821  -0.0206   0.1687   0.6521   0.6749
     0.6794   0.7254   0.7850   0.7968   0.9669   0.9774   1.0370   1.0546
     1.0794   1.1451   1.2381   1.3582   1.4221   1.4370   1.4675

          k = 0.0233-0.0135 0.0000 ( 29019 PWs)   bands (ev):

   -42.5028 -42.4695 -42.4205 -42.3841 -42.3805 -42.3799 -42.1914 -42.1731
   -41.8672 -41.8335 -41.8274 -41.8223 -22.5468 -22.5359 -22.5175 -22.5122
   -22.5036 -22.5004 -22.4922 -22.4492 -22.4439 -22.3876 -22.3825 -22.3819
   -22.2518 -22.2228 -22.2208 -22.2174 -22.1974 -22.1766 -22.1349 -22.1236
   -22.1117 -22.0600 -22.0379 -21.9732 -21.9657 -21.9638 -21.9139 -21.7712
   -21.7563 -21.7501 -21.7421 -21.7063 -21.7021 -21.6810 -21.6198 -21.5973
   -10.5555  -4.8065  -3.2298  -2.4106  -1.6152  -1.1082  -0.9470  -0.6807
    -0.6319  -0.5911  -0.4711  -0.4145  -0.2325  -0.0894   0.0600   0.2586
     0.3157   0.3479   0.4486   0.7029   0.8059   0.9210   1.1236   1.4116
     1.4427   1.5273   1.5495   1.5793   1.6490   1.9657   2.0124

          k = 0.0233 0.0135 0.0000 ( 29019 PWs)   bands (ev):

   -42.5028 -42.4695 -42.4205 -42.3838 -42.3815 -42.3792 -42.1914 -42.1731
   -41.8672 -41.8323 -41.8291 -41.8216 -22.5468 -22.5373 -22.5175 -22.5115
   -22.5044 -22.5004 -22.4924 -22.4490 -22.4432 -22.3869 -22.3842 -22.3809
   -22.2510 -22.2238 -22.2211 -22.2185 -22.1972 -22.1782 -22.1350 -22.1142
   -22.1114 -22.0671 -22.0338 -21.9743 -21.9662 -21.9628 -21.9164 -21.7709
   -21.7562 -21.7505 -21.7419 -21.7065 -21.7003 -21.6825 -21.6187 -21.5984
   -10.5554  -4.8115  -3.2275  -2.4084  -1.6131  -1.0964  -0.9035  -0.6921
    -0.6087  -0.5959  -0.5191  -0.4042  -0.2393  -0.1340   0.0543   0.2731
     0.3254   0.3483   0.4590   0.7022   0.7980   0.9266   1.1231   1.3929
     1.4579   1.5204   1.5514   1.5772   1.6528   1.9559   2.0231

          k = 0.0233 0.0404 0.0000 ( 29087 PWs)   bands (ev):

   -42.5024 -42.4694 -42.4152 -42.3862 -42.3859 -42.3778 -42.1921 -42.1730
   -41.8621 -41.8355 -41.8308 -41.8219 -22.5422 -22.5228 -22.4961 -22.4920
   -22.4725 -22.4641 -22.4588 -22.4392 -22.4174 -22.3906 -22.3891 -22.3768
   -22.2730 -22.2484 -22.2386 -22.2066 -22.2059 -22.1883 -22.1795 -22.1276
   -22.1250 -22.0833 -22.0714 -21.9610 -21.9392 -21.9248 -21.9090 -21.7672
   -21.7570 -21.7526 -21.7489 -21.7410 -21.6917 -21.6882 -21.6696 -21.6117
   -10.5547  -4.8182  -2.9446  -2.1816  -1.5389  -1.0616  -1.0465  -0.8474
    -0.5739  -0.4435  -0.3477  -0.2232  -0.0392   0.0600   0.1841   0.3883
     0.4523   0.5007   0.5551   0.7865   0.8355   0.9967   1.1005   1.2701
     1.3229   1.3391   1.4666   1.5106   1.5491   1.6917   1.7805

          k = 0.0233-0.0942 0.0000 ( 29098 PWs)   bands (ev):

   -42.5019 -42.4693 -42.4061 -42.3952 -42.3874 -42.3765 -42.1927 -42.1730
   -41.8535 -41.8430 -41.8323 -41.8216 -22.5389 -22.5030 -22.4933 -22.4527
   -22.4287 -22.4260 -22.4181 -22.4042 -22.3923 -22.3824 -22.3763 -22.3716
   -22.3321 -22.2792 -22.2622 -22.2522 -22.2304 -22.1818 -22.1806 -22.1518
   -22.1461 -22.1176 -22.0937 -21.9450 -21.9116 -21.8851 -21.8493 -21.8082
   -21.7637 -21.7586 -21.7525 -21.7485 -21.7409 -21.7122 -21.6646 -21.6361
   -10.5540  -4.8196  -2.4419  -1.9550  -1.6736  -1.2888  -1.1137  -0.8376
    -0.4585  -0.3832  -0.0660   0.0316   0.1216   0.2597   0.4637   0.5468
     0.6602   0.6994   0.7476   0.8730   0.9514   0.9601   1.0689   1.1338
     1.1524   1.2248   1.2645   1.2998   1.3908   1.4394   1.5093

          k = 0.0233-0.0673 0.0000 ( 29098 PWs)   bands (ev):

   -42.5019 -42.4693 -42.4061 -42.3953 -42.3873 -42.3765 -42.1927 -42.1730
   -41.8532 -41.8438 -41.8315 -41.8219 -22.5389 -22.5018 -22.4932 -22.4530
   -22.4284 -22.4258 -22.4174 -22.4043 -22.3924 -22.3828 -22.3764 -22.3718
   -22.3320 -22.2787 -22.2597 -22.2547 -22.2305 -22.1809 -22.1762 -22.1576
   -22.1507 -22.1238 -22.0864 -21.9433 -21.9109 -21.8852 -21.8490 -21.8091
   -21.7640 -21.7589 -21.7518 -21.7488 -21.7411 -21.7118 -21.6649 -21.6354
   -10.5541  -4.8148  -2.4487  -1.9541  -1.6678  -1.3272  -1.1128  -0.7998
    -0.5531  -0.3504   0.0115   0.0695   0.1586   0.1764   0.4782   0.5209
     0.6486   0.7004   0.7577   0.8840   0.9371   0.9808   1.0643   1.1189
     1.1627   1.2392   1.2590   1.2882   1.3842   1.4419   1.5011

          k = 0.0233-0.0404 0.0000 ( 29087 PWs)   bands (ev):

   -42.5024 -42.4694 -42.4152 -42.3872 -42.3848 -42.3779 -42.1921 -42.1730
   -41.8620 -41.8371 -41.8283 -41.8229 -22.5424 -22.5201 -22.4962 -22.4923
   -22.4717 -22.4638 -22.4583 -22.4392 -22.4191 -22.3917 -22.3879 -22.3769
   -22.2728 -22.2508 -22.2337 -22.2067 -22.2058 -22.1881 -22.1744 -22.1470
   -22.1257 -22.0810 -22.0684 -21.9591 -21.9379 -21.9250 -21.9069 -21.7677
   -21.7574 -21.7526 -21.7488 -21.7417 -21.6916 -21.6872 -21.6708 -21.6106
   -10.5549  -4.8083  -2.9506  -2.1850  -1.5538  -1.0891  -1.0469  -0.8757
    -0.6253  -0.4456  -0.2638  -0.1849  -0.0254   0.1205   0.1929   0.3237
     0.4457   0.4928   0.5583   0.7808   0.8406   0.9942   1.1008   1.2922
     1.3237   1.3298   1.4710   1.5025   1.5250   1.6923   1.8242

          k = 0.0466-0.0269 0.0000 ( 29058 PWs)   bands (ev):

   -42.5006 -42.4714 -42.4128 -42.3915 -42.3805 -42.3804 -42.1883 -42.1766
   -41.8597 -41.8392 -41.8281 -41.8233 -22.5371 -22.5009 -22.4831 -22.4790
   -22.4718 -22.4664 -22.4352 -22.4303 -22.4190 -22.3972 -22.3812 -22.3806
   -22.3054 -22.2618 -22.2611 -22.2192 -22.2077 -22.1833 -22.1795 -22.1300
   -22.1261 -22.0727 -22.0471 -21.9791 -21.9339 -21.9291 -21.8896 -21.7651
   -21.7563 -21.7528 -21.7421 -21.7414 -21.7382 -21.6958 -21.6637 -21.6152
   -10.5541  -4.8080  -2.8123  -2.0718  -1.5556  -1.4058  -0.8974  -0.7143
    -0.5268  -0.5045  -0.2261  -0.2139  -0.0569   0.2199   0.3531   0.3889
     0.5111   0.5690   0.6011   0.8091   0.8630   0.9758   1.0522   1.2396
     1.2800   1.2931   1.3271   1.3966   1.4974   1.6499   1.6983

          k = 0.0466 0.0000 0.0000 ( 29087 PWs)   bands (ev):

   -42.5007 -42.4714 -42.4152 -42.3870 -42.3850 -42.3779 -42.1880 -42.1767
   -41.8622 -41.8345 -41.8320 -41.8217 -22.5382 -22.5034 -22.4961 -22.4871
   -22.4819 -22.4660 -22.4613 -22.4394 -22.4296 -22.3911 -22.3886 -22.3774
   -22.3041 -22.2729 -22.2113 -22.2077 -22.2053 -22.1871 -22.1854 -22.1257
   -22.0999 -22.0599 -22.0440 -21.9897 -21.9486 -21.9282 -21.9147 -21.7661
   -21.7570 -21.7537 -21.7481 -21.7405 -21.6919 -21.6880 -21.6697 -21.6118
   -10.5542  -4.8138  -2.9419  -2.1668  -1.4985  -1.0913  -1.0523  -0.8518
    -0.6399  -0.5443  -0.2698  -0.1760  -0.0771   0.0860   0.2558   0.3608
     0.4571   0.5085   0.5554   0.7815   0.8480   0.9449   1.1000   1.2624
     1.2930   1.3422   1.4128   1.4696   1.5412   1.6779   1.8339

          k = 0.0466 0.0269 0.0000 ( 29058 PWs)   bands (ev):

   -42.5006 -42.4714 -42.4128 -42.3913 -42.3817 -42.3793 -42.1883 -42.1766
   -41.8600 -41.8371 -41.8314 -41.8219 -22.5370 -22.5014 -22.4889 -22.4790
   -22.4732 -22.4664 -22.4353 -22.4301 -22.4150 -22.3967 -22.3826 -22.3794
   -22.3022 -22.2619 -22.2615 -22.2232 -22.2114 -22.1895 -22.1793 -22.1297
   -22.0886 -22.0770 -22.0530 -21.9916 -21.9337 -21.9311 -21.8892 -21.7645
   -21.7563 -21.7530 -21.7427 -21.7401 -21.7374 -21.6947 -21.6651 -21.6162
   -10.5538  -4.8225  -2.8045  -2.0700  -1.5073  -1.4028  -0.8115  -0.7087
    -0.5770  -0.4957  -0.3256  -0.1866  -0.0087   0.0583   0.3510   0.4535
     0.5427   0.5617   0.5953   0.8065   0.8713   0.9637   1.0528   1.2400
     1.2742   1.2958   1.3307   1.3952   1.4737   1.6645   1.7062

          k = 0.0466-0.1076 0.0000 ( 29098 PWs)   bands (ev):

   -42.5003 -42.4713 -42.4061 -42.3952 -42.3875 -42.3765 -42.1888 -42.1765
   -41.8541 -41.8404 -41.8349 -41.8210 -22.5348 -22.4991 -22.4719 -22.4518
   -22.4408 -22.4244 -22.4230 -22.4110 -22.3993 -22.3908 -22.3766 -22.3728
   -22.3321 -22.3088 -22.2781 -22.2367 -22.2271 -22.1910 -22.1799 -22.1510
   -22.1040 -22.0879 -22.0770 -21.9861 -21.9142 -21.8900 -21.8474 -21.8081
   -21.7618 -21.7578 -21.7539 -21.7482 -21.7399 -21.7111 -21.6661 -21.6368
   -10.5533  -4.8250  -2.4255  -1.8942  -1.6818  -1.3197  -1.0838  -0.8675
    -0.5324  -0.3063  -0.0826   0.0534   0.0840   0.2196   0.4736   0.5465
     0.6550   0.6976   0.7562   0.8877   0.9164   1.0044   1.0207   1.1035
     1.1693   1.2221   1.2798   1.3559   1.3621   1.4333   1.4754

          k = 0.0466-0.0807 0.0000 ( 29103 PWs)   bands (ev):

   -42.5001 -42.4713 -42.3983 -42.3966 -42.3952 -42.3751 -42.1891 -42.1764
   -41.8484 -41.8436 -41.8381 -41.8203 -22.5338 -22.4984 -22.4498 -22.4256
   -22.4125 -22.4091 -22.4070 -22.4041 -22.3976 -22.3941 -22.3699 -22.3541
   -22.3529 -22.3518 -22.3239 -22.2365 -22.1917 -22.1892 -22.1879 -22.1816
   -22.1247 -22.1099 -22.0702 -21.9807 -21.8733 -21.8683 -21.8281 -21.8257
   -21.8224 -21.7606 -21.7543 -21.7508 -21.7399 -21.6752 -21.6727 -21.6697
   -10.5532  -4.8191  -2.0238  -1.8135  -1.7869  -1.5720  -1.0476  -0.9623
    -0.6967  -0.1439   0.0418   0.2838   0.3039   0.3766   0.4269   0.4432
     0.7529   0.7967   0.8550   0.8688   0.9222   0.9978   1.0491   1.1125
     1.1241   1.1569   1.1768   1.2773   1.3421   1.3599   1.4220

          k = 0.0466-0.0538 0.0000 ( 29098 PWs)   bands (ev):

   -42.5003 -42.4713 -42.4060 -42.3955 -42.3872 -42.3765 -42.1888 -42.1765
   -41.8533 -41.8433 -41.8320 -41.8218 -22.5349 -22.4991 -22.4643 -22.4514
   -22.4395 -22.4246 -22.4231 -22.4124 -22.4028 -22.3904 -22.3764 -22.3730
   -22.3319 -22.3136 -22.2777 -22.2328 -22.2229 -22.1842 -22.1780 -22.1515
   -22.1370 -22.1048 -22.0534 -21.9764 -21.9129 -21.8895 -21.8480 -21.8093
   -21.7626 -21.7585 -21.7523 -21.7497 -21.7403 -21.7116 -21.6650 -21.6357
   -10.5536  -4.8107  -2.4373  -1.8905  -1.7090  -1.3629  -1.0833  -0.8943
    -0.4977  -0.3509  -0.0184   0.0491   0.1514   0.2490   0.4713   0.5262
     0.6458   0.6965   0.7606   0.8749   0.9238   0.9903   1.0267   1.1097
     1.1667   1.2245   1.2611   1.3511   1.3705   1.4425   1.5028

          k =-0.0699 0.0404 0.0000 ( 29048 PWs)   bands (ev):

   -42.4993 -42.4725 -42.4023 -42.4019 -42.3805 -42.3804 -42.1855 -42.1796
   -41.8515 -41.8470 -41.8284 -41.8236 -22.5326 -22.5019 -22.4574 -22.4514
   -22.4451 -22.4308 -22.4202 -22.4176 -22.3908 -22.3810 -22.3791 -22.3671
   -22.3216 -22.3209 -22.2885 -22.2880 -22.2023 -22.1935 -22.1551 -22.1546
   -22.1146 -22.1073 -22.0209 -22.0130 -21.9114 -21.9092 -21.7993 -21.7954
   -21.7721 -21.7664 -21.7605 -21.7561 -21.7469 -21.7396 -21.6404 -21.6388
   -10.5534  -4.8087  -2.2339  -2.1770  -1.7695  -1.3810  -1.0608  -0.4784
    -0.4633  -0.3952  -0.1878  -0.0430  -0.0026   0.2434   0.6440   0.6530
     0.6992   0.7243   0.7709   0.7845   0.9320   0.9566   1.0423   1.0561
     1.0729   1.1043   1.3105   1.3610   1.4133   1.4449   1.4737

          k =-0.0699 0.0673 0.0000 ( 29098 PWs)   bands (ev):

   -42.4993 -42.4724 -42.4060 -42.3954 -42.3872 -42.3765 -42.1856 -42.1796
   -41.8537 -41.8422 -41.8331 -41.8214 -22.5326 -22.5018 -22.4591 -22.4484
   -22.4304 -22.4249 -22.4166 -22.4128 -22.3982 -22.3901 -22.3778 -22.3753
   -22.3690 -22.3318 -22.2778 -22.2308 -22.2045 -22.1928 -22.1806 -22.1512
   -22.1080 -22.0902 -22.0296 -22.0211 -21.9150 -21.8888 -21.8486 -21.8086
   -21.7610 -21.7585 -21.7536 -21.7492 -21.7398 -21.7123 -21.6645 -21.6365
   -10.5533  -4.8134  -2.4228  -1.8925  -1.6987  -1.3355  -1.0940  -0.9163
    -0.4632  -0.3591  -0.1162   0.0255   0.1775   0.2934   0.4699   0.5404
     0.6713   0.6992   0.7553   0.8595   0.9395   0.9555   1.0286   1.0906
     1.1472   1.2142   1.2504   1.2992   1.3887   1.4232   1.5107

          k =-0.0699 0.0942 0.0000 ( 29098 PWs)   bands (ev):

   -42.4993 -42.4724 -42.4061 -42.3952 -42.3874 -42.3765 -42.1856 -42.1795
   -41.8542 -41.8400 -41.8353 -41.8209 -22.5326 -22.5018 -22.4623 -22.4502
   -22.4336 -22.4248 -22.4205 -22.4109 -22.3930 -22.3896 -22.3769 -22.3748
   -22.3661 -22.3319 -22.2779 -22.2313 -22.2088 -22.1982 -22.1804 -22.1510
   -22.0895 -22.0647 -22.0504 -22.0341 -21.9154 -21.8897 -21.8477 -21.8082
   -21.7604 -21.7584 -21.7543 -21.7483 -21.7396 -21.7112 -21.6660 -21.6369
   -10.5531  -4.8229  -2.4180  -1.8934  -1.6671  -1.3198  -1.1150  -0.8495
    -0.5462  -0.3603  -0.0177   0.0196   0.0941   0.2334   0.4948   0.5414
     0.6757   0.6916   0.7547   0.8865   0.9290   0.9630   1.0127   1.0890
     1.1576   1.2188   1.2422   1.2892   1.3812   1.4324   1.5078

          k =-0.0699-0.0404 0.0000 ( 29048 PWs)   bands (ev):

   -42.4993 -42.4724 -42.4033 -42.4009 -42.3817 -42.3793 -42.1856 -42.1796
   -41.8532 -41.8437 -41.8316 -41.8219 -22.5325 -22.5018 -22.4651 -22.4512
   -22.4485 -22.4366 -22.4204 -22.4169 -22.3851 -22.3793 -22.3779 -22.3596
   -22.3218 -22.3211 -22.2891 -22.2882 -22.2120 -22.2039 -22.1562 -22.1530
   -22.0767 -22.0692 -22.0513 -22.0381 -21.9118 -21.9106 -21.7997 -21.7929
   -21.7734 -21.7641 -21.7590 -21.7550 -21.7485 -21.7395 -21.6440 -21.6376
   -10.5530  -4.8276  -2.2364  -2.1442  -1.7735  -1.2925  -1.0456  -0.5248
    -0.4640  -0.3167  -0.1924  -0.1552   0.0038   0.1590   0.6432   0.6681
     0.6952   0.7248   0.7729   0.7925   0.9244   0.9798   1.0411   1.0514
     1.0775   1.1101   1.2938   1.3470   1.4323   1.4422   1.4734

     the Fermi energy is     0.9234 ev

!    total energy              =   -1138.25732129 Ry
     Harris-Foulkes estimate   =   -1138.25731964 Ry
     estimated scf accuracy    <       0.00000264 Ry

     The total energy is the sum of the following terms:

     one-electron contribution =   -5503.44970721 Ry
     hartree contribution      =    2745.44596618 Ry
     xc contribution           =    -344.00662026 Ry
     ewald contribution        =    1963.87835177 Ry
     electric field correction =       0.00007769 Ry
     smearing contrib. (-TS)   =      -0.12538946 Ry

     convergence has been achieved in  15 iterations
 
 BEEF-vdW xc energy contributions
           1 :   -299.889238732323     
           2 :    269.183418181927     
           3 :   -216.407051549546     
           4 :    154.596882457149     
           5 :   -95.7916350713268     
           6 :    47.4978509400134     
           7 :   -12.2169719129885     
           8 :   -10.7614336764638     
           9 :    23.1075554210468     
          10 :   -26.2264530390624     
          11 :    21.4029017287801     
          12 :   -10.6398318059429     
          13 :   -2.84001450783921     
          14 :    15.0557889387251     
          15 :   -22.5332800045187     
          16 :    23.5830039062326     
          17 :   -18.7773854059183     
          18 :    10.3672571403214     
          19 :   -1.08684689638380     
          20 :   -6.89319032746857     
          21 :    12.3699158000287     
          22 :   -14.9272946413629     
          23 :    14.5872580053607     
          24 :   -11.6582769051931     
          25 :    6.81965147679762     
          26 :   -1.20415998249382     
          27 :   -3.77503074522144     
          28 :    6.87777372616114     
          29 :   -7.53107524824651     
          30 :    6.04120201451411     
          31 :   -28.8547018840367     
          32 :   -19.7342041935834     

     Forces acting on atoms (Ry/au):


     negative rho (up, down):  1.619E-04 0.000E+00
     atom    1 type  1   force =     0.00012353   -0.00040638    0.00430224
     atom    2 type  1   force =    -0.00012209   -0.00073629    0.00447972
     atom    3 type  1   force =    -0.00029076    0.00048783    0.00533972
     atom    4 type  1   force =     0.00014522    0.00051348    0.00519504
     atom    5 type  1   force =     0.00024607    0.00313481    0.00242881
     atom    6 type  1   force =     0.00080715    0.00207592    0.00182472
     atom    7 type  1   force =     0.00080500   -0.00262602   -0.00567541
     atom    8 type  1   force =    -0.00002078   -0.00314788   -0.00595002
     atom    9 type  1   force =     0.04091562    0.00095481    0.03524793
     atom   10 type  1   force =    -0.04284805    0.00195557    0.03483743
     atom   11 type  1   force =    -0.00310554   -0.01557374   -0.00111778
     atom   12 type  1   force =     0.00249668    0.01371098   -0.00095573
     atom   13 type  2   force =     0.00142517   -0.00066221   -0.09851793
     atom   14 type  3   force =     0.01319720   -0.00293218    0.00967262
     atom   15 type  3   force =    -0.01377440    0.00325129    0.00888864

     Total force =     0.129164     Total SCF correction =     0.001416


     entering subroutine stress ...


     negative rho (up, down):  1.619E-04 0.000E+00
          total   stress  (Ry/bohr**3)                   (kbar)     P=   -5.38
  -0.00002941   0.00000235  -0.00000079         -4.33      0.35     -0.12
   0.00000235  -0.00001992   0.00000043          0.35     -2.93      0.06
  -0.00000079   0.00000043  -0.00006030         -0.12      0.06     -8.87


     BFGS Geometry Optimization

     number of scf cycles    =   1
     number of bfgs steps    =   0

     energy   new            =   -1138.2573212884 Ry

     new trust radius        =       0.0985304671 bohr
     new conv_thr            =       0.0000099958 Ry


ATOMIC_POSITIONS (crystal)
Y1       0.166666667   0.166666667   0.386999750    0   0   0
Y1       0.666666667   0.166666667   0.386999750    0   0   0
Y1       0.166666667   0.666666667   0.386999750    0   0   0
Y1       0.666666667   0.666666667   0.386999750    0   0   0
Y1       0.833333333   0.333333333   0.500000000    0   0   0
Y1       0.333333333   0.333333333   0.500000000    0   0   0
Y1       0.833333333   0.833333333   0.500000000    0   0   0
Y1       0.333333333   0.833333333   0.500000000    0   0   0
Y1       0.002986447   0.000081572   0.613722097
Y1       0.496746256   0.000167071   0.613713690
Y1       0.000435486   0.498669487   0.612977358
Y1       0.499599037   0.501171372   0.612980677
C1       0.250133731  -0.000056574   0.688189137
H1       0.288330285   0.101459944   0.714785771
H1       0.211613378   0.898567318   0.714769716



     Writing output data file calc.save
     Check: negative starting charge=   -0.000513
     NEW-OLD atomic charge density approx. for the potential
     Check: negative starting charge=   -0.000514

     negative rho (up, down):  1.546E-04 0.000E+00
 
     Adding external electric field

     Computed dipole along edir(3) : 
        Dipole               -0.2182 Ry au,         -0.5547 Debye
        Dipole field         -0.0004 Ry au
 
        Potential amp.        0.0338 Ry
        Total length         47.6094 bohr
 

     total cpu time spent up to now is      705.8 secs

     per-process dynamical memory:   109.1 Mb

     Self-consistent Calculation

     iteration #  1     ecut=    36.75 Ry     beta=0.30
     Davidson diagonalization with overlap
     ethr =  1.00E-06,  avg # of iterations = 13.2

     negative rho (up, down):  1.420E-04 0.000E+00
 
     Adding external electric field

     Computed dipole along edir(3) : 
        Dipole               -0.0149 Ry au,         -0.0379 Debye
        Dipole field         -0.0000 Ry au
 
        Potential amp.        0.0023 Ry
        Total length         47.6094 bohr
 

     total cpu time spent up to now is      755.3 secs

     total energy              =   -1138.26871856 Ry
     Harris-Foulkes estimate   =   -1138.27133273 Ry
     estimated scf accuracy    <       0.00608484 Ry

     iteration #  2     ecut=    36.75 Ry     beta=0.30
     Davidson diagonalization with overlap
     ethr =  4.41E-06,  avg # of iterations =  7.5

     negative rho (up, down):  1.680E-04 0.000E+00
 
     Adding external electric field

     Computed dipole along edir(3) : 
        Dipole               -0.1915 Ry au,         -0.4868 Debye
        Dipole field         -0.0003 Ry au
 
        Potential amp.        0.0297 Ry
        Total length         47.6094 bohr
 

     total cpu time spent up to now is      792.0 secs

     total energy              =   -1138.25675573 Ry
     Harris-Foulkes estimate   =   -1138.28200358 Ry
     estimated scf accuracy    <       1.01362152 Ry

     iteration #  3     ecut=    36.75 Ry     beta=0.30
     Davidson diagonalization with overlap
     ethr =  4.41E-06,  avg # of iterations =  8.4

     negative rho (up, down):  1.738E-04 0.000E+00
 
     Adding external electric field

     Computed dipole along edir(3) : 
        Dipole               -0.1934 Ry au,         -0.4916 Debye
        Dipole field         -0.0003 Ry au
 
        Potential amp.        0.0300 Ry
        Total length         47.6094 bohr
 

     total cpu time spent up to now is      829.5 secs

     total energy              =   -1138.26970967 Ry
     Harris-Foulkes estimate   =   -1138.27056424 Ry
     estimated scf accuracy    <       0.01388469 Ry

     iteration #  4     ecut=    36.75 Ry     beta=0.30
     Davidson diagonalization with overlap
     ethr =  4.41E-06,  avg # of iterations =  7.8

     negative rho (up, down):  1.794E-04 0.000E+00
 
     Adding external electric field

     Computed dipole along edir(3) : 
        Dipole               -0.1937 Ry au,         -0.4923 Debye
        Dipole field         -0.0003 Ry au
 
        Potential amp.        0.0300 Ry
        Total length         47.6094 bohr
 

     total cpu time spent up to now is      864.4 secs

     total energy              =   -1138.26987792 Ry
     Harris-Foulkes estimate   =   -1138.27027237 Ry
     estimated scf accuracy    <       0.00220549 Ry

     iteration #  5     ecut=    36.75 Ry     beta=0.30
     Davidson diagonalization with overlap
     ethr =  1.60E-06,  avg # of iterations =  6.2

     negative rho (up, down):  1.611E-04 0.000E+00
 
     Adding external electric field

     Computed dipole along edir(3) : 
        Dipole               -0.1863 Ry au,         -0.4735 Debye
        Dipole field         -0.0003 Ry au
 
        Potential amp.        0.0289 Ry
        Total length         47.6094 bohr
 

     total cpu time spent up to now is      900.1 secs

     total energy              =   -1138.27005026 Ry
     Harris-Foulkes estimate   =   -1138.27025047 Ry
     estimated scf accuracy    <       0.00133442 Ry

     iteration #  6     ecut=    36.75 Ry     beta=0.30
     Davidson diagonalization with overlap
     ethr =  9.67E-07,  avg # of iterations =  4.6

     negative rho (up, down):  1.529E-04 0.000E+00
 
     Adding external electric field

     Computed dipole along edir(3) : 
        Dipole               -0.1878 Ry au,         -0.4774 Debye
        Dipole field         -0.0003 Ry au
 
        Potential amp.        0.0291 Ry
        Total length         47.6094 bohr
 

     total cpu time spent up to now is      932.5 secs

     total energy              =   -1138.27013834 Ry
     Harris-Foulkes estimate   =   -1138.27014342 Ry
     estimated scf accuracy    <       0.00005811 Ry

     iteration #  7     ecut=    36.75 Ry     beta=0.30
     Davidson diagonalization with overlap
     ethr =  4.21E-08,  avg # of iterations =  8.5

     negative rho (up, down):  1.535E-04 0.000E+00
 
     Adding external electric field

     Computed dipole along edir(3) : 
        Dipole               -0.1906 Ry au,         -0.4845 Debye
        Dipole field         -0.0003 Ry au
 
        Potential amp.        0.0295 Ry
        Total length         47.6094 bohr
 

     total cpu time spent up to now is      973.5 secs

     total energy              =   -1138.27015794 Ry
     Harris-Foulkes estimate   =   -1138.27016139 Ry
     estimated scf accuracy    <       0.00007733 Ry

     iteration #  8     ecut=    36.75 Ry     beta=0.30
     Davidson diagonalization with overlap
     ethr =  4.21E-08,  avg # of iterations =  4.0

     negative rho (up, down):  1.577E-04 0.000E+00

     negative rho (up, down):  1.577E-04 0.000E+00

     negative rho (up, down):  1.577E-04 0.000E+00

     negative rho (up, down):  1.577E-04 0.000E+00

     negative rho (up, down):  1.577E-04 0.000E+00

     negative rho (up, down):  1.577E-04 0.000E+00

     negative rho (up, down):  1.577E-04 0.000E+00

     negative rho (up, down):  1.577E-04 0.000E+00

     negative rho (up, down):  1.577E-04 0.000E+00

     negative rho (up, down):  1.577E-04 0.000E+00

     negative rho (up, down):  1.577E-04 0.000E+00

     negative rho (up, down):  1.577E-04 0.000E+00

     negative rho (up, down):  1.577E-04 0.000E+00

     negative rho (up, down):  1.577E-04 0.000E+00

     negative rho (up, down):  1.577E-04 0.000E+00

     negative rho (up, down):  1.577E-04 0.000E+00

     negative rho (up, down):  1.577E-04 0.000E+00

     negative rho (up, down):  1.577E-04 0.000E+00

     negative rho (up, down):  1.577E-04 0.000E+00

     negative rho (up, down):  1.577E-04 0.000E+00

     negative rho (up, down):  1.577E-04 0.000E+00

     negative rho (up, down):  1.577E-04 0.000E+00

     negative rho (up, down):  1.577E-04 0.000E+00

     negative rho (up, down):  1.577E-04 0.000E+00

     negative rho (up, down):  1.577E-04 0.000E+00

     negative rho (up, down):  1.577E-04 0.000E+00

     negative rho (up, down):  1.577E-04 0.000E+00

     negative rho (up, down):  1.577E-04 0.000E+00

     negative rho (up, down):  1.577E-04 0.000E+00

     negative rho (up, down):  1.577E-04 0.000E+00

     negative rho (up, down):  1.577E-04 0.000E+00

     negative rho (up, down):  1.577E-04 0.000E+00

     negative rho (up, down):  1.577E-04 0.000E+00

     negative rho (up, down):  1.577E-04 0.000E+00

     negative rho (up, down):  1.577E-04 0.000E+00
 
     Adding external electric field

     Computed dipole along edir(3) : 
        Dipole               -0.1906 Ry au,         -0.4843 Debye
        Dipole field         -0.0003 Ry au
 
        Potential amp.        0.0295 Ry
        Total length         47.6094 bohr
 

     total cpu time spent up to now is     1107.7 secs

     End of self-consistent calculation

          k = 0.0000 0.0000 0.0000 ( 28997 PWs)   bands (ev):

   -42.4870 -42.4456 -42.3978 -42.3573 -42.3550 -42.3525 -42.1576 -42.1370
   -41.8554 -41.8196 -41.8069 -41.7969 -22.5395 -22.5283 -22.5083 -22.5029
   -22.5005 -22.4935 -22.4719 -22.4350 -22.4260 -22.3602 -22.3581 -22.3565
   -22.2099 -22.1917 -22.1800 -22.1781 -22.1765 -22.1426 -22.0953 -22.0793
   -22.0789 -22.0288 -21.9969 -21.9671 -21.9617 -21.9573 -21.8671 -21.7613
   -21.7441 -21.7298 -21.7159 -21.6766 -21.6700 -21.6637 -21.5729 -21.5717
   -10.4218  -4.5438  -3.3605  -2.5644  -1.7898  -1.2341  -0.7528  -0.6576
    -0.6173  -0.5563  -0.5414  -0.4736  -0.3778  -0.2209  -0.0407   0.2172
     0.2634   0.2930   0.4142   0.6806   0.8169   0.9292   1.1346   1.5089
     1.5684   1.6058   1.6553   1.6671   1.7556   2.0671   2.1302

          k = 0.0000 0.0269 0.0000 ( 29019 PWs)   bands (ev):

   -42.4867 -42.4455 -42.3950 -42.3580 -42.3570 -42.3526 -42.1580 -42.1370
   -41.8530 -41.8209 -41.8069 -41.7981 -22.5323 -22.5236 -22.4885 -22.4856
   -22.4844 -22.4736 -22.4654 -22.4239 -22.4165 -22.3627 -22.3585 -22.3555
   -22.2077 -22.1992 -22.1967 -22.1936 -22.1715 -22.1415 -22.1106 -22.1039
   -22.0858 -22.0380 -22.0199 -21.9534 -21.9512 -21.9372 -21.8686 -21.7592
   -21.7434 -21.7290 -21.7157 -21.6883 -21.6858 -21.6614 -21.6009 -21.5784
   -10.4213  -4.5473  -3.2151  -2.4484  -1.7396  -1.1393  -0.8402  -0.6825
    -0.6005  -0.5209  -0.4747  -0.4210  -0.2123  -0.0842   0.0264   0.2702
     0.3382   0.3691   0.4657   0.7258   0.8213   0.9800   1.1476   1.4285
     1.5094   1.5523   1.5631   1.6057   1.6884   2.0112   2.0283

          k = 0.0000 0.0538 0.0000 ( 29058 PWs)   bands (ev):

   -42.4862 -42.4453 -42.3873 -42.3655 -42.3572 -42.3527 -42.1587 -42.1371
   -41.8467 -41.8250 -41.8069 -41.8004 -22.5256 -22.5055 -22.4716 -22.4494
   -22.4488 -22.4272 -22.4095 -22.4004 -22.3770 -22.3716 -22.3569 -22.3533
   -22.2379 -22.2341 -22.2252 -22.2029 -22.1894 -22.1536 -22.1429 -22.1242
   -22.1041 -22.0744 -22.0575 -21.9255 -21.9183 -21.8746 -21.8695 -21.7555
   -21.7420 -21.7299 -21.7265 -21.7216 -21.7142 -21.6764 -21.6452 -21.5961
   -10.4202  -4.5538  -2.8116  -2.1922  -1.6456  -1.3339  -0.8534  -0.5836
    -0.5312  -0.4883  -0.2834  -0.1905  -0.0102   0.1052   0.3569   0.4310
     0.5414   0.5783   0.6424   0.8321   0.8861   1.0696   1.0910   1.2678
     1.3161   1.3252   1.3622   1.4382   1.5252   1.6912   1.7564

          k = 0.0000-0.0807 0.0000 ( 29048 PWs)   bands (ev):

   -42.4860 -42.4452 -42.3787 -42.3742 -42.3572 -42.3527 -42.1591 -42.1371
   -41.8418 -41.8288 -41.8068 -41.8015 -22.5234 -22.4945 -22.4700 -22.4239
   -22.4235 -22.4030 -22.3899 -22.3841 -22.3597 -22.3520 -22.3401 -22.2982
   -22.2941 -22.2656 -22.2608 -22.2493 -22.2003 -22.1509 -22.1328 -22.1297
   -22.1282 -22.1037 -22.0676 -21.9099 -21.8939 -21.8667 -21.7860 -21.7781
   -21.7538 -21.7494 -21.7457 -21.7409 -21.7252 -21.7143 -21.6257 -21.6160
   -10.4197  -4.5568  -2.3715  -2.1438  -1.8548  -1.3357  -0.9497  -0.5000
    -0.4440  -0.3759  -0.0941  -0.0696  -0.0014   0.1457   0.6762   0.6962
     0.7032   0.7492   0.8047   0.8293   0.9921   0.9997   1.0621   1.0779
     1.1064   1.1650   1.2610   1.3884   1.4430   1.4659   1.4984

          k = 0.0233-0.0135 0.0000 ( 29019 PWs)   bands (ev):

   -42.4861 -42.4463 -42.3950 -42.3591 -42.3550 -42.3534 -42.1564 -42.1385
   -41.8530 -41.8203 -41.8079 -41.7976 -22.5284 -22.5142 -22.4941 -22.4867
   -22.4813 -22.4754 -22.4698 -22.4253 -22.4200 -22.3628 -22.3575 -22.3566
   -22.2291 -22.1960 -22.1951 -22.1882 -22.1717 -22.1437 -22.1092 -22.0950
   -22.0861 -22.0282 -22.0084 -21.9535 -21.9487 -21.9423 -21.8830 -21.7580
   -21.7428 -21.7300 -21.7153 -21.6908 -21.6823 -21.6623 -21.6008 -21.5786
   -10.4210  -4.5447  -3.2139  -2.4418  -1.7229  -1.1139  -0.9344  -0.6719
    -0.6069  -0.5679  -0.4453  -0.3970  -0.2276  -0.0644   0.0755   0.2611
     0.3379   0.3721   0.4597   0.7270   0.8317   0.9476   1.1479   1.4248
     1.4629   1.5531   1.5741   1.6098   1.6695   1.9962   2.0347

          k = 0.0233 0.0135 0.0000 ( 29019 PWs)   bands (ev):

   -42.4861 -42.4463 -42.3950 -42.3591 -42.3553 -42.3533 -42.1564 -42.1385
   -41.8531 -41.8197 -41.8088 -41.7972 -22.5282 -22.5158 -22.4940 -22.4860
   -22.4819 -22.4755 -22.4700 -22.4251 -22.4195 -22.3625 -22.3585 -22.3560
   -22.2283 -22.1963 -22.1955 -22.1900 -22.1715 -22.1453 -22.1094 -22.0860
   -22.0857 -22.0347 -22.0043 -21.9555 -21.9463 -21.9431 -21.8858 -21.7577
   -21.7428 -21.7303 -21.7152 -21.6911 -21.6800 -21.6643 -21.6000 -21.5794
   -10.4209  -4.5511  -3.2110  -2.4401  -1.7184  -1.1023  -0.8780  -0.6915
    -0.5868  -0.5692  -0.5021  -0.3849  -0.2398  -0.1093   0.0706   0.2813
     0.3485   0.3711   0.4683   0.7256   0.8231   0.9552   1.1475   1.4094
     1.4765   1.5462   1.5748   1.6075   1.6748   1.9886   2.0436

          k = 0.0233 0.0404 0.0000 ( 29087 PWs)   bands (ev):

   -42.4857 -42.4461 -42.3897 -42.3609 -42.3602 -42.3518 -42.1570 -42.1384
   -41.8488 -41.8218 -41.8099 -41.7984 -22.5247 -22.5007 -22.4746 -22.4664
   -22.4509 -22.4387 -22.4352 -22.4144 -22.3949 -22.3654 -22.3644 -22.3516
   -22.2475 -22.2261 -22.2084 -22.1808 -22.1803 -22.1626 -22.1464 -22.1002
   -22.0976 -22.0500 -22.0409 -21.9404 -21.9164 -21.9065 -21.8827 -21.7549
   -21.7421 -21.7350 -21.7288 -21.7145 -21.6752 -21.6693 -21.6499 -21.5927
   -10.4200  -4.5589  -2.9321  -2.2455  -1.6192  -1.0389  -1.0228  -0.8362
    -0.5489  -0.4321  -0.3667  -0.2018  -0.0377   0.0758   0.2038   0.3974
     0.4743   0.5247   0.5809   0.8099   0.8608   1.0320   1.1238   1.2892
     1.3467   1.3615   1.4869   1.5374   1.5757   1.7173   1.8124

          k = 0.0233-0.0942 0.0000 ( 29098 PWs)   bands (ev):

   -42.4853 -42.4460 -42.3808 -42.3692 -42.3622 -42.3505 -42.1576 -42.1384
   -41.8428 -41.8261 -41.8108 -41.7993 -22.5217 -22.4813 -22.4714 -22.4271
   -22.4082 -22.4006 -22.3959 -22.3806 -22.3679 -22.3590 -22.3508 -22.3468
   -22.3066 -22.2532 -22.2324 -22.2288 -22.2047 -22.1553 -22.1486 -22.1258
   -22.1162 -22.0849 -22.0605 -21.9175 -21.8893 -21.8656 -21.8319 -21.7895
   -21.7528 -21.7411 -21.7365 -21.7283 -21.7143 -21.6928 -21.6465 -21.6170
   -10.4193  -4.5603  -2.4564  -2.0521  -1.6616  -1.2986  -1.0902  -0.8337
    -0.4379  -0.3782  -0.0880   0.0546   0.1379   0.2630   0.4840   0.5673
     0.6802   0.7219   0.7788   0.8981   0.9753   0.9836   1.0936   1.1562
     1.1819   1.2499   1.2865   1.3218   1.4195   1.4633   1.5366

          k = 0.0233-0.0673 0.0000 ( 29098 PWs)   bands (ev):

   -42.4853 -42.4460 -42.3808 -42.3693 -42.3622 -42.3505 -42.1576 -42.1384
   -41.8425 -41.8269 -41.8098 -41.7998 -22.5218 -22.4801 -22.4713 -22.4274
   -22.4078 -22.4003 -22.3956 -22.3808 -22.3679 -22.3590 -22.3509 -22.3469
   -22.3064 -22.2528 -22.2316 -22.2293 -22.2048 -22.1552 -22.1435 -22.1280
   -22.1239 -22.0916 -22.0533 -21.9160 -21.8886 -21.8653 -21.8317 -21.7910
   -21.7531 -21.7411 -21.7357 -21.7283 -21.7145 -21.6927 -21.6468 -21.6165
   -10.4194  -4.5543  -2.4631  -2.0528  -1.6535  -1.3420  -1.0924  -0.7894
    -0.5490  -0.3352   0.0248   0.0710   0.1525   0.1952   0.4971   0.5452
     0.6699   0.7245   0.7867   0.9094   0.9599   1.0042   1.0914   1.1451
     1.1866   1.2635   1.2826   1.3040   1.4151   1.4654   1.5259

          k = 0.0233-0.0404 0.0000 ( 29087 PWs)   bands (ev):

   -42.4857 -42.4461 -42.3897 -42.3613 -42.3598 -42.3518 -42.1570 -42.1384
   -41.8486 -41.8231 -41.8079 -41.7993 -22.5249 -22.4980 -22.4747 -22.4668
   -22.4501 -22.4383 -22.4351 -22.4144 -22.3960 -22.3663 -22.3635 -22.3516
   -22.2472 -22.2281 -22.2038 -22.1809 -22.1802 -22.1624 -22.1413 -22.1170
   -22.1000 -22.0506 -22.0361 -21.9387 -21.9165 -21.9062 -21.8795 -21.7555
   -21.7422 -21.7357 -21.7287 -21.7149 -21.6748 -21.6681 -21.6512 -21.5920
   -10.4202  -4.5466  -2.9392  -2.2468  -1.6399  -1.0722  -1.0246  -0.8659
    -0.6144  -0.4325  -0.2421  -0.1613  -0.0300   0.1279   0.2110   0.3332
     0.4670   0.5194   0.5821   0.8061   0.8665   1.0267   1.1241   1.3095
     1.3464   1.3528   1.4882   1.5290   1.5566   1.7164   1.8494

          k = 0.0466-0.0269 0.0000 ( 29058 PWs)   bands (ev):

   -42.4843 -42.4478 -42.3873 -42.3662 -42.3551 -42.3542 -42.1530 -42.1422
   -41.8471 -41.8231 -41.8100 -41.7988 -22.5206 -22.4787 -22.4612 -22.4550
   -22.4471 -22.4440 -22.4105 -22.4058 -22.3954 -22.3724 -22.3560 -22.3554
   -22.2826 -22.2361 -22.2354 -22.1921 -22.1785 -22.1539 -22.1496 -22.1044
   -22.0960 -22.0423 -22.0160 -21.9494 -21.9158 -21.9079 -21.8711 -21.7530
   -21.7407 -21.7338 -21.7262 -21.7194 -21.7134 -21.6765 -21.6457 -21.5964
   -10.4193  -4.5464  -2.8007  -2.1462  -1.5982  -1.4265  -0.8866  -0.7056
    -0.5026  -0.4846  -0.2160  -0.1902  -0.0492   0.2080   0.3734   0.4109
     0.5332   0.5952   0.6245   0.8370   0.8907   0.9999   1.0744   1.2595
     1.3004   1.3174   1.3529   1.4195   1.5247   1.6785   1.7219

          k = 0.0466 0.0000 0.0000 ( 29087 PWs)   bands (ev):

   -42.4844 -42.4478 -42.3897 -42.3626 -42.3582 -42.3522 -42.1527 -42.1423
   -41.8490 -41.8202 -41.8121 -41.7977 -22.5216 -22.4815 -22.4722 -22.4644
   -22.4598 -22.4403 -22.4362 -22.4148 -22.4070 -22.3672 -22.3624 -22.3524
   -22.2814 -22.2472 -22.1832 -22.1803 -22.1790 -22.1610 -22.1521 -22.1000
   -22.0708 -22.0283 -22.0142 -21.9599 -21.9294 -21.9086 -21.8952 -21.7532
   -21.7404 -21.7368 -21.7295 -21.7140 -21.6739 -21.6703 -21.6502 -21.5929
   -10.4194  -4.5539  -2.9271  -2.2234  -1.5961  -1.0751  -1.0269  -0.8448
    -0.6365  -0.5210  -0.2512  -0.1634  -0.0742   0.1098   0.2710   0.3699
     0.4807   0.5332   0.5737   0.8084   0.8724   0.9727   1.1234   1.2805
     1.3114   1.3672   1.4324   1.4911   1.5725   1.7071   1.8573

          k = 0.0466 0.0269 0.0000 ( 29058 PWs)   bands (ev):

   -42.4843 -42.4478 -42.3873 -42.3661 -42.3555 -42.3538 -42.1530 -42.1422
   -41.8474 -41.8204 -41.8134 -41.7977 -22.5204 -22.4793 -22.4672 -22.4551
   -22.4480 -22.4433 -22.4105 -22.4054 -22.3925 -22.3720 -22.3570 -22.3546
   -22.2798 -22.2361 -22.2359 -22.1947 -22.1838 -22.1557 -22.1536 -22.1041
   -22.0600 -22.0441 -22.0225 -21.9615 -21.9156 -21.9101 -21.8709 -21.7523
   -21.7407 -21.7332 -21.7280 -21.7161 -21.7137 -21.6758 -21.6477 -21.5968
   -10.4190  -4.5644  -2.7917  -2.1474  -1.5448  -1.4145  -0.7835  -0.7011
    -0.5726  -0.4748  -0.3284  -0.1650  -0.0101   0.0658   0.3734   0.4681
     0.5657   0.5841   0.6215   0.8332   0.8941   0.9938   1.0760   1.2589
     1.2960   1.3198   1.3556   1.4163   1.5040   1.6944   1.7291

          k = 0.0466-0.1076 0.0000 ( 29098 PWs)   bands (ev):

   -42.4840 -42.4477 -42.3806 -42.3698 -42.3616 -42.3507 -42.1536 -42.1421
   -41.8436 -41.8220 -41.8153 -41.7980 -22.5184 -22.4767 -22.4504 -22.4266
   -22.4203 -22.3994 -22.3988 -22.3873 -22.3763 -22.3655 -22.3512 -22.3475
   -22.3065 -22.2863 -22.2524 -22.2080 -22.1990 -22.1587 -22.1529 -22.1254
   -22.0746 -22.0549 -22.0455 -21.9549 -21.8954 -21.8710 -21.8299 -21.7905
   -21.7505 -21.7396 -21.7361 -21.7293 -21.7134 -21.6924 -21.6487 -21.6171
   -10.4184  -4.5672  -2.4299  -2.0050  -1.6645  -1.3263  -1.0671  -0.8553
    -0.5260  -0.2901  -0.1117   0.0727   0.0946   0.2317   0.4960   0.5681
     0.6759   0.7201   0.7853   0.9148   0.9394   1.0255   1.0480   1.1290
     1.1906   1.2472   1.3057   1.3785   1.3917   1.4544   1.4990

          k = 0.0466-0.0807 0.0000 ( 29103 PWs)   bands (ev):

   -42.4839 -42.4477 -42.3734 -42.3714 -42.3687 -42.3493 -42.1538 -42.1420
   -41.8411 -41.8239 -41.8158 -41.7981 -22.5175 -22.4760 -22.4282 -22.4089
   -22.3888 -22.3842 -22.3813 -22.3794 -22.3720 -22.3701 -22.3447 -22.3291
   -22.3272 -22.3257 -22.3001 -22.2052 -22.1647 -22.1631 -22.1626 -22.1497
   -22.0949 -22.0777 -22.0377 -21.9486 -21.8561 -21.8501 -21.8120 -21.8072
   -21.8016 -21.7498 -21.7378 -21.7307 -21.7134 -21.6580 -21.6558 -21.6481
   -10.4183  -4.5597  -2.1426  -1.7922  -1.7606  -1.6099  -1.0350  -0.9344
    -0.7005  -0.1656   0.0670   0.2820   0.3087   0.3992   0.4506   0.4679
     0.7781   0.8176   0.8786   0.8907   0.9425   1.0290   1.0688   1.1326
     1.1455   1.1870   1.2016   1.2970   1.3667   1.3906   1.4473

          k = 0.0466-0.0538 0.0000 ( 29098 PWs)   bands (ev):

   -42.4840 -42.4477 -42.3806 -42.3700 -42.3615 -42.3507 -42.1536 -42.1421
   -41.8430 -41.8253 -41.8117 -41.7989 -22.5185 -22.4767 -22.4426 -22.4265
   -22.4203 -22.3999 -22.3990 -22.3882 -22.3784 -22.3653 -22.3510 -22.3477
   -22.3062 -22.2904 -22.2520 -22.2060 -22.1932 -22.1564 -22.1466 -22.1258
   -22.1064 -22.0738 -22.0216 -21.9451 -21.8937 -21.8711 -21.8303 -21.7918
   -21.7512 -21.7405 -21.7345 -21.7303 -21.7138 -21.6928 -21.6471 -21.6167
   -10.4187  -4.5495  -2.4416  -2.0048  -1.6938  -1.3783  -1.0634  -0.8904
    -0.4792  -0.3409  -0.0170   0.0684   0.1670   0.2344   0.4946   0.5510
     0.6671   0.7213   0.7882   0.9061   0.9454   1.0170   1.0467   1.1333
     1.1871   1.2493   1.2911   1.3765   1.3978   1.4670   1.5232

          k =-0.0699 0.0404 0.0000 ( 29048 PWs)   bands (ev):

   -42.4833 -42.4486 -42.3767 -42.3766 -42.3551 -42.3543 -42.1496 -42.1458
   -41.8428 -41.8259 -41.8110 -41.7992 -22.5167 -22.4789 -22.4380 -22.4264
   -22.4216 -22.4059 -22.3956 -22.3929 -22.3712 -22.3559 -22.3541 -22.3420
   -22.2960 -22.2952 -22.2631 -22.2622 -22.1729 -22.1578 -22.1294 -22.1290
   -22.0851 -22.0753 -21.9925 -21.9785 -21.8949 -21.8884 -21.7880 -21.7736
   -21.7561 -21.7491 -21.7427 -21.7373 -21.7296 -21.7131 -21.6261 -21.6163
   -10.4184  -4.5472  -2.2692  -2.1544  -1.8730  -1.3654  -1.0820  -0.4609
    -0.4398  -0.3820  -0.1745  -0.0210   0.0151   0.2067   0.6689   0.6775
     0.7256   0.7495   0.7932   0.8072   0.9579   0.9831   1.0690   1.0791
     1.0959   1.1314   1.3397   1.3893   1.4402   1.4717   1.5070

          k =-0.0699 0.0673 0.0000 ( 29098 PWs)   bands (ev):

   -42.4833 -42.4486 -42.3805 -42.3702 -42.3612 -42.3508 -42.1496 -42.1458
   -41.8434 -41.8233 -41.8139 -41.7983 -22.5167 -22.4790 -22.4384 -22.4255
   -22.4057 -22.4001 -22.3930 -22.3894 -22.3757 -22.3650 -22.3525 -22.3499
   -22.3443 -22.3062 -22.2521 -22.2050 -22.1745 -22.1584 -22.1545 -22.1256
   -22.0779 -22.0594 -22.0002 -21.9870 -21.8966 -21.8703 -21.8314 -21.7900
   -21.7502 -21.7403 -21.7351 -21.7311 -21.7133 -21.6930 -21.6467 -21.6173
   -10.4183  -4.5530  -2.4201  -2.0065  -1.6884  -1.3543  -1.0713  -0.9158
    -0.4395  -0.3480  -0.1319   0.0499   0.1986   0.2844   0.4927   0.5631
     0.6942   0.7242   0.7810   0.8861   0.9640   0.9802   1.0479   1.1147
     1.1732   1.2375   1.2735   1.3212   1.4161   1.4493   1.5341

          k =-0.0699 0.0942 0.0000 ( 29098 PWs)   bands (ev):

   -42.4833 -42.4486 -42.3805 -42.3702 -42.3612 -42.3508 -42.1496 -42.1458
   -41.8438 -41.8196 -41.8179 -41.7977 -22.5167 -22.4789 -22.4423 -22.4262
   -22.4092 -22.4000 -22.3957 -22.3872 -22.3717 -22.3651 -22.3515 -22.3496
   -22.3417 -22.3063 -22.2522 -22.2054 -22.1793 -22.1632 -22.1545 -22.1254
   -22.0586 -22.0356 -22.0190 -22.0009 -21.8973 -21.8706 -21.8304 -21.7902
   -21.7498 -21.7391 -21.7368 -21.7297 -21.7131 -21.6923 -21.6487 -21.6172
   -10.4181  -4.5647  -2.4157  -2.0063  -1.6515  -1.3349  -1.0994  -0.8347
    -0.5437  -0.3493  -0.0423   0.0447   0.1109   0.2466   0.5138   0.5637
     0.6989   0.7187   0.7789   0.9055   0.9569   0.9868   1.0363   1.1127
     1.1809   1.2410   1.2648   1.3120   1.4097   1.4603   1.5309

          k =-0.0699-0.0404 0.0000 ( 29048 PWs)   bands (ev):

   -42.4833 -42.4486 -42.3774 -42.3759 -42.3555 -42.3539 -42.1496 -42.1458
   -41.8437 -41.8216 -41.8157 -41.7979 -22.5166 -22.4789 -22.4459 -22.4263
   -22.4233 -22.4116 -22.3955 -22.3925 -22.3648 -22.3547 -22.3544 -22.3352
   -22.2960 -22.2957 -22.2633 -22.2627 -22.1832 -22.1676 -22.1299 -22.1279
   -22.0441 -22.0380 -22.0244 -22.0039 -21.8970 -21.8878 -21.7878 -21.7705
   -21.7582 -21.7489 -21.7398 -21.7355 -21.7316 -21.7130 -21.6300 -21.6147
   -10.4180  -4.5706  -2.2736  -2.1155  -1.8736  -1.2608  -1.0669  -0.5225
    -0.4404  -0.2944  -0.2039  -0.1452   0.0210   0.1463   0.6677   0.6897
     0.7212   0.7496   0.7954   0.8173   0.9504   1.0001   1.0679   1.0776
     1.1002   1.1377   1.3253   1.3695   1.4579   1.4680   1.4970

     the Fermi energy is     0.9477 ev

!    total energy              =   -1138.27016100 Ry
     Harris-Foulkes estimate   =   -1138.27016161 Ry
     estimated scf accuracy    <       0.00000747 Ry

     The total energy is the sum of the following terms:

     one-electron contribution =   -5502.17628213 Ry
     hartree contribution      =    2744.84304840 Ry
     xc contribution           =    -343.97672900 Ry
     ewald contribution        =    1963.16483689 Ry
     electric field correction =       0.00005907 Ry
     smearing contrib. (-TS)   =      -0.12509422 Ry

     convergence has been achieved in   8 iterations
 
 BEEF-vdW xc energy contributions
           1 :   -299.864895458401     
           2 :    269.169567045970     
           3 :   -216.405743504420     
           4 :    154.602280628003     
           5 :   -95.7961233392530     
           6 :    47.4959072797222     
           7 :   -12.2057870991553     
           8 :   -10.7815214892926     
           9 :    23.1324913128792     
          10 :   -26.2495651942204     
          11 :    21.4181555294358     
          12 :   -10.6454184178812     
          13 :   -2.84038777193854     
          14 :    15.0554423705045     
          15 :   -22.5278962002565     
          16 :    23.5743795439167     
          17 :   -18.7718592322123     
          18 :    10.3700827071175     
          19 :   -1.09725607760726     
          20 :   -6.88193645885332     
          21 :    12.3652331151409     
          22 :   -14.9310310874662     
          23 :    14.5938177149554     
          24 :   -11.6590287372592     
          25 :    6.81019209816691     
          26 :   -1.18838706757015     
          27 :   -3.78756898488632     
          28 :    6.87906211316044     
          29 :   -7.52043876040506     
          30 :    6.02516609802763     
          31 :   -28.8534301163672     
          32 :   -19.7351672457051     

     Forces acting on atoms (Ry/au):


     negative rho (up, down):  1.577E-04 0.000E+00
     atom    1 type  1   force =     0.00017358   -0.00022941    0.00380786
     atom    2 type  1   force =    -0.00015067   -0.00111219    0.00437604
     atom    3 type  1   force =    -0.00075956    0.00059531    0.00501045
     atom    4 type  1   force =     0.00061374    0.00064592    0.00487081
     atom    5 type  1   force =     0.00110561    0.00322336    0.00231198
     atom    6 type  1   force =    -0.00007841    0.00222350    0.00178073
     atom    7 type  1   force =     0.00081574   -0.00303465   -0.00473140
     atom    8 type  1   force =     0.00003050   -0.00295385   -0.00567683
     atom    9 type  1   force =     0.03405856    0.00004335    0.03270371
     atom   10 type  1   force =    -0.03605405    0.00207976    0.03242687
     atom   11 type  1   force =    -0.00274139   -0.01324266   -0.00077056
     atom   12 type  1   force =     0.00208975    0.01200727   -0.00014103
     atom   13 type  2   force =     0.00129825   -0.00081685   -0.03785645
     atom   14 type  3   force =    -0.00533078   -0.02248180   -0.01857601
     atom   15 type  3   force =     0.00492912    0.02305293   -0.01953617

     Total force =     0.090383     Total SCF correction =     0.003365


     entering subroutine stress ...


     negative rho (up, down):  1.577E-04 0.000E+00
          total   stress  (Ry/bohr**3)                   (kbar)     P=   -6.39
  -0.00003440  -0.00000366  -0.00000081         -5.06     -0.54     -0.12
  -0.00000366  -0.00002635   0.00000055         -0.54     -3.88      0.08
  -0.00000081   0.00000055  -0.00006960         -0.12      0.08    -10.24


     number of scf cycles    =   2
     number of bfgs steps    =   1

     energy   old            =   -1138.2573212884 Ry
     energy   new            =   -1138.2701610021 Ry

     CASE: energy  _new < energy  _old

     new trust radius        =       0.1083835138 bohr
     new conv_thr            =       0.0000001000 Ry


ATOMIC_POSITIONS (crystal)
Y1       0.166666667   0.166666667   0.386999750    0   0   0
Y1       0.666666667   0.166666667   0.386999750    0   0   0
Y1       0.166666667   0.666666667   0.386999750    0   0   0
Y1       0.666666667   0.666666667   0.386999750    0   0   0
Y1       0.833333333   0.333333333   0.500000000    0   0   0
Y1       0.333333333   0.333333333   0.500000000    0   0   0
Y1       0.833333333   0.833333333   0.500000000    0   0   0
Y1       0.333333333   0.833333333   0.500000000    0   0   0
Y1       0.008117104   0.000134039   0.615044551
Y1       0.491138929   0.000503691   0.615023613
Y1       0.001177807   0.496370855   0.612942775
Y1       0.498882950   0.503235186   0.612965394
C1       0.250387986  -0.000183522   0.685970372
H1       0.289733953   0.098726478   0.714388538
H1       0.210104014   0.901382390   0.714336647



     Writing output data file calc.save
     Check: negative starting charge=   -0.000514
     NEW-OLD atomic charge density approx. for the potential
     Check: negative starting charge=   -0.000515

     negative rho (up, down):  1.824E-04 0.000E+00
 
     Adding external electric field

     Computed dipole along edir(3) : 
        Dipole               -0.1900 Ry au,         -0.4829 Debye
        Dipole field         -0.0003 Ry au
 
        Potential amp.        0.0294 Ry
        Total length         47.6094 bohr
 

     total cpu time spent up to now is     1230.2 secs

     per-process dynamical memory:   109.1 Mb

     Self-consistent Calculation

     iteration #  1     ecut=    36.75 Ry     beta=0.30
     Davidson diagonalization with overlap
     ethr =  1.00E-06,  avg # of iterations = 14.2

     negative rho (up, down):  1.545E-04 0.000E+00
 
     Adding external electric field

     Computed dipole along edir(3) : 
        Dipole               -0.0201 Ry au,         -0.0511 Debye
        Dipole field         -0.0000 Ry au
 
        Potential amp.        0.0031 Ry
        Total length         47.6094 bohr
 

     total cpu time spent up to now is     1292.0 secs

     total energy              =   -1138.28150009 Ry
     Harris-Foulkes estimate   =   -1138.28497934 Ry
     estimated scf accuracy    <       0.00854234 Ry

     iteration #  2     ecut=    36.75 Ry     beta=0.30
     Davidson diagonalization with overlap
     ethr =  6.19E-06,  avg # of iterations =  7.5

     negative rho (up, down):  1.760E-04 0.000E+00
 
     Adding external electric field

     Computed dipole along edir(3) : 
        Dipole               -0.1841 Ry au,         -0.4681 Debye
        Dipole field         -0.0003 Ry au
 
        Potential amp.        0.0285 Ry
        Total length         47.6094 bohr
 

     total cpu time spent up to now is     1335.0 secs

     total energy              =   -1138.27202502 Ry
     Harris-Foulkes estimate   =   -1138.29083682 Ry
     estimated scf accuracy    <       0.64258707 Ry

     iteration #  3     ecut=    36.75 Ry     beta=0.30
     Davidson diagonalization with overlap
     ethr =  6.19E-06,  avg # of iterations =  7.8

     negative rho (up, down):  1.783E-04 0.000E+00
 
     Adding external electric field

     Computed dipole along edir(3) : 
        Dipole               -0.1409 Ry au,         -0.3581 Debye
        Dipole field         -0.0002 Ry au
 
        Potential amp.        0.0218 Ry
        Total length         47.6094 bohr
 

     total cpu time spent up to now is     1378.1 secs

     total energy              =   -1138.28194274 Ry
     Harris-Foulkes estimate   =   -1138.28438658 Ry
     estimated scf accuracy    <       0.07153168 Ry

     iteration #  4     ecut=    36.75 Ry     beta=0.30
     Davidson diagonalization with overlap
     ethr =  6.19E-06,  avg # of iterations =  6.2

     negative rho (up, down):  1.858E-04 0.000E+00
 
     Adding external electric field

     Computed dipole along edir(3) : 
        Dipole               -0.1392 Ry au,         -0.3538 Debye
        Dipole field         -0.0002 Ry au
 
        Potential amp.        0.0216 Ry
        Total length         47.6094 bohr
 

     total cpu time spent up to now is     1418.0 secs

     total energy              =   -1138.28280277 Ry
     Harris-Foulkes estimate   =   -1138.28349461 Ry
     estimated scf accuracy    <       0.00420452 Ry

     iteration #  5     ecut=    36.75 Ry     beta=0.30
     Davidson diagonalization with overlap
     ethr =  3.05E-06,  avg # of iterations =  7.0

     negative rho (up, down):  1.726E-04 0.000E+00
 
     Adding external electric field

     Computed dipole along edir(3) : 
        Dipole               -0.1376 Ry au,         -0.3497 Debye
        Dipole field         -0.0002 Ry au
 
        Potential amp.        0.0213 Ry
        Total length         47.6094 bohr
 

     total cpu time spent up to now is     1458.0 secs

     total energy              =   -1138.28310326 Ry
     Harris-Foulkes estimate   =   -1138.28340459 Ry
     estimated scf accuracy    <       0.00234527 Ry

     iteration #  6     ecut=    36.75 Ry     beta=0.30
     Davidson diagonalization with overlap
     ethr =  1.70E-06,  avg # of iterations =  4.0

     negative rho (up, down):  1.536E-04 0.000E+00
 
     Adding external electric field

     Computed dipole along edir(3) : 
        Dipole               -0.1398 Ry au,         -0.3554 Debye
        Dipole field         -0.0002 Ry au
 
        Potential amp.        0.0217 Ry
        Total length         47.6094 bohr
 

     total cpu time spent up to now is     1494.2 secs

     total energy              =   -1138.28324285 Ry
     Harris-Foulkes estimate   =   -1138.28324658 Ry
     estimated scf accuracy    <       0.00013483 Ry

     iteration #  7     ecut=    36.75 Ry     beta=0.30
     Davidson diagonalization with overlap
     ethr =  9.77E-08,  avg # of iterations =  8.3

     negative rho (up, down):  1.527E-04 0.000E+00
 
     Adding external electric field

     Computed dipole along edir(3) : 
        Dipole               -0.1396 Ry au,         -0.3548 Debye
        Dipole field         -0.0002 Ry au
 
        Potential amp.        0.0216 Ry
        Total length         47.6094 bohr
 

     total cpu time spent up to now is     1539.8 secs

     total energy              =   -1138.28328072 Ry
     Harris-Foulkes estimate   =   -1138.28329538 Ry
     estimated scf accuracy    <       0.00014867 Ry

     iteration #  8     ecut=    36.75 Ry     beta=0.30
     Davidson diagonalization with overlap
     ethr =  9.77E-08,  avg # of iterations =  3.1

     negative rho (up, down):  1.515E-04 0.000E+00
 
     Adding external electric field

     Computed dipole along edir(3) : 
        Dipole               -0.1425 Ry au,         -0.3622 Debye
        Dipole field         -0.0002 Ry au
 
        Potential amp.        0.0221 Ry
        Total length         47.6094 bohr
 

     total cpu time spent up to now is     1575.0 secs

     total energy              =   -1138.28328989 Ry
     Harris-Foulkes estimate   =   -1138.28328657 Ry
     estimated scf accuracy    <       0.00001719 Ry

     iteration #  9     ecut=    36.75 Ry     beta=0.30
     Davidson diagonalization with overlap
     ethr =  1.25E-08,  avg # of iterations =  8.2

     negative rho (up, down):  1.525E-04 0.000E+00
 
     Adding external electric field

     Computed dipole along edir(3) : 
        Dipole               -0.1424 Ry au,         -0.3620 Debye
        Dipole field         -0.0002 Ry au
 
        Potential amp.        0.0221 Ry
        Total length         47.6094 bohr
 

     total cpu time spent up to now is     1619.6 secs
[...]
     0.8457   0.9075   0.9945   1.0818   1.1482   1.1781   1.2778   1.3381
     1.3788   1.4299   1.4700   1.4921   1.6099   1.6426   1.7241

          k = 0.0233-0.0673 0.0000 ( 29098 PWs)   bands (ev):

   -42.3115 -42.2563 -42.2004 -42.1891 -42.1818 -42.1705 -41.8955 -41.8737
   -41.6698 -41.6327 -41.6147 -41.5729 -22.3402 -22.2989 -22.2765 -22.2475
   -22.2447 -22.2200 -22.2180 -22.2017 -22.1878 -22.1799 -22.1706 -22.1666
   -22.1261 -22.0724 -22.0612 -22.0246 -21.9965 -21.9742 -21.9681 -21.9448
   -21.9432 -21.8266 -21.8037 -21.7041 -21.6854 -21.6744 -21.6424 -21.5937
   -21.5884 -21.5479 -21.5404 -21.5344 -21.4883 -21.4839 -21.4460 -21.4173
   -11.3625  -5.5613  -2.8941  -2.1174  -1.5514  -1.3346  -0.9283  -0.8711
    -0.5747  -0.2132  -0.0693   0.2243   0.3104   0.3883   0.6684   0.7412
     0.8439   0.9094   0.9935   1.0807   1.1482   1.1785   1.2778   1.3382
     1.3767   1.4315   1.4702   1.4921   1.6103   1.6424   1.7259

          k = 0.0233-0.0404 0.0000 ( 29087 PWs)   bands (ev):

   -42.3118 -42.2564 -42.2095 -42.1810 -42.1796 -42.1718 -41.8951 -41.8738
   -41.6724 -41.6312 -41.6146 -41.5719 -22.3438 -22.3173 -22.2866 -22.2817
   -22.2759 -22.2578 -22.2563 -22.2329 -22.2142 -22.1845 -22.1837 -22.1710
   -22.0669 -22.0555 -22.0018 -22.0005 -21.9945 -21.9791 -21.9472 -21.9389
   -21.9195 -21.7940 -21.7859 -21.7411 -21.7139 -21.7063 -21.6785 -21.5909
   -21.5496 -21.5425 -21.5355 -21.4856 -21.4843 -21.4660 -21.4452 -21.3915
   -11.3634  -5.5610  -3.0280  -2.5304  -1.6801  -1.1766  -0.8479  -0.8087
    -0.5782  -0.3023  -0.2498  -0.0373   0.0567   0.2478   0.3952   0.5356
     0.6500   0.7105   0.7857   0.9808   1.0449   1.2786   1.3140   1.4620
     1.5268   1.5372   1.6380   1.7141   1.7475   1.8995   2.0343

          k = 0.0466-0.0269 0.0000 ( 29058 PWs)   bands (ev):

   -42.3109 -42.2574 -42.2070 -42.1858 -42.1750 -42.1740 -41.8914 -41.8773
   -41.6721 -41.6280 -41.6183 -41.5718 -22.3414 -22.2923 -22.2808 -22.2750
   -22.2672 -22.2639 -22.2291 -22.2240 -22.2133 -22.1915 -22.1753 -22.1748
   -22.1043 -22.0558 -22.0549 -22.0104 -21.9830 -21.9735 -21.9521 -21.9239
   -21.8940 -21.7880 -21.7771 -21.7402 -21.7234 -21.7071 -21.6795 -21.5876
   -21.5478 -21.5417 -21.5387 -21.5144 -21.4845 -21.4713 -21.4538 -21.3921
   -11.3607  -5.5716  -2.9170  -2.4270  -1.5549  -1.3106  -1.0860  -0.5396
    -0.4826  -0.3061  -0.2831   0.0005   0.0535   0.2342   0.5611   0.6060
     0.7211   0.7825   0.8310   1.0121   1.0632   1.2089   1.2579   1.4162
     1.4568   1.5043   1.5271   1.5680   1.6929   1.8674   1.9001

          k = 0.0466 0.0000 0.0000 ( 29087 PWs)   bands (ev):

   -42.3110 -42.2575 -42.2094 -42.1820 -42.1782 -42.1721 -41.8912 -41.8773
   -41.6729 -41.6274 -41.6185 -41.5714 -22.3428 -22.2991 -22.2872 -22.2813
   -22.2783 -22.2594 -22.2552 -22.2329 -22.2256 -22.1863 -22.1818 -22.1718
   -22.1024 -22.0666 -22.0020 -21.9990 -21.9891 -21.9773 -21.9529 -21.9198
   -21.8796 -21.7887 -21.7582 -21.7487 -21.7300 -21.7107 -21.7057 -21.5879
   -21.5470 -21.5407 -21.5380 -21.4854 -21.4802 -21.4762 -21.4442 -21.3895
   -11.3610  -5.5717  -2.9733  -2.5208  -1.5972  -1.2981  -0.8297  -0.7772
    -0.6647  -0.3307  -0.2383  -0.0381   0.0563   0.2659   0.4297   0.5356
     0.6626   0.7292   0.7639   0.9775   1.0520   1.2011   1.3018   1.4373
     1.4569   1.5461   1.5757   1.6750   1.7449   1.8803   2.0399

          k = 0.0466 0.0269 0.0000 ( 29058 PWs)   bands (ev):

   -42.3109 -42.2574 -42.2070 -42.1858 -42.1749 -42.1741 -41.8914 -41.8773
   -41.6721 -41.6281 -41.6182 -41.5718 -22.3414 -22.2920 -22.2807 -22.2749
   -22.2672 -22.2640 -22.2291 -22.2242 -22.2135 -22.1915 -22.1753 -22.1748
   -22.1044 -22.0558 -22.0549 -22.0104 -21.9829 -21.9734 -21.9520 -21.9239
   -21.8941 -21.7878 -21.7766 -21.7405 -21.7235 -21.7076 -21.6794 -21.5876
   -21.5478 -21.5418 -21.5386 -21.5144 -21.4844 -21.4713 -21.4536 -21.3921
   -11.3607  -5.5717  -2.9170  -2.4268  -1.5536  -1.3091  -1.0880  -0.5389
    -0.4835  -0.3057  -0.2830  -0.0003   0.0528   0.2355   0.5614   0.6074
     0.7230   0.7814   0.8321   1.0109   1.0623   1.2102   1.2594   1.4164
     1.4569   1.5040   1.5267   1.5676   1.6915   1.8684   1.9019

          k = 0.0466-0.1076 0.0000 ( 29098 PWs)   bands (ev):

   -42.3107 -42.2574 -42.2003 -42.1896 -42.1813 -42.1706 -41.8918 -41.8772
   -41.6704 -41.6289 -41.6184 -41.5724 -22.3388 -22.2813 -22.2709 -22.2522
   -22.2440 -22.2207 -22.2182 -22.2056 -22.1954 -22.1845 -22.1704 -22.1671
   -22.1260 -22.1135 -22.0718 -22.0246 -21.9843 -21.9752 -21.9496 -21.9448
   -21.9169 -21.8054 -21.7877 -21.7323 -21.7078 -21.6699 -21.6398 -21.6007
   -21.5850 -21.5456 -21.5385 -21.5326 -21.4907 -21.4829 -21.4550 -21.4113
   -11.3601  -5.5718  -2.8255  -2.1127  -1.5110  -1.3696  -0.9290  -0.8729
    -0.6349  -0.2029  -0.0810   0.2267   0.2645   0.3789   0.6771   0.7310
     0.8333   0.8991   0.9970   1.0979   1.1067   1.1944   1.2202   1.3137
     1.3706   1.4327   1.4708   1.5231   1.5856   1.6384   1.6903

          k = 0.0466-0.0807 0.0000 ( 29103 PWs)   bands (ev):

   -42.3106 -42.2574 -42.1931 -42.1906 -42.1890 -42.1692 -41.8920 -41.8771
   -41.6695 -41.6291 -41.6188 -41.5727 -22.3376 -22.2798 -22.2542 -22.2453
   -22.2085 -22.2037 -22.2009 -22.1990 -22.1915 -22.1863 -22.1642 -22.1485
   -22.1467 -22.1455 -22.1220 -21.9912 -21.9840 -21.9823 -21.9769 -21.9479
   -21.9256 -21.8159 -21.7910 -21.7337 -21.6670 -21.6621 -21.6243 -21.6040
   -21.5975 -21.5844 -21.5443 -21.5378 -21.4838 -21.4674 -21.4521 -21.4407
   -11.3598  -5.5718  -2.7907  -1.6612  -1.5582  -1.5007  -1.2167  -0.7199
    -0.5635  -0.5439   0.2542   0.3648   0.4814   0.5748   0.6250   0.6353
     0.9387   0.9683   1.0642   1.0695   1.1294   1.2057   1.2269   1.3153
     1.3295   1.3600   1.3655   1.4799   1.5148   1.6078   1.6295

          k = 0.0466-0.0538 0.0000 ( 29098 PWs)   bands (ev):

   -42.3107 -42.2574 -42.2003 -42.1896 -42.1814 -42.1706 -41.8918 -41.8772
   -41.6704 -41.6289 -41.6185 -41.5724 -22.3388 -22.2814 -22.2714 -22.2521
   -22.2440 -22.2206 -22.2182 -22.2054 -22.1953 -22.1844 -22.1704 -22.1671
   -22.1259 -22.1133 -22.0717 -22.0246 -21.9844 -21.9753 -21.9496 -21.9448
   -21.9168 -21.8057 -21.7878 -21.7318 -21.7079 -21.6697 -21.6398 -21.6007
   -21.5850 -21.5455 -21.5387 -21.5327 -21.4907 -21.4828 -21.4551 -21.4114
   -11.3601  -5.5717  -2.8254  -2.1132  -1.5126  -1.3693  -0.9281  -0.8729
    -0.6341  -0.2030  -0.0814   0.2262   0.2629   0.3801   0.6763   0.7315
     0.8308   0.8994   0.9958   1.0981   1.1050   1.1943   1.2194   1.3134
     1.3712   1.4334   1.4714   1.5224   1.5874   1.6400   1.6910

          k =-0.0699 0.0404 0.0000 ( 29048 PWs)   bands (ev):

   -42.3103 -42.2579 -42.1971 -42.1956 -42.1751 -42.1740 -41.8890 -41.8798
   -41.6706 -41.6259 -41.6215 -41.5722 -22.3380 -22.2823 -22.2736 -22.2472
   -22.2422 -22.2276 -22.2135 -22.2124 -22.1905 -22.1748 -22.1736 -22.1574
   -22.1158 -22.1145 -22.0829 -22.0816 -21.9793 -21.9542 -21.9497 -21.9479
   -21.8756 -21.8046 -21.7876 -21.7539 -21.7146 -21.6791 -21.6115 -21.5857
   -21.5717 -21.5634 -21.5422 -21.5403 -21.5221 -21.4833 -21.4428 -21.4038
   -11.3588  -5.5769  -2.7819  -1.9450  -1.8763  -1.3240  -0.9549  -0.8086
    -0.2626  -0.2484  -0.0350   0.0080   0.1848   0.2049   0.8405   0.8590
     0.8876   0.9406   0.9558   0.9837   1.1323   1.1693   1.2208   1.2548
     1.2776   1.3347   1.5034   1.5594   1.6040   1.6213   1.6627

          k =-0.0699 0.0673 0.0000 ( 29098 PWs)   bands (ev):

   -42.3103 -42.2579 -42.2003 -42.1898 -42.1811 -42.1706 -41.8890 -41.8798
   -41.6707 -41.6247 -41.6226 -41.5722 -22.3380 -22.2822 -22.2717 -22.2474
   -22.2292 -22.2189 -22.2167 -22.2049 -22.1938 -22.1843 -22.1707 -22.1687
   -22.1601 -22.1256 -22.0715 -22.0245 -21.9802 -21.9740 -21.9542 -21.9449
   -21.8702 -21.8029 -21.7838 -21.7622 -21.7095 -21.6706 -21.6411 -21.5912
   -21.5844 -21.5461 -21.5417 -21.5384 -21.4900 -21.4823 -21.4546 -21.4107
   -11.3588  -5.5769  -2.7879  -2.1079  -1.5389  -1.2432  -1.1340  -0.8512
    -0.5569  -0.2256  -0.1235   0.2217   0.2900   0.3986   0.6748   0.7346
     0.8644   0.9092   0.9660   1.0437   1.1248   1.1596   1.2227   1.2971
     1.3546   1.3980   1.4536   1.4850   1.5814   1.6358   1.6955

          k =-0.0699 0.0942 0.0000 ( 29098 PWs)   bands (ev):

   -42.3103 -42.2579 -42.2003 -42.1898 -42.1811 -42.1707 -41.8890 -41.8799
   -41.6707 -41.6249 -41.6224 -41.5722 -22.3380 -22.2821 -22.2715 -22.2473
   -22.2290 -22.2189 -22.2166 -22.2051 -22.1940 -22.1843 -22.1707 -22.1687
   -22.1602 -22.1256 -22.0715 -22.0246 -21.9802 -21.9740 -21.9541 -21.9449
   -21.8703 -21.8031 -21.7823 -21.7635 -21.7094 -21.6709 -21.6411 -21.5910
   -21.5844 -21.5464 -21.5413 -21.5384 -21.4899 -21.4824 -21.4545 -21.4107
   -11.3588  -5.5770  -2.7879  -2.1077  -1.5372  -1.2434  -1.1356  -0.8503
    -0.5578  -0.2250  -0.1236   0.2216   0.2908   0.3986   0.6745   0.7348
     0.8653   0.9104   0.9661   1.0442   1.1248   1.1601   1.2230   1.2962
     1.3542   1.3989   1.4531   1.4840   1.5801   1.6356   1.6979

          k =-0.0699-0.0404 0.0000 ( 29048 PWs)   bands (ev):

   -42.3103 -42.2579 -42.1970 -42.1957 -42.1750 -42.1741 -41.8890 -41.8799
   -41.6706 -41.6260 -41.6213 -41.5722 -22.3380 -22.2823 -22.2731 -22.2470
   -22.2422 -22.2274 -22.2136 -22.2124 -22.1911 -22.1747 -22.1737 -22.1577
   -22.1158 -22.1146 -22.0829 -22.0817 -21.9791 -21.9542 -21.9496 -21.9480
   -21.8758 -21.8049 -21.7858 -21.7553 -21.7144 -21.6795 -21.6115 -21.5857
   -21.5719 -21.5632 -21.5424 -21.5400 -21.5220 -21.4833 -21.4426 -21.4039
   -11.3588  -5.5770  -2.7820  -1.9439  -1.8760  -1.3228  -0.9544  -0.8113
    -0.2624  -0.2479  -0.0341   0.0101   0.1838   0.2038   0.8414   0.8591
     0.8869   0.9425   0.9585   0.9862   1.1326   1.1685   1.2209   1.2524
     1.2784   1.3367   1.5031   1.5576   1.6014   1.6211   1.6629

     the Fermi energy is     1.1300 ev

!    total energy              =   -1138.33037936 Ry
     Harris-Foulkes estimate   =   -1138.33037941 Ry
     estimated scf accuracy    <       0.00000005 Ry

     The total energy is the sum of the following terms:

     one-electron contribution =   -5579.77731451 Ry
     hartree contribution      =    2784.32777285 Ry
     xc contribution           =    -344.16594080 Ry
     ewald contribution        =    2001.41000229 Ry
     electric field correction =       0.00000301 Ry
     smearing contrib. (-TS)   =      -0.12490220 Ry

     convergence has been achieved in  11 iterations
 
 BEEF-vdW xc energy contributions
           1 :   -300.058089307699     
           2 :    269.434457924126     
           3 :   -216.730238983682     
           4 :    154.904346549400     
           5 :   -95.9965859398217     
           6 :    47.5698256638303     
           7 :   -12.1812505066468     
           8 :   -10.8577206662502     
           9 :    23.2222897046299     
          10 :   -26.3291004899389     
          11 :    21.4748331047435     
          12 :   -10.6779649241089     
          13 :   -2.82347684057487     
          14 :    15.0448259110477     
          15 :   -22.5233321291965     
          16 :    23.5849713254082     
          17 :   -18.8054472040916     
          18 :    10.4223396388730     
          19 :   -1.15176828504946     
          20 :   -6.84283022281733     
          21 :    12.3486799333607     
          22 :   -14.9299542728544     
          23 :    14.5929805136528     
          24 :   -11.6464314181399     
          25 :    6.78622819138201     
          26 :   -1.16601710645949     
          27 :   -3.79248951171036     
          28 :    6.85968970728629     
          29 :   -7.48269948086767     
          30 :    5.98027853610353     
          31 :   -28.8678265141777     
          32 :   -19.7654182371913     

     Forces acting on atoms (Ry/au):


     negative rho (up, down):  1.547E-04 0.000E+00
     atom    1 type  1   force =     0.00000400   -0.00031774    0.00372123
     atom    2 type  1   force =     0.00002336   -0.00109114    0.00516040
     atom    3 type  1   force =    -0.00084274    0.00049877    0.00576928
     atom    4 type  1   force =     0.00086323    0.00047210    0.00576186
     atom    5 type  1   force =    -0.00068759    0.00321431    0.00009823
     atom    6 type  1   force =     0.00029893    0.00319486    0.00007482
     atom    7 type  1   force =    -0.00012029   -0.00646255   -0.00797262
     atom    8 type  1   force =    -0.00025382    0.00049616   -0.01282195
     atom    9 type  1   force =     0.00045115    0.00020275   -0.00045919
     atom   10 type  1   force =     0.00009630    0.00029878   -0.00051359
     atom   11 type  1   force =     0.00005094    0.00085380    0.00007300
     atom   12 type  1   force =     0.00024282   -0.00062669    0.00020266
     atom   13 type  2   force =     0.00004817   -0.00050600    0.00157600
     atom   14 type  3   force =    -0.00144853   -0.00019178   -0.00027745
     atom   15 type  3   force =     0.00127409   -0.00003561   -0.00039266

     Total force =     0.002963     Total SCF correction =     0.000482
     SCF correction compared to forces is large: reduce conv_thr to get better values


     entering subroutine stress ...


     negative rho (up, down):  1.547E-04 0.000E+00
          total   stress  (Ry/bohr**3)                   (kbar)     P=   -2.41
  -0.00001260   0.00000029   0.00000040         -1.85      0.04      0.06
   0.00000029  -0.00002076  -0.00000002          0.04     -3.05     -0.00
   0.00000040  -0.00000002  -0.00001588          0.06     -0.00     -2.34


     bfgs converged in  24 scf cycles and  23 bfgs steps
     (criteria: energy <  1.0E+00, force <  1.9E-03)

     End of BFGS Geometry Optimization

     Final energy   =   -1138.3303793628 Ry
Begin final coordinates

ATOMIC_POSITIONS (crystal)
Y1       0.166666667   0.166666667   0.386999750    0   0   0
Y1       0.666666667   0.166666667   0.386999750    0   0   0
Y1       0.166666667   0.666666667   0.386999750    0   0   0
Y1       0.666666667   0.666666667   0.386999750    0   0   0
Y1       0.833333333   0.333333333   0.500000000    0   0   0
Y1       0.333333333   0.333333333   0.500000000    0   0   0
Y1       0.833333333   0.833333333   0.500000000    0   0   0
Y1       0.333333333   0.833333333   0.500000000    0   0   0
Y1       0.003565161   0.004439810   0.612478644
Y1       0.489407434   0.004132827   0.612398126
Y1       0.008163893   0.481493584   0.612802257
Y1       0.486408223   0.524472631   0.612811449
C1       0.249586932  -0.001505292   0.672004403
H1       0.370486772   0.000060562   0.698785627
H1       0.128134947   0.998882556   0.698926950
End final coordinates



     Writing output data file calc.save
 
     init_run     :     19.56s CPU     20.17s WALL (       1 calls)
     electrons    :  11760.90s CPU  13292.51s WALL (      24 calls)
     update_pot   :    119.76s CPU    128.23s WALL (      23 calls)
     forces       :    627.92s CPU    696.51s WALL (      24 calls)
     stress       :   1747.12s CPU   1903.98s WALL (      24 calls)

     Called by init_run:
     wfcinit      :      8.16s CPU      8.28s WALL (       1 calls)
     potinit      :      3.35s CPU      3.62s WALL (       1 calls)

     Called by electrons:
     c_bands      :   4144.55s CPU   4562.87s WALL (     266 calls)
     sum_band     :   2252.40s CPU   2557.06s WALL (     266 calls)
     v_of_rho     :   1149.61s CPU   1452.55s WALL (     288 calls)
     newd         :   1797.55s CPU   1814.76s WALL (     288 calls)
     mix_rho      :     26.30s CPU     26.86s WALL (     266 calls)
     vdW_energy   :    416.15s CPU    460.66s WALL (    1152 calls)
     vdW_ffts     :   1067.95s CPU   1093.38s WALL (    2352 calls)
     vdW_v        :    403.06s CPU    414.41s WALL (    1152 calls)

     Called by c_bands:
     init_us_2    :     26.13s CPU     26.32s WALL (    2905 calls)
     cegterg      :   3396.43s CPU   3484.21s WALL (    1330 calls)

     Called by *egterg:
     h_psi        :   2345.12s CPU   2392.31s WALL (    8658 calls)
     s_psi        :    210.43s CPU    210.82s WALL (    8658 calls)
     g_psi        :     13.89s CPU     13.90s WALL (    7323 calls)
     cdiaghg      :    231.55s CPU    233.22s WALL (    8528 calls)

     Called by h_psi:
     add_vuspsi   :    215.00s CPU    215.49s WALL (    8658 calls)

     General routines
     calbec       :    321.01s CPU    326.56s WALL (   10228 calls)
     fft          :   1657.21s CPU   1750.97s WALL (   69511 calls)
     ffts         :      1.66s CPU      1.77s WALL (     554 calls)
     fftw         :   1358.63s CPU   1406.75s WALL (  680400 calls)
     interpolate  :     16.72s CPU     17.55s WALL (     554 calls)
     davcio       :      0.00s CPU      0.05s WALL (       5 calls)
 
     Parallel routines
     fft_scatter  :   1727.56s CPU   1862.16s WALL (  750465 calls)
 
     PWSCF        :     4h 0m CPU        4h30m WALL

 
   This run was terminated on:   4: 2:37  25Apr2018            

=------------------------------------------------------------------------------=
   JOB DONE.
=------------------------------------------------------------------------------=
Job  /afs/slac/g/suncat/bin/suncat-tsmpirun -x LD_LIBRARY_PATH -wdir /scratch/qe256283_p8jsv pw.x -npool 4 -in pw.inp

TID   HOST_NAME   COMMAND_LINE            STATUS            TERMINATION_TIME
===== ========== ================  =======================  ===================
00000 suncat0216 pw.x -npool 4 -i  Done                     04/25/2018 04:02:37
00001 suncat0216 pw.x -npool 4 -i  Done                     04/25/2018 04:02:37
00002 suncat0216 pw.x -npool 4 -i  Done                     04/25/2018 04:02:37
00003 suncat0216 pw.x -npool 4 -i  Done                     04/25/2018 04:02:37
00004 suncat0216 pw.x -npool 4 -i  Done                     04/25/2018 04:02:37
00005 suncat0216 pw.x -npool 4 -i  Done                     04/25/2018 04:02:37
00006 suncat0216 pw.x -npool 4 -i  Done                     04/25/2018 04:02:37
00007 suncat0216 pw.x -npool 4 -i  Done                     04/25/2018 04:02:37
00008 suncat0214 pw.x -npool 4 -i  Done                     04/25/2018 04:02:37
00009 suncat0214 pw.x -npool 4 -i  Done                     04/25/2018 04:02:37
00010 suncat0214 pw.x -npool 4 -i  Done                     04/25/2018 04:02:37
00011 suncat0214 pw.x -npool 4 -i  Done                     04/25/2018 04:02:37
00012 suncat0214 pw.x -npool 4 -i  Done                     04/25/2018 04:02:37
00013 suncat0214 pw.x -npool 4 -i  Done                     04/25/2018 04:02:37
00014 suncat0214 pw.x -npool 4 -i  Done                     04/25/2018 04:02:37
00015 suncat0214 pw.x -npool 4 -i  Done                     04/25/2018 04:02:37
00016 suncat0201 pw.x -npool 4 -i  Done                     04/25/2018 04:02:37
00017 suncat0201 pw.x -npool 4 -i  Done                     04/25/2018 04:02:37
00018 suncat0201 pw.x -npool 4 -i  Done                     04/25/2018 04:02:37
00019 suncat0201 pw.x -npool 4 -i  Done                     04/25/2018 04:02:37
00020 suncat0201 pw.x -npool 4 -i  Done                     04/25/2018 04:02:37
00021 suncat0201 pw.x -npool 4 -i  Done                     04/25/2018 04:02:37
00022 suncat0201 pw.x -npool 4 -i  Done                     04/25/2018 04:02:37
00023 suncat0201 pw.x -npool 4 -i  Done                     04/25/2018 04:02:37
00024 suncat0099 pw.x -npool 4 -i  Done                     04/25/2018 04:02:37
00025 suncat0099 pw.x -npool 4 -i  Done                     04/25/2018 04:02:37
00026 suncat0099 pw.x -npool 4 -i  Done                     04/25/2018 04:02:37
00027 suncat0099 pw.x -npool 4 -i  Done                     04/25/2018 04:02:37
00028 suncat0099 pw.x -npool 4 -i  Done                     04/25/2018 04:02:37
00029 suncat0099 pw.x -npool 4 -i  Done                     04/25/2018 04:02:37
00030 suncat0099 pw.x -npool 4 -i  Done                     04/25/2018 04:02:37
00031 suncat0099 pw.x -npool 4 -i  Done                     04/25/2018 04:02:37
