  python dir    : /home/users/jrboes/code/decaf-espresso/decaf
espresso dir  : /home/users/jrboes/code/q-e/bin/pw.x
executable    : srun -D /tmp/qe_35382449jk8t3v2w_scratch pw.x -in pw.pwi

     Program PWSCF v.6.1 starts on  8Jan2019 at  1:27:35 

     This program is part of the open-source Quantum ESPRESSO suite
     for quantum simulation of materials; please cite
         "P. Giannozzi et al., J. Phys.:Condens. Matter 21 395502 (2009);
          URL http://www.quantum-espresso.org", 
     in publications or presentations arising from this work. More details at
     http://www.quantum-espresso.org/quote

     Parallel version (MPI), running on    20 processors
     R & G space division:  proc/nbgrp/npool/nimage =      20
     Reading input from pw.pwi
Warning: card &CELL ignored
Warning: card / ignored

     Current dimensions of program PWSCF are:
     Max number of different atomic species (ntypx) = 10
     Max number of k-points (npk) =  40000
     Max angular momentum in pseudopotentials (lmaxx) =  3

     **************************************************************************
     Initializing libbeef V0.1.1 with the BEEF-vdW functional.
     Citation: Wellendorff et al., PRB 85, 235149 (2012).
     **************************************************************************


     IMPORTANT: XC functional enforced from input :
     Exchange-correlation      = BEEF-VDW ( 1  4 29 14 2 0)
     Any further DFT definition will be discarded
     Please, verify this is what you really want


     Subspace diagonalization in iterative solution of the eigenvalue problem:
     one sub-group per band group will be used
     scalapack distributed-memory algorithm (size of sub-group:  3*  3 procs)


     Parallelization info
     --------------------
     sticks:   dense  smooth     PW     G-vecs:    dense   smooth      PW
     Min         141      57     16                26841     6800    1072
     Max         142      59     18                26868     6807    1081
     Sum        2839    1147    337               537229   136073   21493



     bravais-lattice index     =            0
     lattice parameter (alat)  =      10.5953  a.u.
     unit-cell volume          =    4515.4206 (a.u.)^3
     number of atoms/cell      =           13
     number of atomic types    =            2
     number of electrons       =       245.00
     number of Kohn-Sham states=          132
     kinetic-energy cutoff     =      36.7493  Ry
     charge density cutoff     =     367.4933  Ry
     convergence threshold     =      1.0E-04
     mixing beta               =       0.2000
     number of iterations used =            8  plain     mixing
     Exchange-correlation      = BEEF-VDW ( 1  4 29 14 2 0)
     nstep                     =           50


     celldm(1)=  10.595266  celldm(2)=   0.000000  celldm(3)=   0.000000
     celldm(4)=   0.000000  celldm(5)=   0.000000  celldm(6)=   0.000000

     crystal axes: (cart. coord. in units of alat)
               a(1) = (   1.000000   0.000000   0.000000 )  
               a(2) = (   0.500000   0.866025   0.000000 )  
               a(3) = (   0.000000   0.000000   4.383611 )  

     reciprocal axes: (cart. coord. in units 2 pi/alat)
               b(1) = (  1.000000 -0.577350  0.000000 )  
               b(2) = (  0.000000  1.154701  0.000000 )  
               b(3) = (  0.000000  0.000000  0.228122 )  


     PseudoPot. # 1 for Zn read from file:
     /home/users/jrboes/code/decaf-espresso/gbrv15pbe/Zn.UPF
     MD5 check sum: df62231357ef9e81f77b2b3087fa5675
     Pseudo is Ultrasoft, Zval = 20.0
     Generated by new atomic code, or converted to UPF format
     Using radial grid of  943 points,  6 beta functions with: 
                l(1) =   0
                l(2) =   0
                l(3) =   1
                l(4) =   1
                l(5) =   2
                l(6) =   2
     Q(r) pseudized with  8 coefficients,  rinner =    1.100   1.100   1.100
                                                       1.100   1.100

     PseudoPot. # 2 for N  read from file:
     /home/users/jrboes/code/decaf-espresso/gbrv15pbe/N.UPF
     MD5 check sum: 95339753478d7afb44899504a8723017
     Pseudo is Ultrasoft + core correction, Zval =  5.0
     Generated by new atomic code, or converted to UPF format
     Using radial grid of  729 points,  4 beta functions with: 
                l(1) =   0
                l(2) =   0
                l(3) =   1
                l(4) =   1
     Q(r) pseudized with  8 coefficients,  rinner =    0.900   0.900   0.900


     vdW kernel table read from file vdW_kernel_table
     MD5 check sum: 095c7af220d748ca6e76c0b4c6cfb241

     atomic species   valence    mass     pseudopotential
        Zn            20.00    65.38000     Zn( 1.00)
        N              5.00    14.00700     N ( 1.00)

     No symmetry found



   Cartesian axes

     site n.     atom                  positions (alat units)
         1           Zn  tau(   1) = (   0.2500000   0.1443376   1.7835570  )
         2           Zn  tau(   2) = (   0.7500000   0.1443376   1.7835570  )
         3           Zn  tau(   3) = (   0.5000000   0.5773503   1.7835570  )
         4           Zn  tau(   4) = (   1.0000000   0.5773503   1.7835570  )
         5           Zn  tau(   5) = (   1.0000000   0.2886751   2.1918053  )
         6           Zn  tau(   6) = (   0.5000000   0.2886751   2.1918053  )
         7           Zn  tau(   7) = (   1.2500000   0.7216878   2.1918053  )
         8           Zn  tau(   8) = (   0.7500000   0.7216878   2.1918053  )
         9           Zn  tau(   9) = (   0.0000081  -0.0000001   2.5656236  )
        10           Zn  tau(  10) = (   0.5000646   0.0001713   2.9306018  )
        11           Zn  tau(  11) = (   0.2501799   0.4329117   2.9305973  )
        12           Zn  tau(  12) = (   0.7498904   0.4328677   2.9305958  )
        13           N   tau(  13) = (  -0.0001480   0.0000842   2.8977316  )

     number of k points=    20  Fermi-Dirac smearing, width (Ry)=  0.0110
                       cart. coord. in units 2pi/alat
        k(    1) = (   0.0000000   0.0000000   0.0000000), wk =   0.0555556
        k(    2) = (   0.0000000   0.1924501   0.0000000), wk =   0.1111111
        k(    3) = (   0.0000000   0.3849002   0.0000000), wk =   0.1111111
        k(    4) = (   0.0000000  -0.5773503   0.0000000), wk =   0.0555556
        k(    5) = (   0.1666667  -0.0962250   0.0000000), wk =   0.1111111
        k(    6) = (   0.1666667   0.0962250   0.0000000), wk =   0.1111111
        k(    7) = (   0.1666667   0.2886751   0.0000000), wk =   0.1111111
        k(    8) = (   0.1666667  -0.6735753   0.0000000), wk =   0.1111111
        k(    9) = (   0.1666667  -0.4811252   0.0000000), wk =   0.1111111
        k(   10) = (   0.1666667  -0.2886751   0.0000000), wk =   0.1111111
        k(   11) = (   0.3333333  -0.1924501   0.0000000), wk =   0.1111111
        k(   12) = (   0.3333333   0.0000000   0.0000000), wk =   0.1111111
        k(   13) = (   0.3333333   0.1924501   0.0000000), wk =   0.1111111
        k(   14) = (   0.3333333  -0.7698004   0.0000000), wk =   0.1111111
        k(   15) = (   0.3333333  -0.5773503   0.0000000), wk =   0.1111111
        k(   16) = (   0.3333333  -0.3849002   0.0000000), wk =   0.1111111
        k(   17) = (  -0.5000000   0.2886751   0.0000000), wk =   0.0555556
        k(   18) = (  -0.5000000   0.4811252   0.0000000), wk =   0.1111111
        k(   19) = (  -0.5000000   0.6735753   0.0000000), wk =   0.1111111
        k(   20) = (  -0.5000000  -0.2886751   0.0000000), wk =   0.0555556

     Dense  grid:   537229 G-vectors     FFT dimensions: (  72,  72, 288)

     Smooth grid:   136073 G-vectors     FFT dimensions: (  45,  45, 180)

     Estimated max dynamical RAM per process >      70.24MB

     Estimated total allocated dynamical RAM >    1404.89MB

     Initial potential from superposition of free atoms
     Check: negative starting charge=   -0.000724

     starting charge  244.99830, renormalised to  245.00000

     negative rho (up, down):  7.239E-04 0.000E+00


     %%%%%%%%%%%%%%%%%%%%%%%%%%%%%%%%%%%%%%%%%%%%%%%%%%%%%%%%%%%%%%%%%%%%%%%%
     %                                                                      %
     % You are using vdW-DF, which was implemented by the Thonhauser group. %
     % Please cite the following two papers that made this development      %
     % possible and the two reviews that describe the various versions:     %
     %                                                                      %
     %   T. Thonhauser et al., PRL 115, 136402 (2015).                      %
     %   T. Thonhauser et al., PRB 76, 125112 (2007).                       %
     %   K. Berland et al., Rep. Prog. Phys. 78, 066501 (2015).             %
     %   D.C. Langreth et al., J. Phys.: Condens. Matter 21, 084203 (2009). %
     %                                                                      %
     %                                                                      %
     % If you are calculating the stress with vdW-DF, please also cite:     %
     %                                                                      %
     %   R. Sabatini et al., J. Phys.: Condens. Matter 24, 424209 (2012).   %
     %                                                                      %
     %%%%%%%%%%%%%%%%%%%%%%%%%%%%%%%%%%%%%%%%%%%%%%%%%%%%%%%%%%%%%%%%%%%%%%%%



     Adding external electric field

     Computed dipole along edir(3) : 
        Dipole               -0.0002 Ry au,         -0.0004 Debye
        Dipole field         -0.0000 Ry au, 

        Potential amp.        0.0000 Ry
        Total length         41.8010 bohr

     Starting wfc are  160 randomized atomic wfcs

     total cpu time spent up to now is        6.2 secs

     per-process dynamical memory:    99.8 Mb

     Self-consistent Calculation

     iteration #  1     ecut=    36.75 Ry     beta=0.20
     Davidson diagonalization with overlap
     ethr =  1.00E-02,  avg # of iterations =  2.0

     negative rho (up, down):  6.980E-04 0.000E+00

     Adding external electric field

     Computed dipole along edir(3) : 
        Dipole               -1.2761 Ry au,         -3.2436 Debye
        Dipole field         -0.0036 Ry au, 

        Potential amp.        0.2969 Ry
        Total length         41.8010 bohr


     total cpu time spent up to now is       16.9 secs

     total energy              =   -5572.86466497 Ry
     Harris-Foulkes estimate   =   -5573.70238203 Ry
     estimated scf accuracy    <       2.56630895 Ry

     iteration #  2     ecut=    36.75 Ry     beta=0.20
     Davidson diagonalization with overlap
     ethr =  1.05E-03,  avg # of iterations =  6.0

     negative rho (up, down):  7.551E-04 0.000E+00

     Adding external electric field

     Computed dipole along edir(3) : 
        Dipole                0.7931 Ry au,          2.0158 Debye
        Dipole field          0.0022 Ry au, 

        Potential amp.       -0.1845 Ry
        Total length         41.8010 bohr


     total cpu time spent up to now is       32.4 secs

     total energy              =   -5571.98251811 Ry
     Harris-Foulkes estimate   =   -5573.98991785 Ry
     estimated scf accuracy    <      26.07207336 Ry

     iteration #  3     ecut=    36.75 Ry     beta=0.20
     Davidson diagonalization with overlap
     ethr =  1.05E-03,  avg # of iterations =  5.2

     negative rho (up, down):  7.788E-04 0.000E+00

     Adding external electric field

     Computed dipole along edir(3) : 
        Dipole                0.0549 Ry au,          0.1394 Debye
        Dipole field          0.0002 Ry au, 

        Potential amp.       -0.0128 Ry
        Total length         41.8010 bohr


     total cpu time spent up to now is       47.1 secs

     total energy              =   -5573.21346157 Ry
     Harris-Foulkes estimate   =   -5573.51381607 Ry
     estimated scf accuracy    <       5.67114435 Ry

     iteration #  4     ecut=    36.75 Ry     beta=0.20
     Davidson diagonalization with overlap
     ethr =  1.05E-03,  avg # of iterations =  2.7

     negative rho (up, down):  8.115E-04 0.000E+00

     Adding external electric field

     Computed dipole along edir(3) : 
        Dipole                0.0504 Ry au,          0.1282 Debye
        Dipole field          0.0001 Ry au, 

        Potential amp.       -0.0117 Ry
        Total length         41.8010 bohr


     total cpu time spent up to now is       58.5 secs

     total energy              =   -5573.34562362 Ry
     Harris-Foulkes estimate   =   -5573.36417946 Ry
     estimated scf accuracy    <       0.17016094 Ry

     iteration #  5     ecut=    36.75 Ry     beta=0.20
     Davidson diagonalization with overlap
     ethr =  6.95E-05,  avg # of iterations =  2.2

     negative rho (up, down):  9.151E-04 0.000E+00

     Adding external electric field

     Computed dipole along edir(3) : 
        Dipole                0.0694 Ry au,          0.1764 Debye
        Dipole field          0.0002 Ry au, 

        Potential amp.       -0.0161 Ry
        Total length         41.8010 bohr


     total cpu time spent up to now is       69.3 secs

     total energy              =   -5573.35062286 Ry
     Harris-Foulkes estimate   =   -5573.35348661 Ry
     estimated scf accuracy    <       0.02740395 Ry

     iteration #  6     ecut=    36.75 Ry     beta=0.20
     Davidson diagonalization with overlap
     ethr =  1.12E-05,  avg # of iterations =  4.8

     negative rho (up, down):  9.734E-04 0.000E+00

     Adding external electric field

     Computed dipole along edir(3) : 
        Dipole                0.0744 Ry au,          0.1891 Debye
        Dipole field          0.0002 Ry au, 

        Potential amp.       -0.0173 Ry
        Total length         41.8010 bohr


     total cpu time spent up to now is       83.7 secs

     total energy              =   -5573.34847690 Ry
     Harris-Foulkes estimate   =   -5573.35606062 Ry
     estimated scf accuracy    <       0.04693181 Ry

     iteration #  7     ecut=    36.75 Ry     beta=0.20
     Davidson diagonalization with overlap
     ethr =  1.12E-05,  avg # of iterations =  2.5

     negative rho (up, down):  9.872E-04 0.000E+00

     Adding external electric field

     Computed dipole along edir(3) : 
        Dipole                0.0894 Ry au,          0.2272 Debye
        Dipole field          0.0002 Ry au, 

        Potential amp.       -0.0208 Ry
        Total length         41.8010 bohr


     total cpu time spent up to now is       95.1 secs

     total energy              =   -5573.35213475 Ry
     Harris-Foulkes estimate   =   -5573.35239769 Ry
     estimated scf accuracy    <       0.00378961 Ry

     iteration #  8     ecut=    36.75 Ry     beta=0.20
     Davidson diagonalization with overlap
     ethr =  1.55E-06,  avg # of iterations =  2.1

     negative rho (up, down):  9.853E-04 0.000E+00

     Adding external electric field

     Computed dipole along edir(3) : 
        Dipole                0.0887 Ry au,          0.2255 Debye
        Dipole field          0.0002 Ry au, 

        Potential amp.       -0.0206 Ry
        Total length         41.8010 bohr


     total cpu time spent up to now is      105.8 secs

     total energy              =   -5573.35234689 Ry
     Harris-Foulkes estimate   =   -5573.35237636 Ry
     estimated scf accuracy    <       0.00028796 Ry

     iteration #  9     ecut=    36.75 Ry     beta=0.20
     Davidson diagonalization with overlap
     ethr =  1.18E-07,  avg # of iterations =  3.0

     negative rho (up, down):  9.910E-04 0.000E+00

     Adding external electric field

     Computed dipole along edir(3) : 
        Dipole                0.0894 Ry au,          0.2273 Debye
        Dipole field          0.0002 Ry au, 

        Potential amp.       -0.0208 Ry
        Total length         41.8010 bohr


     total cpu time spent up to now is      117.7 secs

     total energy              =   -5573.35244126 Ry
     Harris-Foulkes estimate   =   -5573.35241423 Ry
     estimated scf accuracy    <       0.00036581 Ry

     iteration # 10     ecut=    36.75 Ry     beta=0.20
     Davidson diagonalization with overlap
     ethr =  1.18E-07,  avg # of iterations =  1.7

     negative rho (up, down):  9.936E-04 0.000E+00

     Adding external electric field

     Computed dipole along edir(3) : 
        Dipole                0.0891 Ry au,          0.2264 Debye
        Dipole field          0.0002 Ry au, 

        Potential amp.       -0.0207 Ry
        Total length         41.8010 bohr


     total cpu time spent up to now is      128.0 secs

     total energy              =   -5573.35240968 Ry
     Harris-Foulkes estimate   =   -5573.35244675 Ry
     estimated scf accuracy    <       0.00030079 Ry

     iteration # 11     ecut=    36.75 Ry     beta=0.20
     Davidson diagonalization with overlap
     ethr =  1.18E-07,  avg # of iterations =  2.0

     negative rho (up, down):  1.022E-03 0.000E+00

     Adding external electric field

     Computed dipole along edir(3) : 
        Dipole                0.0749 Ry au,          0.1905 Debye
        Dipole field          0.0002 Ry au, 

        Potential amp.       -0.0174 Ry
        Total length         41.8010 bohr


     total cpu time spent up to now is      138.6 secs

     End of self-consistent calculation

          k = 0.0000 0.0000 0.0000 ( 16931 PWs)   bands (ev):

  -126.0918-126.0909-126.0908-126.0418-125.9737-125.9728-125.9728-125.9692
  -125.6952-125.6943-125.6943-125.6360 -80.2748 -80.2737 -80.2737 -80.2718
   -80.2675 -80.2675 -80.2605 -80.2588 -80.2588 -80.2290 -80.2141 -80.2141
   -80.1614 -80.1604 -80.1604 -80.1587 -80.1529 -80.1514 -80.1514 -80.1418
   -80.1412 -80.1412 -80.1370 -80.1370 -79.9343 -79.9334 -79.9334 -79.8652
   -79.8554 -79.8554 -79.8470 -79.8470 -79.8439 -79.8328 -79.8328 -79.7663
   -12.3953  -8.4514  -7.6778  -7.6088  -7.5786  -7.5786  -7.5146  -7.4741
    -7.4741  -7.4367  -7.4367  -7.4213  -7.1795  -7.1497  -7.1410  -7.1409
    -7.0874  -7.0874  -7.0827  -6.9996  -6.9996  -6.9644  -6.9644  -6.9441
    -6.8816  -6.8816  -6.8441  -6.8108  -6.8108  -6.7446  -6.7446  -6.7230
    -6.6864  -6.6864  -6.6690  -6.6145  -6.6145  -6.6045  -6.6045  -6.6045
    -6.5976  -6.5632  -6.5632  -6.5037  -6.4942  -6.4942  -6.4899  -6.4899
    -6.4540  -6.4539  -6.4485  -6.4203  -6.4203  -6.4021  -6.3909  -6.3909
    -6.3868  -6.3739  -6.3739  -6.3048  -6.3047  -6.1028  -5.0539  -4.0603
    -2.5200  -1.6007  -1.6007  -1.5364  -1.3223  -1.3222  -1.2031  -1.1654
    -1.1654  -0.5011   0.3225   1.0019   1.0023   1.0576   1.5088   1.5094
     1.8128   1.8129   1.8487   2.0104

          k = 0.0000 0.1925 0.0000 ( 16966 PWs)   bands (ev):

  -126.0917-126.0909-126.0908-126.0418-125.9737-125.9728-125.9728-125.9692
  -125.6952-125.6944-125.6943-125.6360 -80.2749 -80.2738 -80.2737 -80.2711
   -80.2672 -80.2670 -80.2610 -80.2596 -80.2590 -80.2291 -80.2144 -80.2142
   -80.1615 -80.1605 -80.1604 -80.1588 -80.1522 -80.1508 -80.1506 -80.1425
   -80.1419 -80.1412 -80.1377 -80.1373 -79.9344 -79.9334 -79.9334 -79.8645
   -79.8559 -79.8552 -79.8472 -79.8471 -79.8444 -79.8329 -79.8328 -79.7664
   -12.3826  -8.2811  -7.6194  -7.5646  -7.5439  -7.5297  -7.4836  -7.4465
    -7.4347  -7.4111  -7.4086  -7.3893  -7.1400  -7.1301  -7.1299  -7.1266
    -7.1084  -7.0713  -7.0581  -7.0188  -6.9927  -6.9806  -6.9532  -6.9387
    -6.8739  -6.8423  -6.8261  -6.8163  -6.8109  -6.7888  -6.7530  -6.7385
    -6.6945  -6.6781  -6.6696  -6.6377  -6.6366  -6.6256  -6.6221  -6.6148
    -6.6104  -6.5799  -6.5666  -6.5355  -6.5327  -6.5254  -6.4991  -6.4957
    -6.4692  -6.4685  -6.4500  -6.4487  -6.4420  -6.4373  -6.4254  -6.4204
    -6.3985  -6.3900  -6.3835  -6.3384  -6.3049  -6.1497  -4.9331  -4.1221
    -3.3882  -2.4938  -2.2430  -2.0899  -1.5719  -1.5702  -0.6409  -0.4555
    -0.3508  -0.1138  -0.0763   0.8157   0.8555   1.2475   1.3622   1.8559
     2.4791   2.7058   2.7675   3.1242

          k = 0.0000 0.3849 0.0000 ( 16996 PWs)   bands (ev):

  -126.0916-126.0911-126.0908-126.0418-125.9735-125.9730-125.9728-125.9692
  -125.6950-125.6945-125.6943-125.6360 -80.2747 -80.2741 -80.2738 -80.2697
   -80.2664 -80.2657 -80.2622 -80.2616 -80.2592 -80.2292 -80.2148 -80.2144
   -80.1613 -80.1607 -80.1605 -80.1588 -80.1510 -80.1494 -80.1485 -80.1439
   -80.1434 -80.1409 -80.1399 -80.1378 -79.9343 -79.9337 -79.9335 -79.8629
   -79.8569 -79.8548 -79.8480 -79.8471 -79.8450 -79.8329 -79.8329 -79.7664
   -12.3570  -7.8362  -7.5251  -7.4514  -7.4341  -7.4060  -7.4035  -7.3909
    -7.3662  -7.3332  -7.3133  -7.2985  -7.1591  -7.1117  -7.1090  -7.1002
    -7.0802  -7.0356  -7.0132  -7.0128  -6.9904  -6.9676  -6.9306  -6.8888
    -6.8832  -6.8529  -6.8481  -6.8330  -6.8165  -6.7797  -6.7701  -6.7334
    -6.7232  -6.7196  -6.6899  -6.6793  -6.6749  -6.6619  -6.6496  -6.6430
    -6.6418  -6.6371  -6.6267  -6.5873  -6.5831  -6.5646  -6.5423  -6.5320
    -6.5283  -6.5182  -6.5180  -6.4983  -6.4954  -6.4895  -6.4517  -6.4451
    -6.4230  -6.4052  -6.3962  -6.3550  -6.3200  -6.2498  -5.1012  -4.5640
    -4.0941  -2.8566  -2.7538  -2.4473  -2.1682  -1.7836  -1.6803  -0.2320
     0.0595   0.1345   0.2954   1.6137   1.7250   1.7642   1.9412   2.3843
     3.1145   3.4812   3.6310   3.9512

          k = 0.0000-0.5774 0.0000 ( 17028 PWs)   bands (ev):

  -126.0914-126.0912-126.0908-126.0418-125.9734-125.9731-125.9728-125.9692
  -125.6949-125.6946-125.6943-125.6360 -80.2747 -80.2742 -80.2737 -80.2691
   -80.2645 -80.2643 -80.2642 -80.2637 -80.2592 -80.2292 -80.2151 -80.2144
   -80.1612 -80.1609 -80.1604 -80.1588 -80.1503 -80.1484 -80.1457 -80.1457
   -80.1450 -80.1415 -80.1406 -80.1380 -79.9342 -79.9338 -79.9334 -79.8618
   -79.8579 -79.8545 -79.8484 -79.8471 -79.8453 -79.8331 -79.8329 -79.7664
   -12.3440  -7.5576  -7.4708  -7.3908  -7.3704  -7.3575  -7.3389  -7.3141
    -7.2916  -7.2567  -7.2455  -7.2308  -7.2107  -7.1250  -7.0972  -7.0929
    -7.0762  -7.0237  -6.9741  -6.9681  -6.9582  -6.9538  -6.9317  -6.9207
    -6.8959  -6.8828  -6.8221  -6.8093  -6.8034  -6.7920  -6.7737  -6.7709
    -6.7611  -6.7542  -6.7369  -6.7027  -6.6751  -6.6622  -6.6582  -6.6518
    -6.6406  -6.6392  -6.6133  -6.6085  -6.6008  -6.5905  -6.5742  -6.5660
    -6.5612  -6.5522  -6.5505  -6.5474  -6.5013  -6.4948  -6.4478  -6.4262
    -6.4216  -6.4012  -6.3855  -6.3640  -6.2788  -6.2386  -6.1519  -4.3862
    -3.9531  -3.0509  -2.9196  -2.8976  -2.5806  -1.8704  -1.7713  -0.2132
     0.0045   0.4944   0.8146   0.9227   2.1587   2.5431   2.5572   3.3507
     3.3749   3.4574   3.5898   3.7295

          k = 0.1667-0.0962 0.0000 ( 16966 PWs)   bands (ev):

  -126.0917-126.0909-126.0909-126.0418-125.9737-125.9728-125.9728-125.9692
  -125.6952-125.6944-125.6943-125.6360 -80.2749 -80.2738 -80.2737 -80.2711
   -80.2673 -80.2670 -80.2610 -80.2595 -80.2591 -80.2291 -80.2144 -80.2142
   -80.1615 -80.1605 -80.1604 -80.1588 -80.1522 -80.1508 -80.1505 -80.1425
   -80.1419 -80.1411 -80.1377 -80.1373 -79.9344 -79.9334 -79.9334 -79.8645
   -79.8559 -79.8552 -79.8472 -79.8471 -79.8444 -79.8329 -79.8329 -79.7664
   -12.3826  -8.2811  -7.6194  -7.5646  -7.5439  -7.5297  -7.4836  -7.4465
    -7.4346  -7.4111  -7.4087  -7.3893  -7.1400  -7.1301  -7.1299  -7.1266
    -7.1084  -7.0713  -7.0581  -7.0188  -6.9927  -6.9806  -6.9533  -6.9387
    -6.8739  -6.8423  -6.8261  -6.8163  -6.8110  -6.7888  -6.7530  -6.7385
    -6.6945  -6.6781  -6.6696  -6.6377  -6.6366  -6.6255  -6.6221  -6.6148
    -6.6104  -6.5799  -6.5666  -6.5355  -6.5327  -6.5254  -6.4991  -6.4957
    -6.4692  -6.4685  -6.4500  -6.4487  -6.4420  -6.4373  -6.4254  -6.4204
    -6.3985  -6.3901  -6.3834  -6.3384  -6.3049  -6.1497  -4.9331  -4.1221
    -3.3882  -2.4938  -2.2430  -2.0899  -1.5713  -1.5708  -0.6410  -0.4554
    -0.3508  -0.1138  -0.0763   0.8157   0.8556   1.2475   1.3620   1.8558
     2.4791   2.7057   2.7674   3.1245

          k = 0.1667 0.0962 0.0000 ( 16966 PWs)   bands (ev):

  -126.0917-126.0909-126.0908-126.0418-125.9737-125.9728-125.9728-125.9692
  -125.6952-125.6944-125.6943-125.6360 -80.2749 -80.2738 -80.2737 -80.2711
   -80.2672 -80.2670 -80.2610 -80.2596 -80.2590 -80.2291 -80.2144 -80.2142
   -80.1615 -80.1605 -80.1604 -80.1588 -80.1522 -80.1508 -80.1506 -80.1425
   -80.1419 -80.1412 -80.1377 -80.1373 -79.9344 -79.9334 -79.9334 -79.8645
   -79.8559 -79.8552 -79.8472 -79.8471 -79.8444 -79.8329 -79.8328 -79.7664
   -12.3826  -8.2811  -7.6194  -7.5646  -7.5439  -7.5297  -7.4836  -7.4465
    -7.4347  -7.4111  -7.4086  -7.3893  -7.1400  -7.1301  -7.1299  -7.1266
    -7.1084  -7.0713  -7.0581  -7.0188  -6.9927  -6.9806  -6.9532  -6.9387
    -6.8739  -6.8423  -6.8261  -6.8163  -6.8109  -6.7888  -6.7530  -6.7385
    -6.6945  -6.6781  -6.6696  -6.6377  -6.6366  -6.6256  -6.6221  -6.6148
    -6.6104  -6.5799  -6.5666  -6.5355  -6.5327  -6.5254  -6.4991  -6.4957
    -6.4692  -6.4685  -6.4500  -6.4487  -6.4420  -6.4373  -6.4254  -6.4204
    -6.3985  -6.3900  -6.3834  -6.3384  -6.3049  -6.1497  -4.9331  -4.1221
    -3.3882  -2.4938  -2.2430  -2.0899  -1.5719  -1.5702  -0.6410  -0.4555
    -0.3508  -0.1138  -0.0763   0.8157   0.8555   1.2475   1.3622   1.8558
     2.4791   2.7058   2.7675   3.1242

          k = 0.1667 0.2887 0.0000 ( 16978 PWs)   bands (ev):

  -126.0916-126.0910-126.0908-126.0418-125.9736-125.9729-125.9728-125.9692
  -125.6951-125.6945-125.6943-125.6360 -80.2747 -80.2740 -80.2737 -80.2701
   -80.2669 -80.2661 -80.2620 -80.2605 -80.2594 -80.2291 -80.2146 -80.2144
   -80.1613 -80.1606 -80.1605 -80.1588 -80.1513 -80.1496 -80.1495 -80.1439
   -80.1419 -80.1416 -80.1391 -80.1376 -79.9342 -79.9336 -79.9335 -79.8634
   -79.8567 -79.8549 -79.8478 -79.8470 -79.8449 -79.8329 -79.8329 -79.7664
   -12.3634  -7.9666  -7.5315  -7.4914  -7.4729  -7.4404  -7.4220  -7.3968
    -7.3899  -7.3618  -7.3479  -7.3218  -7.1608  -7.1169  -7.1099  -7.0988
    -7.0694  -7.0529  -7.0354  -7.0300  -6.9996  -6.9618  -6.9503  -6.9011
    -6.8613  -6.8569  -6.8400  -6.8231  -6.7951  -6.7879  -6.7699  -6.7542
    -6.7255  -6.7134  -6.6839  -6.6669  -6.6579  -6.6513  -6.6428  -6.6332
    -6.6296  -6.6067  -6.5879  -6.5803  -6.5724  -6.5516  -6.5383  -6.5274
    -6.5231  -6.5027  -6.4940  -6.4893  -6.4790  -6.4730  -6.4477  -6.4321
    -6.4283  -6.4171  -6.3787  -6.3732  -6.2994  -6.2286  -4.7365  -4.2797
    -4.0392  -3.9466  -2.4531  -2.2806  -1.4190  -1.0096  -0.9003  -0.7735
    -0.6756  -0.4431  -0.0782   1.5756   1.7779   1.9969   2.1838   2.5815
     2.6350   2.8624   3.0545   3.7399

          k = 0.1667-0.6736 0.0000 ( 16986 PWs)   bands (ev):

  -126.0914-126.0912-126.0908-126.0418-125.9734-125.9731-125.9728-125.9692
  -125.6949-125.6946-125.6943-125.6360 -80.2746 -80.2742 -80.2737 -80.2687
   -80.2661 -80.2643 -80.2641 -80.2620 -80.2597 -80.2291 -80.2150 -80.2145
   -80.1612 -80.1608 -80.1605 -80.1588 -80.1500 -80.1482 -80.1471 -80.1458
   -80.1437 -80.1416 -80.1403 -80.1383 -79.9341 -79.9338 -79.9334 -79.8617
   -79.8580 -79.8543 -79.8484 -79.8469 -79.8455 -79.8330 -79.8329 -79.7664
   -12.3441  -7.5516  -7.4361  -7.3807  -7.3602  -7.3527  -7.3430  -7.3305
    -7.2942  -7.2748  -7.2612  -7.2418  -7.1970  -7.1477  -7.0984  -7.0877
    -7.0676  -7.0308  -7.0009  -6.9853  -6.9695  -6.9519  -6.9314  -6.9250
    -6.9109  -6.9019  -6.8843  -6.8141  -6.8019  -6.7996  -6.7916  -6.7753
    -6.7465  -6.7404  -6.7249  -6.6998  -6.6844  -6.6667  -6.6563  -6.6537
    -6.6340  -6.6281  -6.6120  -6.6082  -6.5960  -6.5883  -6.5804  -6.5710
    -6.5567  -6.5491  -6.5349  -6.5117  -6.5007  -6.4815  -6.4542  -6.4401
    -6.4345  -6.4233  -6.4018  -6.3570  -6.3197  -6.2770  -5.5666  -4.4955
    -4.3204  -3.8198  -3.1500  -2.7037  -1.8298  -1.4291  -1.1040  -0.8934
     0.2055   0.3673   1.1072   1.2670   1.4153   1.8722   2.2959   2.6528
     3.3727   3.7103   3.7700   3.9079

          k = 0.1667-0.4811 0.0000 ( 16986 PWs)   bands (ev):

  -126.0915-126.0911-126.0908-126.0418-125.9734-125.9731-125.9728-125.9692
  -125.6949-125.6946-125.6943-125.6360 -80.2746 -80.2742 -80.2738 -80.2687
   -80.2661 -80.2643 -80.2640 -80.2621 -80.2597 -80.2291 -80.2150 -80.2145
   -80.1612 -80.1608 -80.1605 -80.1588 -80.1500 -80.1482 -80.1471 -80.1458
   -80.1437 -80.1416 -80.1403 -80.1383 -79.9341 -79.9338 -79.9334 -79.8617
   -79.8581 -79.8543 -79.8484 -79.8469 -79.8455 -79.8330 -79.8329 -79.7664
   -12.3441  -7.5516  -7.4361  -7.3807  -7.3603  -7.3528  -7.3430  -7.3305
    -7.2942  -7.2748  -7.2612  -7.2418  -7.1970  -7.1477  -7.0984  -7.0877
    -7.0676  -7.0308  -7.0009  -6.9853  -6.9695  -6.9519  -6.9314  -6.9250
    -6.9109  -6.9019  -6.8843  -6.8141  -6.8019  -6.7996  -6.7916  -6.7753
    -6.7465  -6.7404  -6.7249  -6.6998  -6.6844  -6.6666  -6.6563  -6.6537
    -6.6341  -6.6281  -6.6120  -6.6082  -6.5959  -6.5883  -6.5804  -6.5710
    -6.5567  -6.5491  -6.5349  -6.5117  -6.5007  -6.4815  -6.4542  -6.4401
    -6.4346  -6.4232  -6.4018  -6.3569  -6.3196  -6.2770  -5.5666  -4.4956
    -4.3204  -3.8198  -3.1499  -2.7037  -1.8299  -1.4291  -1.1040  -0.8933
     0.2055   0.3673   1.1072   1.2670   1.4154   1.8722   2.2959   2.6528
     3.3727   3.7103   3.7700   3.9078

          k = 0.1667-0.2887 0.0000 ( 16978 PWs)   bands (ev):

  -126.0916-126.0910-126.0909-126.0418-125.9736-125.9729-125.9728-125.9692
  -125.6951-125.6945-125.6943-125.6360 -80.2747 -80.2739 -80.2738 -80.2701
   -80.2670 -80.2660 -80.2620 -80.2605 -80.2594 -80.2291 -80.2146 -80.2144
   -80.1613 -80.1606 -80.1605 -80.1588 -80.1513 -80.1496 -80.1495 -80.1439
   -80.1419 -80.1416 -80.1391 -80.1376 -79.9342 -79.9336 -79.9334 -79.8634
   -79.8567 -79.8549 -79.8478 -79.8470 -79.8449 -79.8329 -79.8329 -79.7664
   -12.3634  -7.9666  -7.5315  -7.4914  -7.4729  -7.4404  -7.4220  -7.3968
    -7.3899  -7.3618  -7.3479  -7.3218  -7.1607  -7.1169  -7.1099  -7.0988
    -7.0694  -7.0529  -7.0354  -7.0300  -6.9996  -6.9618  -6.9503  -6.9010
    -6.8613  -6.8569  -6.8400  -6.8232  -6.7952  -6.7879  -6.7699  -6.7542
    -6.7255  -6.7134  -6.6839  -6.6669  -6.6579  -6.6513  -6.6428  -6.6332
    -6.6296  -6.6067  -6.5879  -6.5803  -6.5724  -6.5516  -6.5383  -6.5274
    -6.5231  -6.5027  -6.4940  -6.4893  -6.4790  -6.4730  -6.4478  -6.4321
    -6.4283  -6.4170  -6.3787  -6.3732  -6.2993  -6.2286  -4.7365  -4.2797
    -4.0392  -3.9466  -2.4530  -2.2806  -1.4190  -1.0096  -0.9003  -0.7733
    -0.6756  -0.4431  -0.0782   1.5758   1.7778   1.9966   2.1840   2.5816
     2.6349   2.8624   3.0546   3.7396

          k = 0.3333-0.1925 0.0000 ( 16996 PWs)   bands (ev):

  -126.0916-126.0910-126.0909-126.0418-125.9735-125.9730-125.9728-125.9692
  -125.6950-125.6945-125.6943-125.6360 -80.2748 -80.2740 -80.2738 -80.2698
   -80.2664 -80.2657 -80.2622 -80.2616 -80.2593 -80.2292 -80.2148 -80.2144
   -80.1613 -80.1607 -80.1604 -80.1588 -80.1509 -80.1494 -80.1485 -80.1438
   -80.1434 -80.1409 -80.1399 -80.1378 -79.9343 -79.9337 -79.9334 -79.8629
   -79.8569 -79.8547 -79.8480 -79.8471 -79.8450 -79.8329 -79.8329 -79.7664
   -12.3570  -7.8362  -7.5251  -7.4514  -7.4342  -7.4060  -7.4035  -7.3909
    -7.3662  -7.3332  -7.3133  -7.2985  -7.1591  -7.1117  -7.1090  -7.1002
    -7.0802  -7.0356  -7.0132  -7.0128  -6.9904  -6.9676  -6.9306  -6.8888
    -6.8832  -6.8529  -6.8481  -6.8330  -6.8165  -6.7797  -6.7701  -6.7334
    -6.7231  -6.7196  -6.6899  -6.6793  -6.6749  -6.6619  -6.6496  -6.6430
    -6.6418  -6.6371  -6.6267  -6.5873  -6.5831  -6.5646  -6.5423  -6.5320
    -6.5283  -6.5182  -6.5180  -6.4983  -6.4954  -6.4895  -6.4517  -6.4451
    -6.4230  -6.4052  -6.3962  -6.3550  -6.3200  -6.2498  -5.1012  -4.5640
    -4.0941  -2.8566  -2.7538  -2.4473  -2.1682  -1.7836  -1.6803  -0.2320
     0.0595   0.1345   0.2953   1.6137   1.7251   1.7642   1.9411   2.3843
     3.1144   3.4812   3.6310   3.9512

          k = 0.3333 0.0000 0.0000 ( 16978 PWs)   bands (ev):

  -126.0916-126.0910-126.0908-126.0418-125.9736-125.9729-125.9728-125.9692
  -125.6951-125.6945-125.6943-125.6360 -80.2747 -80.2739 -80.2738 -80.2701
   -80.2670 -80.2660 -80.2620 -80.2605 -80.2594 -80.2291 -80.2146 -80.2144
   -80.1613 -80.1606 -80.1605 -80.1588 -80.1513 -80.1496 -80.1495 -80.1439
   -80.1419 -80.1416 -80.1391 -80.1376 -79.9342 -79.9336 -79.9335 -79.8634
   -79.8567 -79.8549 -79.8478 -79.8470 -79.8449 -79.8329 -79.8329 -79.7664
   -12.3634  -7.9666  -7.5315  -7.4914  -7.4729  -7.4404  -7.4220  -7.3968
    -7.3899  -7.3618  -7.3479  -7.3218  -7.1607  -7.1169  -7.1099  -7.0988
    -7.0694  -7.0529  -7.0354  -7.0300  -6.9996  -6.9618  -6.9503  -6.9010
    -6.8613  -6.8569  -6.8400  -6.8232  -6.7952  -6.7879  -6.7699  -6.7542
    -6.7255  -6.7134  -6.6839  -6.6669  -6.6579  -6.6513  -6.6428  -6.6332
    -6.6296  -6.6067  -6.5879  -6.5803  -6.5724  -6.5516  -6.5383  -6.5274
    -6.5231  -6.5027  -6.4940  -6.4893  -6.4790  -6.4730  -6.4478  -6.4321
    -6.4283  -6.4170  -6.3787  -6.3732  -6.2994  -6.2286  -4.7365  -4.2797
    -4.0392  -3.9466  -2.4530  -2.2806  -1.4190  -1.0096  -0.9003  -0.7733
    -0.6756  -0.4431  -0.0782   1.5757   1.7778   1.9966   2.1840   2.5816
     2.6349   2.8624   3.0546   3.7398

          k = 0.3333 0.1925 0.0000 ( 16996 PWs)   bands (ev):

  -126.0916-126.0911-126.0908-126.0418-125.9735-125.9730-125.9728-125.9692
  -125.6951-125.6945-125.6943-125.6360 -80.2747 -80.2741 -80.2738 -80.2697
   -80.2664 -80.2657 -80.2622 -80.2616 -80.2592 -80.2292 -80.2148 -80.2144
   -80.1613 -80.1607 -80.1605 -80.1588 -80.1510 -80.1494 -80.1485 -80.1439
   -80.1434 -80.1409 -80.1399 -80.1378 -79.9343 -79.9337 -79.9335 -79.8629
   -79.8569 -79.8548 -79.8480 -79.8471 -79.8450 -79.8329 -79.8329 -79.7664
   -12.3570  -7.8362  -7.5251  -7.4514  -7.4341  -7.4060  -7.4035  -7.3909
    -7.3662  -7.3332  -7.3133  -7.2985  -7.1591  -7.1117  -7.1090  -7.1002
    -7.0802  -7.0356  -7.0132  -7.0128  -6.9904  -6.9676  -6.9306  -6.8888
    -6.8832  -6.8529  -6.8481  -6.8330  -6.8165  -6.7797  -6.7701  -6.7334
    -6.7232  -6.7196  -6.6899  -6.6793  -6.6749  -6.6619  -6.6496  -6.6430
    -6.6418  -6.6371  -6.6267  -6.5873  -6.5831  -6.5646  -6.5423  -6.5320
    -6.5283  -6.5182  -6.5180  -6.4983  -6.4954  -6.4895  -6.4517  -6.4451
    -6.4230  -6.4052  -6.3962  -6.3550  -6.3200  -6.2498  -5.1012  -4.5640
    -4.0941  -2.8566  -2.7538  -2.4473  -2.1681  -1.7836  -1.6803  -0.2320
     0.0595   0.1345   0.2954   1.6137   1.7250   1.7642   1.9412   2.3842
     3.1145   3.4812   3.6310   3.9511

          k = 0.3333-0.7698 0.0000 ( 16986 PWs)   bands (ev):

  -126.0914-126.0912-126.0908-126.0418-125.9734-125.9731-125.9728-125.9692
  -125.6949-125.6946-125.6943-125.6360 -80.2746 -80.2742 -80.2737 -80.2687
   -80.2661 -80.2643 -80.2641 -80.2620 -80.2597 -80.2291 -80.2150 -80.2145
   -80.1612 -80.1608 -80.1605 -80.1588 -80.1500 -80.1482 -80.1471 -80.1458
   -80.1437 -80.1416 -80.1403 -80.1383 -79.9341 -79.9338 -79.9334 -79.8617
   -79.8580 -79.8543 -79.8484 -79.8469 -79.8455 -79.8330 -79.8329 -79.7664
   -12.3441  -7.5516  -7.4361  -7.3807  -7.3603  -7.3527  -7.3430  -7.3305
    -7.2942  -7.2748  -7.2612  -7.2418  -7.1970  -7.1477  -7.0984  -7.0877
    -7.0676  -7.0308  -7.0009  -6.9853  -6.9695  -6.9519  -6.9314  -6.9250
    -6.9109  -6.9019  -6.8843  -6.8141  -6.8019  -6.7996  -6.7916  -6.7753
    -6.7465  -6.7404  -6.7249  -6.6998  -6.6844  -6.6667  -6.6563  -6.6537
    -6.6340  -6.6281  -6.6120  -6.6082  -6.5960  -6.5883  -6.5804  -6.5710
    -6.5567  -6.5490  -6.5349  -6.5117  -6.5007  -6.4815  -6.4542  -6.4401
    -6.4345  -6.4233  -6.4018  -6.3570  -6.3197  -6.2770  -5.5666  -4.4955
    -4.3204  -3.8198  -3.1499  -2.7037  -1.8298  -1.4291  -1.1040  -0.8934
     0.2055   0.3673   1.1072   1.2670   1.4153   1.8722   2.2959   2.6528
     3.3727   3.7103   3.7700   3.9079

          k = 0.3333-0.5774 0.0000 ( 17004 PWs)   bands (ev):

  -126.0913-126.0913-126.0908-126.0418-125.9733-125.9732-125.9728-125.9692
  -125.6948-125.6948-125.6943-125.6360 -80.2744 -80.2743 -80.2738 -80.2671
   -80.2670 -80.2653 -80.2626 -80.2625 -80.2607 -80.2291 -80.2149 -80.2149
   -80.1609 -80.1609 -80.1605 -80.1588 -80.1485 -80.1485 -80.1466 -80.1455
   -80.1455 -80.1420 -80.1395 -80.1395 -79.9339 -79.9339 -79.9335 -79.8600
   -79.8599 -79.8541 -79.8487 -79.8463 -79.8463 -79.8330 -79.8330 -79.7664
   -12.3377  -7.3788  -7.3530  -7.3267  -7.3251  -7.2950  -7.2926  -7.2913
    -7.2649  -7.2597  -7.2536  -7.2218  -7.2083  -7.1735  -7.0764  -7.0724
    -7.0482  -7.0453  -7.0233  -6.9921  -6.9913  -6.9863  -6.9675  -6.9623
    -6.9141  -6.9137  -6.9038  -6.8847  -6.8662  -6.7884  -6.7863  -6.7672
    -6.7534  -6.7300  -6.7225  -6.6896  -6.6883  -6.6824  -6.6737  -6.6560
    -6.6509  -6.6391  -6.6286  -6.6170  -6.6125  -6.5927  -6.5917  -6.5824
    -6.5705  -6.5371  -6.5339  -6.5281  -6.4646  -6.4627  -6.4557  -6.4532
    -6.4359  -6.4211  -6.4046  -6.3965  -6.2684  -5.8281  -5.6176  -5.6162
    -3.9003  -3.8960  -3.5726  -2.5418  -2.5396  -1.5877  -0.0542   0.2070
     0.2185   0.8287   0.8487   0.8992   1.3338   1.3566   1.5042   3.0764
     3.0896   3.4727   3.7959   3.8766

          k = 0.3333-0.3849 0.0000 ( 16986 PWs)   bands (ev):

  -126.0915-126.0911-126.0909-126.0418-125.9734-125.9731-125.9728-125.9692
  -125.6949-125.6946-125.6943-125.6360 -80.2746 -80.2741 -80.2738 -80.2687
   -80.2661 -80.2642 -80.2640 -80.2620 -80.2597 -80.2291 -80.2150 -80.2145
   -80.1611 -80.1608 -80.1605 -80.1588 -80.1500 -80.1482 -80.1472 -80.1458
   -80.1437 -80.1416 -80.1403 -80.1383 -79.9341 -79.9338 -79.9334 -79.8617
   -79.8581 -79.8543 -79.8484 -79.8469 -79.8455 -79.8330 -79.8329 -79.7664
   -12.3441  -7.5516  -7.4361  -7.3807  -7.3602  -7.3527  -7.3430  -7.3305
    -7.2942  -7.2748  -7.2612  -7.2418  -7.1970  -7.1476  -7.0984  -7.0877
    -7.0676  -7.0308  -7.0009  -6.9853  -6.9695  -6.9520  -6.9314  -6.9250
    -6.9109  -6.9019  -6.8843  -6.8140  -6.8019  -6.7996  -6.7916  -6.7753
    -6.7465  -6.7404  -6.7249  -6.6998  -6.6844  -6.6667  -6.6563  -6.6537
    -6.6341  -6.6281  -6.6120  -6.6082  -6.5959  -6.5883  -6.5804  -6.5710
    -6.5567  -6.5491  -6.5349  -6.5117  -6.5007  -6.4814  -6.4542  -6.4401
    -6.4345  -6.4233  -6.4018  -6.3569  -6.3196  -6.2770  -5.5666  -4.4955
    -4.3204  -3.8198  -3.1499  -2.7037  -1.8298  -1.4291  -1.1040  -0.8933
     0.2055   0.3673   1.1072   1.2670   1.4153   1.8722   2.2959   2.6528
     3.3727   3.7104   3.7698   3.9081

          k =-0.5000 0.2887 0.0000 ( 17028 PWs)   bands (ev):

  -126.0915-126.0911-126.0909-126.0418-125.9734-125.9731-125.9728-125.9692
  -125.6949-125.6946-125.6943-125.6360 -80.2747 -80.2741 -80.2738 -80.2691
   -80.2644 -80.2644 -80.2642 -80.2637 -80.2592 -80.2292 -80.2151 -80.2144
   -80.1612 -80.1609 -80.1604 -80.1588 -80.1502 -80.1484 -80.1458 -80.1456
   -80.1450 -80.1415 -80.1405 -80.1380 -79.9342 -79.9338 -79.9334 -79.8618
   -79.8579 -79.8545 -79.8484 -79.8471 -79.8453 -79.8331 -79.8329 -79.7664
   -12.3440  -7.5577  -7.4708  -7.3908  -7.3704  -7.3575  -7.3389  -7.3141
    -7.2916  -7.2567  -7.2455  -7.2307  -7.2107  -7.1250  -7.0972  -7.0929
    -7.0762  -7.0237  -6.9742  -6.9681  -6.9583  -6.9538  -6.9318  -6.9207
    -6.8959  -6.8828  -6.8221  -6.8093  -6.8034  -6.7920  -6.7737  -6.7709
    -6.7611  -6.7542  -6.7369  -6.7027  -6.6751  -6.6622  -6.6582  -6.6517
    -6.6406  -6.6392  -6.6133  -6.6085  -6.6008  -6.5906  -6.5741  -6.5661
    -6.5611  -6.5521  -6.5504  -6.5474  -6.5013  -6.4948  -6.4478  -6.4262
    -6.4216  -6.4012  -6.3856  -6.3640  -6.2788  -6.2386  -6.1518  -4.3862
    -3.9531  -3.0509  -2.9196  -2.8976  -2.5806  -1.8704  -1.7713  -0.2133
     0.0045   0.4945   0.8147   0.9227   2.1587   2.5433   2.5570   3.3509
     3.3750   3.4573   3.5897   3.7295

          k =-0.5000 0.4811 0.0000 ( 16986 PWs)   bands (ev):

  -126.0915-126.0911-126.0909-126.0418-125.9734-125.9731-125.9728-125.9692
  -125.6949-125.6946-125.6943-125.6360 -80.2746 -80.2741 -80.2738 -80.2687
   -80.2661 -80.2642 -80.2640 -80.2620 -80.2597 -80.2291 -80.2150 -80.2145
   -80.1611 -80.1608 -80.1605 -80.1588 -80.1500 -80.1482 -80.1472 -80.1458
   -80.1437 -80.1416 -80.1403 -80.1383 -79.9341 -79.9338 -79.9334 -79.8617
   -79.8581 -79.8543 -79.8484 -79.8469 -79.8455 -79.8330 -79.8329 -79.7664
   -12.3441  -7.5516  -7.4361  -7.3807  -7.3602  -7.3527  -7.3430  -7.3305
    -7.2942  -7.2748  -7.2612  -7.2418  -7.1970  -7.1476  -7.0984  -7.0877
    -7.0676  -7.0308  -7.0009  -6.9853  -6.9695  -6.9520  -6.9314  -6.9250
    -6.9109  -6.9019  -6.8843  -6.8140  -6.8019  -6.7996  -6.7916  -6.7753
    -6.7465  -6.7404  -6.7249  -6.6998  -6.6844  -6.6667  -6.6563  -6.6537
    -6.6341  -6.6281  -6.6120  -6.6082  -6.5959  -6.5883  -6.5804  -6.5710
    -6.5567  -6.5490  -6.5349  -6.5117  -6.5007  -6.4814  -6.4542  -6.4401
    -6.4345  -6.4233  -6.4018  -6.3569  -6.3196  -6.2770  -5.5666  -4.4955
    -4.3204  -3.8198  -3.1499  -2.7037  -1.8298  -1.4291  -1.1040  -0.8934
     0.2055   0.3673   1.1072   1.2670   1.4153   1.8722   2.2959   2.6528
     3.3727   3.7104   3.7698   3.9081

          k =-0.5000 0.6736 0.0000 ( 16986 PWs)   bands (ev):

  -126.0914-126.0912-126.0908-126.0418-125.9734-125.9731-125.9728-125.9692
  -125.6949-125.6946-125.6943-125.6360 -80.2746 -80.2742 -80.2738 -80.2687
   -80.2661 -80.2643 -80.2640 -80.2621 -80.2597 -80.2291 -80.2150 -80.2145
   -80.1612 -80.1608 -80.1605 -80.1588 -80.1500 -80.1482 -80.1471 -80.1458
   -80.1437 -80.1416 -80.1403 -80.1383 -79.9341 -79.9338 -79.9334 -79.8617
   -79.8580 -79.8543 -79.8484 -79.8469 -79.8455 -79.8330 -79.8329 -79.7664
   -12.3441  -7.5516  -7.4361  -7.3807  -7.3603  -7.3528  -7.3430  -7.3305
    -7.2942  -7.2748  -7.2612  -7.2418  -7.1970  -7.1477  -7.0984  -7.0877
    -7.0676  -7.0308  -7.0009  -6.9853  -6.9695  -6.9519  -6.9314  -6.9250
    -6.9109  -6.9019  -6.8843  -6.8141  -6.8019  -6.7996  -6.7916  -6.7753
    -6.7465  -6.7404  -6.7249  -6.6998  -6.6844  -6.6666  -6.6563  -6.6537
    -6.6341  -6.6281  -6.6120  -6.6081  -6.5959  -6.5883  -6.5804  -6.5710
    -6.5567  -6.5490  -6.5349  -6.5117  -6.5007  -6.4815  -6.4542  -6.4401
    -6.4346  -6.4232  -6.4018  -6.3569  -6.3196  -6.2770  -5.5666  -4.4956
    -4.3204  -3.8198  -3.1499  -2.7037  -1.8299  -1.4291  -1.1040  -0.8933
     0.2055   0.3673   1.1072   1.2670   1.4153   1.8722   2.2959   2.6528
     3.3727   3.7104   3.7700   3.9078

          k =-0.5000-0.2887 0.0000 ( 17028 PWs)   bands (ev):

  -126.0914-126.0912-126.0908-126.0418-125.9734-125.9731-125.9728-125.9692
  -125.6949-125.6946-125.6943-125.6360 -80.2746 -80.2742 -80.2737 -80.2691
   -80.2645 -80.2643 -80.2643 -80.2637 -80.2592 -80.2292 -80.2151 -80.2144
   -80.1612 -80.1609 -80.1604 -80.1588 -80.1503 -80.1484 -80.1457 -80.1457
   -80.1450 -80.1415 -80.1406 -80.1380 -79.9342 -79.9338 -79.9334 -79.8618
   -79.8579 -79.8545 -79.8484 -79.8471 -79.8453 -79.8331 -79.8329 -79.7664
   -12.3440  -7.5576  -7.4708  -7.3908  -7.3703  -7.3575  -7.3389  -7.3141
    -7.2916  -7.2567  -7.2455  -7.2308  -7.2107  -7.1250  -7.0972  -7.0929
    -7.0762  -7.0237  -6.9741  -6.9681  -6.9582  -6.9539  -6.9317  -6.9207
    -6.8959  -6.8828  -6.8221  -6.8093  -6.8034  -6.7920  -6.7737  -6.7709
    -6.7611  -6.7542  -6.7369  -6.7027  -6.6751  -6.6622  -6.6582  -6.6518
    -6.6406  -6.6392  -6.6133  -6.6085  -6.6008  -6.5905  -6.5742  -6.5660
    -6.5612  -6.5522  -6.5505  -6.5474  -6.5013  -6.4948  -6.4478  -6.4262
    -6.4216  -6.4012  -6.3855  -6.3640  -6.2788  -6.2386  -6.1519  -4.3863
    -3.9531  -3.0509  -2.9196  -2.8976  -2.5806  -1.8704  -1.7713  -0.2132
     0.0045   0.4944   0.8146   0.9227   2.1587   2.5431   2.5572   3.3507
     3.3749   3.4574   3.5898   3.7295

     the Fermi energy is     0.6321 ev

!    total energy              =   -5573.35243308 Ry
     Harris-Foulkes estimate   =   -5573.35244042 Ry
     estimated scf accuracy    <       0.00000742 Ry

     The total energy is the sum of the following terms:

     one-electron contribution =  -30129.32364918 Ry
     hartree contribution      =   15047.60316616 Ry
     xc contribution           =    -525.86866892 Ry
     ewald contribution        =   10034.25672420 Ry
     electric field correction =       0.00001563 Ry
     smearing contrib. (-TS)   =      -0.02002096 Ry

     convergence has been achieved in  11 iterations

     negative rho (up, down):  1.022E-03 0.000E+00

     Forces acting on atoms (cartesian axes, Ry/au):

     atom    1 type  1   force =    -0.00043245   -0.00024163   -0.01195334
     atom    2 type  1   force =     0.00042796   -0.00025439   -0.01195587
     atom    3 type  1   force =    -0.00000917    0.00049729   -0.01195192
     atom    4 type  1   force =     0.00001368    0.00000239   -0.01325069
     atom    5 type  1   force =     0.00000165    0.00794303    0.01515109
     atom    6 type  1   force =    -0.00001080   -0.00000124    0.01518678
     atom    7 type  1   force =    -0.00687205   -0.00397181    0.01515118
     atom    8 type  1   force =     0.00687612   -0.00396564    0.01518009
     atom    9 type  1   force =     0.00001539   -0.00000479   -0.00298111
     atom   10 type  1   force =     0.00005613   -0.00050122   -0.00344249
     atom   11 type  1   force =    -0.00038474    0.00022361   -0.00343003
     atom   12 type  1   force =     0.00046409    0.00019221   -0.00343125
     atom   13 type  2   force =    -0.00014581    0.00008217    0.00172754

     Total force =     0.006928     Total SCF correction =     0.015538
     SCF correction compared to forces is large: reduce conv_thr to get better values

     BFGS Geometry Optimization

     number of scf cycles    =   1
     number of bfgs steps    =   0

     energy   new            =   -5573.3524330827 Ry

     new trust radius        =       0.0034792362 bohr
     new conv_thr            =       0.0001000000 Ry


ATOMIC_POSITIONS (angstrom)
Zn       1.401693333   0.809268023  10.000000000    0   0   0
Zn       4.205080001   0.809268023  10.000000000    0   0   0
Zn       2.803386667   3.237072094  10.000000000    0   0   0
Zn       5.606773334   3.237072094  10.000000000    0   0   0
Zn       5.606773334   1.618536047  12.288955629    0   0   0
Zn       2.803386667   1.618536047  12.288955629    0   0   0
Zn       7.008466668   4.046340117  12.288955629    0   0   0
Zn       4.205080001   4.046340117  12.288955629    0   0   0
Zn       0.000053344  -0.000002916  14.383292436
Zn       2.803778395   0.000695276  16.429398589
Zn       1.402498250   2.427356122  16.429379766
Zn       4.204710946   2.427092758  16.429370371
N       -0.000906962   0.000515304  16.247838385



     Writing output data file calc.save
     Check: negative starting charge=   -0.000724
     NEW-OLD atomic charge density approx. for the potential
     Check: negative starting charge=   -0.000725

     negative rho (up, down):  1.023E-03 0.000E+00

     Adding external electric field

     Computed dipole along edir(3) : 
        Dipole                0.0749 Ry au,          0.1905 Debye
        Dipole field          0.0002 Ry au, 

        Potential amp.       -0.0174 Ry
        Total length         41.8010 bohr


     total cpu time spent up to now is      142.7 secs

     per-process dynamical memory:   135.1 Mb

     Self-consistent Calculation

     iteration #  1     ecut=    36.75 Ry     beta=0.20
     Davidson diagonalization with overlap
     ethr =  1.00E-06,  avg # of iterations =  3.0

     negative rho (up, down):  1.022E-03 0.000E+00

     Adding external electric field

     Computed dipole along edir(3) : 
        Dipole                0.1502 Ry au,          0.3819 Debye
        Dipole field          0.0004 Ry au, 

        Potential amp.       -0.0350 Ry
        Total length         41.8010 bohr


     total cpu time spent up to now is      158.5 secs

     total energy              =   -5573.35190734 Ry
     Harris-Foulkes estimate   =   -5573.35246979 Ry
     estimated scf accuracy    <       0.00174238 Ry

     iteration #  2     ecut=    36.75 Ry     beta=0.20
     Davidson diagonalization with overlap
     ethr =  7.11E-07,  avg # of iterations =  3.2

     negative rho (up, down):  1.024E-03 0.000E+00

     Adding external electric field

     Computed dipole along edir(3) : 
        Dipole                0.0839 Ry au,          0.2132 Debye
        Dipole field          0.0002 Ry au, 

        Potential amp.       -0.0195 Ry
        Total length         41.8010 bohr


     total cpu time spent up to now is      170.8 secs

     total energy              =   -5573.35139622 Ry
     Harris-Foulkes estimate   =   -5573.35358933 Ry
     estimated scf accuracy    <       0.02872138 Ry

     iteration #  3     ecut=    36.75 Ry     beta=0.20
     Davidson diagonalization with overlap
     ethr =  7.11E-07,  avg # of iterations =  3.4

     negative rho (up, down):  1.023E-03 0.000E+00

     Adding external electric field

     Computed dipole along edir(3) : 
        Dipole                0.1299 Ry au,          0.3303 Debye
        Dipole field          0.0004 Ry au, 

        Potential amp.       -0.0302 Ry
        Total length         41.8010 bohr


     total cpu time spent up to now is      183.3 secs

     End of self-consistent calculation

          k = 0.0000 0.0000 0.0000 ( 16931 PWs)   bands (ev):

  -126.0857-126.0848-126.0848-126.0355-125.9773-125.9764-125.9763-125.9727
  -125.6868-125.6859-125.6859-125.6309 -80.2687 -80.2676 -80.2676 -80.2657
   -80.2615 -80.2615 -80.2544 -80.2528 -80.2527 -80.2229 -80.2080 -80.2080
   -80.1647 -80.1638 -80.1637 -80.1620 -80.1564 -80.1549 -80.1549 -80.1454
   -80.1447 -80.1447 -80.1405 -80.1405 -79.9256 -79.9247 -79.9247 -79.8571
   -79.8472 -79.8472 -79.8386 -79.8386 -79.8354 -79.8274 -79.8274 -79.7606
   -12.3891  -8.4497  -7.6758  -7.6048  -7.5744  -7.5744  -7.5135  -7.4738
    -7.4738  -7.4354  -7.4354  -7.4215  -7.1718  -7.1490  -7.1401  -7.1401
    -7.0822  -7.0822  -7.0815  -6.9979  -6.9979  -6.9646  -6.9646  -6.9412
    -6.8736  -6.8736  -6.8360  -6.8086  -6.8086  -6.7421  -6.7421  -6.7202
    -6.6788  -6.6788  -6.6634  -6.6150  -6.6150  -6.6044  -6.6041  -6.6041
    -6.5955  -6.5637  -6.5637  -6.4980  -6.4885  -6.4885  -6.4835  -6.4835
    -6.4465  -6.4464  -6.4401  -6.4127  -6.4127  -6.3962  -6.3919  -6.3919
    -6.3900  -6.3691  -6.3691  -6.2969  -6.2968  -6.0946  -5.0541  -4.0543
    -2.5188  -1.5983  -1.5982  -1.5347  -1.3217  -1.3217  -1.2024  -1.1642
    -1.1641  -0.5021   0.3274   1.0082   1.0086   1.0583   1.5101   1.5107
     1.8115   1.8117   1.8545   2.0093

          k = 0.0000 0.1925 0.0000 ( 16966 PWs)   bands (ev):

  -126.0857-126.0849-126.0848-126.0355-125.9773-125.9764-125.9764-125.9727
  -125.6868-125.6860-125.6859-125.6309 -80.2688 -80.2677 -80.2676 -80.2650
   -80.2612 -80.2610 -80.2550 -80.2535 -80.2529 -80.2230 -80.2083 -80.2081
   -80.1649 -80.1638 -80.1638 -80.1621 -80.1557 -80.1543 -80.1541 -80.1460
   -80.1454 -80.1447 -80.1412 -80.1408 -79.9257 -79.9248 -79.9248 -79.8563
   -79.8477 -79.8471 -79.8388 -79.8387 -79.8359 -79.8275 -79.8275 -79.7607
   -12.3764  -8.2793  -7.6167  -7.5613  -7.5398  -7.5257  -7.4822  -7.4454
    -7.4326  -7.4103  -7.4088  -7.3897  -7.1387  -7.1290  -7.1289  -7.1190
    -7.1046  -7.0694  -7.0532  -7.0175  -6.9894  -6.9803  -6.9516  -6.9388
    -6.8660  -6.8348  -6.8196  -6.8127  -6.8085  -6.7861  -6.7508  -6.7369
    -6.6877  -6.6716  -6.6651  -6.6355  -6.6351  -6.6253  -6.6204  -6.6123
    -6.6097  -6.5803  -6.5668  -6.5319  -6.5288  -6.5207  -6.4920  -6.4890
    -6.4621  -6.4614  -6.4477  -6.4446  -6.4369  -6.4353  -6.4275  -6.4137
    -6.3931  -6.3842  -6.3771  -6.3308  -6.2971  -6.1415  -4.9330  -4.1165
    -3.3869  -2.4927  -2.2413  -2.0884  -1.5696  -1.5669  -0.6410  -0.4517
    -0.3514  -0.1131  -0.0756   0.8159   0.8559   1.2492   1.3688   1.8622
     2.4839   2.7060   2.7668   3.1237

          k = 0.0000 0.3849 0.0000 ( 16996 PWs)   bands (ev):

  -126.0855-126.0850-126.0848-126.0355-125.9771-125.9765-125.9764-125.9727
  -125.6866-125.6861-125.6859-125.6309 -80.2686 -80.2680 -80.2677 -80.2636
   -80.2604 -80.2597 -80.2561 -80.2556 -80.2531 -80.2230 -80.2087 -80.2083
   -80.1647 -80.1640 -80.1638 -80.1622 -80.1545 -80.1529 -80.1521 -80.1474
   -80.1469 -80.1444 -80.1434 -80.1413 -79.9256 -79.9250 -79.9248 -79.8548
   -79.8488 -79.8466 -79.8395 -79.8387 -79.8365 -79.8276 -79.8275 -79.7607
   -12.3507  -7.8340  -7.5212  -7.4493  -7.4312  -7.4038  -7.4003  -7.3883
    -7.3629  -7.3321  -7.3130  -7.2991  -7.1553  -7.1099  -7.1073  -7.0993
    -7.0792  -7.0344  -7.0107  -7.0055  -6.9897  -6.9641  -6.9266  -6.8867
    -6.8822  -6.8503  -6.8462  -6.8273  -6.8137  -6.7718  -6.7692  -6.7296
    -6.7229  -6.7142  -6.6853  -6.6769  -6.6734  -6.6601  -6.6491  -6.6413
    -6.6365  -6.6347  -6.6194  -6.5866  -6.5820  -6.5645  -6.5365  -6.5314
    -6.5233  -6.5152  -6.5103  -6.4926  -6.4892  -6.4855  -6.4457  -6.4383
    -6.4153  -6.4000  -6.3893  -6.3488  -6.3121  -6.2418  -5.0998  -4.5622
    -4.0905  -2.8555  -2.7522  -2.4457  -2.1632  -1.7809  -1.6797  -0.2322
     0.0624   0.1339   0.2951   1.6156   1.7278   1.7657   1.9462   2.3876
     3.1194   3.4818   3.6318   3.9523

          k = 0.0000-0.5774 0.0000 ( 17028 PWs)   bands (ev):

  -126.0854-126.0851-126.0848-126.0355-125.9770-125.9767-125.9764-125.9727
  -125.6865-125.6862-125.6859-125.6309 -80.2686 -80.2681 -80.2676 -80.2630
   -80.2584 -80.2583 -80.2582 -80.2577 -80.2531 -80.2230 -80.2090 -80.2083
   -80.1646 -80.1642 -80.1638 -80.1622 -80.1538 -80.1519 -80.1492 -80.1492
   -80.1486 -80.1450 -80.1441 -80.1415 -79.9256 -79.9252 -79.9247 -79.8536
   -79.8497 -79.8463 -79.8399 -79.8386 -79.8369 -79.8277 -79.8275 -79.7608
   -12.3377  -7.5541  -7.4681  -7.3882  -7.3688  -7.3550  -7.3365  -7.3110
    -7.2889  -7.2542  -7.2442  -7.2296  -7.2086  -7.1221  -7.0937  -7.0912
    -7.0747  -7.0222  -6.9738  -6.9611  -6.9556  -6.9530  -6.9285  -6.9188
    -6.8954  -6.8801  -6.8220  -6.8108  -6.8004  -6.7875  -6.7713  -6.7700
    -6.7566  -6.7466  -6.7349  -6.7026  -6.6753  -6.6648  -6.6601  -6.6494
    -6.6330  -6.6315  -6.6053  -6.6025  -6.5927  -6.5865  -6.5685  -6.5606
    -6.5578  -6.5470  -6.5452  -6.5406  -6.5008  -6.4895  -6.4412  -6.4223
    -6.4138  -6.3944  -6.3807  -6.3558  -6.2711  -6.2353  -6.1504  -4.3815
    -3.9526  -3.0511  -2.9180  -2.8963  -2.5745  -1.8675  -1.7700  -0.2138
     0.0039   0.5001   0.8144   0.9212   2.1647   2.5473   2.5607   3.3549
     3.3771   3.4601   3.5904   3.7314

          k = 0.1667-0.0962 0.0000 ( 16966 PWs)   bands (ev):

  -126.0857-126.0848-126.0848-126.0355-125.9773-125.9764-125.9763-125.9727
  -125.6868-125.6859-125.6859-125.6309 -80.2688 -80.2677 -80.2676 -80.2650
   -80.2612 -80.2610 -80.2550 -80.2535 -80.2530 -80.2230 -80.2083 -80.2081
   -80.1649 -80.1638 -80.1638 -80.1621 -80.1557 -80.1543 -80.1541 -80.1460
   -80.1455 -80.1447 -80.1412 -80.1408 -79.9257 -79.9248 -79.9248 -79.8563
   -79.8477 -79.8471 -79.8388 -79.8387 -79.8359 -79.8275 -79.8275 -79.7607
   -12.3764  -8.2793  -7.6167  -7.5613  -7.5399  -7.5257  -7.4822  -7.4454
    -7.4326  -7.4102  -7.4088  -7.3897  -7.1386  -7.1290  -7.1289  -7.1191
    -7.1046  -7.0694  -7.0532  -7.0175  -6.9895  -6.9803  -6.9516  -6.9387
    -6.8660  -6.8348  -6.8196  -6.8127  -6.8085  -6.7861  -6.7508  -6.7369
    -6.6877  -6.6716  -6.6651  -6.6355  -6.6351  -6.6253  -6.6204  -6.6123
    -6.6098  -6.5803  -6.5668  -6.5318  -6.5288  -6.5207  -6.4920  -6.4890
    -6.4621  -6.4614  -6.4477  -6.4446  -6.4370  -6.4353  -6.4275  -6.4136
    -6.3931  -6.3843  -6.3771  -6.3308  -6.2971  -6.1415  -4.9330  -4.1165
    -3.3869  -2.4927  -2.2413  -2.0884  -1.5692  -1.5672  -0.6410  -0.4516
    -0.3514  -0.1132  -0.0757   0.8159   0.8561   1.2492   1.3687   1.8622
     2.4839   2.7059   2.7668   3.1240

          k = 0.1667 0.0962 0.0000 ( 16966 PWs)   bands (ev):

  -126.0857-126.0849-126.0848-126.0355-125.9773-125.9764-125.9764-125.9727
  -125.6868-125.6860-125.6859-125.6309 -80.2688 -80.2677 -80.2676 -80.2650
   -80.2612 -80.2610 -80.2550 -80.2535 -80.2529 -80.2230 -80.2083 -80.2081
   -80.1649 -80.1638 -80.1638 -80.1621 -80.1557 -80.1543 -80.1541 -80.1460
   -80.1454 -80.1447 -80.1412 -80.1408 -79.9257 -79.9248 -79.9248 -79.8563
   -79.8477 -79.8470 -79.8388 -79.8387 -79.8359 -79.8275 -79.8275 -79.7607
   -12.3764  -8.2793  -7.6167  -7.5613  -7.5398  -7.5257  -7.4822  -7.4454
    -7.4326  -7.4103  -7.4088  -7.3897  -7.1387  -7.1290  -7.1289  -7.1190
    -7.1046  -7.0694  -7.0532  -7.0175  -6.9894  -6.9803  -6.9516  -6.9388
    -6.8660  -6.8348  -6.8195  -6.8127  -6.8085  -6.7861  -6.7508  -6.7369
    -6.6877  -6.6716  -6.6651  -6.6355  -6.6351  -6.6253  -6.6204  -6.6123
    -6.6097  -6.5803  -6.5668  -6.5319  -6.5288  -6.5207  -6.4920  -6.4890
    -6.4621  -6.4614  -6.4477  -6.4446  -6.4369  -6.4353  -6.4275  -6.4137
    -6.3931  -6.3842  -6.3771  -6.3308  -6.2971  -6.1415  -4.9330  -4.1165
    -3.3869  -2.4927  -2.2413  -2.0884  -1.5696  -1.5669  -0.6410  -0.4517
    -0.3514  -0.1131  -0.0756   0.8159   0.8559   1.2492   1.3689   1.8622
     2.4839   2.7060   2.7668   3.1237

          k = 0.1667 0.2887 0.0000 ( 16978 PWs)   bands (ev):

  -126.0856-126.0850-126.0848-126.0355-125.9771-125.9765-125.9764-125.9727
  -125.6867-125.6861-125.6859-125.6309 -80.2686 -80.2679 -80.2676 -80.2640
   -80.2609 -80.2600 -80.2560 -80.2544 -80.2533 -80.2230 -80.2085 -80.2083
   -80.1646 -80.1639 -80.1638 -80.1622 -80.1548 -80.1531 -80.1530 -80.1474
   -80.1455 -80.1451 -80.1426 -80.1411 -79.9256 -79.9249 -79.9248 -79.8553
   -79.8485 -79.8467 -79.8393 -79.8385 -79.8364 -79.8276 -79.8275 -79.7607
   -12.3572  -7.9646  -7.5276  -7.4875  -7.4707  -7.4375  -7.4191  -7.3947
    -7.3874  -7.3614  -7.3476  -7.3225  -7.1568  -7.1154  -7.1087  -7.0971
    -7.0682  -7.0527  -7.0293  -7.0266  -6.9971  -6.9579  -6.9473  -6.9007
    -6.8592  -6.8496  -6.8382  -6.8206  -6.7925  -6.7810  -6.7626  -6.7525
    -6.7234  -6.7115  -6.6771  -6.6658  -6.6576  -6.6489  -6.6370  -6.6303
    -6.6244  -6.6050  -6.5864  -6.5786  -6.5722  -6.5509  -6.5389  -6.5202
    -6.5185  -6.4987  -6.4913  -6.4868  -6.4720  -6.4657  -6.4415  -6.4250
    -6.4209  -6.4107  -6.3726  -6.3664  -6.2918  -6.2205  -4.7357  -4.2757
    -4.0381  -3.9443  -2.4488  -2.2797  -1.4160  -1.0096  -0.8992  -0.7715
    -0.6749  -0.4402  -0.0789   1.5823   1.7802   1.9985   2.1831   2.5827
     2.6368   2.8632   3.0552   3.7459

          k = 0.1667-0.6736 0.0000 ( 16986 PWs)   bands (ev):

  -126.0854-126.0851-126.0848-126.0355-125.9770-125.9766-125.9764-125.9727
  -125.6865-125.6862-125.6859-125.6309 -80.2685 -80.2681 -80.2676 -80.2626
   -80.2600 -80.2582 -80.2580 -80.2560 -80.2536 -80.2230 -80.2089 -80.2084
   -80.1645 -80.1641 -80.1638 -80.1622 -80.1535 -80.1517 -80.1507 -80.1493
   -80.1472 -80.1451 -80.1438 -80.1418 -79.9255 -79.9251 -79.9248 -79.8535
   -79.8499 -79.8462 -79.8399 -79.8384 -79.8370 -79.8276 -79.8275 -79.7607
   -12.3378  -7.5487  -7.4330  -7.3773  -7.3577  -7.3500  -7.3408  -7.3278
    -7.2917  -7.2728  -7.2595  -7.2414  -7.1933  -7.1453  -7.0960  -7.0868
    -7.0664  -7.0291  -6.9986  -6.9855  -6.9694  -6.9496  -6.9273  -6.9192
    -6.9086  -6.8992  -6.8821  -6.8144  -6.8019  -6.7967  -6.7860  -6.7752
    -6.7428  -6.7347  -6.7205  -6.6979  -6.6805  -6.6666  -6.6549  -6.6480
    -6.6305  -6.6248  -6.6093  -6.6023  -6.5902  -6.5846  -6.5746  -6.5691
    -6.5550  -6.5421  -6.5324  -6.5066  -6.4932  -6.4769  -6.4480  -6.4336
    -6.4284  -6.4170  -6.3951  -6.3509  -6.3129  -6.2699  -5.5652  -4.4941
    -4.3163  -3.8188  -3.1453  -2.7036  -1.8293  -1.4269  -1.1025  -0.8910
     0.2097   0.3677   1.1084   1.2667   1.4201   1.8720   2.2977   2.6561
     3.3742   3.7158   3.7713   3.9092

          k = 0.1667-0.4811 0.0000 ( 16986 PWs)   bands (ev):

  -126.0854-126.0851-126.0848-126.0355-125.9770-125.9767-125.9764-125.9727
  -125.6865-125.6862-125.6859-125.6309 -80.2685 -80.2681 -80.2677 -80.2626
   -80.2601 -80.2582 -80.2580 -80.2560 -80.2536 -80.2230 -80.2089 -80.2084
   -80.1645 -80.1641 -80.1638 -80.1622 -80.1535 -80.1517 -80.1507 -80.1493
   -80.1472 -80.1451 -80.1438 -80.1418 -79.9255 -79.9251 -79.9248 -79.8535
   -79.8499 -79.8462 -79.8400 -79.8384 -79.8370 -79.8276 -79.8275 -79.7607
   -12.3378  -7.5487  -7.4330  -7.3774  -7.3577  -7.3501  -7.3408  -7.3277
    -7.2917  -7.2728  -7.2595  -7.2414  -7.1933  -7.1453  -7.0960  -7.0868
    -7.0664  -7.0291  -6.9986  -6.9855  -6.9695  -6.9496  -6.9273  -6.9192
    -6.9086  -6.8992  -6.8821  -6.8144  -6.8019  -6.7967  -6.7860  -6.7752
    -6.7428  -6.7347  -6.7205  -6.6979  -6.6804  -6.6666  -6.6550  -6.6480
    -6.6305  -6.6248  -6.6094  -6.6022  -6.5901  -6.5846  -6.5746  -6.5691
    -6.5550  -6.5421  -6.5324  -6.5066  -6.4932  -6.4769  -6.4480  -6.4336
    -6.4284  -6.4169  -6.3951  -6.3509  -6.3129  -6.2699  -5.5652  -4.4941
    -4.3163  -3.8188  -3.1453  -2.7036  -1.8293  -1.4269  -1.1025  -0.8909
     0.2097   0.3677   1.1084   1.2667   1.4201   1.8720   2.2977   2.6561
     3.3742   3.7158   3.7714   3.9091

          k = 0.1667-0.2887 0.0000 ( 16978 PWs)   bands (ev):

  -126.0856-126.0849-126.0848-126.0355-125.9771-125.9765-125.9763-125.9727
  -125.6867-125.6860-125.6859-125.6309 -80.2686 -80.2679 -80.2677 -80.2640
   -80.2609 -80.2600 -80.2559 -80.2544 -80.2533 -80.2230 -80.2085 -80.2083
   -80.1646 -80.1640 -80.1638 -80.1622 -80.1548 -80.1531 -80.1530 -80.1475
   -80.1455 -80.1451 -80.1426 -80.1411 -79.9256 -79.9249 -79.9248 -79.8553
   -79.8485 -79.8467 -79.8393 -79.8385 -79.8364 -79.8275 -79.8275 -79.7607
   -12.3572  -7.9647  -7.5276  -7.4876  -7.4707  -7.4375  -7.4191  -7.3947
    -7.3874  -7.3614  -7.3476  -7.3225  -7.1567  -7.1154  -7.1087  -7.0971
    -7.0682  -7.0527  -7.0294  -7.0266  -6.9972  -6.9579  -6.9473  -6.9007
    -6.8592  -6.8496  -6.8382  -6.8206  -6.7925  -6.7810  -6.7626  -6.7525
    -6.7233  -6.7115  -6.6771  -6.6658  -6.6576  -6.6489  -6.6370  -6.6303
    -6.6244  -6.6050  -6.5864  -6.5786  -6.5722  -6.5509  -6.5389  -6.5202
    -6.5185  -6.4986  -6.4913  -6.4868  -6.4720  -6.4657  -6.4415  -6.4249
    -6.4209  -6.4107  -6.3727  -6.3664  -6.2918  -6.2205  -4.7357  -4.2757
    -4.0381  -3.9443  -2.4488  -2.2798  -1.4161  -1.0096  -0.8992  -0.7714
    -0.6749  -0.4402  -0.0789   1.5825   1.7800   1.9982   2.1834   2.5827
     2.6367   2.8631   3.0553   3.7458

          k = 0.3333-0.1925 0.0000 ( 16996 PWs)   bands (ev):

  -126.0855-126.0849-126.0848-126.0355-125.9771-125.9766-125.9763-125.9727
  -125.6866-125.6861-125.6859-125.6309 -80.2687 -80.2679 -80.2677 -80.2637
   -80.2604 -80.2597 -80.2561 -80.2555 -80.2532 -80.2230 -80.2087 -80.2083
   -80.1646 -80.1641 -80.1638 -80.1622 -80.1545 -80.1530 -80.1521 -80.1474
   -80.1469 -80.1444 -80.1434 -80.1413 -79.9256 -79.9250 -79.9248 -79.8548
   -79.8488 -79.8466 -79.8395 -79.8386 -79.8365 -79.8276 -79.8275 -79.7607
   -12.3507  -7.8341  -7.5212  -7.4493  -7.4313  -7.4038  -7.4003  -7.3883
    -7.3629  -7.3320  -7.3130  -7.2990  -7.1553  -7.1099  -7.1073  -7.0994
    -7.0792  -7.0344  -7.0107  -7.0055  -6.9897  -6.9642  -6.9266  -6.8867
    -6.8822  -6.8503  -6.8462  -6.8273  -6.8137  -6.7718  -6.7692  -6.7296
    -6.7229  -6.7142  -6.6853  -6.6769  -6.6734  -6.6601  -6.6491  -6.6413
    -6.6365  -6.6347  -6.6194  -6.5866  -6.5821  -6.5645  -6.5365  -6.5314
    -6.5234  -6.5152  -6.5103  -6.4926  -6.4891  -6.4855  -6.4457  -6.4383
    -6.4153  -6.4000  -6.3893  -6.3488  -6.3121  -6.2418  -5.0998  -4.5621
    -4.0905  -2.8555  -2.7522  -2.4457  -2.1632  -1.7809  -1.6797  -0.2322
     0.0624   0.1339   0.2951   1.6156   1.7279   1.7657   1.9461   2.3876
     3.1193   3.4818   3.6318   3.9523

          k = 0.3333 0.0000 0.0000 ( 16978 PWs)   bands (ev):

  -126.0856-126.0849-126.0848-126.0355-125.9771-125.9765-125.9763-125.9727
  -125.6867-125.6861-125.6859-125.6309 -80.2686 -80.2678 -80.2677 -80.2640
   -80.2609 -80.2600 -80.2559 -80.2544 -80.2533 -80.2230 -80.2085 -80.2083
   -80.1646 -80.1640 -80.1638 -80.1622 -80.1548 -80.1531 -80.1530 -80.1475
   -80.1455 -80.1451 -80.1426 -80.1411 -79.9256 -79.9249 -79.9248 -79.8553
   -79.8485 -79.8467 -79.8393 -79.8385 -79.8364 -79.8275 -79.8275 -79.7607
   -12.3572  -7.9647  -7.5276  -7.4876  -7.4707  -7.4375  -7.4191  -7.3947
    -7.3874  -7.3614  -7.3476  -7.3225  -7.1567  -7.1154  -7.1087  -7.0971
    -7.0682  -7.0527  -7.0294  -7.0266  -6.9972  -6.9579  -6.9473  -6.9007
    -6.8592  -6.8496  -6.8382  -6.8206  -6.7925  -6.7810  -6.7626  -6.7525
    -6.7233  -6.7115  -6.6771  -6.6658  -6.6576  -6.6489  -6.6370  -6.6303
    -6.6244  -6.6050  -6.5864  -6.5786  -6.5722  -6.5509  -6.5389  -6.5202
    -6.5185  -6.4986  -6.4913  -6.4868  -6.4720  -6.4657  -6.4415  -6.4249
    -6.4209  -6.4107  -6.3727  -6.3664  -6.2918  -6.2205  -4.7357  -4.2757
    -4.0381  -3.9443  -2.4488  -2.2798  -1.4160  -1.0096  -0.8992  -0.7714
    -0.6749  -0.4402  -0.0789   1.5825   1.7801   1.9982   2.1833   2.5827
     2.6367   2.8631   3.0553   3.7458

          k = 0.3333 0.1925 0.0000 ( 16996 PWs)   bands (ev):

  -126.0855-126.0850-126.0848-126.0355-125.9771-125.9765-125.9764-125.9727
  -125.6866-125.6861-125.6859-125.6309 -80.2686 -80.2680 -80.2677 -80.2636
   -80.2604 -80.2597 -80.2561 -80.2556 -80.2531 -80.2230 -80.2087 -80.2083
   -80.1647 -80.1640 -80.1638 -80.1622 -80.1545 -80.1529 -80.1521 -80.1474
   -80.1469 -80.1444 -80.1434 -80.1413 -79.9256 -79.9250 -79.9248 -79.8548
   -79.8488 -79.8466 -79.8395 -79.8387 -79.8365 -79.8276 -79.8275 -79.7607
   -12.3507  -7.8341  -7.5212  -7.4493  -7.4312  -7.4038  -7.4003  -7.3883
    -7.3629  -7.3321  -7.3130  -7.2991  -7.1553  -7.1099  -7.1073  -7.0993
    -7.0792  -7.0344  -7.0107  -7.0055  -6.9897  -6.9641  -6.9266  -6.8867
    -6.8822  -6.8503  -6.8462  -6.8273  -6.8137  -6.7718  -6.7692  -6.7296
    -6.7229  -6.7142  -6.6853  -6.6769  -6.6734  -6.6601  -6.6491  -6.6413
    -6.6365  -6.6347  -6.6194  -6.5866  -6.5820  -6.5645  -6.5365  -6.5314
    -6.5233  -6.5152  -6.5103  -6.4926  -6.4892  -6.4855  -6.4457  -6.4383
    -6.4153  -6.4000  -6.3893  -6.3488  -6.3121  -6.2418  -5.0998  -4.5622
    -4.0905  -2.8555  -2.7522  -2.4457  -2.1632  -1.7809  -1.6797  -0.2322
     0.0624   0.1339   0.2951   1.6156   1.7278   1.7657   1.9462   2.3876
     3.1194   3.4817   3.6318   3.9523

          k = 0.3333-0.7698 0.0000 ( 16986 PWs)   bands (ev):

  -126.0854-126.0851-126.0848-126.0355-125.9770-125.9766-125.9764-125.9727
  -125.6865-125.6862-125.6859-125.6309 -80.2685 -80.2681 -80.2676 -80.2626
   -80.2600 -80.2582 -80.2580 -80.2560 -80.2536 -80.2230 -80.2089 -80.2084
   -80.1645 -80.1641 -80.1638 -80.1622 -80.1535 -80.1517 -80.1507 -80.1493
   -80.1472 -80.1451 -80.1438 -80.1418 -79.9255 -79.9251 -79.9248 -79.8535
   -79.8499 -79.8462 -79.8399 -79.8384 -79.8370 -79.8276 -79.8275 -79.7607
   -12.3378  -7.5487  -7.4330  -7.3773  -7.3577  -7.3500  -7.3408  -7.3278
    -7.2917  -7.2728  -7.2595  -7.2414  -7.1933  -7.1453  -7.0960  -7.0868
    -7.0664  -7.0291  -6.9986  -6.9855  -6.9694  -6.9496  -6.9273  -6.9192
    -6.9086  -6.8992  -6.8821  -6.8144  -6.8019  -6.7967  -6.7860  -6.7752
    -6.7428  -6.7347  -6.7205  -6.6979  -6.6805  -6.6666  -6.6549  -6.6480
    -6.6305  -6.6248  -6.6093  -6.6023  -6.5902  -6.5846  -6.5746  -6.5691
    -6.5550  -6.5421  -6.5324  -6.5066  -6.4932  -6.4769  -6.4481  -6.4336
    -6.4284  -6.4169  -6.3951  -6.3509  -6.3129  -6.2699  -5.5652  -4.4941
    -4.3163  -3.8188  -3.1453  -2.7036  -1.8293  -1.4269  -1.1025  -0.8910
     0.2097   0.3677   1.1084   1.2667   1.4201   1.8720   2.2977   2.6561
     3.3742   3.7158   3.7713   3.9092

          k = 0.3333-0.5774 0.0000 ( 17004 PWs)   bands (ev):

  -126.0853-126.0852-126.0848-126.0355-125.9768-125.9768-125.9764-125.9727
  -125.6864-125.6863-125.6859-125.6309 -80.2683 -80.2682 -80.2677 -80.2610
   -80.2610 -80.2593 -80.2565 -80.2565 -80.2546 -80.2230 -80.2088 -80.2088
   -80.1643 -80.1642 -80.1638 -80.1622 -80.1520 -80.1520 -80.1502 -80.1490
   -80.1490 -80.1455 -80.1430 -80.1430 -79.9253 -79.9252 -79.9248 -79.8518
   -79.8518 -79.8460 -79.8402 -79.8379 -79.8378 -79.8277 -79.8277 -79.7607
   -12.3314  -7.3758  -7.3500  -7.3240  -7.3221  -7.2922  -7.2893  -7.2887
    -7.2614  -7.2560  -7.2510  -7.2187  -7.2075  -7.1717  -7.0734  -7.0700
    -7.0470  -7.0415  -7.0204  -6.9912  -6.9904  -6.9868  -6.9677  -6.9630
    -6.9131  -6.9119  -6.9022  -6.8880  -6.8689  -6.7805  -6.7785  -6.7591
    -6.7512  -6.7256  -6.7221  -6.6851  -6.6823  -6.6747  -6.6692  -6.6551
    -6.6453  -6.6346  -6.6227  -6.6167  -6.6137  -6.5910  -6.5905  -6.5831
    -6.5708  -6.5297  -6.5265  -6.5199  -6.4578  -6.4545  -6.4482  -6.4456
    -6.4294  -6.4145  -6.3974  -6.3902  -6.2615  -5.8260  -5.6167  -5.6149
    -3.8947  -3.8920  -3.5722  -2.5421  -2.5399  -1.5861  -0.0485   0.2115
     0.2223   0.8302   0.8500   0.8997   1.3339   1.3569   1.5047   3.0808
     3.0935   3.4734   3.7945   3.8756

          k = 0.3333-0.3849 0.0000 ( 16986 PWs)   bands (ev):

  -126.0854-126.0851-126.0848-126.0355-125.9770-125.9767-125.9763-125.9727
  -125.6865-125.6862-125.6859-125.6309 -80.2685 -80.2680 -80.2677 -80.2627
   -80.2600 -80.2582 -80.2580 -80.2560 -80.2537 -80.2230 -80.2089 -80.2084
   -80.1645 -80.1641 -80.1638 -80.1622 -80.1535 -80.1517 -80.1507 -80.1493
   -80.1472 -80.1451 -80.1438 -80.1418 -79.9255 -79.9251 -79.9248 -79.8535
   -79.8499 -79.8462 -79.8400 -79.8384 -79.8370 -79.8276 -79.8275 -79.7607
   -12.3378  -7.5487  -7.4330  -7.3774  -7.3577  -7.3500  -7.3408  -7.3278
    -7.2917  -7.2728  -7.2595  -7.2414  -7.1933  -7.1453  -7.0960  -7.0868
    -7.0664  -7.0291  -6.9986  -6.9855  -6.9694  -6.9496  -6.9273  -6.9192
    -6.9086  -6.8992  -6.8821  -6.8144  -6.8019  -6.7967  -6.7860  -6.7752
    -6.7428  -6.7347  -6.7205  -6.6979  -6.6805  -6.6666  -6.6550  -6.6480
    -6.6305  -6.6247  -6.6094  -6.6022  -6.5902  -6.5846  -6.5745  -6.5691
    -6.5550  -6.5421  -6.5324  -6.5066  -6.4932  -6.4769  -6.4481  -6.4336
    -6.4284  -6.4169  -6.3951  -6.3509  -6.3129  -6.2699  -5.5652  -4.4941
    -4.3163  -3.8188  -3.1453  -2.7036  -1.8293  -1.4269  -1.1025  -0.8910
     0.2097   0.3678   1.1083   1.2667   1.4201   1.8720   2.2977   2.6561
     3.3742   3.7159   3.7711   3.9093

          k =-0.5000 0.2887 0.0000 ( 17028 PWs)   bands (ev):

  -126.0854-126.0850-126.0848-126.0355-125.9769-125.9767-125.9763-125.9727
  -125.6865-125.6862-125.6859-125.6309 -80.2686 -80.2680 -80.2677 -80.2630
   -80.2584 -80.2583 -80.2581 -80.2577 -80.2532 -80.2230 -80.2090 -80.2083
   -80.1645 -80.1643 -80.1637 -80.1622 -80.1538 -80.1520 -80.1493 -80.1492
   -80.1485 -80.1450 -80.1441 -80.1415 -79.9256 -79.9251 -79.9247 -79.8536
   -79.8497 -79.8463 -79.8399 -79.8386 -79.8369 -79.8277 -79.8275 -79.7608
   -12.3377  -7.5541  -7.4681  -7.3882  -7.3689  -7.3549  -7.3365  -7.3110
    -7.2888  -7.2542  -7.2441  -7.2295  -7.2086  -7.1221  -7.0938  -7.0912
    -7.0747  -7.0222  -6.9738  -6.9612  -6.9556  -6.9530  -6.9285  -6.9188
    -6.8954  -6.8801  -6.8220  -6.8108  -6.8004  -6.7875  -6.7713  -6.7700
    -6.7567  -6.7466  -6.7349  -6.7026  -6.6753  -6.6648  -6.6601  -6.6493
    -6.6330  -6.6315  -6.6053  -6.6025  -6.5927  -6.5866  -6.5684  -6.5606
    -6.5578  -6.5470  -6.5452  -6.5406  -6.5008  -6.4895  -6.4413  -6.4223
    -6.4138  -6.3944  -6.3808  -6.3558  -6.2711  -6.2353  -6.1504  -4.3815
    -3.9527  -3.0511  -2.9180  -2.8963  -2.5745  -1.8675  -1.7700  -0.2138
     0.0039   0.5001   0.8144   0.9211   2.1647   2.5475   2.5604   3.3550
     3.3771   3.4600   3.5903   3.7314

          k =-0.5000 0.4811 0.0000 ( 16986 PWs)   bands (ev):

  -126.0854-126.0851-126.0848-126.0355-125.9770-125.9767-125.9763-125.9727
  -125.6865-125.6862-125.6859-125.6309 -80.2685 -80.2680 -80.2677 -80.2627
   -80.2600 -80.2582 -80.2580 -80.2560 -80.2537 -80.2230 -80.2089 -80.2084
   -80.1645 -80.1641 -80.1638 -80.1622 -80.1535 -80.1517 -80.1507 -80.1493
   -80.1472 -80.1451 -80.1438 -80.1418 -79.9255 -79.9251 -79.9248 -79.8535
   -79.8499 -79.8462 -79.8400 -79.8384 -79.8370 -79.8276 -79.8275 -79.7607
   -12.3378  -7.5487  -7.4330  -7.3774  -7.3577  -7.3500  -7.3408  -7.3278
    -7.2917  -7.2728  -7.2595  -7.2414  -7.1933  -7.1453  -7.0960  -7.0868
    -7.0664  -7.0291  -6.9986  -6.9855  -6.9694  -6.9496  -6.9273  -6.9192
    -6.9086  -6.8992  -6.8821  -6.8144  -6.8019  -6.7967  -6.7860  -6.7752
    -6.7428  -6.7347  -6.7205  -6.6979  -6.6805  -6.6666  -6.6550  -6.6480
    -6.6305  -6.6247  -6.6094  -6.6023  -6.5902  -6.5846  -6.5746  -6.5691
    -6.5550  -6.5421  -6.5324  -6.5066  -6.4932  -6.4769  -6.4481  -6.4336
    -6.4284  -6.4169  -6.3951  -6.3509  -6.3129  -6.2699  -5.5652  -4.4941
    -4.3163  -3.8188  -3.1453  -2.7036  -1.8293  -1.4269  -1.1025  -0.8910
     0.2097   0.3678   1.1083   1.2667   1.4201   1.8720   2.2977   2.6561
     3.3742   3.7159   3.7711   3.9093

          k =-0.5000 0.6736 0.0000 ( 16986 PWs)   bands (ev):

  -126.0854-126.0851-126.0848-126.0355-125.9770-125.9767-125.9764-125.9727
  -125.6865-125.6862-125.6859-125.6309 -80.2685 -80.2681 -80.2677 -80.2626
   -80.2601 -80.2582 -80.2580 -80.2560 -80.2536 -80.2230 -80.2089 -80.2084
   -80.1645 -80.1641 -80.1638 -80.1622 -80.1535 -80.1517 -80.1507 -80.1493
   -80.1472 -80.1451 -80.1438 -80.1418 -79.9255 -79.9251 -79.9248 -79.8535
   -79.8499 -79.8462 -79.8399 -79.8384 -79.8370 -79.8276 -79.8275 -79.7607
   -12.3378  -7.5487  -7.4330  -7.3774  -7.3577  -7.3501  -7.3408  -7.3277
    -7.2917  -7.2728  -7.2595  -7.2414  -7.1933  -7.1453  -7.0960  -7.0868
    -7.0664  -7.0291  -6.9986  -6.9855  -6.9695  -6.9496  -6.9273  -6.9192
    -6.9086  -6.8992  -6.8821  -6.8144  -6.8019  -6.7967  -6.7860  -6.7752
    -6.7428  -6.7347  -6.7205  -6.6979  -6.6804  -6.6666  -6.6550  -6.6480
    -6.6305  -6.6248  -6.6094  -6.6022  -6.5901  -6.5846  -6.5746  -6.5691
    -6.5550  -6.5421  -6.5324  -6.5066  -6.4932  -6.4769  -6.4480  -6.4336
    -6.4284  -6.4169  -6.3951  -6.3509  -6.3129  -6.2699  -5.5652  -4.4941
    -4.3163  -3.8188  -3.1453  -2.7036  -1.8293  -1.4269  -1.1025  -0.8909
     0.2097   0.3677   1.1084   1.2667   1.4201   1.8720   2.2977   2.6561
     3.3742   3.7158   3.7714   3.9090

          k =-0.5000-0.2887 0.0000 ( 17028 PWs)   bands (ev):

  -126.0854-126.0851-126.0848-126.0355-125.9770-125.9766-125.9764-125.9727
  -125.6865-125.6862-125.6859-125.6309 -80.2686 -80.2681 -80.2676 -80.2630
   -80.2584 -80.2583 -80.2582 -80.2577 -80.2531 -80.2230 -80.2090 -80.2083
   -80.1646 -80.1642 -80.1638 -80.1622 -80.1538 -80.1519 -80.1492 -80.1492
   -80.1486 -80.1450 -80.1441 -80.1415 -79.9256 -79.9252 -79.9247 -79.8536
   -79.8497 -79.8463 -79.8399 -79.8387 -79.8369 -79.8277 -79.8275 -79.7608
   -12.3377  -7.5541  -7.4681  -7.3882  -7.3688  -7.3550  -7.3365  -7.3110
    -7.2889  -7.2542  -7.2442  -7.2296  -7.2086  -7.1221  -7.0937  -7.0912
    -7.0747  -7.0222  -6.9738  -6.9611  -6.9556  -6.9530  -6.9285  -6.9188
    -6.8954  -6.8801  -6.8220  -6.8108  -6.8004  -6.7875  -6.7713  -6.7700
    -6.7566  -6.7466  -6.7349  -6.7026  -6.6753  -6.6648  -6.6601  -6.6494
    -6.6330  -6.6315  -6.6053  -6.6025  -6.5927  -6.5865  -6.5685  -6.5606
    -6.5578  -6.5470  -6.5452  -6.5406  -6.5008  -6.4895  -6.4412  -6.4223
    -6.4138  -6.3944  -6.3807  -6.3558  -6.2711  -6.2353  -6.1504  -4.3815
    -3.9526  -3.0511  -2.9180  -2.8963  -2.5745  -1.8675  -1.7700  -0.2138
     0.0039   0.5001   0.8144   0.9212   2.1647   2.5473   2.5607   3.3549
     3.3770   3.4601   3.5904   3.7314

     the Fermi energy is     0.6335 ev

!    total energy              =   -5573.35238996 Ry
     Harris-Foulkes estimate   =   -5573.35242146 Ry
     estimated scf accuracy    <       0.00006224 Ry

     The total energy is the sum of the following terms:

     one-electron contribution =  -30135.35601346 Ry
     hartree contribution      =   15050.43721455 Ry
     xc contribution           =    -525.86882967 Ry
     ewald contribution        =   10037.45524172 Ry
     electric field correction =       0.00004699 Ry
     smearing contrib. (-TS)   =      -0.02005009 Ry

     convergence has been achieved in   3 iterations

     negative rho (up, down):  1.023E-03 0.000E+00

     Forces acting on atoms (cartesian axes, Ry/au):

     atom    1 type  1   force =    -0.00036836   -0.00022511   -0.00239054
     atom    2 type  1   force =     0.00037845   -0.00021395   -0.00239490
     atom    3 type  1   force =     0.00001408    0.00043013   -0.00238985
     atom    4 type  1   force =    -0.00001003   -0.00000006   -0.00388197
     atom    5 type  1   force =     0.00000557    0.00453706    0.01764772
     atom    6 type  1   force =     0.00000549   -0.00000024    0.01447991
     atom    7 type  1   force =    -0.00392654   -0.00227390    0.01765033
     atom    8 type  1   force =     0.00393102   -0.00227136    0.01765444
     atom    9 type  1   force =     0.00004494   -0.00002866   -0.01437418
     atom   10 type  1   force =     0.00004268   -0.00037279   -0.01071761
     atom   11 type  1   force =    -0.00030356    0.00018108   -0.01071980
     atom   12 type  1   force =     0.00034066    0.00015052   -0.01072324
     atom   13 type  2   force =    -0.00015440    0.00008729   -0.00984030

     Total force =     0.025469     Total SCF correction =     0.017125
     SCF correction compared to forces is large: reduce conv_thr to get better values

     number of scf cycles    =   2
     number of bfgs steps    =   1

     energy   old            =   -5573.3524330827 Ry
     energy   new            =   -5573.3523899644 Ry

     CASE: energy  _new > energy  _old

     new trust radius        =       0.0009163536 bohr
     new conv_thr            =       0.0001000000 Ry


ATOMIC_POSITIONS (angstrom)
Zn       1.401693333   0.809268023  10.000000000    0   0   0
Zn       4.205080001   0.809268023  10.000000000    0   0   0
Zn       2.803386667   3.237072094  10.000000000    0   0   0
Zn       5.606773334   3.237072094  10.000000000    0   0   0
Zn       5.606773334   1.618536047  12.288955629    0   0   0
Zn       2.803386667   1.618536047  12.288955629    0   0   0
Zn       7.008466668   4.046340117  12.288955629    0   0   0
Zn       4.205080001   4.046340117  12.288955629    0   0   0
Zn       0.000047344  -0.000001051  14.384454483
Zn       2.803756514   0.000890651  16.430740483
Zn       1.402648223   2.427268956  16.430716805
Zn       4.204530040   2.427017836  16.430707886
N       -0.000850125   0.000483272  16.247164982



     Writing output data file calc.save
     Check: negative starting charge=   -0.000725
     NEW-OLD atomic charge density approx. for the potential
     Check: negative starting charge=   -0.000724

     negative rho (up, down):  1.022E-03 0.000E+00

     Adding external electric field

     Computed dipole along edir(3) : 
        Dipole                0.1299 Ry au,          0.3303 Debye
        Dipole field          0.0004 Ry au, 

        Potential amp.       -0.0302 Ry
        Total length         41.8010 bohr


     total cpu time spent up to now is      187.4 secs

     per-process dynamical memory:   144.2 Mb

     Self-consistent Calculation

     iteration #  1     ecut=    36.75 Ry     beta=0.20
     Davidson diagonalization with overlap
     ethr =  1.00E-06,  avg # of iterations =  3.1

     negative rho (up, down):  1.022E-03 0.000E+00

     Adding external electric field

     Computed dipole along edir(3) : 
        Dipole               -0.0377 Ry au,         -0.0959 Debye
        Dipole field         -0.0001 Ry au, 

        Potential amp.        0.0088 Ry
        Total length         41.8010 bohr


     total cpu time spent up to now is      205.0 secs

     total energy              =   -5573.35020050 Ry
     Harris-Foulkes estimate   =   -5573.35300673 Ry
     estimated scf accuracy    <       0.00785274 Ry

     iteration #  2     ecut=    36.75 Ry     beta=0.20
     Davidson diagonalization with overlap
     ethr =  3.21E-06,  avg # of iterations =  4.5

     negative rho (up, down):  1.020E-03 0.000E+00

     Adding external electric field

     Computed dipole along edir(3) : 
        Dipole                0.0965 Ry au,          0.2453 Debye
        Dipole field          0.0003 Ry au, 

        Potential amp.       -0.0225 Ry
        Total length         41.8010 bohr


     total cpu time spent up to now is      219.0 secs

     total energy              =   -5573.34797687 Ry
     Harris-Foulkes estimate   =   -5573.35601726 Ry
[...]
   -12.3708  -7.9647  -7.5299  -7.4896  -7.4707  -7.4384  -7.4199  -7.3945
    -7.3877  -7.3593  -7.3453  -7.3189  -7.1591  -7.1148  -7.1076  -7.0965
    -7.0669  -7.0504  -7.0346  -7.0280  -6.9977  -6.9600  -6.9482  -6.8984
    -6.8596  -6.8559  -6.8380  -6.8214  -6.7934  -6.7865  -6.7689  -6.7522
    -6.7235  -6.7117  -6.6826  -6.6647  -6.6553  -6.6493  -6.6415  -6.6309
    -6.6277  -6.6047  -6.5856  -6.5781  -6.5699  -6.5492  -6.5359  -6.5262
    -6.5223  -6.5011  -6.4935  -6.4870  -6.4782  -6.4718  -6.4478  -6.4320
    -6.4282  -6.4175  -6.3805  -6.3738  -6.2991  -6.2277  -4.7363  -4.2799
    -4.0373  -3.9457  -2.4554  -2.2827  -1.4210  -1.0090  -0.9025  -0.7727
    -0.6745  -0.4461  -0.0792   1.5749   1.7772   1.9965   2.1849   2.5832
     2.6364   2.8631   3.0554   3.7383

          k = 0.3333-0.1925 0.0000 ( 16996 PWs)   bands (ev):

  -126.0902-126.0896-126.0895-126.0397-125.9703-125.9698-125.9696-125.9657
  -125.6937-125.6932-125.6930-125.6399 -80.2733 -80.2725 -80.2724 -80.2684
   -80.2650 -80.2643 -80.2608 -80.2602 -80.2579 -80.2271 -80.2128 -80.2124
   -80.1580 -80.1574 -80.1571 -80.1552 -80.1478 -80.1462 -80.1453 -80.1406
   -80.1402 -80.1377 -80.1365 -80.1344 -79.9326 -79.9320 -79.9318 -79.8619
   -79.8559 -79.8537 -79.8467 -79.8458 -79.8437 -79.8364 -79.8363 -79.7706
   -12.3643  -7.8343  -7.5234  -7.4492  -7.4322  -7.4038  -7.4016  -7.3887
    -7.3641  -7.3309  -7.3107  -7.2957  -7.1574  -7.1095  -7.1070  -7.0977
    -7.0777  -7.0333  -7.0124  -7.0109  -6.9879  -6.9658  -6.9288  -6.8870
    -6.8807  -6.8510  -6.8462  -6.8317  -6.8145  -6.7786  -6.7681  -6.7318
    -6.7208  -6.7180  -6.6887  -6.6770  -6.6727  -6.6597  -6.6472  -6.6419
    -6.6393  -6.6347  -6.6254  -6.5851  -6.5807  -6.5619  -6.5412  -6.5305
    -6.5272  -6.5171  -6.5159  -6.4968  -6.4952  -6.4872  -6.4528  -6.4455
    -6.4223  -6.4055  -6.3965  -6.3569  -6.3194  -6.2491  -5.0995  -4.5645
    -4.0945  -2.8553  -2.7520  -2.4476  -2.1696  -1.7877  -1.6822  -0.2333
     0.0561   0.1349   0.2944   1.6143   1.7263   1.7656   1.9403   2.3841
     3.1131   3.4813   3.6315   3.9529

          k = 0.3333 0.0000 0.0000 ( 16978 PWs)   bands (ev):

  -126.0902-126.0896-126.0895-126.0397-125.9704-125.9698-125.9696-125.9657
  -125.6938-125.6931-125.6930-125.6399 -80.2733 -80.2725 -80.2723 -80.2687
   -80.2656 -80.2647 -80.2606 -80.2591 -80.2580 -80.2270 -80.2127 -80.2124
   -80.1580 -80.1573 -80.1572 -80.1552 -80.1481 -80.1463 -80.1463 -80.1407
   -80.1387 -80.1383 -80.1356 -80.1342 -79.9326 -79.9319 -79.9318 -79.8624
   -79.8556 -79.8538 -79.8465 -79.8457 -79.8436 -79.8364 -79.8363 -79.7706
   -12.3708  -7.9647  -7.5299  -7.4896  -7.4707  -7.4384  -7.4199  -7.3945
    -7.3877  -7.3593  -7.3453  -7.3189  -7.1591  -7.1148  -7.1076  -7.0965
    -7.0669  -7.0504  -7.0346  -7.0280  -6.9977  -6.9600  -6.9482  -6.8984
    -6.8596  -6.8559  -6.8380  -6.8214  -6.7934  -6.7865  -6.7689  -6.7522
    -6.7235  -6.7117  -6.6826  -6.6647  -6.6553  -6.6493  -6.6415  -6.6309
    -6.6277  -6.6047  -6.5856  -6.5781  -6.5699  -6.5492  -6.5359  -6.5262
    -6.5223  -6.5011  -6.4935  -6.4870  -6.4782  -6.4718  -6.4478  -6.4320
    -6.4282  -6.4175  -6.3805  -6.3738  -6.2991  -6.2277  -4.7363  -4.2799
    -4.0373  -3.9457  -2.4554  -2.2827  -1.4210  -1.0090  -0.9025  -0.7727
    -0.6745  -0.4461  -0.0792   1.5748   1.7772   1.9965   2.1848   2.5832
     2.6364   2.8631   3.0554   3.7383

          k = 0.3333 0.1925 0.0000 ( 16996 PWs)   bands (ev):

  -126.0902-126.0897-126.0895-126.0397-125.9703-125.9698-125.9696-125.9657
  -125.6937-125.6932-125.6930-125.6399 -80.2733 -80.2726 -80.2723 -80.2683
   -80.2651 -80.2643 -80.2608 -80.2603 -80.2578 -80.2271 -80.2128 -80.2124
   -80.1580 -80.1574 -80.1572 -80.1552 -80.1478 -80.1461 -80.1453 -80.1407
   -80.1401 -80.1377 -80.1365 -80.1344 -79.9326 -79.9320 -79.9318 -79.8619
   -79.8559 -79.8537 -79.8467 -79.8458 -79.8437 -79.8364 -79.8363 -79.7706
   -12.3643  -7.8343  -7.5234  -7.4492  -7.4322  -7.4038  -7.4016  -7.3886
    -7.3641  -7.3309  -7.3107  -7.2957  -7.1575  -7.1095  -7.1070  -7.0977
    -7.0777  -7.0334  -7.0124  -7.0109  -6.9879  -6.9658  -6.9288  -6.8870
    -6.8807  -6.8510  -6.8462  -6.8317  -6.8145  -6.7786  -6.7681  -6.7318
    -6.7208  -6.7180  -6.6887  -6.6769  -6.6727  -6.6597  -6.6472  -6.6419
    -6.6393  -6.6347  -6.6254  -6.5850  -6.5807  -6.5620  -6.5412  -6.5305
    -6.5272  -6.5171  -6.5159  -6.4968  -6.4953  -6.4872  -6.4528  -6.4455
    -6.4223  -6.4055  -6.3965  -6.3570  -6.3194  -6.2491  -5.0995  -4.5645
    -4.0944  -2.8553  -2.7520  -2.4476  -2.1696  -1.7877  -1.6822  -0.2333
     0.0561   0.1349   0.2944   1.6143   1.7262   1.7656   1.9404   2.3840
     3.1132   3.4813   3.6315   3.9529

          k = 0.3333-0.7698 0.0000 ( 16986 PWs)   bands (ev):

  -126.0901-126.0898-126.0895-126.0397-125.9702-125.9699-125.9696-125.9657
  -125.6936-125.6933-125.6930-125.6399 -80.2731 -80.2727 -80.2723 -80.2673
   -80.2647 -80.2629 -80.2627 -80.2606 -80.2583 -80.2271 -80.2130 -80.2125
   -80.1579 -80.1575 -80.1572 -80.1552 -80.1468 -80.1449 -80.1439 -80.1425
   -80.1405 -80.1383 -80.1369 -80.1349 -79.9325 -79.9321 -79.9318 -79.8607
   -79.8571 -79.8533 -79.8471 -79.8456 -79.8441 -79.8364 -79.8363 -79.7706
   -12.3515  -7.5499  -7.4341  -7.3786  -7.3582  -7.3505  -7.3407  -7.3284
    -7.2921  -7.2726  -7.2589  -7.2392  -7.1953  -7.1458  -7.0965  -7.0854
    -7.0654  -7.0287  -6.9991  -6.9827  -6.9669  -6.9500  -6.9301  -6.9235
    -6.9088  -6.8998  -6.8820  -6.8115  -6.7996  -6.7979  -6.7900  -6.7726
    -6.7452  -6.7389  -6.7239  -6.6975  -6.6826  -6.6641  -6.6546  -6.6517
    -6.6324  -6.6262  -6.6100  -6.6068  -6.5946  -6.5866  -6.5787  -6.5688
    -6.5546  -6.5479  -6.5333  -6.5100  -6.4997  -6.4816  -6.4545  -6.4394
    -6.4351  -6.4238  -6.4022  -6.3567  -6.3199  -6.2773  -5.5649  -4.4940
    -4.3215  -3.8196  -3.1515  -2.7036  -1.8319  -1.4306  -1.1035  -0.8950
     0.2011   0.3666   1.1087   1.2661   1.4133   1.8728   2.2963   2.6531
     3.3747   3.7106   3.7700   3.9077

          k = 0.3333-0.5774 0.0000 ( 17004 PWs)   bands (ev):

  -126.0900-126.0899-126.0895-126.0397-125.9701-125.9700-125.9696-125.9657
  -125.6935-125.6934-125.6930-125.6399 -80.2729 -80.2728 -80.2723 -80.2657
   -80.2657 -80.2639 -80.2612 -80.2611 -80.2593 -80.2270 -80.2129 -80.2129
   -80.1577 -80.1576 -80.1572 -80.1552 -80.1453 -80.1453 -80.1434 -80.1422
   -80.1422 -80.1388 -80.1361 -80.1361 -79.9323 -79.9322 -79.9318 -79.8590
   -79.8589 -79.8531 -79.8474 -79.8450 -79.8450 -79.8365 -79.8365 -79.7706
   -12.3450  -7.3770  -7.3514  -7.3243  -7.3226  -7.2929  -7.2905  -7.2891
    -7.2631  -7.2576  -7.2518  -7.2197  -7.2057  -7.1714  -7.0746  -7.0705
    -7.0463  -7.0438  -7.0214  -6.9897  -6.9889  -6.9836  -6.9649  -6.9594
    -6.9119  -6.9112  -6.9015  -6.8815  -6.8631  -6.7874  -6.7853  -6.7663
    -6.7522  -6.7292  -6.7199  -6.6887  -6.6863  -6.6814  -6.6723  -6.6536
    -6.6498  -6.6375  -6.6268  -6.6145  -6.6096  -6.5904  -6.5895  -6.5797
    -6.5677  -6.5362  -6.5328  -6.5269  -6.4660  -6.4616  -6.4553  -6.4530
    -6.4368  -6.4224  -6.4053  -6.3971  -6.2685  -5.8265  -5.6157  -5.6144
    -3.9018  -3.8976  -3.5724  -2.5412  -2.5390  -1.5921  -0.0549   0.2023
     0.2138   0.8303   0.8506   0.8989   1.3339   1.3567   1.5054   3.0771
     3.0904   3.4727   3.7974   3.8773

          k = 0.3333-0.3849 0.0000 ( 16986 PWs)   bands (ev):

  -126.0901-126.0897-126.0895-126.0397-125.9702-125.9699-125.9696-125.9657
  -125.6936-125.6933-125.6930-125.6399 -80.2731 -80.2727 -80.2723 -80.2673
   -80.2647 -80.2628 -80.2627 -80.2607 -80.2583 -80.2271 -80.2130 -80.2125
   -80.1578 -80.1575 -80.1572 -80.1552 -80.1468 -80.1449 -80.1439 -80.1426
   -80.1405 -80.1383 -80.1369 -80.1349 -79.9325 -79.9321 -79.9318 -79.8607
   -79.8571 -79.8533 -79.8471 -79.8455 -79.8442 -79.8364 -79.8363 -79.7706
   -12.3515  -7.5500  -7.4341  -7.3787  -7.3582  -7.3505  -7.3407  -7.3284
    -7.2921  -7.2726  -7.2589  -7.2392  -7.1953  -7.1458  -7.0965  -7.0854
    -7.0653  -7.0287  -6.9991  -6.9827  -6.9669  -6.9500  -6.9301  -6.9235
    -6.9088  -6.8998  -6.8820  -6.8115  -6.7996  -6.7980  -6.7900  -6.7726
    -6.7452  -6.7389  -6.7239  -6.6975  -6.6826  -6.6641  -6.6546  -6.6517
    -6.6324  -6.6261  -6.6100  -6.6068  -6.5946  -6.5866  -6.5786  -6.5688
    -6.5546  -6.5479  -6.5333  -6.5100  -6.4997  -6.4816  -6.4545  -6.4395
    -6.4351  -6.4238  -6.4022  -6.3567  -6.3199  -6.2773  -5.5649  -4.4940
    -4.3215  -3.8196  -3.1515  -2.7036  -1.8319  -1.4306  -1.1035  -0.8950
     0.2011   0.3666   1.1087   1.2661   1.4133   1.8728   2.2963   2.6531
     3.3747   3.7106   3.7698   3.9078

          k =-0.5000 0.2887 0.0000 ( 17028 PWs)   bands (ev):

  -126.0901-126.0897-126.0895-126.0397-125.9702-125.9700-125.9696-125.9657
  -125.6936-125.6933-125.6930-125.6399 -80.2732 -80.2727 -80.2723 -80.2677
   -80.2630 -80.2630 -80.2628 -80.2624 -80.2579 -80.2271 -80.2131 -80.2125
   -80.1579 -80.1576 -80.1571 -80.1552 -80.1471 -80.1452 -80.1426 -80.1424
   -80.1418 -80.1380 -80.1374 -80.1346 -79.9326 -79.9321 -79.9317 -79.8608
   -79.8569 -79.8535 -79.8471 -79.8458 -79.8440 -79.8365 -79.8363 -79.7707
   -12.3514  -7.5561  -7.4687  -7.3887  -7.3679  -7.3552  -7.3365  -7.3122
    -7.2894  -7.2547  -7.2431  -7.2283  -7.2084  -7.1233  -7.0958  -7.0906
    -7.0738  -7.0216  -6.9716  -6.9672  -6.9565  -6.9514  -6.9299  -6.9187
    -6.8934  -6.8805  -6.8197  -6.8064  -6.8015  -6.7903  -6.7724  -6.7683
    -6.7592  -6.7530  -6.7352  -6.7002  -6.6725  -6.6591  -6.6551  -6.6497
    -6.6397  -6.6383  -6.6120  -6.6073  -6.5997  -6.5894  -6.5724  -6.5646
    -6.5588  -6.5507  -6.5495  -6.5472  -6.4990  -6.4961  -6.4485  -6.4258
    -6.4210  -6.4015  -6.3861  -6.3630  -6.2786  -6.2387  -6.1504  -4.3877
    -3.9529  -3.0503  -2.9178  -2.8960  -2.5812  -1.8742  -1.7751  -0.2136
     0.0050   0.4921   0.8144   0.9196   2.1566   2.5417   2.5574   3.3517
     3.3755   3.4593   3.5915   3.7304

          k =-0.5000 0.4811 0.0000 ( 16986 PWs)   bands (ev):

  -126.0901-126.0897-126.0895-126.0397-125.9702-125.9699-125.9696-125.9657
  -125.6936-125.6933-125.6930-125.6399 -80.2731 -80.2727 -80.2723 -80.2673
   -80.2647 -80.2628 -80.2627 -80.2607 -80.2583 -80.2271 -80.2130 -80.2125
   -80.1578 -80.1575 -80.1572 -80.1552 -80.1468 -80.1449 -80.1439 -80.1426
   -80.1405 -80.1383 -80.1369 -80.1349 -79.9325 -79.9321 -79.9318 -79.8607
   -79.8571 -79.8533 -79.8471 -79.8455 -79.8442 -79.8364 -79.8363 -79.7706
   -12.3515  -7.5500  -7.4341  -7.3787  -7.3582  -7.3505  -7.3407  -7.3284
    -7.2921  -7.2726  -7.2589  -7.2392  -7.1953  -7.1458  -7.0965  -7.0854
    -7.0653  -7.0287  -6.9991  -6.9827  -6.9669  -6.9500  -6.9301  -6.9235
    -6.9088  -6.8998  -6.8820  -6.8115  -6.7996  -6.7980  -6.7900  -6.7726
    -6.7452  -6.7389  -6.7239  -6.6975  -6.6826  -6.6641  -6.6546  -6.6517
    -6.6324  -6.6261  -6.6100  -6.6068  -6.5946  -6.5866  -6.5786  -6.5688
    -6.5546  -6.5479  -6.5333  -6.5100  -6.4997  -6.4816  -6.4545  -6.4395
    -6.4351  -6.4238  -6.4022  -6.3567  -6.3199  -6.2773  -5.5649  -4.4940
    -4.3215  -3.8196  -3.1515  -2.7036  -1.8319  -1.4306  -1.1035  -0.8950
     0.2011   0.3666   1.1087   1.2661   1.4133   1.8728   2.2963   2.6531
     3.3747   3.7106   3.7698   3.9078

          k =-0.5000 0.6736 0.0000 ( 16986 PWs)   bands (ev):

  -126.0901-126.0898-126.0895-126.0397-125.9702-125.9699-125.9696-125.9657
  -125.6936-125.6933-125.6930-125.6399 -80.2731 -80.2727 -80.2723 -80.2673
   -80.2647 -80.2629 -80.2626 -80.2607 -80.2583 -80.2271 -80.2130 -80.2125
   -80.1579 -80.1575 -80.1572 -80.1552 -80.1468 -80.1449 -80.1439 -80.1426
   -80.1405 -80.1383 -80.1369 -80.1349 -79.9325 -79.9321 -79.9318 -79.8607
   -79.8571 -79.8533 -79.8471 -79.8456 -79.8441 -79.8364 -79.8363 -79.7706
   -12.3515  -7.5499  -7.4341  -7.3787  -7.3582  -7.3506  -7.3407  -7.3284
    -7.2921  -7.2726  -7.2589  -7.2392  -7.1953  -7.1458  -7.0965  -7.0854
    -7.0654  -7.0287  -6.9990  -6.9827  -6.9669  -6.9500  -6.9301  -6.9235
    -6.9088  -6.8998  -6.8820  -6.8115  -6.7996  -6.7980  -6.7900  -6.7726
    -6.7452  -6.7389  -6.7239  -6.6975  -6.6826  -6.6641  -6.6546  -6.6517
    -6.6324  -6.6261  -6.6101  -6.6068  -6.5946  -6.5866  -6.5786  -6.5689
    -6.5546  -6.5479  -6.5333  -6.5100  -6.4997  -6.4816  -6.4545  -6.4394
    -6.4351  -6.4238  -6.4022  -6.3567  -6.3199  -6.2773  -5.5649  -4.4940
    -4.3214  -3.8196  -3.1515  -2.7036  -1.8319  -1.4306  -1.1035  -0.8950
     0.2011   0.3666   1.1087   1.2661   1.4133   1.8728   2.2963   2.6531
     3.3747   3.7106   3.7701   3.9076

          k =-0.5000-0.2887 0.0000 ( 17028 PWs)   bands (ev):

  -126.0901-126.0898-126.0895-126.0397-125.9702-125.9699-125.9696-125.9657
  -125.6936-125.6933-125.6930-125.6399 -80.2732 -80.2728 -80.2723 -80.2677
   -80.2631 -80.2630 -80.2629 -80.2623 -80.2578 -80.2271 -80.2131 -80.2125
   -80.1580 -80.1576 -80.1571 -80.1552 -80.1471 -80.1451 -80.1425 -80.1425
   -80.1419 -80.1380 -80.1374 -80.1346 -79.9326 -79.9322 -79.9317 -79.8608
   -79.8569 -79.8535 -79.8471 -79.8458 -79.8440 -79.8365 -79.8363 -79.7707
   -12.3514  -7.5561  -7.4687  -7.3887  -7.3679  -7.3552  -7.3365  -7.3122
    -7.2894  -7.2547  -7.2432  -7.2284  -7.2084  -7.1233  -7.0958  -7.0906
    -7.0738  -7.0216  -6.9716  -6.9672  -6.9565  -6.9514  -6.9299  -6.9186
    -6.8935  -6.8805  -6.8197  -6.8064  -6.8015  -6.7903  -6.7724  -6.7683
    -6.7592  -6.7530  -6.7352  -6.7002  -6.6725  -6.6591  -6.6551  -6.6497
    -6.6396  -6.6383  -6.6120  -6.6073  -6.5997  -6.5894  -6.5725  -6.5645
    -6.5588  -6.5507  -6.5496  -6.5471  -6.4990  -6.4961  -6.4485  -6.4258
    -6.4211  -6.4015  -6.3861  -6.3630  -6.2786  -6.2387  -6.1504  -4.3877
    -3.9528  -3.0503  -2.9178  -2.8960  -2.5812  -1.8742  -1.7751  -0.2136
     0.0050   0.4920   0.8143   0.9197   2.1566   2.5416   2.5576   3.3515
     3.3754   3.4594   3.5915   3.7304

     the Fermi energy is     0.6316 ev

!    total energy              =   -5573.35236581 Ry
     Harris-Foulkes estimate   =   -5573.35246263 Ry
     estimated scf accuracy    <       0.00007975 Ry

     The total energy is the sum of the following terms:

     one-electron contribution =  -30129.56007003 Ry
     hartree contribution      =   15047.63337466 Ry
     xc contribution           =    -525.87032633 Ry
     ewald contribution        =   10034.46459403 Ry
     electric field correction =       0.00000138 Ry
     smearing contrib. (-TS)   =      -0.01993952 Ry

     convergence has been achieved in   4 iterations

     negative rho (up, down):  1.023E-03 0.000E+00

     Forces acting on atoms (cartesian axes, Ry/au):

     atom    1 type  1   force =    -0.00025460   -0.00015032   -0.00702311
     atom    2 type  1   force =     0.00025696   -0.00014846   -0.00702479
     atom    3 type  1   force =     0.00000331    0.00029579   -0.00702340
     atom    4 type  1   force =    -0.00000237    0.00000135   -0.00787451
     atom    5 type  1   force =     0.00000374    0.00641337    0.00895632
     atom    6 type  1   force =    -0.00000042    0.00000018    0.00738884
     atom    7 type  1   force =    -0.00555212   -0.00320978    0.00895651
     atom    8 type  1   force =     0.00554952   -0.00320388    0.00897457
     atom    9 type  1   force =     0.00001229   -0.00000741   -0.01401225
     atom   10 type  1   force =     0.00005160   -0.00057996   -0.00021415
     atom   11 type  1   force =    -0.00045106    0.00026279   -0.00021109
     atom   12 type  1   force =     0.00052837    0.00024351   -0.00021154
     atom   13 type  2   force =    -0.00014521    0.00008283    0.00931858

     Total force =     0.016861     Total SCF correction =     0.058918
     SCF correction compared to forces is large: reduce conv_thr to get better values

     number of scf cycles    =  50
     number of bfgs steps    =   1

     energy   old            =   -5573.3524330827 Ry
     energy   new            =   -5573.3523658069 Ry

     CASE: energy  _new > energy  _old

     new trust radius        =       0.0000050104 bohr

     trust_radius < trust_radius_min

     resetting bfgs history

     new conv_thr            =       0.0001000000 Ry


ATOMIC_POSITIONS (angstrom)
Zn       1.401693333   0.809268023  10.000000000    0   0   0
Zn       4.205080001   0.809268023  10.000000000    0   0   0
Zn       2.803386667   3.237072094  10.000000000    0   0   0
Zn       5.606773334   3.237072094  10.000000000    0   0   0
Zn       5.606773334   1.618536047  12.288955629    0   0   0
Zn       2.803386667   1.618536047  12.288955629    0   0   0
Zn       7.008466668   4.046340117  12.288955629    0   0   0
Zn       4.205080001   4.046340117  12.288955629    0   0   0
Zn       0.000053344  -0.000002916  14.383292436
Zn       2.803778395   0.000695276  16.429398589
Zn       1.402498250   2.427356122  16.429379766
Zn       4.204710946   2.427092758  16.429370371
N       -0.000906962   0.000515304  16.247838385



     Writing output data file calc.save
     Check: negative starting charge=   -0.000724
     NEW-OLD atomic charge density approx. for the potential
     Check: negative starting charge=   -0.000725

     negative rho (up, down):  1.024E-03 0.000E+00

     Adding external electric field

     Computed dipole along edir(3) : 
        Dipole                0.0223 Ry au,          0.0566 Debye
        Dipole field          0.0001 Ry au, 

        Potential amp.       -0.0052 Ry
        Total length         41.8010 bohr


     Writing output data file calc.save

     init_run     :      5.37s CPU      5.85s WALL (       1 calls)
     electrons    :   2720.69s CPU   3071.95s WALL (      50 calls)
     update_pot   :     60.62s CPU     66.73s WALL (      50 calls)
     forces       :    106.69s CPU    115.81s WALL (      50 calls)

     Called by init_run:
     wfcinit      :      3.83s CPU      4.08s WALL (       1 calls)
     potinit      :      0.65s CPU      0.76s WALL (       1 calls)

     Called by electrons:
     c_bands      :   2278.29s CPU   2573.94s WALL (     221 calls)
     sum_band     :    335.06s CPU    356.40s WALL (     221 calls)
     v_of_rho     :     91.28s CPU    112.22s WALL (     272 calls)
     newd         :     34.32s CPU     51.55s WALL (     272 calls)
     mix_rho      :      2.05s CPU      2.14s WALL (     221 calls)

     Called by c_bands:
     init_us_2    :     17.90s CPU     18.05s WALL (    9860 calls)
     cegterg      :   2225.01s CPU   2519.07s WALL (    4420 calls)

     Called by sum_band:
     sum_band:bec :      1.67s CPU      1.74s WALL (    4420 calls)
     addusdens    :     37.69s CPU     50.96s WALL (     221 calls)

     Called by *egterg:
     h_psi        :   1211.55s CPU   1253.89s WALL (   20342 calls)
     s_psi        :     87.14s CPU     87.38s WALL (   20342 calls)
     g_psi        :      4.50s CPU      4.64s WALL (   15902 calls)
     cdiaghg      :    491.64s CPU    711.73s WALL (   19342 calls)

     Called by h_psi:
     h_psi:pot    :   1192.25s CPU   1234.17s WALL (   20342 calls)
     h_psi:calbec :    100.66s CPU    106.36s WALL (   20342 calls)
     vloc_psi     :   1004.73s CPU   1040.64s WALL (   20342 calls)
     add_vuspsi   :     86.67s CPU     87.03s WALL (   20342 calls)

     General routines
     calbec       :    169.65s CPU    179.15s WALL (   28762 calls)
     fft          :     48.28s CPU     62.96s WALL (   20850 calls)
     ffts         :      0.30s CPU      0.34s WALL (     493 calls)
     fftw         :   1018.39s CPU   1053.14s WALL ( 3335218 calls)
     interpolate  :      1.60s CPU      1.77s WALL (     493 calls)
     davcio       :      0.00s CPU      0.03s WALL (      20 calls)

     Parallel routines
     fft_scatter  :    266.72s CPU    297.95s WALL ( 3356561 calls)

     PWSCF        : 48m27.20s CPU    54m39.34s WALL


   This run was terminated on:   2:22:14   8Jan2019            

=------------------------------------------------------------------------------=
   JOB DONE.
=------------------------------------------------------------------------------=
