  python dir          : /nfs/slac/g/suncatfs/sw/espv20/lib/python2.7/site-packages/espresso
  espresso dir        : /nfs/slac/g/suncatfs/sw/espv18/espresso-dynpy-beef/bin
  pseudo dir          : /afs/slac.stanford.edu/u/if/mamunm/psp/gbrv1.5pbe
  ase-espresso py git : ffa2778-git



     Program PWSCF v.5.1rc2 (svn rev. 11289) starts on 21Jan2018 at 13:40:56 

     This program is part of the open-source Quantum ESPRESSO suite
     for quantum simulation of materials; please cite
         "P. Giannozzi et al., J. Phys.:Condens. Matter 21 395502 (2009);
          URL http://www.quantum-espresso.org", 
     in publications or presentations arising from this work. More details at
     http://www.quantum-espresso.org/quote

     Parallel version (MPI), running on    32 processors
     R & G space division:  proc/nbgrp/npool/nimage =      32
     Reading input from pw.inp
     Message from routine read_cards :
     DEPRECATED: no units specified in CELL_PARAMETERS card

     Current dimensions of program PWSCF are:
     Max number of different atomic species (ntypx) = 10
     Max number of k-points (npk) =  40000
     Max angular momentum in pseudopotentials (lmaxx) =  3
     Presently stress not available with electric field


     **************************************************************************
     Initializing libbeef V0.1.1 with the BEEF-vdW functional.
     Citation: Wellendorff et al., PRB 85, 235149 (2012).
     **************************************************************************


     IMPORTANT: XC functional enforced from input :
     Exchange-correlation      = BEEF-VDW ( 1  4 27 13 2)
     Any further DFT definition will be discarded
     Please, verify this is what you really want


     Subspace diagonalization in iterative solution of the eigenvalue problem:
     a serial algorithm will be used

 
     Parallelization info
     --------------------
     sticks:   dense  smooth     PW     G-vecs:    dense   smooth      PW
     Min          94      37     10                17854     4501     698
     Max          95      38     11                17874     4540     717
     Sum        3013    1201    349               571737   144541   22801
 


     bravais-lattice index     =            0
     lattice parameter (alat)  =       1.8897  a.u.
     unit-cell volume          =    4806.0858 (a.u.)^3
     number of atoms/cell      =           13
     number of atomic types    =            2
     number of electrons       =       148.00
     number of Kohn-Sham states=           84
     kinetic-energy cutoff     =      36.7493  Ry
     charge density cutoff     =     367.4932  Ry
     convergence threshold     =      1.0E-05
     mixing beta               =       0.3000
     number of iterations used =           10  plain     mixing
     Exchange-correlation      = BEEF-VDW ( 1  4 27 13 2)
     nstep                     =           50


     celldm(1)=   1.889726  celldm(2)=   0.000000  celldm(3)=   0.000000
     celldm(4)=   0.000000  celldm(5)=   0.000000  celldm(6)=   0.000000

     crystal axes: (cart. coord. in units of alat)
               a(1) = (   5.768903   0.000000   0.000000 )  
               a(2) = (   2.884451   4.996016   0.000000 )  
               a(3) = (   0.000000   0.000000  24.710289 )  

     reciprocal axes: (cart. coord. in units 2 pi/alat)
               b(1) = (  0.173343 -0.100080  0.000000 )  
               b(2) = (  0.000000  0.200159  0.000000 )  
               b(3) = (  0.000000  0.000000  0.040469 )  


     PseudoPot. # 1 for Ti read from file:
     /afs/slac.stanford.edu/u/if/mamunm/psp/gbrv1.5pbe/Ti.UPF
     MD5 check sum: 88a00a6731bd790ddea75d31a80cb452
     Pseudo is Ultrasoft + core correction, Zval = 12.0
     Generated by new atomic code, or converted to UPF format
     Using radial grid of  851 points,  6 beta functions with: 
                l(1) =   0
                l(2) =   0
                l(3) =   1
                l(4) =   1
                l(5) =   2
                l(6) =   2
     Q(r) pseudized with  6 coefficients,  rinner =    1.000   1.000   1.000
                                                       1.000   1.000

     PseudoPot. # 2 for C  read from file:
     /afs/slac.stanford.edu/u/if/mamunm/psp/gbrv1.5pbe/C.UPF
     MD5 check sum: d1aef80898a10debaa0f26306b886e00
     Pseudo is Ultrasoft + core correction, Zval =  4.0
     Generated by new atomic code, or converted to UPF format
     Using radial grid of  721 points,  4 beta functions with: 
                l(1) =   0
                l(2) =   0
                l(3) =   1
                l(4) =   1
     Q(r) pseudized with  8 coefficients,  rinner =    1.100   1.100   1.100


     vdW kernel table read from file vdW_kernel_table
     MD5 check sum: 095c7af220d748ca6e76c0b4c6cfb241

     atomic species   valence    mass     pseudopotential
        Ti1           12.00    47.86700     Ti( 1.00)
        C1             4.00    12.01100     C ( 1.00)

     No symmetry found



   Cartesian axes

     site n.     atom                  positions (alat units)
         1           Ti1 tau(   1) = (   1.4422257   0.8326694  10.0000000  )
         2           Ti1 tau(   2) = (   4.3266771   0.8326694  10.0000000  )
         3           Ti1 tau(   3) = (   2.8844514   3.3306776  10.0000000  )
         4           Ti1 tau(   4) = (   5.7689029   3.3306776  10.0000000  )
         5           Ti1 tau(   5) = (   5.7689029   1.6653388  12.3551447  )
         6           Ti1 tau(   6) = (   2.8844514   1.6653388  12.3551447  )
         7           Ti1 tau(   7) = (   7.2111286   4.1633470  12.3551447  )
         8           Ti1 tau(   8) = (   4.3266771   4.1633470  12.3551447  )
         9           Ti1 tau(   9) = (   0.0000000   0.0000000  14.7102895  )
        10           Ti1 tau(  10) = (   2.8844514   0.0000000  14.7102895  )
        11           Ti1 tau(  11) = (   1.4422257   2.4980082  14.7102895  )
        12           Ti1 tau(  12) = (   4.3266771   2.4980082  14.7102895  )
        13           C1  tau(  13) = (   2.8844514   1.6653388  17.0702895  )

     number of k points=    20  Fermi-Dirac smearing, width (Ry)=  0.0110
                       cart. coord. in units 2pi/alat
        k(    1) = (   0.0000000   0.0000000   0.0000000), wk =   0.0555556
        k(    2) = (   0.0000000   0.0333599   0.0000000), wk =   0.1111111
        k(    3) = (   0.0000000   0.0667198   0.0000000), wk =   0.1111111
        k(    4) = (   0.0000000  -0.1000797   0.0000000), wk =   0.0555556
        k(    5) = (   0.0288905  -0.0166800   0.0000000), wk =   0.1111111
        k(    6) = (   0.0288905   0.0166800   0.0000000), wk =   0.1111111
        k(    7) = (   0.0288905   0.0500399   0.0000000), wk =   0.1111111
        k(    8) = (   0.0288905  -0.1167597   0.0000000), wk =   0.1111111
        k(    9) = (   0.0288905  -0.0833998   0.0000000), wk =   0.1111111
        k(   10) = (   0.0288905  -0.0500399   0.0000000), wk =   0.1111111
        k(   11) = (   0.0577811  -0.0333599   0.0000000), wk =   0.1111111
        k(   12) = (   0.0577811  -0.0000000   0.0000000), wk =   0.1111111
        k(   13) = (   0.0577811   0.0333599   0.0000000), wk =   0.1111111
        k(   14) = (   0.0577811  -0.1334396   0.0000000), wk =   0.1111111
        k(   15) = (   0.0577811  -0.1000797   0.0000000), wk =   0.1111111
        k(   16) = (   0.0577811  -0.0667198   0.0000000), wk =   0.1111111
        k(   17) = (  -0.0866716   0.0500399   0.0000000), wk =   0.0555556
        k(   18) = (  -0.0866716   0.0833998   0.0000000), wk =   0.1111111
        k(   19) = (  -0.0866716   0.1167597   0.0000000), wk =   0.1111111
        k(   20) = (  -0.0866716  -0.0500399   0.0000000), wk =   0.0555556

     Dense  grid:   571737 G-vectors     FFT dimensions: (  72,  72, 288)

     Smooth grid:   144541 G-vectors     FFT dimensions: (  45,  45, 192)

     Largest allocated arrays     est. size (Mb)     dimensions
        Kohn-Sham Wavefunctions         0.73 Mb     (     570,   84)
        NL pseudopotentials             1.95 Mb     (     570,  224)
        Each V/rho on FFT grid          0.71 Mb     (   46656)
        Each G-vector array             0.14 Mb     (   17863)
        G-vector shells                 0.06 Mb     (    8292)
     Largest temporary arrays     est. size (Mb)     dimensions
        Auxiliary wavefunctions         2.92 Mb     (     570,  336)
        Each subspace H/S matrix        1.72 Mb     (     336,  336)
        Each <psi_i|beta_j> matrix      0.29 Mb     (     224,   84)
        Arrays for rho mixing           7.12 Mb     (   46656,   10)

     Check: negative/imaginary core charge=   -0.000006    0.000000

     Initial potential from superposition of free atoms
     Check: negative starting charge=   -0.012665

     starting charge  135.99943, renormalised to  148.00000

     negative rho (up, down):  1.378E-02 0.000E+00


     ************************************************************************
     *
     * You are using vdW-DF for exchange-correlation in this calculation.
     * Please cite the following three references that made this development
     * possible:
     *
     *   M. Dion, H. Rydberg, E. Schroder, D. C. Langreth, and
     *   B. I. Lundqvist, Phys. Rev. Lett. 92, 246401 (2004).
     *
     *   T. Thonhauser, V. R. Cooper, S. Li, A. Puzder, P. Hyldgaard, and
     *   D. C. Langreth, Phys. Rev. B 76, 125112 (2007).
     *
     *   G. Roman-Perez and J. M. Soler, Phys. Rev. Lett. 103, 096102 (2009).
     *
     *
     * If you are using vdW-DF2, please also cite:
     *
     *   K. Lee, E. D. Murray, L. Kong, B. I. Lundqvist, and
     *   D. C. Langreth, Phys. Rev. B 82, 081101(R) (2010).
     *
     *
     * If you are calculating the stress with vdW-DF, please also cite:
     *
     *   R. Sabatini, E. Kucukbenli, B. Kolb, T. Thonhauser, and
     *   S. de Gironcoli, J. Phys.: Condens. Matter 24, 424209 (2012).
     *
     ************************************************************************

     Carrying out vdW-DF run using the following parameters:

     Nqs =      20    Nr_points =    1024   r_max =   100.000
     q_mesh =
               0.00001000     0.04494208     0.09755937     0.15916263
               0.23128650     0.31572767     0.41458969     0.53033537
               0.66584808     0.82450364     1.01025438     1.22772762
               1.48234092     1.78043706     2.12944203     2.53805004
               3.01644009     3.57652955     4.23227104     5.00000000

     Gradients computed in reciprocal space

     ************************************************************************


 
     Adding external electric field

     Computed dipole along edir(3) : 
        Dipole               -3.1446 Ry au,         -7.9928 Debye
        Dipole field         -0.0082 Ry au
 
        Potential amp.        0.7487 Ry
        Total length         45.5283 bohr
 
     Starting wfc are  124 randomized atomic wfcs

     total cpu time spent up to now is       15.7 secs

     per-process dynamical memory:    45.3 Mb

     Self-consistent Calculation

     iteration #  1     ecut=    36.75 Ry     beta=0.30
     Davidson diagonalization with overlap
     ethr =  1.00E-02,  avg # of iterations =  6.2

     negative rho (up, down):  1.317E-02 0.000E+00
 
     Adding external electric field

     Computed dipole along edir(3) : 
        Dipole               39.3333 Ry au,         99.9754 Debye
        Dipole field          0.1028 Ry au
 
        Potential amp.       -9.3646 Ry
        Total length         45.5283 bohr
 

     total cpu time spent up to now is       63.0 secs

     total energy              =   -1358.71963935 Ry
     Harris-Foulkes estimate   =   -1451.91170552 Ry
     estimated scf accuracy    <     193.11816967 Ry

     iteration #  2     ecut=    36.75 Ry     beta=0.30
     Davidson diagonalization with overlap
     ethr =  1.00E-02,  avg # of iterations = 14.0

     negative rho (up, down):  1.383E-02 0.000E+00
 
     Adding external electric field

     Computed dipole along edir(3) : 
        Dipole               -3.1018 Ry au,         -7.8840 Debye
        Dipole field         -0.0081 Ry au
 
        Potential amp.        0.7385 Ry
        Total length         45.5283 bohr
 

     total cpu time spent up to now is      182.2 secs

     total energy              =   -1225.62095022 Ry
     Harris-Foulkes estimate   =   -1877.29107489 Ry
     estimated scf accuracy    <   11332.61304867 Ry

     iteration #  3     ecut=    36.75 Ry     beta=0.30
     Davidson diagonalization with overlap
     ethr =  1.00E-02,  avg # of iterations = 14.6

     negative rho (up, down):  1.311E-02 0.000E+00
 
     Adding external electric field

     Computed dipole along edir(3) : 
        Dipole               -0.9416 Ry au,         -2.3932 Debye
        Dipole field         -0.0025 Ry au
 
        Potential amp.        0.2242 Ry
        Total length         45.5283 bohr
 

     total cpu time spent up to now is      285.5 secs

     total energy              =   -1440.91651685 Ry
     Harris-Foulkes estimate   =   -1514.32590389 Ry
     estimated scf accuracy    <     879.93876626 Ry

     iteration #  4     ecut=    36.75 Ry     beta=0.30
     Davidson diagonalization with overlap
     ethr =  1.00E-02,  avg # of iterations =  5.1

     negative rho (up, down):  1.169E-02 0.000E+00
 
     Adding external electric field

     Computed dipole along edir(3) : 
        Dipole               -1.9175 Ry au,         -4.8739 Debye
        Dipole field         -0.0050 Ry au
 
        Potential amp.        0.4565 Ry
        Total length         45.5283 bohr
 

     total cpu time spent up to now is      333.5 secs

     total energy              =   -1452.48393656 Ry
     Harris-Foulkes estimate   =   -1461.17982413 Ry
     estimated scf accuracy    <     173.31450839 Ry

     iteration #  5     ecut=    36.75 Ry     beta=0.30
     Davidson diagonalization with overlap
     ethr =  1.00E-02,  avg # of iterations =  3.5

     negative rho (up, down):  1.242E-02 0.000E+00
 
     Adding external electric field

     Computed dipole along edir(3) : 
        Dipole               -1.7342 Ry au,         -4.4079 Debye
        Dipole field         -0.0045 Ry au
 
        Potential amp.        0.4129 Ry
        Total length         45.5283 bohr
 

     total cpu time spent up to now is      363.3 secs

     total energy              =   -1447.82479810 Ry
     Harris-Foulkes estimate   =   -1453.85963647 Ry
     estimated scf accuracy    <     198.07763035 Ry

     iteration #  6     ecut=    36.75 Ry     beta=0.30
     Davidson diagonalization with overlap
     ethr =  1.00E-02,  avg # of iterations =  4.8

     negative rho (up, down):  1.214E-02 0.000E+00
 
     Adding external electric field

     Computed dipole along edir(3) : 
        Dipole               -2.4425 Ry au,         -6.2082 Debye
        Dipole field         -0.0064 Ry au
 
        Potential amp.        0.5815 Ry
        Total length         45.5283 bohr
 

     total cpu time spent up to now is      397.3 secs

     total energy              =   -1447.98892190 Ry
     Harris-Foulkes estimate   =   -1449.79280010 Ry
     estimated scf accuracy    <      17.45271148 Ry

     iteration #  7     ecut=    36.75 Ry     beta=0.30
     Davidson diagonalization with overlap
     ethr =  1.00E-02,  avg # of iterations =  5.8

     negative rho (up, down):  9.580E-03 0.000E+00
 
     Adding external electric field

     Computed dipole along edir(3) : 
        Dipole               -1.8917 Ry au,         -4.8081 Debye
        Dipole field         -0.0049 Ry au
 
        Potential amp.        0.4504 Ry
        Total length         45.5283 bohr
 

     total cpu time spent up to now is      443.6 secs

     total energy              =   -1442.37118091 Ry
     Harris-Foulkes estimate   =   -1451.96693674 Ry
     estimated scf accuracy    <     191.93270307 Ry

     iteration #  8     ecut=    36.75 Ry     beta=0.30
     Davidson diagonalization with overlap
     ethr =  1.00E-02,  avg # of iterations =  9.1

     negative rho (up, down):  9.215E-03 0.000E+00
 
     Adding external electric field

     Computed dipole along edir(3) : 
        Dipole               -2.0503 Ry au,         -5.2113 Debye
        Dipole field         -0.0054 Ry au
 
        Potential amp.        0.4881 Ry
        Total length         45.5283 bohr
 

     total cpu time spent up to now is      501.1 secs

     total energy              =   -1450.89462115 Ry
     Harris-Foulkes estimate   =   -1453.19315250 Ry
     estimated scf accuracy    <     140.29584872 Ry

     iteration #  9     ecut=    36.75 Ry     beta=0.30
     Davidson diagonalization with overlap
     ethr =  1.00E-02,  avg # of iterations =  1.0

     negative rho (up, down):  8.926E-03 0.000E+00
 
     Adding external electric field

     Computed dipole along edir(3) : 
        Dipole               -2.1514 Ry au,         -5.4683 Debye
        Dipole field         -0.0056 Ry au
 
        Potential amp.        0.5122 Ry
        Total length         45.5283 bohr
 

     total cpu time spent up to now is      526.0 secs

     total energy              =   -1449.52052912 Ry
     Harris-Foulkes estimate   =   -1451.12693474 Ry
     estimated scf accuracy    <      99.26893346 Ry

     iteration # 10     ecut=    36.75 Ry     beta=0.30
     Davidson diagonalization with overlap
     ethr =  1.00E-02,  avg # of iterations =  1.0

     negative rho (up, down):  8.900E-03 0.000E+00
 
     Adding external electric field

     Computed dipole along edir(3) : 
        Dipole               -2.1819 Ry au,         -5.5459 Debye
        Dipole field         -0.0057 Ry au
 
        Potential amp.        0.5195 Ry
        Total length         45.5283 bohr
 

     total cpu time spent up to now is      550.9 secs

     total energy              =   -1449.69061495 Ry
     Harris-Foulkes estimate   =   -1449.76228835 Ry
     estimated scf accuracy    <      56.68918715 Ry

     iteration # 11     ecut=    36.75 Ry     beta=0.30
     Davidson diagonalization with overlap
     ethr =  1.00E-02,  avg # of iterations =  1.0

     negative rho (up, down):  8.858E-03 0.000E+00
 
     Adding external electric field

     Computed dipole along edir(3) : 
        Dipole               -2.1875 Ry au,         -5.5601 Debye
        Dipole field         -0.0057 Ry au
 
        Potential amp.        0.5208 Ry
        Total length         45.5283 bohr
 

     total cpu time spent up to now is      576.5 secs

     total energy              =   -1449.66924364 Ry
     Harris-Foulkes estimate   =   -1449.77582651 Ry
     estimated scf accuracy    <      51.16081765 Ry

     iteration # 12     ecut=    36.75 Ry     beta=0.30
     Davidson diagonalization with overlap
     ethr =  1.00E-02,  avg # of iterations =  1.0

     negative rho (up, down):  8.728E-03 0.000E+00
 
     Adding external electric field

     Computed dipole along edir(3) : 
        Dipole               -2.2042 Ry au,         -5.6025 Debye
        Dipole field         -0.0058 Ry au
 
        Potential amp.        0.5248 Ry
        Total length         45.5283 bohr
 

     total cpu time spent up to now is      600.4 secs

     total energy              =   -1449.50354342 Ry
     Harris-Foulkes estimate   =   -1449.72791234 Ry
     estimated scf accuracy    <      44.31933871 Ry

     iteration # 13     ecut=    36.75 Ry     beta=0.30
     Davidson diagonalization with overlap
     ethr =  1.00E-02,  avg # of iterations =  1.0

     negative rho (up, down):  8.871E-03 0.000E+00
 
     Adding external electric field

     Computed dipole along edir(3) : 
        Dipole               -2.1042 Ry au,         -5.3484 Debye
        Dipole field         -0.0055 Ry au
 
        Potential amp.        0.5010 Ry
        Total length         45.5283 bohr
 

     total cpu time spent up to now is      626.3 secs

     total energy              =   -1448.41217156 Ry
     Harris-Foulkes estimate   =   -1449.57036999 Ry
     estimated scf accuracy    <      36.09487373 Ry

     iteration # 14     ecut=    36.75 Ry     beta=0.30
     Davidson diagonalization with overlap
     ethr =  1.00E-02,  avg # of iterations =  5.7

     negative rho (up, down):  8.668E-03 0.000E+00
 
     Adding external electric field

     Computed dipole along edir(3) : 
        Dipole               -1.9809 Ry au,         -5.0348 Debye
        Dipole field         -0.0052 Ry au
 
        Potential amp.        0.4716 Ry
        Total length         45.5283 bohr
 

     total cpu time spent up to now is      663.3 secs

     total energy              =   -1450.41898954 Ry
     Harris-Foulkes estimate   =   -1450.39750730 Ry
     estimated scf accuracy    <      52.58341848 Ry

     iteration # 15     ecut=    36.75 Ry     beta=0.30
     Davidson diagonalization with overlap
     ethr =  1.00E-02,  avg # of iterations =  1.2

     negative rho (up, down):  8.591E-03 0.000E+00
 
     Adding external electric field

     Computed dipole along edir(3) : 
        Dipole               -1.7279 Ry au,         -4.3918 Debye
        Dipole field         -0.0045 Ry au
 
        Potential amp.        0.4114 Ry
        Total length         45.5283 bohr
 

     total cpu time spent up to now is      686.7 secs

     total energy              =   -1449.74817405 Ry
     Harris-Foulkes estimate   =   -1450.47950059 Ry
     estimated scf accuracy    <      61.07038130 Ry

     iteration # 16     ecut=    36.75 Ry     beta=0.30
     Davidson diagonalization with overlap
     ethr =  1.00E-02,  avg # of iterations =  1.0

     negative rho (up, down):  8.532E-03 0.000E+00
 
     Adding external electric field

     Computed dipole along edir(3) : 
        Dipole               -1.8707 Ry au,         -4.7549 Debye
        Dipole field         -0.0049 Ry au
 
        Potential amp.        0.4454 Ry
        Total length         45.5283 bohr
 

     total cpu time spent up to now is      710.0 secs

     total energy              =   -1450.08727771 Ry
     Harris-Foulkes estimate   =   -1449.92439047 Ry
     estimated scf accuracy    <      15.53729331 Ry

     iteration # 17     ecut=    36.75 Ry     beta=0.30
     Davidson diagonalization with overlap
     ethr =  1.00E-02,  avg # of iterations =  1.0

     negative rho (up, down):  8.626E-03 0.000E+00
 
     Adding external electric field

     Computed dipole along edir(3) : 
        Dipole               -1.9566 Ry au,         -4.9731 Debye
        Dipole field         -0.0051 Ry au
 
        Potential amp.        0.4658 Ry
        Total length         45.5283 bohr
 

     total cpu time spent up to now is      733.0 secs

     total energy              =   -1450.17685592 Ry
     Harris-Foulkes estimate   =   -1450.12343180 Ry
     estimated scf accuracy    <      28.91836287 Ry

     iteration # 18     ecut=    36.75 Ry     beta=0.30
     Davidson diagonalization with overlap
     ethr =  1.00E-02,  avg # of iterations =  1.0

     negative rho (up, down):  8.670E-03 0.000E+00
 
     Adding external electric field

     Computed dipole along edir(3) : 
        Dipole               -1.1623 Ry au,         -2.9542 Debye
        Dipole field         -0.0030 Ry au
 
        Potential amp.        0.2767 Ry
        Total length         45.5283 bohr
 

     total cpu time spent up to now is      756.8 secs

     total energy              =   -1449.70118370 Ry
     Harris-Foulkes estimate   =   -1450.19158809 Ry
     estimated scf accuracy    <      31.82744949 Ry

     iteration # 19     ecut=    36.75 Ry     beta=0.30
     Davidson diagonalization with overlap
     ethr =  1.00E-02,  avg # of iterations =  1.0

     negative rho (up, down):  8.622E-03 0.000E+00
 
     Adding external electric field

     Computed dipole along edir(3) : 
        Dipole               -0.8706 Ry au,         -2.2128 Debye
        Dipole field         -0.0023 Ry au
 
        Potential amp.        0.2073 Ry
        Total length         45.5283 bohr
 

     total cpu time spent up to now is      781.0 secs

     total energy              =   -1449.72986895 Ry
     Harris-Foulkes estimate   =   -1449.81690583 Ry
     estimated scf accuracy    <       9.91181174 Ry

     iteration # 20     ecut=    36.75 Ry     beta=0.30
     Davidson diagonalization with overlap
     ethr =  6.70E-03,  avg # of iterations =  1.0

     negative rho (up, down):  8.495E-03 0.000E+00
 
     Adding external electric field

     Computed dipole along edir(3) : 
        Dipole               -0.6604 Ry au,         -1.6786 Debye
        Dipole field         -0.0017 Ry au
 
        Potential amp.        0.1572 Ry
        Total length         45.5283 bohr
 

     total cpu time spent up to now is      805.9 secs

     total energy              =   -1449.70338585 Ry
     Harris-Foulkes estimate   =   -1449.76378285 Ry
     estimated scf accuracy    <       4.16354128 Ry

     iteration # 21     ecut=    36.75 Ry     beta=0.30
     Davidson diagonalization with overlap
     ethr =  2.81E-03,  avg # of iterations =  1.0

     negative rho (up, down):  8.307E-03 0.000E+00
 
     Adding external electric field

     Computed dipole along edir(3) : 
        Dipole               -0.6434 Ry au,         -1.6353 Debye
        Dipole field         -0.0017 Ry au
 
        Potential amp.        0.1532 Ry
        Total length         45.5283 bohr
 

     total cpu time spent up to now is      829.0 secs

     total energy              =   -1449.73817270 Ry
     Harris-Foulkes estimate   =   -1449.74236873 Ry
     estimated scf accuracy    <       0.22752469 Ry

     iteration # 22     ecut=    36.75 Ry     beta=0.30
     Davidson diagonalization with overlap
     ethr =  1.54E-04,  avg # of iterations =  7.2

     negative rho (up, down):  8.209E-03 0.000E+00
 
     Adding external electric field

     Computed dipole along edir(3) : 
        Dipole               -0.5457 Ry au,         -1.3872 Debye
        Dipole field         -0.0014 Ry au
 
        Potential amp.        0.1299 Ry
        Total length         45.5283 bohr
 

     total cpu time spent up to now is      873.7 secs

     total energy              =   -1449.78928436 Ry
     Harris-Foulkes estimate   =   -1449.78582215 Ry
     estimated scf accuracy    <       0.56011852 Ry

     iteration # 23     ecut=    36.75 Ry     beta=0.30
     Davidson diagonalization with overlap
     ethr =  1.54E-04,  avg # of iterations =  1.4

     negative rho (up, down):  8.154E-03 0.000E+00
 
     Adding external electric field

     Computed dipole along edir(3) : 
        Dipole               -0.4209 Ry au,         -1.0697 Debye
        Dipole field         -0.0011 Ry au
 
        Potential amp.        0.1002 Ry
        Total length         45.5283 bohr
 

     total cpu time spent up to now is      899.6 secs

     total energy              =   -1449.80666927 Ry
     Harris-Foulkes estimate   =   -1449.79198416 Ry
     estimated scf accuracy    <       0.70366874 Ry

     iteration # 24     ecut=    36.75 Ry     beta=0.30
     Davidson diagonalization with overlap
     ethr =  1.54E-04,  avg # of iterations =  1.9

     negative rho (up, down):  8.105E-03 0.000E+00
 
     Adding external electric field

     Computed dipole along edir(3) : 
        Dipole               -0.6565 Ry au,         -1.6686 Debye
        Dipole field         -0.0017 Ry au
 
        Potential amp.        0.1563 Ry
        Total length         45.5283 bohr
 

     total cpu time spent up to now is      926.0 secs

     total energy              =   -1449.77558351 Ry
     Harris-Foulkes estimate   =   -1449.81420054 Ry
     estimated scf accuracy    <       2.12070768 Ry

     iteration # 25     ecut=    36.75 Ry     beta=0.30
     Davidson diagonalization with overlap
     ethr =  1.54E-04,  avg # of iterations =  1.9

     negative rho (up, down):  8.139E-03 0.000E+00
 
     Adding external electric field

     Computed dipole along edir(3) : 
        Dipole               -0.6713 Ry au,         -1.7062 Debye
        Dipole field         -0.0018 Ry au
 
        Potential amp.        0.1598 Ry
        Total length         45.5283 bohr
 

     total cpu time spent up to now is      950.6 secs

     total energy              =   -1449.77498743 Ry
     Harris-Foulkes estimate   =   -1449.78519531 Ry
     estimated scf accuracy    <       0.64031070 Ry

     iteration # 26     ecut=    36.75 Ry     beta=0.30
     Davidson diagonalization with overlap
     ethr =  1.54E-04,  avg # of iterations =  1.0

     negative rho (up, down):  8.088E-03 0.000E+00
 
     Adding external electric field

     Computed dipole along edir(3) : 
        Dipole               -0.7236 Ry au,         -1.8391 Debye
        Dipole field         -0.0019 Ry au
 
        Potential amp.        0.1723 Ry
        Total length         45.5283 bohr
 

     total cpu time spent up to now is      974.1 secs

     total energy              =   -1449.75825122 Ry
     Harris-Foulkes estimate   =   -1449.77618897 Ry
     estimated scf accuracy    <       0.45788481 Ry

     iteration # 27     ecut=    36.75 Ry     beta=0.30
     Davidson diagonalization with overlap
     ethr =  1.54E-04,  avg # of iterations =  2.8

     negative rho (up, down):  8.085E-03 0.000E+00
 
     Adding external electric field

     Computed dipole along edir(3) : 
        Dipole               -0.6395 Ry au,         -1.6255 Debye
        Dipole field         -0.0017 Ry au
 
        Potential amp.        0.1523 Ry
        Total length         45.5283 bohr
 

     total cpu time spent up to now is     1000.5 secs

     total energy              =   -1449.76403212 Ry
     Harris-Foulkes estimate   =   -1449.76675747 Ry
     estimated scf accuracy    <       0.11395841 Ry

     iteration # 28     ecut=    36.75 Ry     beta=0.30
     Davidson diagonalization with overlap
     ethr =  7.70E-05,  avg # of iterations =  5.0

     negative rho (up, down):  8.045E-03 0.000E+00
 
     Adding external electric field

     Computed dipole along edir(3) : 
        Dipole               -0.5501 Ry au,         -1.3983 Debye
        Dipole field         -0.0014 Ry au
 
        Potential amp.        0.1310 Ry
        Total length         45.5283 bohr
 

     total cpu time spent up to now is     1028.2 secs

     total energy              =   -1449.76565449 Ry
     Harris-Foulkes estimate   =   -1449.76674273 Ry
     estimated scf accuracy    <       0.05158845 Ry

     iteration # 29     ecut=    36.75 Ry     beta=0.30
     Davidson diagonalization with overlap
     ethr =  3.49E-05,  avg # of iterations =  4.3

     negative rho (up, down):  8.013E-03 0.000E+00
 
     Adding external electric field

     Computed dipole along edir(3) : 
        Dipole               -0.5219 Ry au,         -1.3264 Debye
        Dipole field         -0.0014 Ry au
 
        Potential amp.        0.1242 Ry
        Total length         45.5283 bohr
 

     total cpu time spent up to now is     1059.8 secs

     total energy              =   -1449.76574834 Ry
     Harris-Foulkes estimate   =   -1449.76714684 Ry
     estimated scf accuracy    <       0.03300073 Ry

     iteration # 30     ecut=    36.75 Ry     beta=0.30
     Davidson diagonalization with overlap
     ethr =  2.23E-05,  avg # of iterations =  5.0

     negative rho (up, down):  8.045E-03 0.000E+00
 
     Adding external electric field

     Computed dipole along edir(3) : 
        Dipole               -0.5117 Ry au,         -1.3007 Debye
        Dipole field         -0.0013 Ry au
 
        Potential amp.        0.1218 Ry
        Total length         45.5283 bohr
 

     total cpu time spent up to now is     1088.1 secs

     total energy              =   -1449.76681165 Ry
     Harris-Foulkes estimate   =   -1449.76723964 Ry
     estimated scf accuracy    <       0.00366432 Ry

     iteration # 31     ecut=    36.75 Ry     beta=0.30
     Davidson diagonalization with overlap
     c_bands:  1 eigenvalues not converged
     ethr =  2.48E-06,  avg # of iterations =  9.3

     negative rho (up, down):  7.996E-03 0.000E+00
 
     Adding external electric field

     Computed dipole along edir(3) : 
        Dipole               -0.5157 Ry au,         -1.3108 Debye
        Dipole field         -0.0013 Ry au
 
        Potential amp.        0.1228 Ry
        Total length         45.5283 bohr
 

     total cpu time spent up to now is     1141.0 secs

     total energy              =   -1449.76780680 Ry
     Harris-Foulkes estimate   =   -1449.76830768 Ry
     estimated scf accuracy    <       0.01319397 Ry

     iteration # 32     ecut=    36.75 Ry     beta=0.30
     Davidson diagonalization with overlap
     ethr =  2.48E-06,  avg # of iterations =  1.1

     negative rho (up, down):  7.986E-03 0.000E+00
 
     Adding external electric field

     Computed dipole along edir(3) : 
        Dipole               -0.5166 Ry au,         -1.3132 Debye
        Dipole field         -0.0014 Ry au
 
        Potential amp.        0.1230 Ry
        Total length         45.5283 bohr
 

     total cpu time spent up to now is     1164.0 secs

     total energy              =   -1449.76749158 Ry
     Harris-Foulkes estimate   =   -1449.76790357 Ry
     estimated scf accuracy    <       0.00593281 Ry

     iteration # 33     ecut=    36.75 Ry     beta=0.30
     Davidson diagonalization with overlap
     ethr =  2.48E-06,  avg # of iterations =  4.5

     negative rho (up, down):  8.024E-03 0.000E+00
 
     Adding external electric field

     Computed dipole along edir(3) : 
        Dipole               -0.5081 Ry au,         -1.2916 Debye
        Dipole field         -0.0013 Ry au
 
        Potential amp.        0.1210 Ry
        Total length         45.5283 bohr
 

     total cpu time spent up to now is     1198.3 secs

     total energy              =   -1449.76788906 Ry
     Harris-Foulkes estimate   =   -1449.76792454 Ry
     estimated scf accuracy    <       0.00077983 Ry

     iteration # 34     ecut=    36.75 Ry     beta=0.30
     Davidson diagonalization with overlap
     ethr =  5.27E-07,  avg # of iterations =  4.8

     negative rho (up, down):  8.108E-03 0.000E+00
 
     Adding external electric field

     Computed dipole along edir(3) : 
        Dipole               -0.5057 Ry au,         -1.2854 Debye
        Dipole field         -0.0013 Ry au
 
        Potential amp.        0.1204 Ry
        Total length         45.5283 bohr
 

     total cpu time spent up to now is     1229.7 secs

     total energy              =   -1449.76784359 Ry
     Harris-Foulkes estimate   =   -1449.76794433 Ry
     estimated scf accuracy    <       0.00129742 Ry

     iteration # 35     ecut=    36.75 Ry     beta=0.30
     Davidson diagonalization with overlap
     ethr =  5.27E-07,  avg # of iterations =  1.9

     negative rho (up, down):  8.342E-03 0.000E+00
 
     Adding external electric field

     Computed dipole along edir(3) : 
        Dipole               -0.4974 Ry au,         -1.2642 Debye
        Dipole field         -0.0013 Ry au
 
        Potential amp.        0.1184 Ry
        Total length         45.5283 bohr
 

     total cpu time spent up to now is     1256.8 secs

     total energy              =   -1449.76786853 Ry
     Harris-Foulkes estimate   =   -1449.76790208 Ry
     estimated scf accuracy    <       0.00042888 Ry

     iteration # 36     ecut=    36.75 Ry     beta=0.30
     Davidson diagonalization with overlap
     ethr =  2.90E-07,  avg # of iterations =  2.5

     negative rho (up, down):  8.515E-03 0.000E+00
 
     Adding external electric field

     Computed dipole along edir(3) : 
        Dipole               -0.4923 Ry au,         -1.2514 Debye
        Dipole field         -0.0013 Ry au
 
        Potential amp.        0.1172 Ry
        Total length         45.5283 bohr
 

     total cpu time spent up to now is     1283.7 secs

     total energy              =   -1449.76786937 Ry
     Harris-Foulkes estimate   =   -1449.76789307 Ry
     estimated scf accuracy    <       0.00026315 Ry

     iteration # 37     ecut=    36.75 Ry     beta=0.30
     Davidson diagonalization with overlap
     ethr =  1.78E-07,  avg # of iterations =  4.5

     negative rho (up, down):  8.498E-03 0.000E+00
 
     Adding external electric field

     Computed dipole along edir(3) : 
        Dipole               -0.4926 Ry au,         -1.2520 Debye
        Dipole field         -0.0013 Ry au
 
        Potential amp.        0.1173 Ry
        Total length         45.5283 bohr
 

     total cpu time spent up to now is     1319.3 secs

     total energy              =   -1449.76787940 Ry
     Harris-Foulkes estimate   =   -1449.76788310 Ry
     estimated scf accuracy    <       0.00015205 Ry

     iteration # 38     ecut=    36.75 Ry     beta=0.30
     Davidson diagonalization with overlap
     ethr =  1.03E-07,  avg # of iterations =  3.6

     negative rho (up, down):  8.446E-03 0.000E+00
 
     Adding external electric field

     Computed dipole along edir(3) : 
        Dipole               -0.4929 Ry au,         -1.2529 Debye
        Dipole field         -0.0013 Ry au
 
        Potential amp.        0.1174 Ry
        Total length         45.5283 bohr
 

     total cpu time spent up to now is     1349.2 secs

     total energy              =   -1449.76788249 Ry
     Harris-Foulkes estimate   =   -1449.76788429 Ry
     estimated scf accuracy    <       0.00002872 Ry

     iteration # 39     ecut=    36.75 Ry     beta=0.30
     Davidson diagonalization with overlap
     ethr =  1.94E-08,  avg # of iterations =  7.3

     negative rho (up, down):  8.501E-03 0.000E+00
 
     Adding external electric field

     Computed dipole along edir(3) : 
        Dipole               -0.4922 Ry au,         -1.2511 Debye
        Dipole field         -0.0013 Ry au
 
        Potential amp.        0.1172 Ry
        Total length         45.5283 bohr
 

     total cpu time spent up to now is     1396.6 secs

     total energy              =   -1449.76788555 Ry
     Harris-Foulkes estimate   =   -1449.76789244 Ry
     estimated scf accuracy    <       0.00006471 Ry

     iteration # 40     ecut=    36.75 Ry     beta=0.30
     Davidson diagonalization with overlap
     ethr =  1.94E-08,  avg # of iterations =  3.0

     negative rho (up, down):  8.523E-03 0.000E+00
 
     Adding external electric field

     Computed dipole along edir(3) : 
        Dipole               -0.4920 Ry au,         -1.2504 Debye
        Dipole field         -0.0013 Ry au
 
        Potential amp.        0.1171 Ry
        Total length         45.5283 bohr
 

     total cpu time spent up to now is     1427.2 secs

     total energy              =   -1449.76788564 Ry
     Harris-Foulkes estimate   =   -1449.76788785 Ry
     estimated scf accuracy    <       0.00001492 Ry

     iteration # 41     ecut=    36.75 Ry     beta=0.30
     Davidson diagonalization with overlap
     ethr =  1.01E-08,  avg # of iterations =  5.8

     negative rho (up, down):  8.459E-03 0.000E+00

     negative rho (up, down):  8.459E-03 0.000E+00

     negative rho (up, down):  8.459E-03 0.000E+00

     negative rho (up, down):  8.459E-03 0.000E+00

     negative rho (up, down):  8.459E-03 0.000E+00

     negative rho (up, down):  8.459E-03 0.000E+00

     negative rho (up, down):  8.459E-03 0.000E+00

     negative rho (up, down):  8.459E-03 0.000E+00

     negative rho (up, down):  8.459E-03 0.000E+00

     negative rho (up, down):  8.459E-03 0.000E+00

     negative rho (up, down):  8.459E-03 0.000E+00

     negative rho (up, down):  8.459E-03 0.000E+00

     negative rho (up, down):  8.459E-03 0.000E+00

     negative rho (up, down):  8.459E-03 0.000E+00

     negative rho (up, down):  8.459E-03 0.000E+00

     negative rho (up, down):  8.459E-03 0.000E+00

     negative rho (up, down):  8.459E-03 0.000E+00

     negative rho (up, down):  8.459E-03 0.000E+00

     negative rho (up, down):  8.459E-03 0.000E+00

     negative rho (up, down):  8.459E-03 0.000E+00

     negative rho (up, down):  8.459E-03 0.000E+00

     negative rho (up, down):  8.459E-03 0.000E+00

     negative rho (up, down):  8.459E-03 0.000E+00

     negative rho (up, down):  8.459E-03 0.000E+00

     negative rho (up, down):  8.459E-03 0.000E+00

     negative rho (up, down):  8.459E-03 0.000E+00

     negative rho (up, down):  8.459E-03 0.000E+00

     negative rho (up, down):  8.459E-03 0.000E+00

     negative rho (up, down):  8.459E-03 0.000E+00

     negative rho (up, down):  8.459E-03 0.000E+00

     negative rho (up, down):  8.459E-03 0.000E+00

     negative rho (up, down):  8.459E-03 0.000E+00

     negative rho (up, down):  8.459E-03 0.000E+00

     negative rho (up, down):  8.459E-03 0.000E+00

     negative rho (up, down):  8.459E-03 0.000E+00
 
     Adding external electric field

     Computed dipole along edir(3) : 
        Dipole               -0.4906 Ry au,         -1.2470 Debye
        Dipole field         -0.0013 Ry au
 
        Potential amp.        0.1168 Ry
        Total length         45.5283 bohr
 

     total cpu time spent up to now is     1533.6 secs

     End of self-consistent calculation

          k = 0.0000 0.0000 0.0000 ( 18103 PWs)   bands (ev):

   -56.8084 -56.7513 -56.7250 -56.6856 -56.6845 -56.6601 -56.6596 -56.6582
   -56.5591 -56.4845 -56.4838 -56.4744 -33.2546 -33.2541 -33.2343 -33.2089
   -33.1964 -33.1958 -33.1868 -33.1363 -33.1136 -33.1131 -33.0397 -32.9706
   -32.9367 -32.9355 -32.8525 -32.8474 -32.8468 -32.8150 -32.8147 -32.8121
   -32.7807 -32.7800 -32.7798 -32.6838 -32.6837 -32.6745 -32.6742 -32.6736
   -32.6532 -32.6532 -32.6503 -32.5870 -32.5791 -32.5788 -32.4684 -32.4684
    -7.8528  -5.1828  -3.8142  -2.6202  -2.0745  -2.0744  -2.0568  -1.9513
    -1.9512  -1.9408  -1.5332  -1.5330  -1.5208  -1.2874  -1.2823  -1.2822
    -0.6904  -0.6632  -0.6629   0.0514   0.1622   0.1798   0.1799   0.4687
     0.5484   0.5484   0.6935   0.7620   0.8730   1.0256   1.0258   1.0715
     1.0717   1.2208   1.2210   1.2365

          k = 0.0000 0.0334 0.0000 ( 18134 PWs)   bands (ev):

   -56.8038 -56.7454 -56.7255 -56.6894 -56.6846 -56.6656 -56.6601 -56.6585
   -56.5539 -56.4879 -56.4844 -56.4756 -33.2353 -33.2270 -33.2116 -33.1954
   -33.1770 -33.1716 -33.1585 -33.1233 -33.0986 -33.0954 -33.0352 -32.9760
   -32.9499 -32.9417 -32.8469 -32.8426 -32.8396 -32.8324 -32.8289 -32.8068
   -32.8038 -32.8029 -32.7719 -32.7240 -32.6987 -32.6908 -32.6714 -32.6711
   -32.6661 -32.6618 -32.6373 -32.6035 -32.5978 -32.5737 -32.5025 -32.4761
    -7.8438  -4.9899  -3.6318  -2.4410  -2.2197  -1.9894  -1.9891  -1.9753
    -1.8508  -1.8411  -1.4158  -1.3673  -1.3574  -1.1982  -1.1856  -1.1828
    -0.6501  -0.6296  -0.6141  -0.0016   0.0613   0.1408   0.1572   0.3749
     0.5028   0.5487   0.6107   0.6886   0.7851   0.8977   0.8997   0.9256
     1.0525   1.1267   1.1360   1.1489

          k = 0.0000 0.0667 0.0000 ( 18080 PWs)   bands (ev):

   -56.7933 -56.7308 -56.7259 -56.6978 -56.6847 -56.6824 -56.6601 -56.6585
   -56.5399 -56.5011 -56.4844 -56.4765 -33.1890 -33.1821 -33.1664 -33.1325
   -33.1300 -33.1234 -33.0945 -33.0682 -33.0656 -33.0556 -33.0223 -32.9907
   -32.9731 -32.9589 -32.8919 -32.8812 -32.8615 -32.8563 -32.8285 -32.8135
   -32.8133 -32.7980 -32.7886 -32.7847 -32.7491 -32.7120 -32.6854 -32.6729
   -32.6650 -32.6577 -32.6418 -32.6417 -32.6346 -32.5923 -32.5534 -32.4969
    -7.8260  -4.4410  -3.1310  -2.7990  -2.0650  -1.9560  -1.7946  -1.7876
    -1.5831  -1.5707  -1.2587  -0.9582  -0.9581  -0.9370  -0.9138  -0.9110
    -0.5504  -0.5482  -0.4675  -0.1878  -0.0979  -0.0397  -0.0260   0.1210
     0.2193   0.3315   0.3412   0.4082   0.5994   0.6559   0.6776   0.6965
     0.7546   0.7602   0.7912   0.9481

          k = 0.0000-0.1001 0.0000 ( 18044 PWs)   bands (ev):

   -56.7868 -56.7307 -56.7065 -56.7050 -56.7014 -56.6847 -56.6601 -56.6586
   -56.5234 -56.5174 -56.4844 -56.4767 -33.1637 -33.1584 -33.1344 -33.1042
   -33.0996 -33.0868 -33.0642 -33.0426 -33.0301 -33.0059 -32.9971 -32.9765
   -32.9733 -32.9521 -32.9296 -32.9256 -32.9106 -32.9041 -32.8920 -32.8861
   -32.7964 -32.7930 -32.7663 -32.7315 -32.7179 -32.7159 -32.7081 -32.7026
   -32.6940 -32.6794 -32.6575 -32.6513 -32.6470 -32.6372 -32.5260 -32.5245
    -7.8174  -3.6505  -3.6289  -2.5198  -2.4512  -1.6706  -1.6652  -1.4410
    -1.4055  -1.3947  -1.3890  -0.7147  -0.6956  -0.6608  -0.6595  -0.5885
    -0.5618  -0.3838  -0.3702  -0.3485  -0.1873  -0.1781  -0.1397  -0.0479
    -0.0316   0.0037   0.1186   0.2315   0.2501   0.2671   0.3753   0.5233
     0.5395   0.7471   0.7914   0.8380

          k = 0.0289-0.0167 0.0000 ( 18134 PWs)   bands (ev):

   -56.8038 -56.7454 -56.7256 -56.6892 -56.6848 -56.6656 -56.6598 -56.6587
   -56.5539 -56.4883 -56.4839 -56.4757 -33.2352 -33.2272 -33.2116 -33.1954
   -33.1768 -33.1718 -33.1585 -33.1232 -33.0989 -33.0952 -33.0352 -32.9761
   -32.9496 -32.9419 -32.8467 -32.8427 -32.8397 -32.8326 -32.8288 -32.8067
   -32.8037 -32.8029 -32.7719 -32.7240 -32.6987 -32.6908 -32.6716 -32.6709
   -32.6661 -32.6618 -32.6372 -32.6033 -32.5981 -32.5736 -32.5026 -32.4761
    -7.8438  -4.9899  -3.6318  -2.4410  -2.2197  -1.9894  -1.9891  -1.9753
    -1.8508  -1.8411  -1.4158  -1.3673  -1.3574  -1.1982  -1.1855  -1.1828
    -0.6501  -0.6296  -0.6142  -0.0015   0.0613   0.1408   0.1572   0.3749
     0.5028   0.5487   0.6107   0.6886   0.7851   0.8977   0.8998   0.9256
     1.0525   1.1268   1.1360   1.1488

          k = 0.0289 0.0167 0.0000 ( 18134 PWs)   bands (ev):

   -56.8038 -56.7454 -56.7257 -56.6883 -56.6855 -56.6656 -56.6596 -56.6588
   -56.5539 -56.4882 -56.4841 -56.4756 -33.2349 -33.2275 -33.2116 -33.1954
   -33.1765 -33.1722 -33.1585 -33.1232 -33.0991 -33.0950 -33.0352 -32.9764
   -32.9487 -32.9426 -32.8465 -32.8425 -32.8401 -32.8329 -32.8286 -32.8067
   -32.8032 -32.8032 -32.7718 -32.7239 -32.6987 -32.6909 -32.6715 -32.6711
   -32.6661 -32.6618 -32.6372 -32.6034 -32.5980 -32.5737 -32.5025 -32.4761
    -7.8438  -4.9899  -3.6318  -2.4410  -2.2197  -1.9895  -1.9890  -1.9753
    -1.8507  -1.8411  -1.4158  -1.3672  -1.3575  -1.1982  -1.1855  -1.1828
    -0.6502  -0.6294  -0.6143  -0.0015   0.0613   0.1408   0.1572   0.3748
     0.5029   0.5487   0.6107   0.6887   0.7852   0.8977   0.8996   0.9256
     1.0526   1.1266   1.1360   1.1487

          k = 0.0289 0.0500 0.0000 ( 18091 PWs)   bands (ev):

   -56.7962 -56.7346 -56.7263 -56.6964 -56.6842 -56.6714 -56.6704 -56.6539
   -56.5443 -56.4936 -56.4893 -56.4746 -33.2045 -33.1870 -33.1735 -33.1603
   -33.1487 -33.1176 -33.1120 -33.0996 -33.0739 -33.0680 -33.0265 -32.9866
   -32.9708 -32.9507 -32.9002 -32.8723 -32.8325 -32.8257 -32.8200 -32.8159
   -32.8129 -32.7848 -32.7827 -32.7819 -32.7630 -32.7084 -32.6813 -32.6696
   -32.6664 -32.6588 -32.6538 -32.6344 -32.5867 -32.5813 -32.5617 -32.4926
    -7.8304  -4.6178  -3.2873  -2.3429  -2.3381  -2.1063  -1.8871  -1.8792
    -1.6846  -1.4770  -1.1979  -1.1752  -1.0719  -1.0238  -1.0198  -0.9843
    -0.5874  -0.5647  -0.5199  -0.1145  -0.0899   0.0590   0.0781   0.1467
     0.3185   0.3960   0.4543   0.4902   0.6200   0.7098   0.7230   0.7631
     0.8443   0.8598   0.9728   0.9940

          k = 0.0289-0.1168 0.0000 ( 18031 PWs)   bands (ev):

   -56.7872 -56.7279 -56.7137 -56.7066 -56.6909 -56.6827 -56.6740 -56.6508
   -56.5279 -56.5080 -56.4933 -56.4727 -33.1651 -33.1529 -33.1220 -33.1061
   -33.0955 -33.0718 -33.0627 -33.0425 -33.0362 -33.0150 -33.0092 -32.9970
   -32.9859 -32.9794 -32.9545 -32.9409 -32.9034 -32.8740 -32.8465 -32.8244
   -32.8043 -32.7904 -32.7743 -32.7636 -32.7411 -32.7369 -32.7190 -32.7167
   -32.6692 -32.6610 -32.6532 -32.6475 -32.6364 -32.6095 -32.5555 -32.5222
    -7.8175  -3.9338  -3.0852  -2.6917  -2.3626  -2.1081  -1.6838  -1.5482
    -1.3345  -1.1594  -1.1311  -0.8103  -0.7823  -0.7337  -0.6999  -0.6877
    -0.5103  -0.4482  -0.3692  -0.2911  -0.2307  -0.1814  -0.0797  -0.0499
    -0.0337  -0.0021   0.1286   0.2187   0.3006   0.3842   0.4467   0.4690
     0.5028   0.5294   0.7403   0.8404

          k = 0.0289-0.0834 0.0000 ( 18031 PWs)   bands (ev):

   -56.7872 -56.7277 -56.7137 -56.7069 -56.6909 -56.6826 -56.6740 -56.6508
   -56.5279 -56.5081 -56.4933 -56.4727 -33.1651 -33.1530 -33.1220 -33.1062
   -33.0954 -33.0719 -33.0627 -33.0425 -33.0363 -33.0150 -33.0091 -32.9969
   -32.9856 -32.9798 -32.9541 -32.9408 -32.9039 -32.8741 -32.8465 -32.8244
   -32.8042 -32.7905 -32.7743 -32.7636 -32.7411 -32.7369 -32.7191 -32.7167
   -32.6691 -32.6611 -32.6531 -32.6475 -32.6364 -32.6095 -32.5555 -32.5222
    -7.8175  -3.9338  -3.0852  -2.6917  -2.3626  -2.1081  -1.6838  -1.5482
    -1.3345  -1.1594  -1.1311  -0.8103  -0.7823  -0.7338  -0.6999  -0.6877
    -0.5103  -0.4482  -0.3692  -0.2911  -0.2307  -0.1814  -0.0797  -0.0499
    -0.0337  -0.0021   0.1286   0.2188   0.3006   0.3843   0.4468   0.4689
     0.5027   0.5294   0.7402   0.8405

          k = 0.0289-0.0500 0.0000 ( 18091 PWs)   bands (ev):

   -56.7962 -56.7345 -56.7260 -56.6971 -56.6838 -56.6712 -56.6706 -56.6539
   -56.5443 -56.4939 -56.4890 -56.4746 -33.2046 -33.1870 -33.1734 -33.1603
   -33.1487 -33.1174 -33.1121 -33.0996 -33.0736 -33.0683 -33.0266 -32.9862
   -32.9714 -32.9505 -32.9000 -32.8723 -32.8325 -32.8259 -32.8200 -32.8158
   -32.8131 -32.7848 -32.7826 -32.7821 -32.7630 -32.7083 -32.6813 -32.6695
   -32.6665 -32.6588 -32.6538 -32.6344 -32.5867 -32.5812 -32.5617 -32.4926
    -7.8304  -4.6178  -3.2873  -2.3429  -2.3381  -2.1063  -1.8870  -1.8793
    -1.6846  -1.4770  -1.1979  -1.1752  -1.0718  -1.0238  -1.0198  -0.9843
    -0.5874  -0.5648  -0.5198  -0.1145  -0.0900   0.0591   0.0781   0.1466
     0.3184   0.3960   0.4542   0.4902   0.6200   0.7098   0.7231   0.7630
     0.8443   0.8597   0.9729   0.9939

          k = 0.0578-0.0334 0.0000 ( 18080 PWs)   bands (ev):

   -56.7932 -56.7309 -56.7259 -56.6975 -56.6849 -56.6824 -56.6598 -56.6588
   -56.5399 -56.5013 -56.4839 -56.4768 -33.1888 -33.1821 -33.1666 -33.1326
   -33.1298 -33.1236 -33.0944 -33.0681 -33.0658 -33.0554 -33.0223 -32.9908
   -32.9728 -32.9590 -32.8918 -32.8813 -32.8614 -32.8565 -32.8283 -32.8136
   -32.8134 -32.7980 -32.7886 -32.7846 -32.7491 -32.7121 -32.6854 -32.6725
   -32.6656 -32.6576 -32.6419 -32.6415 -32.6347 -32.5923 -32.5534 -32.4969
    -7.8260  -4.4410  -3.1310  -2.7990  -2.0650  -1.9560  -1.7945  -1.7876
    -1.5832  -1.5706  -1.2587  -0.9582  -0.9581  -0.9369  -0.9137  -0.9111
    -0.5505  -0.5481  -0.4675  -0.1878  -0.0979  -0.0397  -0.0261   0.1210
     0.2192   0.3315   0.3412   0.4082   0.5993   0.6559   0.6777   0.6965
     0.7546   0.7602   0.7912   0.9482

          k = 0.0578-0.0000 0.0000 ( 18091 PWs)   bands (ev):

   -56.7962 -56.7346 -56.7264 -56.6962 -56.6843 -56.6717 -56.6702 -56.6539
   -56.5443 -56.4942 -56.4887 -56.4747 -33.2044 -33.1870 -33.1736 -33.1603
   -33.1486 -33.1176 -33.1120 -33.0995 -33.0742 -33.0678 -33.0265 -32.9867
   -32.9706 -32.9507 -32.9003 -32.8723 -32.8324 -32.8256 -32.8201 -32.8159
   -32.8128 -32.7848 -32.7827 -32.7819 -32.7630 -32.7084 -32.6813 -32.6696
   -32.6666 -32.6585 -32.6539 -32.6344 -32.5868 -32.5811 -32.5617 -32.4926
    -7.8304  -4.6178  -3.2873  -2.3429  -2.3382  -2.1063  -1.8871  -1.8792
    -1.6846  -1.4770  -1.1979  -1.1753  -1.0719  -1.0238  -1.0198  -0.9843
    -0.5874  -0.5646  -0.5200  -0.1145  -0.0899   0.0590   0.0781   0.1467
     0.3185   0.3960   0.4543   0.4902   0.6201   0.7098   0.7229   0.7631
     0.8443   0.8598   0.9728   0.9939

          k = 0.0578 0.0334 0.0000 ( 18080 PWs)   bands (ev):

   -56.7932 -56.7311 -56.7262 -56.6964 -56.6856 -56.6824 -56.6597 -56.6589
   -56.5399 -56.5012 -56.4841 -56.4767 -33.1884 -33.1822 -33.1669 -33.1328
   -33.1293 -33.1239 -33.0944 -33.0680 -33.0661 -33.0553 -33.0223 -32.9913
   -32.9718 -32.9597 -32.8915 -32.8819 -32.8608 -32.8572 -32.8280 -32.8139
   -32.8131 -32.7979 -32.7886 -32.7843 -32.7490 -32.7123 -32.6854 -32.6727
   -32.6653 -32.6577 -32.6418 -32.6416 -32.6346 -32.5923 -32.5534 -32.4969
    -7.8260  -4.4410  -3.1310  -2.7990  -2.0650  -1.9560  -1.7944  -1.7877
    -1.5831  -1.5707  -1.2588  -0.9582  -0.9579  -0.9370  -0.9138  -0.9111
    -0.5506  -0.5479  -0.4676  -0.1878  -0.0978  -0.0397  -0.0262   0.1210
     0.2192   0.3315   0.3413   0.4084   0.5992   0.6559   0.6777   0.6965
     0.7544   0.7602   0.7912   0.9482

          k = 0.0578-0.1334 0.0000 ( 18031 PWs)   bands (ev):

   -56.7871 -56.7285 -56.7137 -56.7057 -56.6909 -56.6830 -56.6740 -56.6508
   -56.5279 -56.5082 -56.4932 -56.4727 -33.1650 -33.1526 -33.1223 -33.1063
   -33.0953 -33.0717 -33.0627 -33.0430 -33.0359 -33.0151 -33.0092 -32.9965
   -32.9860 -32.9800 -32.9541 -32.9408 -32.9037 -32.8741 -32.8464 -32.8243
   -32.8044 -32.7899 -32.7743 -32.7635 -32.7413 -32.7371 -32.7190 -32.7167
   -32.6692 -32.6611 -32.6532 -32.6473 -32.6365 -32.6094 -32.5555 -32.5222
    -7.8175  -3.9338  -3.0852  -2.6917  -2.3626  -2.1081  -1.6838  -1.5482
    -1.3345  -1.1594  -1.1311  -0.8103  -0.7823  -0.7338  -0.6999  -0.6877
    -0.5102  -0.4482  -0.3692  -0.2911  -0.2308  -0.1814  -0.0796  -0.0499
    -0.0337  -0.0023   0.1286   0.2188   0.3006   0.3844   0.4467   0.4688
     0.5028   0.5294   0.7403   0.8404

          k = 0.0578-0.1001 0.0000 ( 18066 PWs)   bands (ev):

   -56.7841 -56.7202 -56.7190 -56.6947 -56.6943 -56.6929 -56.6810 -56.6477
   -56.5138 -56.5130 -56.5048 -56.4704 -33.1568 -33.1000 -33.0944 -33.0938
   -33.0614 -33.0533 -33.0401 -33.0379 -33.0239 -33.0143 -32.9922 -32.9917
   -32.9849 -32.9754 -32.9727 -32.9666 -32.9625 -32.9613 -32.8082 -32.8067
   -32.7912 -32.7752 -32.7715 -32.7694 -32.7680 -32.7635 -32.7183 -32.7180
   -32.7154 -32.6723 -32.6501 -32.6453 -32.6392 -32.5668 -32.5663 -32.5634
    -7.8133  -3.1884  -3.1809  -3.1691  -2.1227  -2.1156  -2.0674  -1.0164
    -1.0070  -0.9857  -0.9849  -0.9749  -0.9001  -0.5932  -0.5451  -0.4938
    -0.4194  -0.4058  -0.3798  -0.3661  -0.3316  -0.3031  -0.2916  -0.2804
     0.0044   0.0230   0.0499   0.1107   0.1487   0.1776   0.2401   0.2985
     0.3763   0.4027   0.5531   0.8273

          k = 0.0578-0.0667 0.0000 ( 18031 PWs)   bands (ev):

   -56.7872 -56.7279 -56.7137 -56.7066 -56.6909 -56.6827 -56.6740 -56.6508
   -56.5279 -56.5083 -56.4930 -56.4727 -33.1650 -33.1529 -33.1221 -33.1063
   -33.0954 -33.0718 -33.0627 -33.0427 -33.0361 -33.0151 -33.0091 -32.9967
   -32.9856 -32.9799 -32.9540 -32.9407 -32.9040 -32.8741 -32.8464 -32.8243
   -32.8043 -32.7903 -32.7743 -32.7636 -32.7412 -32.7369 -32.7190 -32.7167
   -32.6692 -32.6611 -32.6532 -32.6472 -32.6365 -32.6094 -32.5554 -32.5222
    -7.8175  -3.9338  -3.0852  -2.6917  -2.3626  -2.1081  -1.6838  -1.5482
    -1.3345  -1.1594  -1.1311  -0.8104  -0.7823  -0.7338  -0.6998  -0.6877
    -0.5103  -0.4483  -0.3692  -0.2911  -0.2307  -0.1814  -0.0796  -0.0499
    -0.0337  -0.0022   0.1286   0.2188   0.3006   0.3843   0.4468   0.4689
     0.5027   0.5294   0.7403   0.8405

          k =-0.0867 0.0500 0.0000 ( 18044 PWs)   bands (ev):

   -56.7868 -56.7309 -56.7063 -56.7051 -56.7010 -56.6849 -56.6599 -56.6588
   -56.5229 -56.5181 -56.4839 -56.4771 -33.1637 -33.1582 -33.1345 -33.1045
   -33.0994 -33.0870 -33.0640 -33.0429 -33.0300 -33.0059 -32.9969 -32.9766
   -32.9733 -32.9523 -32.9296 -32.9257 -32.9108 -32.9038 -32.8917 -32.8863
   -32.7960 -32.7934 -32.7661 -32.7317 -32.7177 -32.7161 -32.7079 -32.7029
   -32.6934 -32.6800 -32.6580 -32.6509 -32.6466 -32.6373 -32.5255 -32.5250
    -7.8174  -3.6504  -3.6290  -2.5198  -2.4512  -1.6706  -1.6653  -1.4409
    -1.4057  -1.3948  -1.3889  -0.7148  -0.6955  -0.6607  -0.6595  -0.5885
    -0.5619  -0.3838  -0.3702  -0.3485  -0.1871  -0.1782  -0.1397  -0.0479
    -0.0317   0.0037   0.1186   0.2314   0.2501   0.2671   0.3753   0.5233
     0.5394   0.7472   0.7914   0.8379

          k =-0.0867 0.0834 0.0000 ( 18031 PWs)   bands (ev):

   -56.7872 -56.7281 -56.7137 -56.7062 -56.6909 -56.6828 -56.6740 -56.6508
   -56.5278 -56.5084 -56.4929 -56.4728 -33.1650 -33.1528 -33.1221 -33.1061
   -33.0955 -33.0717 -33.0627 -33.0427 -33.0361 -33.0150 -33.0092 -32.9969
   -32.9860 -32.9794 -32.9545 -32.9409 -32.9034 -32.8740 -32.8465 -32.8243
   -32.8043 -32.7903 -32.7744 -32.7636 -32.7412 -32.7369 -32.7191 -32.7166
   -32.6692 -32.6611 -32.6531 -32.6474 -32.6365 -32.6095 -32.5554 -32.5222
    -7.8175  -3.9338  -3.0852  -2.6917  -2.3626  -2.1081  -1.6838  -1.5482
    -1.3345  -1.1594  -1.1311  -0.8103  -0.7823  -0.7338  -0.6998  -0.6877
    -0.5103  -0.4482  -0.3692  -0.2912  -0.2307  -0.1814  -0.0797  -0.0498
    -0.0337  -0.0022   0.1286   0.2188   0.3006   0.3842   0.4467   0.4690
     0.5028   0.5294   0.7403   0.8404

          k =-0.0867 0.1168 0.0000 ( 18031 PWs)   bands (ev):

   -56.7871 -56.7285 -56.7137 -56.7056 -56.6909 -56.6831 -56.6740 -56.6508
   -56.5279 -56.5083 -56.4931 -56.4727 -33.1650 -33.1526 -33.1223 -33.1063
   -33.0953 -33.0717 -33.0627 -33.0430 -33.0359 -33.0151 -33.0092 -32.9965
   -32.9861 -32.9799 -32.9543 -32.9408 -32.9036 -32.8741 -32.8464 -32.8243
   -32.8043 -32.7900 -32.7744 -32.7635 -32.7413 -32.7371 -32.7191 -32.7166
   -32.6692 -32.6612 -32.6529 -32.6475 -32.6365 -32.6095 -32.5555 -32.5222
    -7.8175  -3.9338  -3.0852  -2.6917  -2.3626  -2.1081  -1.6838  -1.5482
    -1.3345  -1.1594  -1.1311  -0.8103  -0.7823  -0.7338  -0.6998  -0.6877
    -0.5102  -0.4482  -0.3692  -0.2912  -0.2308  -0.1814  -0.0797  -0.0498
    -0.0337  -0.0022   0.1286   0.2188   0.3006   0.3843   0.4467   0.4688
     0.5028   0.5293   0.7403   0.8404

          k =-0.0867-0.0500 0.0000 ( 18044 PWs)   bands (ev):

   -56.7867 -56.7315 -56.7062 -56.7051 -56.6999 -56.6856 -56.6597 -56.6590
   -56.5231 -56.5178 -56.4841 -56.4769 -33.1637 -33.1576 -33.1350 -33.1048
   -33.0987 -33.0874 -33.0638 -33.0432 -33.0299 -33.0060 -32.9962 -32.9773
   -32.9732 -32.9528 -32.9293 -32.9262 -32.9115 -32.9028 -32.8907 -32.8872
   -32.7958 -32.7936 -32.7654 -32.7323 -32.7174 -32.7164 -32.7079 -32.7027
   -32.6936 -32.6798 -32.6578 -32.6512 -32.6467 -32.6373 -32.5257 -32.5248
    -7.8174  -3.6504  -3.6291  -2.5198  -2.4512  -1.6705  -1.6654  -1.4409
    -1.4055  -1.3948  -1.3889  -0.7147  -0.6955  -0.6605  -0.6597  -0.5885
    -0.5619  -0.3837  -0.3701  -0.3486  -0.1868  -0.1785  -0.1397  -0.0480
    -0.0318   0.0038   0.1186   0.2315   0.2499   0.2674   0.3753   0.5233
     0.5393   0.7472   0.7913   0.8379

     the Fermi energy is     0.2496 ev

!    total energy              =   -1449.76788182 Ry
     Harris-Foulkes estimate   =   -1449.76789146 Ry
     estimated scf accuracy    <       0.00000715 Ry

     The total energy is the sum of the following terms:

     one-electron contribution =  -10976.22833019 Ry
     hartree contribution      =    5472.35482992 Ry
     xc contribution           =    -227.98969285 Ry
     ewald contribution        =    4282.22894126 Ry
     electric field correction =       0.00062933 Ry
     smearing contrib. (-TS)   =      -0.13425930 Ry

     convergence has been achieved in  41 iterations
 
 BEEF-vdW xc energy contributions
           1 :   -195.883715461766     
           2 :    174.944808410329     
           3 :   -140.662414330195     
           4 :    104.008167998161     
           5 :   -73.9358104756627     
           6 :    53.9290044770256     
           7 :   -42.0293921808776     
           8 :    33.6111038768417     
           9 :   -24.7780647883779     
          10 :    14.3256332810317     
          11 :   -3.53638639344422     
          12 :   -5.49390972773477     
          13 :    11.5842711542771     
          14 :   -15.1385221524475     
          15 :    17.5406842952785     
          16 :   -19.9531419868025     
          17 :    22.4730635772658     
          18 :   -24.2113648632290     
          19 :    24.1176680334781     
          20 :   -21.8607416004861     
          21 :    18.0954629298026     
          22 :   -13.9790473492025     
          23 :    10.3718783333103     
          24 :   -7.35206607368005     
          25 :    4.36231039183713     
          26 :  -0.807743967525710     
          27 :   -3.39010815626784     
          28 :    7.68427895332434     
          29 :   -11.2730420108890     
          30 :    13.6294832970388     
          31 :   -20.8932798948031     
          32 :   -14.8739689177041     

     Forces acting on atoms (Ry/au):


     negative rho (up, down):  8.459E-03 0.000E+00
     atom    1 type  1   force =    -0.00024283   -0.00012130    0.00996930
     atom    2 type  1   force =     0.00024492   -0.00012856    0.01002356
     atom    3 type  1   force =    -0.00000428    0.00026905    0.01005161
     atom    4 type  1   force =     0.00000166   -0.00001654    0.01000850
     atom    5 type  1   force =    -0.00000111   -0.00021251   -0.00210690
     atom    6 type  1   force =     0.00000719    0.00000078   -0.00729288
     atom    7 type  1   force =     0.00018200    0.00010922   -0.00211686
     atom    8 type  1   force =    -0.00018170    0.00010637   -0.00212240
     atom    9 type  1   force =    -0.00000657    0.00001237    0.00639699
     atom   10 type  1   force =     0.00000705    0.03345039    0.03322129
     atom   11 type  1   force =     0.02895786   -0.01672638    0.03322779
     atom   12 type  1   force =    -0.02895094   -0.01673017    0.03326389
     atom   13 type  2   force =    -0.00001325   -0.00001273   -0.13252390

     Total force =     0.157293     Total SCF correction =     0.005546


     entering subroutine stress ...


     negative rho (up, down):  8.459E-03 0.000E+00
          total   stress  (Ry/bohr**3)                   (kbar)     P=  -13.04
  -0.00003913   0.00000000  -0.00000001         -5.76      0.00     -0.00
   0.00000000  -0.00003915  -0.00000002          0.00     -5.76     -0.00
  -0.00000001  -0.00000002  -0.00018768         -0.00     -0.00    -27.61

 !ASE

     Writing output data file calc.save
 
     init_run     :      9.08s CPU     15.35s WALL (       1 calls)
     electrons    :    905.57s CPU   1518.08s WALL (       1 calls)
     forces       :      3.71s CPU      4.76s WALL (       1 calls)
     stress       :      9.80s CPU     11.67s WALL (       1 calls)

     Called by init_run:
     wfcinit      :      6.53s CPU     11.44s WALL (       1 calls)
     potinit      :      1.22s CPU      2.19s WALL (       1 calls)

     Called by electrons:
     c_bands      :    712.86s CPU   1185.95s WALL (      41 calls)
     sum_band     :    100.26s CPU    170.86s WALL (      41 calls)
     v_of_rho     :     39.41s CPU     76.78s WALL (      42 calls)
     newd         :     20.22s CPU     21.06s WALL (      42 calls)
     mix_rho      :      1.70s CPU      3.30s WALL (      41 calls)
     vdW_energy   :      4.69s CPU      5.29s WALL (      78 calls)
     vdW_ffts     :     41.67s CPU     88.57s WALL (     158 calls)
     vdW_v        :      8.71s CPU     15.70s WALL (      78 calls)

     Called by c_bands:
     init_us_2    :      2.60s CPU      2.73s WALL (    1700 calls)
     cegterg      :    695.28s CPU   1165.52s WALL (     820 calls)

     Called by *egterg:
     h_psi        :    457.47s CPU    896.96s WALL (    4027 calls)
     s_psi        :     23.83s CPU     23.93s WALL (    4027 calls)
     g_psi        :      1.40s CPU      1.42s WALL (    3187 calls)
     cdiaghg      :    123.72s CPU    126.62s WALL (    4007 calls)

     Called by h_psi:
     add_vuspsi   :     24.39s CPU     24.46s WALL (    4027 calls)

     General routines
     calbec       :     43.31s CPU     55.48s WALL (    4887 calls)
     fft          :     64.12s CPU    137.09s WALL (    4875 calls)
     ffts         :      0.29s CPU      0.65s WALL (      83 calls)
     fftw         :    435.93s CPU    927.12s WALL (  430094 calls)
     interpolate  :      1.35s CPU      2.95s WALL (      83 calls)
     davcio       :      0.01s CPU      0.08s WALL (      20 calls)
 
     Parallel routines
     fft_scatter  :    421.85s CPU    981.62s WALL (  435052 calls)
 
     PWSCF        : 15m28.88s CPU    25m51.13s WALL

 
   This run was terminated on:  14: 6:47  21Jan2018            

=------------------------------------------------------------------------------=
   JOB DONE.
=------------------------------------------------------------------------------=
Job  /afs/slac/g/suncat/bin/suncat-tsmpirun -x LD_LIBRARY_PATH -wdir /scratch/qe870136_PRieM pw.x -in pw.inp

TID   HOST_NAME   COMMAND_LINE            STATUS            TERMINATION_TIME
===== ========== ================  =======================  ===================
00000 suncat1042 pw.x -in pw.inp   Done                     01/21/2018 14:06:47
00001 suncat1042 pw.x -in pw.inp   Done                     01/21/2018 14:06:47
00002 suncat1042 pw.x -in pw.inp   Done                     01/21/2018 14:06:47
00003 suncat1042 pw.x -in pw.inp   Done                     01/21/2018 14:06:47
00004 suncat1042 pw.x -in pw.inp   Done                     01/21/2018 14:06:47
00005 suncat1042 pw.x -in pw.inp   Done                     01/21/2018 14:06:47
00006 suncat1042 pw.x -in pw.inp   Done                     01/21/2018 14:06:47
00007 suncat1042 pw.x -in pw.inp   Done                     01/21/2018 14:06:47
00008 suncat1033 pw.x -in pw.inp   Done                     01/21/2018 14:06:47
00009 suncat1033 pw.x -in pw.inp   Done                     01/21/2018 14:06:47
00010 suncat1033 pw.x -in pw.inp   Done                     01/21/2018 14:06:47
00011 suncat1033 pw.x -in pw.inp   Done                     01/21/2018 14:06:47
00012 suncat1033 pw.x -in pw.inp   Done                     01/21/2018 14:06:47
00013 suncat1033 pw.x -in pw.inp   Done                     01/21/2018 14:06:47
00014 suncat1033 pw.x -in pw.inp   Done                     01/21/2018 14:06:47
00015 suncat1033 pw.x -in pw.inp   Done                     01/21/2018 14:06:47
00016 suncat1033 pw.x -in pw.inp   Done                     01/21/2018 14:06:47
00017 suncat1033 pw.x -in pw.inp   Done                     01/21/2018 14:06:47
00018 suncat1033 pw.x -in pw.inp   Done                     01/21/2018 14:06:47
00019 suncat1033 pw.x -in pw.inp   Done                     01/21/2018 14:06:47
00020 suncat1006 pw.x -in pw.inp   Done                     01/21/2018 14:06:47
00021 suncat1006 pw.x -in pw.inp   Done                     01/21/2018 14:06:47
00022 suncat1006 pw.x -in pw.inp   Done                     01/21/2018 14:06:47
00023 suncat1006 pw.x -in pw.inp   Done                     01/21/2018 14:06:47
00024 suncat1006 pw.x -in pw.inp   Done                     01/21/2018 14:06:47
00025 suncat1006 pw.x -in pw.inp   Done                     01/21/2018 14:06:47
00026 suncat1006 pw.x -in pw.inp   Done                     01/21/2018 14:06:47
00027 suncat1006 pw.x -in pw.inp   Done                     01/21/2018 14:06:47
00028 suncat1006 pw.x -in pw.inp   Done                     01/21/2018 14:06:47
00029 suncat1006 pw.x -in pw.inp   Done                     01/21/2018 14:06:47
00030 suncat1006 pw.x -in pw.inp   Done                     01/21/2018 14:06:47
00031 suncat1006 pw.x -in pw.inp   Done                     01/21/2018 14:06:47

     Program PWSCF v.5.1rc2 (svn rev. 11289) starts on 21Jan2018 at 14: 6:53 

     This program is part of the open-source Quantum ESPRESSO suite
     for quantum simulation of materials; please cite
         "P. Giannozzi et al., J. Phys.:Condens. Matter 21 395502 (2009);
          URL http://www.quantum-espresso.org", 
     in publications or presentations arising from this work. More details at
     http://www.quantum-espresso.org/quote

     Parallel version (MPI), running on    32 processors
     R & G space division:  proc/nbgrp/npool/nimage =      32
     Reading input from pw.inp
     Message from routine read_cards :
     DEPRECATED: no units specified in CELL_PARAMETERS card

     Current dimensions of program PWSCF are:
     Max number of different atomic species (ntypx) = 10
     Max number of k-points (npk) =  40000
     Max angular momentum in pseudopotentials (lmaxx) =  3
     Presently stress not available with electric field


     **************************************************************************
     Initializing libbeef V0.1.1 with the BEEF-vdW functional.
     Citation: Wellendorff et al., PRB 85, 235149 (2012).
     **************************************************************************


     IMPORTANT: XC functional enforced from input :
     Exchange-correlation      = BEEF-VDW ( 1  4 27 13 2)
     Any further DFT definition will be discarded
     Please, verify this is what you really want


     Subspace diagonalization in iterative solution of the eigenvalue problem:
     a serial algorithm will be used

 
     Parallelization info
     --------------------
     sticks:   dense  smooth     PW     G-vecs:    dense   smooth      PW
     Min          94      37     10                17854     4501     698
     Max          95      38     11                17874     4540     717
     Sum        3013    1201    349               571737   144541   22801
 


     bravais-lattice index     =            0
     lattice parameter (alat)  =       1.8897  a.u.
     unit-cell volume          =    4806.0858 (a.u.)^3
     number of atoms/cell      =           13
     number of atomic types    =            2
     number of electrons       =       148.00
     number of Kohn-Sham states=           84
     kinetic-energy cutoff     =      36.7493  Ry
     charge density cutoff     =     367.4932  Ry
     convergence threshold     =      1.0E-05
     mixing beta               =       0.3000
     number of iterations used =           10  plain     mixing
     Exchange-correlation      = BEEF-VDW ( 1  4 27 13 2)
     nstep                     =           50


     celldm(1)=   1.889726  celldm(2)=   0.000000  celldm(3)=   0.000000
     celldm(4)=   0.000000  celldm(5)=   0.000000  celldm(6)=   0.000000

     crystal axes: (cart. coord. in units of alat)
               a(1) = (   5.768903   0.000000   0.000000 )  
               a(2) = (   2.884451   4.996016   0.000000 )  
               a(3) = (   0.000000   0.000000  24.710289 )  

     reciprocal axes: (cart. coord. in units 2 pi/alat)
               b(1) = (  0.173343 -0.100080  0.000000 )  
               b(2) = (  0.000000  0.200159  0.000000 )  
               b(3) = (  0.000000  0.000000  0.040469 )  


     PseudoPot. # 1 for Ti read from file:
     /afs/slac.stanford.edu/u/if/mamunm/psp/gbrv1.5pbe/Ti.UPF
     MD5 check sum: 88a00a6731bd790ddea75d31a80cb452
     Pseudo is Ultrasoft + core correction, Zval = 12.0
     Generated by new atomic code, or converted to UPF format
     Using radial grid of  851 points,  6 beta functions with: 
                l(1) =   0
                l(2) =   0
                l(3) =   1
                l(4) =   1
                l(5) =   2
                l(6) =   2
     Q(r) pseudized with  6 coefficients,  rinner =    1.000   1.000   1.000
                                                       1.000   1.000

     PseudoPot. # 2 for C  read from file:
     /afs/slac.stanford.edu/u/if/mamunm/psp/gbrv1.5pbe/C.UPF
     MD5 check sum: d1aef80898a10debaa0f26306b886e00
     Pseudo is Ultrasoft + core correction, Zval =  4.0
     Generated by new atomic code, or converted to UPF format
     Using radial grid of  721 points,  4 beta functions with: 
                l(1) =   0
                l(2) =   0
                l(3) =   1
                l(4) =   1
     Q(r) pseudized with  8 coefficients,  rinner =    1.100   1.100   1.100


     vdW kernel table read from file vdW_kernel_table
     MD5 check sum: 095c7af220d748ca6e76c0b4c6cfb241

     atomic species   valence    mass     pseudopotential
        Ti1           12.00    47.86700     Ti( 1.00)
        C1             4.00    12.01100     C ( 1.00)

     No symmetry found



   Cartesian axes

     site n.     atom                  positions (alat units)
         1           Ti1 tau(   1) = (   1.4422257   0.8326694  10.0000000  )
         2           Ti1 tau(   2) = (   4.3266771   0.8326694  10.0000000  )
         3           Ti1 tau(   3) = (   2.8844514   3.3306776  10.0000000  )
         4           Ti1 tau(   4) = (   5.7689029   3.3306776  10.0000000  )
         5           Ti1 tau(   5) = (   5.7689029   1.6653388  12.3551447  )
         6           Ti1 tau(   6) = (   2.8844514   1.6653388  12.3551447  )
         7           Ti1 tau(   7) = (   7.2111286   4.1633470  12.3551447  )
         8           Ti1 tau(   8) = (   4.3266771   4.1633470  12.3551447  )
         9           Ti1 tau(   9) = (   5.7688860   0.0000318  14.7267368  )
        10           Ti1 tau(  10) = (   2.8844696   0.0860044  14.7957048  )
        11           Ti1 tau(  11) = (   1.5166794   2.4550030  14.7957215  )
        12           Ti1 tau(  12) = (   4.2522413   2.4549932  14.7958144  )
        13           C1  tau(  13) = (   2.8844174   1.6653061  16.7295568  )

     number of k points=    20  Fermi-Dirac smearing, width (Ry)=  0.0110
                       cart. coord. in units 2pi/alat
        k(    1) = (   0.0000000   0.0000000   0.0000000), wk =   0.0555556
        k(    2) = (   0.0000000   0.0333599   0.0000000), wk =   0.1111111
        k(    3) = (   0.0000000   0.0667198   0.0000000), wk =   0.1111111
        k(    4) = (   0.0000000  -0.1000797   0.0000000), wk =   0.0555556
        k(    5) = (   0.0288905  -0.0166800   0.0000000), wk =   0.1111111
        k(    6) = (   0.0288905   0.0166800   0.0000000), wk =   0.1111111
        k(    7) = (   0.0288905   0.0500399   0.0000000), wk =   0.1111111
        k(    8) = (   0.0288905  -0.1167597   0.0000000), wk =   0.1111111
        k(    9) = (   0.0288905  -0.0833998   0.0000000), wk =   0.1111111
        k(   10) = (   0.0288905  -0.0500399   0.0000000), wk =   0.1111111
        k(   11) = (   0.0577811  -0.0333599   0.0000000), wk =   0.1111111
        k(   12) = (   0.0577811  -0.0000000   0.0000000), wk =   0.1111111
        k(   13) = (   0.0577811   0.0333599   0.0000000), wk =   0.1111111
        k(   14) = (   0.0577811  -0.1334396   0.0000000), wk =   0.1111111
        k(   15) = (   0.0577811  -0.1000797   0.0000000), wk =   0.1111111
        k(   16) = (   0.0577811  -0.0667198   0.0000000), wk =   0.1111111
        k(   17) = (  -0.0866716   0.0500399   0.0000000), wk =   0.0555556
        k(   18) = (  -0.0866716   0.0833998   0.0000000), wk =   0.1111111
        k(   19) = (  -0.0866716   0.1167597   0.0000000), wk =   0.1111111
        k(   20) = (  -0.0866716  -0.0500399   0.0000000), wk =   0.0555556

     Dense  grid:   571737 G-vectors     FFT dimensions: (  72,  72, 288)

     Smooth grid:   144541 G-vectors     FFT dimensions: (  45,  45, 192)

     Largest allocated arrays     est. size (Mb)     dimensions
        Kohn-Sham Wavefunctions         0.73 Mb     (     570,   84)
        NL pseudopotentials             1.95 Mb     (     570,  224)
        Each V/rho on FFT grid          0.71 Mb     (   46656)
        Each G-vector array             0.14 Mb     (   17863)
        G-vector shells                 0.06 Mb     (    8292)
     Largest temporary arrays     est. size (Mb)     dimensions
        Auxiliary wavefunctions         2.92 Mb     (     570,  336)
        Each subspace H/S matrix        1.72 Mb     (     336,  336)
        Each <psi_i|beta_j> matrix      0.29 Mb     (     224,   84)
        Arrays for rho mixing           7.12 Mb     (   46656,   10)

     Check: negative/imaginary core charge=   -0.000006    0.000000

     Initial potential from superposition of free atoms
     Check: negative starting charge=   -0.014666

     starting charge  135.99943, renormalised to  148.00000

     negative rho (up, down):  1.596E-02 0.000E+00


     ************************************************************************
     *
     * You are using vdW-DF for exchange-correlation in this calculation.
     * Please cite the following three references that made this development
     * possible:
     *
     *   M. Dion, H. Rydberg, E. Schroder, D. C. Langreth, and
     *   B. I. Lundqvist, Phys. Rev. Lett. 92, 246401 (2004).
     *
     *   T. Thonhauser, V. R. Cooper, S. Li, A. Puzder, P. Hyldgaard, and
     *   D. C. Langreth, Phys. Rev. B 76, 125112 (2007).
     *
     *   G. Roman-Perez and J. M. Soler, Phys. Rev. Lett. 103, 096102 (2009).
     *
     *
     * If you are using vdW-DF2, please also cite:
     *
     *   K. Lee, E. D. Murray, L. Kong, B. I. Lundqvist, and
     *   D. C. Langreth, Phys. Rev. B 82, 081101(R) (2010).
     *
     *
     * If you are calculating the stress with vdW-DF, please also cite:
     *
     *   R. Sabatini, E. Kucukbenli, B. Kolb, T. Thonhauser, and
     *   S. de Gironcoli, J. Phys.: Condens. Matter 24, 424209 (2012).
     *
     ************************************************************************

     Carrying out vdW-DF run using the following parameters:

     Nqs =      20    Nr_points =    1024   r_max =   100.000
     q_mesh =
               0.00001000     0.04494208     0.09755937     0.15916263
               0.23128650     0.31572767     0.41458969     0.53033537
               0.66584808     0.82450364     1.01025438     1.22772762
               1.48234092     1.78043706     2.12944203     2.53805004
               3.01644009     3.57652955     4.23227104     5.00000000

     Gradients computed in reciprocal space

     ************************************************************************


 
     Adding external electric field

     Computed dipole along edir(3) : 
        Dipole               -2.9022 Ry au,         -7.3766 Debye
        Dipole field         -0.0076 Ry au
 
        Potential amp.        0.6910 Ry
        Total length         45.5283 bohr
 
     Starting wfc are  124 randomized atomic wfcs

     total cpu time spent up to now is       16.8 secs

     per-process dynamical memory:    45.3 Mb

     Self-consistent Calculation

     iteration #  1     ecut=    36.75 Ry     beta=0.30
     Davidson diagonalization with overlap
     ethr =  1.00E-02,  avg # of iterations =  6.2

     negative rho (up, down):  1.680E-02 0.000E+00
 
     Adding external electric field

     Computed dipole along edir(3) : 
        Dipole               40.0474 Ry au,        101.7903 Debye
        Dipole field          0.1047 Ry au
 
        Potential amp.       -9.5346 Ry
        Total length         45.5283 bohr
 

     total cpu time spent up to now is       64.4 secs

     total energy              =   -1355.22003223 Ry
     Harris-Foulkes estimate   =   -1451.62564353 Ry
     estimated scf accuracy    <     199.75140235 Ry

     iteration #  2     ecut=    36.75 Ry     beta=0.30
     Davidson diagonalization with overlap
     ethr =  1.00E-02,  avg # of iterations = 13.4

     negative rho (up, down):  1.656E-02 0.000E+00
 
     Adding external electric field

     Computed dipole along edir(3) : 
        Dipole               -3.0077 Ry au,         -7.6448 Debye
        Dipole field         -0.0079 Ry au
 
        Potential amp.        0.7161 Ry
        Total length         45.5283 bohr
 

     total cpu time spent up to now is      179.2 secs

     total energy              =   -1236.87169751 Ry
     Harris-Foulkes estimate   =   -1890.19540731 Ry
     estimated scf accuracy    <   10839.52452513 Ry

     iteration #  3     ecut=    36.75 Ry     beta=0.30
     Davidson diagonalization with overlap
     ethr =  1.00E-02,  avg # of iterations = 14.2

     negative rho (up, down):  1.345E-02 0.000E+00
 
     Adding external electric field

     Computed dipole along edir(3) : 
        Dipole               -0.5302 Ry au,         -1.3477 Debye
        Dipole field         -0.0014 Ry au
 
        Potential amp.        0.1262 Ry
        Total length         45.5283 bohr
 

     total cpu time spent up to now is      267.6 secs

     total energy              =   -1439.75836208 Ry
     Harris-Foulkes estimate   =   -1510.90650265 Ry
     estimated scf accuracy    <     921.16664603 Ry

     iteration #  4     ecut=    36.75 Ry     beta=0.30
     Davidson diagonalization with overlap
     ethr =  1.00E-02,  avg # of iterations =  5.1

[...]
     1.2654   1.3143   1.3670   1.3933

          k = 0.0289-0.1168 0.0000 ( 18031 PWs)   bands (ev):

   -56.3821 -56.3602 -56.3371 -56.3200 -56.2966 -56.2263 -56.1419 -56.1156
   -56.0966 -56.0907 -56.0729 -56.0571 -32.8038 -32.7612 -32.7386 -32.7202
   -32.6949 -32.6768 -32.6660 -32.6553 -32.6410 -32.6075 -32.5933 -32.5670
   -32.5505 -32.5291 -32.5223 -32.4933 -32.4568 -32.4435 -32.4113 -32.3982
   -32.3863 -32.3749 -32.3582 -32.3551 -32.3377 -32.3152 -32.2843 -32.2577
   -32.2391 -32.2307 -32.2224 -32.2066 -32.1936 -32.1861 -32.1411 -32.0945
    -8.4892  -3.5555  -2.8324  -2.4271  -2.1265  -1.9054  -1.6455  -1.4488
    -1.2402  -1.0588  -0.9531  -0.8247  -0.6236  -0.5574  -0.3926  -0.3510
    -0.3146  -0.2510  -0.0995   0.0324   0.0901   0.1861   0.2758   0.3193
     0.3350   0.3749   0.4671   0.6029   0.6511   0.7455   0.8017   0.8502
     0.9678   1.0575   1.1715   1.3406

          k = 0.0289-0.0834 0.0000 ( 18031 PWs)   bands (ev):

   -56.3821 -56.3602 -56.3371 -56.3200 -56.2966 -56.2263 -56.1419 -56.1157
   -56.0968 -56.0905 -56.0727 -56.0573 -32.8038 -32.7612 -32.7387 -32.7202
   -32.6949 -32.6768 -32.6660 -32.6553 -32.6410 -32.6075 -32.5934 -32.5670
   -32.5504 -32.5291 -32.5223 -32.4934 -32.4570 -32.4436 -32.4113 -32.3982
   -32.3863 -32.3749 -32.3582 -32.3551 -32.3375 -32.3151 -32.2842 -32.2577
   -32.2390 -32.2307 -32.2223 -32.2065 -32.1935 -32.1863 -32.1411 -32.0946
    -8.4892  -3.5555  -2.8324  -2.4271  -2.1265  -1.9052  -1.6456  -1.4490
    -1.2400  -1.0588  -0.9531  -0.8248  -0.6235  -0.5574  -0.3926  -0.3510
    -0.3146  -0.2510  -0.0994   0.0324   0.0901   0.1861   0.2758   0.3193
     0.3350   0.3748   0.4671   0.6030   0.6511   0.7456   0.8016   0.8501
     0.9678   1.0575   1.1714   1.3402

          k = 0.0289-0.0500 0.0000 ( 18091 PWs)   bands (ev):

   -56.3854 -56.3785 -56.3185 -56.3156 -56.2997 -56.2311 -56.1426 -56.1133
   -56.0984 -56.0915 -56.0650 -56.0571 -32.8225 -32.8100 -32.7829 -32.7721
   -32.7388 -32.7140 -32.6958 -32.6899 -32.6844 -32.6419 -32.6189 -32.5444
   -32.5370 -32.5303 -32.5067 -32.4428 -32.4295 -32.4272 -32.4057 -32.3961
   -32.3840 -32.3681 -32.3372 -32.3254 -32.3237 -32.2927 -32.2588 -32.2399
   -32.2308 -32.2253 -32.2105 -32.1921 -32.1726 -32.1453 -32.1204 -32.0760
    -8.5523  -4.1705  -2.8146  -2.2653  -2.1358  -1.8469  -1.8083  -1.6346
    -1.5388  -1.3187  -1.1906  -1.0195  -0.9399  -0.7093  -0.6846  -0.6278
    -0.4724  -0.4359  -0.1344   0.0212   0.1551   0.2130   0.4928   0.5847
     0.6462   0.7095   0.7539   0.9404   0.9531   1.0217   1.0886   1.1822
     1.2653   1.3144   1.3668   1.3934

          k = 0.0578-0.0334 0.0000 ( 18080 PWs)   bands (ev):

   -56.3839 -56.3740 -56.3288 -56.3065 -56.3040 -56.2296 -56.1428 -56.1135
   -56.0966 -56.0923 -56.0682 -56.0566 -32.8160 -32.7927 -32.7843 -32.7461
   -32.7236 -32.7055 -32.6886 -32.6806 -32.6677 -32.6365 -32.5990 -32.5467
   -32.5418 -32.5279 -32.4932 -32.4871 -32.4492 -32.4249 -32.4021 -32.3954
   -32.3784 -32.3711 -32.3421 -32.3363 -32.3301 -32.2936 -32.2764 -32.2345
   -32.2339 -32.2277 -32.2134 -32.2046 -32.1834 -32.1669 -32.1241 -32.0750
    -8.5313  -4.0097  -2.7928  -2.4559  -1.9891  -1.8492  -1.7399  -1.5186
    -1.3895  -1.3030  -1.1332  -1.0283  -0.8620  -0.6795  -0.5517  -0.5350
    -0.4480  -0.3813  -0.1153   0.0550   0.0996   0.1738   0.4214   0.5267
     0.5828   0.6116   0.6575   0.8833   0.9059   0.9747   0.9845   1.1207
     1.1377   1.2212   1.3039   1.3472

          k = 0.0578-0.0000 0.0000 ( 18091 PWs)   bands (ev):

   -56.3854 -56.3785 -56.3187 -56.3154 -56.2997 -56.2311 -56.1425 -56.1132
   -56.0986 -56.0914 -56.0657 -56.0565 -32.8225 -32.8100 -32.7829 -32.7720
   -32.7388 -32.7141 -32.6957 -32.6899 -32.6844 -32.6419 -32.6188 -32.5446
   -32.5368 -32.5303 -32.5068 -32.4427 -32.4295 -32.4272 -32.4056 -32.3961
   -32.3840 -32.3678 -32.3372 -32.3255 -32.3238 -32.2926 -32.2590 -32.2398
   -32.2309 -32.2254 -32.2105 -32.1922 -32.1727 -32.1454 -32.1202 -32.0757
    -8.5522  -4.1705  -2.8146  -2.2653  -2.1361  -1.8468  -1.8084  -1.6345
    -1.5389  -1.3187  -1.1905  -1.0194  -0.9400  -0.7093  -0.6847  -0.6278
    -0.4725  -0.4359  -0.1344   0.0210   0.1553   0.2131   0.4928   0.5847
     0.6461   0.7096   0.7539   0.9403   0.9532   1.0217   1.0886   1.1821
     1.2654   1.3145   1.3669   1.3934

          k = 0.0578 0.0334 0.0000 ( 18080 PWs)   bands (ev):

   -56.3840 -56.3740 -56.3287 -56.3067 -56.3037 -56.2296 -56.1427 -56.1133
   -56.0970 -56.0921 -56.0690 -56.0559 -32.8161 -32.7928 -32.7842 -32.7462
   -32.7235 -32.7057 -32.6887 -32.6805 -32.6676 -32.6363 -32.5989 -32.5467
   -32.5419 -32.5278 -32.4931 -32.4873 -32.4492 -32.4248 -32.4022 -32.3954
   -32.3785 -32.3707 -32.3422 -32.3358 -32.3300 -32.2937 -32.2763 -32.2349
   -32.2342 -32.2279 -32.2130 -32.2046 -32.1837 -32.1673 -32.1239 -32.0745
    -8.5313  -4.0097  -2.7928  -2.4560  -1.9889  -1.8498  -1.7398  -1.5187
    -1.3896  -1.3030  -1.1330  -1.0283  -0.8619  -0.6795  -0.5517  -0.5350
    -0.4482  -0.3811  -0.1152   0.0548   0.0998   0.1738   0.4213   0.5267
     0.5828   0.6116   0.6575   0.8833   0.9059   0.9748   0.9845   1.1207
     1.1377   1.2214   1.3041   1.3473

          k = 0.0578-0.1334 0.0000 ( 18031 PWs)   bands (ev):

   -56.3821 -56.3602 -56.3371 -56.3200 -56.2966 -56.2263 -56.1418 -56.1156
   -56.0965 -56.0907 -56.0734 -56.0567 -32.8038 -32.7612 -32.7387 -32.7202
   -32.6949 -32.6770 -32.6660 -32.6554 -32.6410 -32.6074 -32.5933 -32.5668
   -32.5505 -32.5289 -32.5224 -32.4932 -32.4569 -32.4435 -32.4113 -32.3982
   -32.3861 -32.3748 -32.3582 -32.3553 -32.3374 -32.3153 -32.2843 -32.2578
   -32.2392 -32.2308 -32.2227 -32.2064 -32.1937 -32.1864 -32.1409 -32.0941
    -8.4892  -3.5555  -2.8324  -2.4271  -2.1265  -1.9053  -1.6457  -1.4488
    -1.2402  -1.0588  -0.9532  -0.8247  -0.6235  -0.5575  -0.3927  -0.3510
    -0.3146  -0.2510  -0.0994   0.0323   0.0901   0.1860   0.2759   0.3193
     0.3350   0.3749   0.4672   0.6029   0.6511   0.7455   0.8017   0.8501
     0.9679   1.0575   1.1716   1.3402

          k = 0.0578-0.1001 0.0000 ( 18066 PWs)   bands (ev):

   -56.3814 -56.3427 -56.3410 -56.3369 -56.2936 -56.2246 -56.1402 -56.1188
   -56.0936 -56.0926 -56.0742 -56.0578 -32.7976 -32.7277 -32.7039 -32.6979
   -32.6856 -32.6780 -32.6476 -32.6323 -32.6161 -32.6158 -32.6155 -32.5905
   -32.5437 -32.5356 -32.5323 -32.4917 -32.4443 -32.4313 -32.4192 -32.4097
   -32.4002 -32.3944 -32.3704 -32.3661 -32.3405 -32.3289 -32.3113 -32.2453
   -32.2383 -32.2277 -32.2108 -32.2094 -32.1980 -32.1816 -32.1673 -32.1148
    -8.4680  -3.0270  -2.8444  -2.7467  -2.1809  -1.9816  -1.6699  -1.2663
    -1.1753  -0.9882  -0.6308  -0.6094  -0.5502  -0.5008  -0.4871  -0.2676
    -0.0885  -0.0571  -0.0334  -0.0205   0.0487   0.0489   0.0637   0.1341
     0.2474   0.2658   0.3879   0.4510   0.6114   0.6156   0.6354   0.7345
     0.7708   0.8852   1.1047   1.3136

          k = 0.0578-0.0667 0.0000 ( 18031 PWs)   bands (ev):

   -56.3821 -56.3602 -56.3372 -56.3199 -56.2966 -56.2263 -56.1419 -56.1157
   -56.0968 -56.0905 -56.0727 -56.0573 -32.8038 -32.7611 -32.7388 -32.7201
   -32.6950 -32.6768 -32.6659 -32.6555 -32.6410 -32.6075 -32.5932 -32.5670
   -32.5504 -32.5290 -32.5224 -32.4933 -32.4570 -32.4436 -32.4113 -32.3982
   -32.3863 -32.3749 -32.3582 -32.3552 -32.3376 -32.3151 -32.2841 -32.2577
   -32.2389 -32.2308 -32.2223 -32.2065 -32.1935 -32.1863 -32.1410 -32.0946
    -8.4892  -3.5555  -2.8324  -2.4272  -2.1264  -1.9052  -1.6455  -1.4491
    -1.2401  -1.0587  -0.9532  -0.8247  -0.6235  -0.5574  -0.3927  -0.3509
    -0.3146  -0.2511  -0.0994   0.0324   0.0901   0.1860   0.2759   0.3193
     0.3350   0.3750   0.4671   0.6031   0.6511   0.7455   0.8016   0.8500
     0.9677   1.0574   1.1713   1.3403

          k =-0.0867 0.0500 0.0000 ( 18044 PWs)   bands (ev):

   -56.3821 -56.3533 -56.3502 -56.3065 -56.3040 -56.2263 -56.1429 -56.1152
   -56.0929 -56.0923 -56.0750 -56.0566 -32.8031 -32.7629 -32.7519 -32.7248
   -32.6928 -32.6860 -32.6677 -32.6503 -32.6038 -32.5950 -32.5798 -32.5646
   -32.5628 -32.5499 -32.5061 -32.5005 -32.4969 -32.4370 -32.4148 -32.3804
   -32.3768 -32.3668 -32.3588 -32.3437 -32.3359 -32.3079 -32.2949 -32.2812
   -32.2504 -32.2270 -32.2248 -32.2138 -32.1983 -32.1896 -32.1292 -32.0835
    -8.4891  -3.3921  -3.1901  -2.4721  -1.9549  -1.7056  -1.6328  -1.3418
    -1.2538  -1.1076  -1.0343  -0.9309  -0.7037  -0.5827  -0.3059  -0.3049
    -0.2572  -0.2336  -0.1219  -0.0127   0.1736   0.2005   0.2495   0.3016
     0.3141   0.3901   0.5177   0.5705   0.5914   0.6813   0.8356   0.9061
     1.0140   1.0633   1.2137   1.2769

          k =-0.0867 0.0834 0.0000 ( 18031 PWs)   bands (ev):

   -56.3821 -56.3602 -56.3372 -56.3199 -56.2967 -56.2263 -56.1418 -56.1157
   -56.0966 -56.0907 -56.0729 -56.0571 -32.8038 -32.7611 -32.7388 -32.7201
   -32.6950 -32.6769 -32.6659 -32.6555 -32.6410 -32.6075 -32.5933 -32.5669
   -32.5504 -32.5290 -32.5223 -32.4933 -32.4568 -32.4435 -32.4113 -32.3981
   -32.3863 -32.3748 -32.3582 -32.3552 -32.3377 -32.3152 -32.2843 -32.2577
   -32.2391 -32.2307 -32.2224 -32.2066 -32.1935 -32.1861 -32.1410 -32.0945
    -8.4892  -3.5555  -2.8324  -2.4271  -2.1265  -1.9053  -1.6454  -1.4489
    -1.2403  -1.0587  -0.9531  -0.8247  -0.6235  -0.5574  -0.3927  -0.3509
    -0.3146  -0.2511  -0.0994   0.0323   0.0901   0.1861   0.2758   0.3193
     0.3350   0.3750   0.4671   0.6030   0.6511   0.7454   0.8016   0.8501
     0.9678   1.0575   1.1713   1.3402

          k =-0.0867 0.1168 0.0000 ( 18031 PWs)   bands (ev):

   -56.3821 -56.3602 -56.3372 -56.3200 -56.2966 -56.2263 -56.1418 -56.1156
   -56.0965 -56.0908 -56.0734 -56.0567 -32.8038 -32.7611 -32.7387 -32.7202
   -32.6949 -32.6770 -32.6660 -32.6553 -32.6410 -32.6075 -32.5933 -32.5667
   -32.5504 -32.5289 -32.5224 -32.4933 -32.4569 -32.4435 -32.4113 -32.3981
   -32.3862 -32.3748 -32.3582 -32.3552 -32.3374 -32.3153 -32.2844 -32.2578
   -32.2392 -32.2308 -32.2227 -32.2063 -32.1937 -32.1864 -32.1409 -32.0942
    -8.4892  -3.5555  -2.8325  -2.4270  -2.1265  -1.9052  -1.6458  -1.4488
    -1.2401  -1.0588  -0.9531  -0.8248  -0.6235  -0.5574  -0.3926  -0.3510
    -0.3146  -0.2510  -0.0994   0.0323   0.0901   0.1860   0.2758   0.3193
     0.3350   0.3749   0.4672   0.6030   0.6511   0.7455   0.8016   0.8501
     0.9680   1.0576   1.1716   1.3400

          k =-0.0867-0.0500 0.0000 ( 18044 PWs)   bands (ev):

   -56.3821 -56.3536 -56.3499 -56.3067 -56.3038 -56.2263 -56.1428 -56.1151
   -56.0929 -56.0921 -56.0761 -56.0559 -32.8031 -32.7631 -32.7517 -32.7249
   -32.6927 -32.6863 -32.6679 -32.6502 -32.6036 -32.5949 -32.5795 -32.5647
   -32.5629 -32.5499 -32.5060 -32.5007 -32.4969 -32.4372 -32.4145 -32.3801
   -32.3768 -32.3670 -32.3585 -32.3440 -32.3353 -32.3082 -32.2947 -32.2816
   -32.2508 -32.2278 -32.2250 -32.2134 -32.1985 -32.1898 -32.1292 -32.0828
    -8.4890  -3.3921  -3.1902  -2.4720  -1.9549  -1.7061  -1.6326  -1.3417
    -1.2539  -1.1076  -1.0343  -0.9310  -0.7037  -0.5826  -0.3060  -0.3049
    -0.2570  -0.2336  -0.1219  -0.0127   0.1736   0.2005   0.2495   0.3016
     0.3141   0.3899   0.5178   0.5704   0.5914   0.6813   0.8355   0.9065
     1.0141   1.0636   1.2138   1.2768

     the Fermi energy is     0.6070 ev

!    total energy              =   -1450.10437179 Ry
     Harris-Foulkes estimate   =   -1450.10438324 Ry
     estimated scf accuracy    <       0.00000475 Ry

     The total energy is the sum of the following terms:

     one-electron contribution =  -11257.41021655 Ry
     hartree contribution      =    5614.87028164 Ry
     xc contribution           =    -228.66508675 Ry
     ewald contribution        =    4421.21990248 Ry
     electric field correction =       0.00006048 Ry
     smearing contrib. (-TS)   =      -0.11931310 Ry

     convergence has been achieved in  28 iterations
 
 BEEF-vdW xc energy contributions
           1 :   -196.559643477206     
           2 :    175.795504900374     
           3 :   -141.663294519482     
           4 :    104.944213102021     
           5 :   -74.5581615891275     
           6 :    54.1022359804329     
           7 :   -41.7913827550324     
           8 :    33.1314277332547     
           9 :   -24.2530741862517     
          10 :    13.8786561194823     
          11 :   -3.17993251864931     
          12 :   -5.82203660552165     
          13 :    11.9423483851420     
          14 :   -15.5191309665694     
          15 :    17.8714164873963     
          16 :   -20.1520637158319     
          17 :    22.5099096864934     
          18 :   -24.1314163197979     
          19 :    24.0164856747129     
          20 :   -21.8292356711015     
          21 :    18.1729712615775     
          22 :   -14.1436799975427     
          23 :    10.5680816997120     
          24 :   -7.53180775659837     
          25 :    4.51182352334135     
          26 :  -0.945447391577716     
          27 :   -3.23790186096264     
          28 :    7.50907172506578     
          29 :   -11.0926448552718     
          30 :    13.4744386506977     
          31 :   -20.9432584480692     
          32 :   -14.9573122660590     

     Forces acting on atoms (Ry/au):


     negative rho (up, down):  8.847E-03 0.000E+00
     atom    1 type  1   force =     0.00287980    0.00166668    0.01121835
     atom    2 type  1   force =    -0.00288928    0.00167144    0.01123717
     atom    3 type  1   force =    -0.00000023   -0.00334127    0.01119212
     atom    4 type  1   force =    -0.00000861   -0.00000729    0.00801981
     atom    5 type  1   force =     0.00001506   -0.00155260   -0.00857006
     atom    6 type  1   force =    -0.00003949   -0.00000803   -0.01646264
     atom    7 type  1   force =     0.00132556    0.00077873   -0.00852934
     atom    8 type  1   force =    -0.00132363    0.00078883   -0.00856074
     atom    9 type  1   force =    -0.00004684    0.00000415    0.00047098
     atom   10 type  1   force =     0.00000626   -0.00074895   -0.00026917
     atom   11 type  1   force =    -0.00049132    0.00028481   -0.00016290
     atom   12 type  1   force =     0.00074367    0.00042770   -0.00033545
     atom   13 type  2   force =    -0.00017095    0.00003579    0.00075186

     Total force =     0.031231     Total SCF correction =     0.006880
     SCF correction compared to forces is large: reduce conv_thr to get better values


     entering subroutine stress ...


     negative rho (up, down):  8.847E-03 0.000E+00
          total   stress  (Ry/bohr**3)                   (kbar)     P=    4.06
   0.00006231   0.00000003  -0.00000005          9.17      0.00     -0.01
   0.00000003   0.00006234   0.00000001          0.00      9.17      0.00
  -0.00000005   0.00000001  -0.00004183         -0.01      0.00     -6.15

 !ASE

     Writing output data file calc.save
 
     init_run     :      8.94s CPU     15.30s WALL (       1 calls)
     electrons    :    656.46s CPU   1095.82s WALL (       1 calls)
     forces       :      3.78s CPU      4.85s WALL (       1 calls)
     stress       :      9.58s CPU     11.99s WALL (       1 calls)

     Called by init_run:
     wfcinit      :      6.58s CPU     11.70s WALL (       1 calls)
     potinit      :      1.11s CPU      2.06s WALL (       1 calls)

     Called by electrons:
     c_bands      :    512.38s CPU    844.55s WALL (      28 calls)
     sum_band     :     70.41s CPU    121.29s WALL (      28 calls)
     v_of_rho     :     27.39s CPU     52.90s WALL (      29 calls)
     newd         :     14.53s CPU     15.74s WALL (      29 calls)
     mix_rho      :      1.16s CPU      2.18s WALL (      28 calls)
     vdW_energy   :      3.77s CPU      4.21s WALL (      65 calls)
     vdW_ffts     :     35.41s CPU     74.13s WALL (     132 calls)
     vdW_v        :      7.16s CPU     12.97s WALL (      65 calls)

     Called by c_bands:
     init_us_2    :      1.66s CPU      1.77s WALL (    1180 calls)
     cegterg      :    500.56s CPU    830.92s WALL (     560 calls)

     Called by *egterg:
     h_psi        :    324.87s CPU    633.93s WALL (    3059 calls)
     s_psi        :     16.84s CPU     16.86s WALL (    3059 calls)
     g_psi        :      1.02s CPU      1.02s WALL (    2479 calls)
     cdiaghg      :     95.57s CPU     98.88s WALL (    3039 calls)

     Called by h_psi:
     add_vuspsi   :     17.11s CPU     17.13s WALL (    3059 calls)

     General routines
     calbec       :     31.49s CPU     40.97s WALL (    3659 calls)
     fft          :     53.47s CPU    112.89s WALL (    4017 calls)
     ffts         :      0.18s CPU      0.45s WALL (      57 calls)
     fftw         :    301.70s CPU    648.38s WALL (  303720 calls)
     interpolate  :      0.90s CPU      2.00s WALL (      57 calls)
     davcio       :      0.00s CPU      0.03s WALL (      20 calls)
 
     Parallel routines
     fft_scatter  :    298.49s CPU    701.64s WALL (  307794 calls)
 
     PWSCF        : 11m19.77s CPU    18m50.03s WALL

 
   This run was terminated on:  19:29:25  21Jan2018            

=------------------------------------------------------------------------------=
   JOB DONE.
=------------------------------------------------------------------------------=
Job  /afs/slac/g/suncat/bin/suncat-tsmpirun -x LD_LIBRARY_PATH -wdir /scratch/qe870136_PRieM pw.x -in pw.inp

TID   HOST_NAME   COMMAND_LINE            STATUS            TERMINATION_TIME
===== ========== ================  =======================  ===================
00000 suncat1042 pw.x -in pw.inp   Done                     01/21/2018 19:29:25
00001 suncat1042 pw.x -in pw.inp   Done                     01/21/2018 19:29:25
00002 suncat1042 pw.x -in pw.inp   Done                     01/21/2018 19:29:25
00003 suncat1042 pw.x -in pw.inp   Done                     01/21/2018 19:29:25
00004 suncat1042 pw.x -in pw.inp   Done                     01/21/2018 19:29:25
00005 suncat1042 pw.x -in pw.inp   Done                     01/21/2018 19:29:25
00006 suncat1042 pw.x -in pw.inp   Done                     01/21/2018 19:29:25
00007 suncat1042 pw.x -in pw.inp   Done                     01/21/2018 19:29:25
00008 suncat1033 pw.x -in pw.inp   Done                     01/21/2018 19:29:25
00009 suncat1033 pw.x -in pw.inp   Done                     01/21/2018 19:29:25
00010 suncat1033 pw.x -in pw.inp   Done                     01/21/2018 19:29:25
00011 suncat1033 pw.x -in pw.inp   Done                     01/21/2018 19:29:25
00012 suncat1033 pw.x -in pw.inp   Done                     01/21/2018 19:29:25
00013 suncat1033 pw.x -in pw.inp   Done                     01/21/2018 19:29:25
00014 suncat1033 pw.x -in pw.inp   Done                     01/21/2018 19:29:25
00015 suncat1033 pw.x -in pw.inp   Done                     01/21/2018 19:29:25
00016 suncat1033 pw.x -in pw.inp   Done                     01/21/2018 19:29:25
00017 suncat1033 pw.x -in pw.inp   Done                     01/21/2018 19:29:25
00018 suncat1033 pw.x -in pw.inp   Done                     01/21/2018 19:29:25
00019 suncat1033 pw.x -in pw.inp   Done                     01/21/2018 19:29:25
00020 suncat1006 pw.x -in pw.inp   Done                     01/21/2018 19:29:25
00021 suncat1006 pw.x -in pw.inp   Done                     01/21/2018 19:29:25
00022 suncat1006 pw.x -in pw.inp   Done                     01/21/2018 19:29:25
00023 suncat1006 pw.x -in pw.inp   Done                     01/21/2018 19:29:25
00024 suncat1006 pw.x -in pw.inp   Done                     01/21/2018 19:29:25
00025 suncat1006 pw.x -in pw.inp   Done                     01/21/2018 19:29:25
00026 suncat1006 pw.x -in pw.inp   Done                     01/21/2018 19:29:25
00027 suncat1006 pw.x -in pw.inp   Done                     01/21/2018 19:29:25
00028 suncat1006 pw.x -in pw.inp   Done                     01/21/2018 19:29:25
00029 suncat1006 pw.x -in pw.inp   Done                     01/21/2018 19:29:25
00030 suncat1006 pw.x -in pw.inp   Done                     01/21/2018 19:29:25
00031 suncat1006 pw.x -in pw.inp   Done                     01/21/2018 19:29:25
