  python dir    : /home/users/mamunm/src/decaf-espresso/decaf
espresso dir  : /home/users/jrboes/code/q-e/bin/pw.x
executable    : srun -D /tmp/qe_35371695ehxem1zp_scratch pw.x -in pw.pwi

     Program PWSCF v.6.1 starts on 12Jan2019 at  0:53:24 

     This program is part of the open-source Quantum ESPRESSO suite
     for quantum simulation of materials; please cite
         "P. Giannozzi et al., J. Phys.:Condens. Matter 21 395502 (2009);
          URL http://www.quantum-espresso.org", 
     in publications or presentations arising from this work. More details at
     http://www.quantum-espresso.org/quote

     Parallel version (MPI), running on    20 processors
     R & G space division:  proc/nbgrp/npool/nimage =      20
     Reading input from pw.pwi
Warning: card &CELL ignored
Warning: card / ignored

     Current dimensions of program PWSCF are:
     Max number of different atomic species (ntypx) = 10
     Max number of k-points (npk) =  40000
     Max angular momentum in pseudopotentials (lmaxx) =  3

     **************************************************************************
     Initializing libbeef V0.1.1 with the BEEF-vdW functional.
     Citation: Wellendorff et al., PRB 85, 235149 (2012).
     **************************************************************************


     IMPORTANT: XC functional enforced from input :
     Exchange-correlation      = BEEF-VDW ( 1  4 29 14 2 0)
     Any further DFT definition will be discarded
     Please, verify this is what you really want


     Subspace diagonalization in iterative solution of the eigenvalue problem:
     one sub-group per band group will be used
     scalapack distributed-memory algorithm (size of sub-group:  3*  3 procs)


     Parallelization info
     --------------------
     sticks:   dense  smooth     PW     G-vecs:    dense   smooth      PW
     Min         201      81     23                39569    10009    1519
     Max         202      82     24                39600    10022    1531
     Sum        4033    1627    463               791681   200291   30513



     bravais-lattice index     =            0
     lattice parameter (alat)  =      12.6383  a.u.
     unit-cell volume          =    6655.4372 (a.u.)^3
     number of atoms/cell      =           13
     number of atomic types    =            2
     number of electrons       =       161.00
     number of Kohn-Sham states=           90
     kinetic-energy cutoff     =      36.7493  Ry
     charge density cutoff     =     367.4933  Ry
     convergence threshold     =      1.0E-04
     mixing beta               =       0.2000
     number of iterations used =            8  plain     mixing
     Exchange-correlation      = BEEF-VDW ( 1  4 29 14 2 0)
     nstep                     =           50


     celldm(1)=  12.638304  celldm(2)=   0.000000  celldm(3)=   0.000000
     celldm(4)=   0.000000  celldm(5)=   0.000000  celldm(6)=   0.000000

     crystal axes: (cart. coord. in units of alat)
               a(1) = (   1.000000   0.000000   0.000000 )  
               a(2) = (   0.500000   0.866025   0.000000 )  
               a(3) = (   0.000000   0.000000   3.806971 )  

     reciprocal axes: (cart. coord. in units 2 pi/alat)
               b(1) = (  1.000000 -0.577350  0.000000 )  
               b(2) = (  0.000000  1.154701  0.000000 )  
               b(3) = (  0.000000  0.000000  0.262676 )  


     PseudoPot. # 1 for Tl read from file:
     /home/users/mamunm/src/decaf-espresso/gbrv15pbe/Tl.UPF
     MD5 check sum: b76cf1f7e72655a2b2c53cf6385d7059
     Pseudo is Ultrasoft + core correction, Zval = 13.0
     Generated by new atomic code, or converted to UPF format
     Using radial grid of  899 points,  6 beta functions with: 
                l(1) =   0
                l(2) =   0
                l(3) =   1
                l(4) =   1
                l(5) =   2
                l(6) =   2
     Q(r) pseudized with  6 coefficients,  rinner =    1.100   1.100   1.100
                                                       1.100   1.100

     PseudoPot. # 2 for N  read from file:
     /home/users/mamunm/src/decaf-espresso/gbrv15pbe/N.UPF
     MD5 check sum: 95339753478d7afb44899504a8723017
     Pseudo is Ultrasoft + core correction, Zval =  5.0
     Generated by new atomic code, or converted to UPF format
     Using radial grid of  729 points,  4 beta functions with: 
                l(1) =   0
                l(2) =   0
                l(3) =   1
                l(4) =   1
     Q(r) pseudized with  8 coefficients,  rinner =    0.900   0.900   0.900


     vdW kernel table read from file vdW_kernel_table
     MD5 check sum: 095c7af220d748ca6e76c0b4c6cfb241

     atomic species   valence    mass     pseudopotential
        Tl            13.00   204.38000     Tl( 1.00)
        N              5.00    14.00700     N ( 1.00)

     No symmetry found



   Cartesian axes

     site n.     atom                  positions (alat units)
         1           Tl  tau(   1) = (   0.2500000   0.1443376   1.4952371  )
         2           Tl  tau(   2) = (   0.7500000   0.1443376   1.4952371  )
         3           Tl  tau(   3) = (   0.5000000   0.5773503   1.4952371  )
         4           Tl  tau(   4) = (   1.0000000   0.5773503   1.4952371  )
         5           Tl  tau(   5) = (   1.0000000   0.2886751   1.9034854  )
         6           Tl  tau(   6) = (   0.5000000   0.2886751   1.9034854  )
         7           Tl  tau(   7) = (   1.2500000   0.7216878   1.9034854  )
         8           Tl  tau(   8) = (   0.7500000   0.7216878   1.9034854  )
         9           Tl  tau(   9) = (  -0.0087874  -0.0050724   2.3775677  )
        10           Tl  tau(  10) = (   0.5087838  -0.0050709   2.3775710  )
        11           Tl  tau(  11) = (   0.2499996   0.4431550   2.3775684  )
        12           Tl  tau(  12) = (   0.7499972   0.4330121   2.3658058  )
        13           N   tau(  13) = (   0.2499978   0.1443374   2.5321089  )

     number of k points=    20  Fermi-Dirac smearing, width (Ry)=  0.0110
                       cart. coord. in units 2pi/alat
        k(    1) = (   0.0000000   0.0000000   0.0000000), wk =   0.0555556
        k(    2) = (   0.0000000   0.1924501   0.0000000), wk =   0.1111111
        k(    3) = (   0.0000000   0.3849002   0.0000000), wk =   0.1111111
        k(    4) = (   0.0000000  -0.5773503   0.0000000), wk =   0.0555556
        k(    5) = (   0.1666667  -0.0962250   0.0000000), wk =   0.1111111
        k(    6) = (   0.1666667   0.0962250   0.0000000), wk =   0.1111111
        k(    7) = (   0.1666667   0.2886751   0.0000000), wk =   0.1111111
        k(    8) = (   0.1666667  -0.6735753   0.0000000), wk =   0.1111111
        k(    9) = (   0.1666667  -0.4811252   0.0000000), wk =   0.1111111
        k(   10) = (   0.1666667  -0.2886751   0.0000000), wk =   0.1111111
        k(   11) = (   0.3333333  -0.1924501   0.0000000), wk =   0.1111111
        k(   12) = (   0.3333333  -0.0000000   0.0000000), wk =   0.1111111
        k(   13) = (   0.3333333   0.1924501   0.0000000), wk =   0.1111111
        k(   14) = (   0.3333333  -0.7698004   0.0000000), wk =   0.1111111
        k(   15) = (   0.3333333  -0.5773503   0.0000000), wk =   0.1111111
        k(   16) = (   0.3333333  -0.3849002   0.0000000), wk =   0.1111111
        k(   17) = (  -0.5000000   0.2886751   0.0000000), wk =   0.0555556
        k(   18) = (  -0.5000000   0.4811252   0.0000000), wk =   0.1111111
        k(   19) = (  -0.5000000   0.6735753   0.0000000), wk =   0.1111111
        k(   20) = (  -0.5000000  -0.2886751   0.0000000), wk =   0.0555556

     Dense  grid:   791681 G-vectors     FFT dimensions: (  80,  80, 300)

     Smooth grid:   200291 G-vectors     FFT dimensions: (  50,  50, 192)

     Estimated max dynamical RAM per process >      77.67MB

     Estimated total allocated dynamical RAM >    1553.46MB

     Check: negative/imaginary core charge=   -0.000001    0.000000

     Initial potential from superposition of free atoms
     Check: negative starting charge=   -0.602307

     starting charge  160.94160, renormalised to  161.00000

     negative rho (up, down):  6.025E-01 0.000E+00


     %%%%%%%%%%%%%%%%%%%%%%%%%%%%%%%%%%%%%%%%%%%%%%%%%%%%%%%%%%%%%%%%%%%%%%%%
     %                                                                      %
     % You are using vdW-DF, which was implemented by the Thonhauser group. %
     % Please cite the following two papers that made this development      %
     % possible and the two reviews that describe the various versions:     %
     %                                                                      %
     %   T. Thonhauser et al., PRL 115, 136402 (2015).                      %
     %   T. Thonhauser et al., PRB 76, 125112 (2007).                       %
     %   K. Berland et al., Rep. Prog. Phys. 78, 066501 (2015).             %
     %   D.C. Langreth et al., J. Phys.: Condens. Matter 21, 084203 (2009). %
     %                                                                      %
     %                                                                      %
     % If you are calculating the stress with vdW-DF, please also cite:     %
     %                                                                      %
     %   R. Sabatini et al., J. Phys.: Condens. Matter 24, 424209 (2012).   %
     %                                                                      %
     %%%%%%%%%%%%%%%%%%%%%%%%%%%%%%%%%%%%%%%%%%%%%%%%%%%%%%%%%%%%%%%%%%%%%%%%



     Adding external electric field

     Computed dipole along edir(3) : 
        Dipole               -0.0139 Ry au,         -0.0352 Debye
        Dipole field         -0.0000 Ry au, 

        Potential amp.        0.0023 Ry
        Total length         43.3023 bohr

     Starting wfc are  112 randomized atomic wfcs

     total cpu time spent up to now is        8.9 secs

     per-process dynamical memory:   113.0 Mb

     Self-consistent Calculation

     iteration #  1     ecut=    36.75 Ry     beta=0.20
     Davidson diagonalization with overlap
     ethr =  1.00E-02,  avg # of iterations =  2.0

     negative rho (up, down):  6.079E-01 0.000E+00

     Adding external electric field

     Computed dipole along edir(3) : 
        Dipole               -2.4269 Ry au,         -6.1686 Debye
        Dipole field         -0.0046 Ry au, 

        Potential amp.        0.3969 Ry
        Total length         43.3023 bohr


     total cpu time spent up to now is       21.5 secs

     total energy              =   -1780.99485406 Ry
     Harris-Foulkes estimate   =   -1781.93213824 Ry
     estimated scf accuracy    <       2.85093200 Ry

     iteration #  2     ecut=    36.75 Ry     beta=0.20
     Davidson diagonalization with overlap
     ethr =  1.77E-03,  avg # of iterations =  5.5

     negative rho (up, down):  6.075E-01 0.000E+00

     Adding external electric field

     Computed dipole along edir(3) : 
        Dipole                0.4513 Ry au,          1.1472 Debye
        Dipole field          0.0009 Ry au, 

        Potential amp.       -0.0738 Ry
        Total length         43.3023 bohr


     total cpu time spent up to now is       44.2 secs

     total energy              =   -1779.91636104 Ry
     Harris-Foulkes estimate   =   -1782.78768094 Ry
     estimated scf accuracy    <      40.42015501 Ry

     iteration #  3     ecut=    36.75 Ry     beta=0.20
     Davidson diagonalization with overlap
     ethr =  1.77E-03,  avg # of iterations =  6.0

     negative rho (up, down):  6.101E-01 0.000E+00

     Adding external electric field

     Computed dipole along edir(3) : 
        Dipole               -0.2044 Ry au,         -0.5196 Debye
        Dipole field         -0.0004 Ry au, 

        Potential amp.        0.0334 Ry
        Total length         43.3023 bohr


     total cpu time spent up to now is       65.5 secs

     total energy              =   -1781.59766435 Ry
     Harris-Foulkes estimate   =   -1781.81365483 Ry
     estimated scf accuracy    <       3.93811875 Ry

     iteration #  4     ecut=    36.75 Ry     beta=0.20
     Davidson diagonalization with overlap
     ethr =  1.77E-03,  avg # of iterations =  1.1

     negative rho (up, down):  6.140E-01 0.000E+00

     Adding external electric field

     Computed dipole along edir(3) : 
        Dipole               -0.3203 Ry au,         -0.8141 Debye
        Dipole field         -0.0006 Ry au, 

        Potential amp.        0.0524 Ry
        Total length         43.3023 bohr


     total cpu time spent up to now is       76.9 secs

     total energy              =   -1781.66057657 Ry
     Harris-Foulkes estimate   =   -1781.69130530 Ry
     estimated scf accuracy    <       0.28086836 Ry

     iteration #  5     ecut=    36.75 Ry     beta=0.20
     Davidson diagonalization with overlap
     ethr =  1.74E-04,  avg # of iterations =  4.7

     negative rho (up, down):  6.164E-01 0.000E+00

     Adding external electric field

     Computed dipole along edir(3) : 
        Dipole               -0.1979 Ry au,         -0.5030 Debye
        Dipole field         -0.0004 Ry au, 

        Potential amp.        0.0324 Ry
        Total length         43.3023 bohr


     total cpu time spent up to now is       90.6 secs

     total energy              =   -1781.67796105 Ry
     Harris-Foulkes estimate   =   -1781.68212320 Ry
     estimated scf accuracy    <       0.02900653 Ry

     iteration #  6     ecut=    36.75 Ry     beta=0.20
     Davidson diagonalization with overlap
     ethr =  1.80E-05,  avg # of iterations =  4.3

     negative rho (up, down):  6.229E-01 0.000E+00

     Adding external electric field

     Computed dipole along edir(3) : 
        Dipole               -0.2611 Ry au,         -0.6637 Debye
        Dipole field         -0.0005 Ry au, 

        Potential amp.        0.0427 Ry
        Total length         43.3023 bohr


     total cpu time spent up to now is      103.5 secs

     total energy              =   -1781.67687755 Ry
     Harris-Foulkes estimate   =   -1781.68494877 Ry
     estimated scf accuracy    <       0.10239417 Ry

     iteration #  7     ecut=    36.75 Ry     beta=0.20
     Davidson diagonalization with overlap
     ethr =  1.80E-05,  avg # of iterations =  2.1

     negative rho (up, down):  6.285E-01 0.000E+00

     Adding external electric field

     Computed dipole along edir(3) : 
        Dipole               -0.3699 Ry au,         -0.9403 Debye
        Dipole field         -0.0007 Ry au, 

        Potential amp.        0.0605 Ry
        Total length         43.3023 bohr


     total cpu time spent up to now is      114.0 secs

     total energy              =   -1781.67560076 Ry
     Harris-Foulkes estimate   =   -1781.67967409 Ry
     estimated scf accuracy    <       0.02175185 Ry

     iteration #  8     ecut=    36.75 Ry     beta=0.20
     Davidson diagonalization with overlap
     ethr =  1.35E-05,  avg # of iterations =  6.3

     negative rho (up, down):  6.289E-01 0.000E+00

     Adding external electric field

     Computed dipole along edir(3) : 
        Dipole               -0.3587 Ry au,         -0.9117 Debye
        Dipole field         -0.0007 Ry au, 

        Potential amp.        0.0587 Ry
        Total length         43.3023 bohr


     total cpu time spent up to now is      128.5 secs

     total energy              =   -1781.67868672 Ry
     Harris-Foulkes estimate   =   -1781.67984870 Ry
     estimated scf accuracy    <       0.00976244 Ry

     iteration #  9     ecut=    36.75 Ry     beta=0.20
     Davidson diagonalization with overlap
     ethr =  6.06E-06,  avg # of iterations =  1.6

     negative rho (up, down):  6.304E-01 0.000E+00

     Adding external electric field

     Computed dipole along edir(3) : 
        Dipole               -0.3306 Ry au,         -0.8402 Debye
        Dipole field         -0.0006 Ry au, 

        Potential amp.        0.0541 Ry
        Total length         43.3023 bohr


     total cpu time spent up to now is      138.2 secs

     total energy              =   -1781.67828630 Ry
     Harris-Foulkes estimate   =   -1781.67904993 Ry
     estimated scf accuracy    <       0.00373259 Ry

     iteration # 10     ecut=    36.75 Ry     beta=0.20
     Davidson diagonalization with overlap
     ethr =  2.32E-06,  avg # of iterations =  5.7

     negative rho (up, down):  6.304E-01 0.000E+00

     Adding external electric field

     Computed dipole along edir(3) : 
        Dipole               -0.3300 Ry au,         -0.8389 Debye
        Dipole field         -0.0006 Ry au, 

        Potential amp.        0.0540 Ry
        Total length         43.3023 bohr


     total cpu time spent up to now is      153.1 secs

     total energy              =   -1781.67887166 Ry
     Harris-Foulkes estimate   =   -1781.67892521 Ry
     estimated scf accuracy    <       0.00052217 Ry

     iteration # 11     ecut=    36.75 Ry     beta=0.20
     Davidson diagonalization with overlap
     ethr =  3.24E-07,  avg # of iterations =  2.4

     negative rho (up, down):  6.309E-01 0.000E+00

     Adding external electric field

     Computed dipole along edir(3) : 
        Dipole               -0.3340 Ry au,         -0.8488 Debye
        Dipole field         -0.0006 Ry au, 

        Potential amp.        0.0546 Ry
        Total length         43.3023 bohr


     total cpu time spent up to now is      163.4 secs

     total energy              =   -1781.67886313 Ry
     Harris-Foulkes estimate   =   -1781.67889451 Ry
     estimated scf accuracy    <       0.00015666 Ry

     iteration # 12     ecut=    36.75 Ry     beta=0.20
     Davidson diagonalization with overlap
     ethr =  9.73E-08,  avg # of iterations =  4.0

     negative rho (up, down):  6.311E-01 0.000E+00

     Adding external electric field

     Computed dipole along edir(3) : 
        Dipole               -0.3218 Ry au,         -0.8178 Debye
        Dipole field         -0.0006 Ry au, 

        Potential amp.        0.0526 Ry
        Total length         43.3023 bohr


     total cpu time spent up to now is      176.3 secs

     End of self-consistent calculation

          k = 0.0000 0.0000 0.0000 ( 24957 PWs)   bands (ev):

   -13.2302 -11.4114 -11.4114 -11.4109 -11.3108 -11.3108 -11.2921 -11.2846
   -11.2703 -11.2703 -11.2583 -11.2582 -11.2509 -11.2251 -11.1462 -11.1067
   -11.1067 -11.0862 -11.0824 -11.0824 -11.0611 -11.0611 -11.0365 -11.0365
   -10.9503 -10.9503 -10.9487 -10.8830 -10.8830 -10.8820 -10.7791 -10.7791
   -10.7137 -10.7137 -10.7016 -10.6640 -10.6621 -10.6621 -10.6537 -10.6352
   -10.6352 -10.6044 -10.6044 -10.5731 -10.5726 -10.5726 -10.5361 -10.4987
   -10.4973 -10.4973 -10.4861 -10.4861 -10.4667 -10.4666 -10.4572 -10.4432
   -10.4432 -10.2805 -10.2805 -10.1740  -9.8249  -8.8418  -7.0529  -5.7425
    -4.2849  -4.2849  -4.2607  -4.0919  -4.0918  -3.7668  -3.2943  -3.2943
    -3.0125  -1.5222  -1.5222  -1.4775  -1.0058  -0.5744  -0.5744  -0.5616
    -0.2662  -0.2662  -0.1527   1.3484   1.3484   1.7186   2.9399   3.6231
     3.7525   3.7525

          k = 0.0000 0.1925 0.0000 ( 25013 PWs)   bands (ev):

   -13.2125 -11.3938 -11.3682 -11.3679 -11.2954 -11.2750 -11.2643 -11.2594
   -11.2498 -11.2445 -11.2340 -11.2247 -11.2178 -11.1943 -11.1311 -11.1045
   -11.0992 -11.0756 -11.0728 -11.0704 -11.0669 -11.0400 -11.0278 -11.0071
   -10.9606 -10.9589 -10.9421 -10.8948 -10.8558 -10.8487 -10.8014 -10.7846
   -10.7361 -10.7148 -10.7091 -10.6881 -10.6806 -10.6713 -10.6570 -10.6538
   -10.6361 -10.6332 -10.6060 -10.6047 -10.5953 -10.5812 -10.5440 -10.5335
   -10.5313 -10.5306 -10.5117 -10.5091 -10.5011 -10.4996 -10.4864 -10.4744
   -10.4536 -10.3407 -10.2966 -10.2108  -9.7641  -8.7026  -6.9757  -5.7148
    -5.2895  -4.6157  -4.5831  -4.3697  -4.1412  -3.7442  -3.3131  -3.1723
    -2.9902  -1.3252  -1.2366  -0.9706  -0.7963  -0.5011  -0.4168  -0.1946
     0.1928   0.3028   0.7321   1.4464   1.4588   1.8717   2.8492   3.1552
     3.5452   3.7764

          k = 0.0000 0.3849 0.0000 ( 25069 PWs)   bands (ev):

   -13.1760 -11.3464 -11.2696 -11.2627 -11.2620 -11.2342 -11.2166 -11.2032
   -11.1965 -11.1835 -11.1632 -11.1413 -11.1361 -11.1137 -11.1030 -11.1013
   -11.0930 -11.0734 -11.0478 -11.0393 -11.0377 -11.0021 -10.9723 -10.9696
   -10.9459 -10.9266 -10.9204 -10.9120 -10.8571 -10.8173 -10.7962 -10.7817
   -10.7803 -10.7680 -10.7476 -10.7302 -10.7217 -10.7088 -10.7056 -10.6900
   -10.6858 -10.6649 -10.6542 -10.6431 -10.6383 -10.6195 -10.6134 -10.6115
   -10.6068 -10.5918 -10.5826 -10.5774 -10.5580 -10.5387 -10.5034 -10.5030
   -10.4732 -10.4477 -10.3640 -10.2659  -9.6607  -8.2832  -6.8102  -6.5024
    -5.6044  -5.1413  -4.9704  -4.8304  -4.3513  -4.1609  -3.5796  -3.1394
    -2.9688  -1.0746  -0.4722  -0.4082  -0.1346   0.3039   0.3183   0.8046
     1.0254   1.2101   1.3076   1.7873   2.1039   2.2390   2.8529   3.0212
     3.1376   3.7148

          k = 0.0000-0.5774 0.0000 ( 25090 PWs)   bands (ev):

   -13.1572 -11.2910 -11.2778 -11.2522 -11.1879 -11.1780 -11.1762 -11.1744
   -11.1624 -11.1579 -11.1318 -11.1175 -11.1166 -11.0904 -11.0810 -11.0784
   -11.0460 -11.0454 -11.0139 -11.0052 -10.9808 -10.9779 -10.9614 -10.9527
   -10.9205 -10.9151 -10.9010 -10.8748 -10.8643 -10.8498 -10.8370 -10.7988
   -10.7963 -10.7857 -10.7848 -10.7650 -10.7545 -10.7400 -10.7333 -10.7310
   -10.7265 -10.7240 -10.7138 -10.6944 -10.6525 -10.6389 -10.6352 -10.6261
   -10.6232 -10.6108 -10.6088 -10.5919 -10.5536 -10.5392 -10.5373 -10.5321
   -10.5028 -10.4918 -10.4238 -10.2784  -9.6130  -7.6201  -7.5314  -6.5505
    -5.7788  -5.1006  -5.0691  -5.0129  -4.6783  -4.4470  -3.5559  -3.1694
    -2.9616  -1.0888   0.0867   0.1549   0.4530   0.5539   0.7453   0.9607
     1.0725   1.3265   1.8417   2.2597   2.3628   2.4732   2.7836   3.2748
     3.5816   3.6303

          k = 0.1667-0.0962 0.0000 ( 25013 PWs)   bands (ev):

   -13.2125 -11.3938 -11.3682 -11.3679 -11.2954 -11.2750 -11.2643 -11.2594
   -11.2498 -11.2445 -11.2340 -11.2247 -11.2178 -11.1943 -11.1311 -11.1045
   -11.0992 -11.0756 -11.0728 -11.0704 -11.0669 -11.0400 -11.0278 -11.0071
   -10.9606 -10.9589 -10.9421 -10.8947 -10.8558 -10.8487 -10.8014 -10.7846
   -10.7361 -10.7148 -10.7091 -10.6881 -10.6806 -10.6713 -10.6570 -10.6538
   -10.6361 -10.6332 -10.6060 -10.6047 -10.5953 -10.5812 -10.5440 -10.5335
   -10.5313 -10.5306 -10.5117 -10.5091 -10.5011 -10.4996 -10.4864 -10.4744
   -10.4536 -10.3408 -10.2966 -10.2108  -9.7641  -8.7026  -6.9757  -5.7148
    -5.2895  -4.6157  -4.5831  -4.3697  -4.1412  -3.7442  -3.3131  -3.1723
    -2.9902  -1.3252  -1.2366  -0.9706  -0.7963  -0.5011  -0.4168  -0.1946
     0.1928   0.3028   0.7321   1.4464   1.4588   1.8717   2.8492   3.1552
     3.5452   3.7764

          k = 0.1667 0.0962 0.0000 ( 25013 PWs)   bands (ev):

   -13.2125 -11.3938 -11.3682 -11.3679 -11.2954 -11.2750 -11.2643 -11.2594
   -11.2498 -11.2445 -11.2340 -11.2247 -11.2178 -11.1943 -11.1311 -11.1045
   -11.0992 -11.0756 -11.0728 -11.0704 -11.0669 -11.0400 -11.0278 -11.0071
   -10.9606 -10.9589 -10.9421 -10.8947 -10.8558 -10.8487 -10.8014 -10.7846
   -10.7361 -10.7148 -10.7091 -10.6881 -10.6806 -10.6713 -10.6570 -10.6538
   -10.6361 -10.6332 -10.6060 -10.6047 -10.5953 -10.5812 -10.5440 -10.5335
   -10.5312 -10.5306 -10.5117 -10.5091 -10.5011 -10.4996 -10.4865 -10.4744
   -10.4536 -10.3408 -10.2966 -10.2108  -9.7641  -8.7026  -6.9757  -5.7148
    -5.2895  -4.6157  -4.5831  -4.3696  -4.1412  -3.7442  -3.3131  -3.1723
    -2.9902  -1.3252  -1.2366  -0.9706  -0.7963  -0.5011  -0.4168  -0.1945
     0.1928   0.3028   0.7321   1.4465   1.4588   1.8717   2.8492   3.1552
     3.5452   3.7764

          k = 0.1667 0.2887 0.0000 ( 25022 PWs)   bands (ev):

   -13.1853 -11.3363 -11.3358 -11.2758 -11.2589 -11.2413 -11.2214 -11.2152
   -11.2136 -11.2097 -11.1841 -11.1659 -11.1557 -11.1322 -11.1206 -11.1001
   -11.0838 -11.0694 -11.0593 -11.0546 -11.0515 -11.0441 -10.9860 -10.9626
   -10.9482 -10.9447 -10.9368 -10.8983 -10.8346 -10.8273 -10.8109 -10.7971
   -10.7635 -10.7540 -10.7375 -10.7205 -10.7017 -10.6946 -10.6855 -10.6796
   -10.6632 -10.6574 -10.6453 -10.6341 -10.6285 -10.6122 -10.5886 -10.5816
   -10.5692 -10.5680 -10.5630 -10.5541 -10.5405 -10.5334 -10.5251 -10.5126
   -10.4697 -10.4229 -10.3181 -10.2714  -9.6851  -8.4231  -6.8330  -5.8906
    -5.8384  -5.5594  -4.9876  -4.3403  -3.9890  -3.8022  -3.6532  -3.3918
    -3.0157  -1.1652  -0.7432  -0.5405  -0.0924   0.0323   0.2640   0.3858
     0.6242   1.0441   1.1508   1.8766   2.0527   2.2515   2.5737   2.6790
     3.2650   3.7158

          k = 0.1667-0.6736 0.0000 ( 25036 PWs)   bands (ev):

   -13.1571 -11.2818 -11.2350 -11.2283 -11.2181 -11.2000 -11.1719 -11.1650
   -11.1571 -11.1452 -11.1353 -11.1218 -11.1084 -11.1003 -11.0890 -11.0779
   -11.0671 -11.0481 -11.0358 -11.0170 -11.0072 -10.9808 -10.9501 -10.9429
   -10.9220 -10.9145 -10.9025 -10.8912 -10.8849 -10.8539 -10.8364 -10.8149
   -10.7952 -10.7879 -10.7750 -10.7680 -10.7598 -10.7485 -10.7312 -10.7176
   -10.7023 -10.6998 -10.6879 -10.6697 -10.6570 -10.6403 -10.6352 -10.6226
   -10.6170 -10.6094 -10.5999 -10.5884 -10.5706 -10.5590 -10.5420 -10.5310
   -10.5130 -10.4761 -10.3917 -10.3103  -9.6126  -7.8592  -7.0144  -6.5293
    -6.1542  -5.6768  -5.2406  -4.7133  -4.1783  -3.9852  -3.7578  -3.3278
    -2.8870  -1.0847  -0.2866   0.0826   0.2538   0.4577   0.9327   1.0404
     1.3895   1.5331   1.8006   2.1010   2.2577   2.4247   2.6813   3.0754
     3.1884   3.4939

          k = 0.1667-0.4811 0.0000 ( 25036 PWs)   bands (ev):

   -13.1571 -11.2818 -11.2350 -11.2283 -11.2181 -11.2000 -11.1719 -11.1650
   -11.1571 -11.1452 -11.1353 -11.1218 -11.1084 -11.1003 -11.0890 -11.0779
   -11.0671 -11.0481 -11.0358 -11.0171 -11.0072 -10.9808 -10.9501 -10.9429
   -10.9219 -10.9145 -10.9025 -10.8912 -10.8849 -10.8539 -10.8364 -10.8149
   -10.7952 -10.7879 -10.7750 -10.7680 -10.7598 -10.7485 -10.7312 -10.7176
   -10.7024 -10.6998 -10.6879 -10.6697 -10.6570 -10.6403 -10.6352 -10.6226
   -10.6170 -10.6094 -10.5999 -10.5884 -10.5706 -10.5590 -10.5420 -10.5310
   -10.5130 -10.4761 -10.3917 -10.3103  -9.6126  -7.8592  -7.0144  -6.5293
    -6.1542  -5.6768  -5.2406  -4.7133  -4.1783  -3.9852  -3.7578  -3.3278
    -2.8870  -1.0847  -0.2866   0.0826   0.2538   0.4577   0.9327   1.0404
     1.3895   1.5331   1.8006   2.1010   2.2577   2.4247   2.6813   3.0754
     3.1884   3.4939

          k = 0.1667-0.2887 0.0000 ( 25022 PWs)   bands (ev):

   -13.1853 -11.3363 -11.3358 -11.2758 -11.2589 -11.2413 -11.2214 -11.2153
   -11.2136 -11.2097 -11.1841 -11.1659 -11.1557 -11.1322 -11.1206 -11.1001
   -11.0838 -11.0694 -11.0593 -11.0546 -11.0515 -11.0441 -10.9860 -10.9626
   -10.9482 -10.9447 -10.9368 -10.8983 -10.8346 -10.8273 -10.8109 -10.7971
   -10.7635 -10.7539 -10.7375 -10.7205 -10.7017 -10.6946 -10.6855 -10.6796
   -10.6632 -10.6574 -10.6453 -10.6341 -10.6285 -10.6122 -10.5886 -10.5816
   -10.5692 -10.5680 -10.5630 -10.5541 -10.5405 -10.5334 -10.5251 -10.5126
   -10.4697 -10.4229 -10.3181 -10.2714  -9.6851  -8.4231  -6.8330  -5.8906
    -5.8384  -5.5594  -4.9876  -4.3403  -3.9890  -3.8022  -3.6532  -3.3918
    -3.0157  -1.1652  -0.7432  -0.5405  -0.0924   0.0323   0.2640   0.3858
     0.6242   1.0441   1.1508   1.8766   2.0527   2.2515   2.5737   2.6790
     3.2650   3.7158

          k = 0.3333-0.1925 0.0000 ( 25069 PWs)   bands (ev):

   -13.1760 -11.3464 -11.2696 -11.2627 -11.2620 -11.2342 -11.2166 -11.2032
   -11.1965 -11.1835 -11.1632 -11.1413 -11.1361 -11.1137 -11.1030 -11.1013
   -11.0930 -11.0734 -11.0478 -11.0393 -11.0377 -11.0021 -10.9723 -10.9696
   -10.9459 -10.9266 -10.9204 -10.9120 -10.8571 -10.8173 -10.7962 -10.7817
   -10.7803 -10.7680 -10.7476 -10.7302 -10.7217 -10.7088 -10.7056 -10.6900
   -10.6858 -10.6649 -10.6542 -10.6431 -10.6383 -10.6195 -10.6134 -10.6115
   -10.6068 -10.5918 -10.5826 -10.5774 -10.5580 -10.5387 -10.5034 -10.5030
   -10.4732 -10.4477 -10.3640 -10.2659  -9.6607  -8.2832  -6.8102  -6.5024
    -5.6044  -5.1412  -4.9704  -4.8304  -4.3513  -4.1609  -3.5796  -3.1394
    -2.9688  -1.0746  -0.4722  -0.4082  -0.1346   0.3039   0.3183   0.8046
     1.0254   1.2101   1.3076   1.7873   2.1039   2.2390   2.8529   3.0212
     3.1376   3.7148

          k = 0.3333-0.0000 0.0000 ( 25022 PWs)   bands (ev):

   -13.1853 -11.3363 -11.3358 -11.2758 -11.2589 -11.2414 -11.2214 -11.2152
   -11.2136 -11.2097 -11.1841 -11.1659 -11.1557 -11.1322 -11.1206 -11.1001
   -11.0838 -11.0694 -11.0593 -11.0546 -11.0515 -11.0441 -10.9860 -10.9626
   -10.9482 -10.9447 -10.9368 -10.8983 -10.8346 -10.8273 -10.8109 -10.7971
   -10.7635 -10.7540 -10.7375 -10.7205 -10.7017 -10.6946 -10.6855 -10.6796
   -10.6632 -10.6574 -10.6453 -10.6341 -10.6285 -10.6122 -10.5886 -10.5816
   -10.5692 -10.5680 -10.5630 -10.5541 -10.5405 -10.5334 -10.5251 -10.5126
   -10.4697 -10.4229 -10.3181 -10.2714  -9.6851  -8.4231  -6.8330  -5.8906
    -5.8384  -5.5594  -4.9876  -4.3403  -3.9890  -3.8022  -3.6532  -3.3918
    -3.0157  -1.1652  -0.7432  -0.5405  -0.0924   0.0323   0.2640   0.3858
     0.6242   1.0441   1.1508   1.8766   2.0527   2.2515   2.5737   2.6790
     3.2650   3.7158

          k = 0.3333 0.1925 0.0000 ( 25069 PWs)   bands (ev):

   -13.1760 -11.3464 -11.2696 -11.2627 -11.2620 -11.2342 -11.2166 -11.2032
   -11.1965 -11.1835 -11.1632 -11.1413 -11.1361 -11.1137 -11.1030 -11.1013
   -11.0930 -11.0734 -11.0478 -11.0393 -11.0377 -11.0021 -10.9724 -10.9696
   -10.9459 -10.9266 -10.9204 -10.9120 -10.8571 -10.8173 -10.7962 -10.7817
   -10.7803 -10.7680 -10.7476 -10.7302 -10.7217 -10.7088 -10.7056 -10.6900
   -10.6858 -10.6649 -10.6542 -10.6431 -10.6383 -10.6195 -10.6134 -10.6115
   -10.6068 -10.5918 -10.5826 -10.5774 -10.5580 -10.5387 -10.5034 -10.5030
   -10.4732 -10.4477 -10.3640 -10.2659  -9.6607  -8.2832  -6.8102  -6.5024
    -5.6044  -5.1412  -4.9704  -4.8304  -4.3513  -4.1609  -3.5796  -3.1394
    -2.9688  -1.0746  -0.4722  -0.4082  -0.1347   0.3039   0.3183   0.8046
     1.0254   1.2101   1.3076   1.7873   2.1039   2.2390   2.8529   3.0212
     3.1376   3.7148

          k = 0.3333-0.7698 0.0000 ( 25036 PWs)   bands (ev):

   -13.1571 -11.2818 -11.2350 -11.2283 -11.2181 -11.2000 -11.1719 -11.1650
   -11.1571 -11.1452 -11.1353 -11.1218 -11.1084 -11.1003 -11.0890 -11.0779
   -11.0671 -11.0481 -11.0358 -11.0171 -11.0072 -10.9808 -10.9501 -10.9429
   -10.9220 -10.9145 -10.9025 -10.8912 -10.8849 -10.8539 -10.8364 -10.8149
   -10.7952 -10.7879 -10.7750 -10.7680 -10.7598 -10.7485 -10.7312 -10.7176
   -10.7024 -10.6998 -10.6879 -10.6697 -10.6570 -10.6403 -10.6352 -10.6226
   -10.6170 -10.6094 -10.5999 -10.5884 -10.5706 -10.5590 -10.5420 -10.5310
   -10.5130 -10.4761 -10.3917 -10.3103  -9.6126  -7.8592  -7.0144  -6.5293
    -6.1542  -5.6767  -5.2406  -4.7133  -4.1783  -3.9852  -3.7578  -3.3278
    -2.8870  -1.0847  -0.2866   0.0826   0.2538   0.4577   0.9327   1.0404
     1.3895   1.5331   1.8006   2.1010   2.2577   2.4247   2.6813   3.0754
     3.1884   3.4939

          k = 0.3333-0.5774 0.0000 ( 25044 PWs)   bands (ev):

   -13.1474 -11.2032 -11.2030 -11.1904 -11.1839 -11.1810 -11.1558 -11.1485
   -11.1475 -11.1449 -11.1284 -11.1284 -11.1178 -11.0871 -11.0787 -11.0633
   -11.0566 -11.0375 -11.0011 -10.9993 -10.9981 -10.9466 -10.9441 -10.9418
   -10.9165 -10.9137 -10.9107 -10.8870 -10.8777 -10.8647 -10.8596 -10.8474
   -10.8470 -10.8447 -10.8238 -10.8017 -10.7453 -10.7432 -10.7320 -10.7168
   -10.7036 -10.6947 -10.6846 -10.6806 -10.6749 -10.6456 -10.6423 -10.6311
   -10.6274 -10.6180 -10.6156 -10.6110 -10.5856 -10.5818 -10.5544 -10.5479
   -10.5133 -10.4555 -10.3987 -10.3717  -9.5889  -7.1863  -7.1736  -7.0740
    -6.1568  -6.1444  -5.1297  -4.6780  -4.6337  -3.7151  -3.4693  -3.1829
    -3.1137  -1.0930  -0.0801   0.0936   0.4994   0.6875   0.9469   1.1346
     1.1804   1.2167   2.3376   2.3463   2.7090   2.7731   2.8305   3.0837
     3.5887   3.6096

          k = 0.3333-0.3849 0.0000 ( 25036 PWs)   bands (ev):

   -13.1571 -11.2818 -11.2350 -11.2283 -11.2181 -11.2000 -11.1719 -11.1650
   -11.1571 -11.1452 -11.1353 -11.1218 -11.1084 -11.1003 -11.0890 -11.0779
   -11.0671 -11.0481 -11.0358 -11.0171 -11.0072 -10.9808 -10.9501 -10.9429
   -10.9219 -10.9145 -10.9025 -10.8912 -10.8849 -10.8539 -10.8364 -10.8149
   -10.7952 -10.7879 -10.7750 -10.7680 -10.7598 -10.7485 -10.7312 -10.7176
   -10.7024 -10.6998 -10.6879 -10.6697 -10.6570 -10.6403 -10.6352 -10.6226
   -10.6170 -10.6094 -10.5999 -10.5884 -10.5706 -10.5590 -10.5420 -10.5310
   -10.5130 -10.4761 -10.3917 -10.3103  -9.6126  -7.8592  -7.0144  -6.5293
    -6.1542  -5.6768  -5.2406  -4.7133  -4.1783  -3.9852  -3.7578  -3.3278
    -2.8870  -1.0847  -0.2866   0.0826   0.2538   0.4577   0.9327   1.0404
     1.3895   1.5331   1.8006   2.1010   2.2577   2.4247   2.6813   3.0754
     3.1884   3.4939

          k =-0.5000 0.2887 0.0000 ( 25090 PWs)   bands (ev):

   -13.1572 -11.2910 -11.2778 -11.2522 -11.1879 -11.1780 -11.1762 -11.1744
   -11.1624 -11.1579 -11.1318 -11.1175 -11.1166 -11.0904 -11.0810 -11.0784
   -11.0460 -11.0454 -11.0139 -11.0052 -10.9808 -10.9779 -10.9614 -10.9527
   -10.9205 -10.9151 -10.9010 -10.8748 -10.8643 -10.8498 -10.8370 -10.7988
   -10.7963 -10.7857 -10.7848 -10.7650 -10.7545 -10.7400 -10.7333 -10.7310
   -10.7265 -10.7240 -10.7138 -10.6944 -10.6525 -10.6389 -10.6352 -10.6261
   -10.6232 -10.6108 -10.6088 -10.5919 -10.5536 -10.5392 -10.5373 -10.5321
   -10.5028 -10.4919 -10.4238 -10.2784  -9.6130  -7.6201  -7.5314  -6.5505
    -5.7788  -5.1006  -5.0691  -5.0129  -4.6783  -4.4470  -3.5559  -3.1694
    -2.9616  -1.0888   0.0867   0.1549   0.4530   0.5539   0.7453   0.9607
     1.0724   1.3265   1.8417   2.2597   2.3628   2.4732   2.7836   3.2748
     3.5816   3.6303

          k =-0.5000 0.4811 0.0000 ( 25036 PWs)   bands (ev):

   -13.1571 -11.2818 -11.2350 -11.2283 -11.2181 -11.2000 -11.1719 -11.1650
   -11.1571 -11.1452 -11.1353 -11.1218 -11.1084 -11.1002 -11.0890 -11.0779
   -11.0671 -11.0481 -11.0358 -11.0170 -11.0072 -10.9808 -10.9501 -10.9429
   -10.9220 -10.9145 -10.9025 -10.8912 -10.8849 -10.8539 -10.8364 -10.8149
   -10.7952 -10.7879 -10.7750 -10.7680 -10.7598 -10.7485 -10.7312 -10.7176
   -10.7024 -10.6998 -10.6879 -10.6697 -10.6570 -10.6403 -10.6352 -10.6226
   -10.6170 -10.6094 -10.5999 -10.5884 -10.5707 -10.5590 -10.5420 -10.5310
   -10.5131 -10.4761 -10.3917 -10.3103  -9.6126  -7.8592  -7.0144  -6.5293
    -6.1542  -5.6768  -5.2406  -4.7133  -4.1783  -3.9852  -3.7578  -3.3278
    -2.8870  -1.0847  -0.2866   0.0826   0.2538   0.4577   0.9327   1.0404
     1.3895   1.5331   1.8006   2.1010   2.2577   2.4247   2.6813   3.0754
     3.1884   3.4939

          k =-0.5000 0.6736 0.0000 ( 25036 PWs)   bands (ev):

   -13.1571 -11.2818 -11.2350 -11.2283 -11.2181 -11.2000 -11.1719 -11.1650
   -11.1571 -11.1452 -11.1353 -11.1218 -11.1084 -11.1003 -11.0890 -11.0779
   -11.0671 -11.0481 -11.0358 -11.0171 -11.0072 -10.9808 -10.9501 -10.9429
   -10.9220 -10.9145 -10.9025 -10.8912 -10.8849 -10.8539 -10.8364 -10.8149
   -10.7951 -10.7879 -10.7750 -10.7680 -10.7598 -10.7485 -10.7312 -10.7176
   -10.7024 -10.6998 -10.6879 -10.6697 -10.6570 -10.6403 -10.6352 -10.6226
   -10.6170 -10.6094 -10.5999 -10.5884 -10.5706 -10.5590 -10.5420 -10.5310
   -10.5131 -10.4761 -10.3917 -10.3103  -9.6126  -7.8592  -7.0144  -6.5293
    -6.1542  -5.6767  -5.2406  -4.7133  -4.1783  -3.9852  -3.7578  -3.3278
    -2.8870  -1.0847  -0.2866   0.0826   0.2538   0.4577   0.9327   1.0404
     1.3895   1.5331   1.8006   2.1010   2.2577   2.4247   2.6813   3.0754
     3.1884   3.4939

          k =-0.5000-0.2887 0.0000 ( 25090 PWs)   bands (ev):

   -13.1572 -11.2910 -11.2778 -11.2522 -11.1879 -11.1780 -11.1762 -11.1744
   -11.1624 -11.1579 -11.1318 -11.1175 -11.1166 -11.0903 -11.0810 -11.0784
   -11.0460 -11.0454 -11.0139 -11.0052 -10.9808 -10.9779 -10.9614 -10.9527
   -10.9205 -10.9151 -10.9010 -10.8748 -10.8644 -10.8498 -10.8370 -10.7988
   -10.7963 -10.7857 -10.7848 -10.7650 -10.7545 -10.7400 -10.7333 -10.7310
   -10.7265 -10.7240 -10.7138 -10.6944 -10.6525 -10.6389 -10.6352 -10.6261
   -10.6232 -10.6109 -10.6088 -10.5919 -10.5536 -10.5392 -10.5373 -10.5321
   -10.5029 -10.4918 -10.4238 -10.2784  -9.6130  -7.6201  -7.5313  -6.5505
    -5.7788  -5.1006  -5.0691  -5.0129  -4.6783  -4.4470  -3.5559  -3.1694
    -2.9616  -1.0888   0.0867   0.1549   0.4530   0.5539   0.7453   0.9607
     1.0725   1.3265   1.8417   2.2597   2.3627   2.4732   2.7836   3.2747
     3.5816   3.6303

     the Fermi energy is     0.9800 ev

!    total energy              =   -1781.67887539 Ry
     Harris-Foulkes estimate   =   -1781.67892419 Ry
     estimated scf accuracy    <       0.00003952 Ry

     The total energy is the sum of the following terms:

     one-electron contribution =   -8448.60627502 Ry
     hartree contribution      =    4308.58783642 Ry
     xc contribution           =    -773.82373470 Ry
     ewald contribution        =    3132.20336656 Ry
     electric field correction =       0.00019548 Ry
     smearing contrib. (-TS)   =      -0.04026412 Ry

     convergence has been achieved in  12 iterations

     negative rho (up, down):  6.311E-01 0.000E+00

     Forces acting on atoms (cartesian axes, Ry/au):

     atom    1 type  1   force =     0.00001161   -0.00000798   -0.01214856
     atom    2 type  1   force =    -0.00004711    0.00020984   -0.01413186
     atom    3 type  1   force =     0.00018512   -0.00011683   -0.01411917
     atom    4 type  1   force =    -0.00017218   -0.00010504   -0.01409028
     atom    5 type  1   force =     0.00095414   -0.00050612    0.02138697
     atom    6 type  1   force =    -0.00093379   -0.00056104    0.02141447
     atom    7 type  1   force =    -0.00003715   -0.00000296    0.01960266
     atom    8 type  1   force =     0.00002240    0.00108347    0.02139068
     atom    9 type  1   force =    -0.00294720   -0.00167636   -0.00681243
     atom   10 type  1   force =     0.00294894   -0.00169304   -0.00679467
     atom   11 type  1   force =     0.00002516    0.00339590   -0.00679496
     atom   12 type  1   force =    -0.00000986   -0.00002158   -0.00871912
     atom   13 type  2   force =    -0.00000008    0.00000174   -0.00018373

     Total force =     0.015792     Total SCF correction =     0.024808
     SCF correction compared to forces is large: reduce conv_thr to get better values

     BFGS Geometry Optimization

     number of scf cycles    =   1
     number of bfgs steps    =   0

     energy   new            =   -1781.6788753910 Ry

     new trust radius        =       0.0087191499 bohr
     new conv_thr            =       0.0001000000 Ry


ATOMIC_POSITIONS (angstrom)
Tl       1.671975640   0.965315586  10.000000000    0   0   0
Tl       5.015926920   0.965315586  10.000000000    0   0   0
Tl       3.343951280   3.861262344  10.000000000    0   0   0
Tl       6.687902560   3.861262344  10.000000000    0   0   0
Tl       6.687902560   1.930631172  12.730324787    0   0   0
Tl       3.343951280   1.930631172  12.730324787    0   0   0
Tl       8.359878201   4.826577930  12.730324787    0   0   0
Tl       5.015926920   4.826577930  12.730324787    0   0   0
Tl      -0.060329094  -0.034811051  15.897336432
Tl       3.404257297  -0.034809793  15.897367547
Tl       1.671986382   2.965574334  15.897350080
Tl       5.015903063   2.895931435  15.817664563
N        1.671961018   0.965315447  16.934400643



     Writing output data file calc.save
     Check: negative starting charge=   -0.602307
     NEW-OLD atomic charge density approx. for the potential

     Check: negative/imaginary core charge=   -0.000001    0.000000
     Check: negative starting charge=   -0.602171

     negative rho (up, down):  6.308E-01 0.000E+00

     Adding external electric field

     Computed dipole along edir(3) : 
        Dipole               -0.3219 Ry au,         -0.8182 Debye
        Dipole field         -0.0006 Ry au, 

        Potential amp.        0.0526 Ry
        Total length         43.3023 bohr


     total cpu time spent up to now is      184.3 secs

     per-process dynamical memory:   154.3 Mb

     Self-consistent Calculation

     iteration #  1     ecut=    36.75 Ry     beta=0.20
     Davidson diagonalization with overlap
     ethr =  1.00E-06,  avg # of iterations =  4.5

     negative rho (up, down):  6.308E-01 0.000E+00

     Adding external electric field

     Computed dipole along edir(3) : 
        Dipole               -0.3389 Ry au,         -0.8613 Debye
        Dipole field         -0.0006 Ry au, 

        Potential amp.        0.0554 Ry
        Total length         43.3023 bohr


     total cpu time spent up to now is      205.3 secs

     total energy              =   -1781.67839444 Ry
     Harris-Foulkes estimate   =   -1781.67908631 Ry
     estimated scf accuracy    <       0.00206234 Ry

     iteration #  2     ecut=    36.75 Ry     beta=0.20
     Davidson diagonalization with overlap
     ethr =  1.28E-06,  avg # of iterations =  5.0

     negative rho (up, down):  6.308E-01 0.000E+00

     Adding external electric field

     Computed dipole along edir(3) : 
        Dipole               -0.3404 Ry au,         -0.8651 Debye
        Dipole field         -0.0006 Ry au, 

        Potential amp.        0.0557 Ry
        Total length         43.3023 bohr


     total cpu time spent up to now is      225.3 secs

     total energy              =   -1781.67871008 Ry
     Harris-Foulkes estimate   =   -1781.67907657 Ry
     estimated scf accuracy    <       0.00203250 Ry

     iteration #  3     ecut=    36.75 Ry     beta=0.20
     Davidson diagonalization with overlap
     ethr =  1.26E-06,  avg # of iterations =  2.9

     negative rho (up, down):  6.308E-01 0.000E+00

     Adding external electric field

     Computed dipole along edir(3) : 
        Dipole               -0.3288 Ry au,         -0.8356 Debye
        Dipole field         -0.0006 Ry au, 

        Potential amp.        0.0538 Ry
        Total length         43.3023 bohr


     total cpu time spent up to now is      240.1 secs

     total energy              =   -1781.67885847 Ry
     Harris-Foulkes estimate   =   -1781.67891444 Ry
     estimated scf accuracy    <       0.00047955 Ry

     iteration #  4     ecut=    36.75 Ry     beta=0.20
     Davidson diagonalization with overlap
     ethr =  2.98E-07,  avg # of iterations =  2.9

     negative rho (up, down):  6.308E-01 0.000E+00

     Adding external electric field

     Computed dipole along edir(3) : 
        Dipole               -0.3331 Ry au,         -0.8468 Debye
        Dipole field         -0.0006 Ry au, 

        Potential amp.        0.0545 Ry
        Total length         43.3023 bohr


     total cpu time spent up to now is      256.2 secs

     total energy              =   -1781.67888569 Ry
     Harris-Foulkes estimate   =   -1781.67888767 Ry
     estimated scf accuracy    <       0.00010101 Ry

     iteration #  5     ecut=    36.75 Ry     beta=0.20
     Davidson diagonalization with overlap
     ethr =  6.27E-08,  avg # of iterations =  2.5

     negative rho (up, down):  6.309E-01 0.000E+00

     Adding external electric field

     Computed dipole along edir(3) : 
        Dipole               -0.3390 Ry au,         -0.8616 Debye
        Dipole field         -0.0006 Ry au, 

        Potential amp.        0.0554 Ry
        Total length         43.3023 bohr


     total cpu time spent up to now is      270.3 secs

     End of self-consistent calculation

          k = 0.0000 0.0000 0.0000 ( 24957 PWs)   bands (ev):

   -13.2184 -11.4224 -11.4224 -11.4216 -11.3162 -11.3162 -11.3008 -11.2947
   -11.2818 -11.2818 -11.2693 -11.2693 -11.2609 -11.2322 -11.1575 -11.1113
   -11.1113 -11.0971 -11.0927 -11.0927 -11.0701 -11.0701 -11.0495 -11.0495
   -10.9610 -10.9610 -10.9587 -10.8944 -10.8937 -10.8936 -10.7893 -10.7893
   -10.7231 -10.7231 -10.7097 -10.6755 -10.6707 -10.6707 -10.6640 -10.6463
   -10.6463 -10.6149 -10.6149 -10.5838 -10.5837 -10.5831 -10.5455 -10.5074
   -10.5069 -10.5069 -10.4950 -10.4950 -10.4796 -10.4796 -10.4699 -10.4532
   -10.4532 -10.2916 -10.2916 -10.1854  -9.8391  -8.8552  -7.0693  -5.7514
    -4.2949  -4.2949  -4.2745  -4.0975  -4.0975  -3.7802  -3.3034  -3.3034
    -3.0213  -1.5339  -1.5339  -1.4852  -1.0158  -0.5817  -0.5817  -0.5670
    -0.2773  -0.2772  -0.1628   1.3401   1.3402   1.7168   2.9293   3.6246
     3.7464   3.7464

          k = 0.0000 0.1925 0.0000 ( 25013 PWs)   bands (ev):

   -13.2004 -11.4046 -11.3791 -11.3787 -11.3011 -11.2803 -11.2736 -11.2695
   -11.2598 -11.2553 -11.2442 -11.2362 -11.2284 -11.2018 -11.1421 -11.1095
   -11.1052 -11.0858 -11.0826 -11.0801 -11.0767 -11.0523 -11.0367 -11.0203
   -10.9712 -10.9690 -10.9525 -10.9059 -10.8677 -10.8596 -10.8116 -10.7948
   -10.7459 -10.7244 -10.7179 -10.6982 -10.6900 -10.6814 -10.6670 -10.6648
   -10.6469 -10.6435 -10.6166 -10.6151 -10.6061 -10.5917 -10.5535 -10.5432
   -10.5413 -10.5398 -10.5212 -10.5186 -10.5132 -10.5120 -10.4982 -10.4845
   -10.4638 -10.3521 -10.3078 -10.2222  -9.7779  -8.7159  -6.9915  -5.7232
    -5.3023  -4.6268  -4.5962  -4.3772  -4.1450  -3.7542  -3.3224  -3.1820
    -2.9985  -1.3317  -1.2481  -0.9811  -0.8068  -0.5088  -0.4250  -0.2033
     0.1824   0.2924   0.7225   1.4383   1.4517   1.8691   2.8419   3.1463
     3.5387   3.7830

          k = 0.0000 0.3849 0.0000 ( 25069 PWs)   bands (ev):

   -13.1635 -11.3572 -11.2751 -11.2735 -11.2725 -11.2447 -11.2271 -11.2130
   -11.2065 -11.1895 -11.1706 -11.1512 -11.1471 -11.1231 -11.1128 -11.1070
   -11.1032 -11.0812 -11.0577 -11.0490 -11.0471 -11.0131 -10.9824 -10.9796
   -10.9558 -10.9378 -10.9313 -10.9232 -10.8676 -10.8284 -10.8073 -10.7917
   -10.7917 -10.7784 -10.7585 -10.7403 -10.7320 -10.7191 -10.7162 -10.7004
   -10.6961 -10.6752 -10.6648 -10.6544 -10.6487 -10.6297 -10.6232 -10.6225
   -10.6183 -10.6030 -10.5934 -10.5864 -10.5677 -10.5477 -10.5145 -10.5138
   -10.4835 -10.4586 -10.3751 -10.2771  -9.6743  -8.2966  -6.8240  -6.5153
    -5.6128  -5.1540  -4.9821  -4.8422  -4.3550  -4.1691  -3.5900  -3.1484
    -2.9767  -1.0781  -0.4836  -0.4163  -0.1457   0.2961   0.3128   0.7935
     1.0139   1.1998   1.2981   1.7791   2.1011   2.2313   2.8463   3.0124
     3.1283   3.7047

          k = 0.0000-0.5774 0.0000 ( 25090 PWs)   bands (ev):

   -13.1443 -11.3016 -11.2879 -11.2575 -11.1983 -11.1885 -11.1859 -11.1848
   -11.1739 -11.1687 -11.1384 -11.1274 -11.1253 -11.0958 -11.0861 -11.0859
   -11.0566 -11.0554 -11.0236 -11.0143 -10.9899 -10.9868 -10.9734 -10.9631
   -10.9316 -10.9261 -10.9110 -10.8864 -10.8745 -10.8606 -10.8475 -10.8095
   -10.8060 -10.7966 -10.7954 -10.7759 -10.7660 -10.7508 -10.7451 -10.7428
   -10.7377 -10.7350 -10.7241 -10.7056 -10.6642 -10.6495 -10.6463 -10.6360
   -10.6338 -10.6202 -10.6197 -10.6023 -10.5622 -10.5506 -10.5457 -10.5426
   -10.5136 -10.5025 -10.4345 -10.2897  -9.6266  -7.6340  -7.5441  -6.5609
    -5.7935  -5.1124  -5.0815  -5.0214  -4.6865  -4.4507  -3.5674  -3.1782
    -2.9692  -1.0922   0.0773   0.1501   0.4454   0.5476   0.7336   0.9507
     1.0608   1.3152   1.8337   2.2551   2.3522   2.4658   2.7790   3.2614
     3.5723   3.6210

          k = 0.1667-0.0962 0.0000 ( 25013 PWs)   bands (ev):

   -13.2004 -11.4046 -11.3791 -11.3787 -11.3011 -11.2803 -11.2736 -11.2695
   -11.2598 -11.2553 -11.2442 -11.2362 -11.2284 -11.2018 -11.1421 -11.1095
   -11.1052 -11.0858 -11.0826 -11.0801 -11.0767 -11.0523 -11.0367 -11.0203
   -10.9712 -10.9690 -10.9525 -10.9059 -10.8677 -10.8596 -10.8116 -10.7948
   -10.7459 -10.7244 -10.7179 -10.6982 -10.6900 -10.6814 -10.6670 -10.6648
   -10.6469 -10.6435 -10.6166 -10.6151 -10.6061 -10.5917 -10.5535 -10.5432
   -10.5413 -10.5398 -10.5212 -10.5186 -10.5132 -10.5120 -10.4982 -10.4845
   -10.4638 -10.3521 -10.3078 -10.2222  -9.7779  -8.7159  -6.9915  -5.7232
    -5.3023  -4.6268  -4.5962  -4.3771  -4.1450  -3.7542  -3.3224  -3.1820
    -2.9985  -1.3317  -1.2481  -0.9811  -0.8068  -0.5088  -0.4250  -0.2033
     0.1824   0.2924   0.7225   1.4383   1.4517   1.8691   2.8419   3.1463
     3.5387   3.7830

          k = 0.1667 0.0962 0.0000 ( 25013 PWs)   bands (ev):

   -13.2004 -11.4046 -11.3791 -11.3787 -11.3011 -11.2803 -11.2736 -11.2695
   -11.2598 -11.2553 -11.2442 -11.2362 -11.2284 -11.2018 -11.1421 -11.1095
   -11.1052 -11.0858 -11.0826 -11.0801 -11.0767 -11.0523 -11.0367 -11.0203
   -10.9712 -10.9690 -10.9525 -10.9059 -10.8677 -10.8596 -10.8116 -10.7948
   -10.7459 -10.7244 -10.7179 -10.6982 -10.6900 -10.6814 -10.6670 -10.6648
   -10.6469 -10.6435 -10.6166 -10.6151 -10.6061 -10.5917 -10.5535 -10.5432
   -10.5413 -10.5398 -10.5212 -10.5186 -10.5132 -10.5120 -10.4982 -10.4845
   -10.4638 -10.3521 -10.3078 -10.2222  -9.7779  -8.7159  -6.9915  -5.7232
    -5.3023  -4.6268  -4.5962  -4.3771  -4.1450  -3.7542  -3.3224  -3.1820
    -2.9985  -1.3317  -1.2482  -0.9811  -0.8068  -0.5088  -0.4251  -0.2032
     0.1824   0.2924   0.7225   1.4383   1.4517   1.8691   2.8419   3.1463
     3.5387   3.7830

          k = 0.1667 0.2887 0.0000 ( 25022 PWs)   bands (ev):

   -13.1728 -11.3471 -11.3466 -11.2865 -11.2644 -11.2478 -11.2318 -11.2261
   -11.2240 -11.2182 -11.1926 -11.1764 -11.1647 -11.1421 -11.1303 -11.1060
   -11.0900 -11.0800 -11.0699 -11.0658 -11.0616 -11.0532 -10.9959 -10.9717
   -10.9608 -10.9552 -10.9470 -10.9097 -10.8452 -10.8384 -10.8223 -10.8070
   -10.7736 -10.7651 -10.7474 -10.7302 -10.7119 -10.7047 -10.6962 -10.6905
   -10.6738 -10.6679 -10.6555 -10.6446 -10.6382 -10.6229 -10.5988 -10.5919
   -10.5792 -10.5785 -10.5736 -10.5648 -10.5496 -10.5452 -10.5354 -10.5231
   -10.4800 -10.4340 -10.3295 -10.2825  -9.6987  -8.4364  -6.8475  -5.9042
    -5.8503  -5.5675  -4.9957  -4.3496  -4.0007  -3.8094  -3.6617  -3.4006
    -3.0239  -1.1710  -0.7519  -0.5494  -0.1012   0.0234   0.2524   0.3754
     0.6164   1.0338   1.1410   1.8687   2.0504   2.2429   2.5670   2.6709
     3.2538   3.7068

          k = 0.1667-0.6736 0.0000 ( 25036 PWs)   bands (ev):

   -13.1442 -11.2926 -11.2423 -11.2382 -11.2272 -11.2102 -11.1809 -11.1736
   -11.1676 -11.1540 -11.1437 -11.1321 -11.1169 -11.1076 -11.0983 -11.0852
   -11.0764 -11.0572 -11.0439 -11.0275 -11.0175 -10.9892 -10.9620 -10.9534
   -10.9324 -10.9249 -10.9128 -10.9024 -10.8958 -10.8645 -10.8466 -10.8258
   -10.8065 -10.7990 -10.7861 -10.7789 -10.7709 -10.7590 -10.7421 -10.7294
   -10.7132 -10.7100 -10.6981 -10.6809 -10.6674 -10.6511 -10.6460 -10.6332
   -10.6272 -10.6198 -10.6095 -10.5990 -10.5804 -10.5688 -10.5528 -10.5413
   -10.5234 -10.4865 -10.4026 -10.3214  -9.6262  -7.8725  -7.0277  -6.5410
    -6.1673  -5.6878  -5.2483  -4.7228  -4.1877  -3.9957  -3.7654  -3.3351
    -2.8970  -1.0884  -0.2950   0.0742   0.2476   0.4485   0.9231   1.0319
     1.3785   1.5234   1.7909   2.0927   2.2475   2.4197   2.6734   3.0667
     3.1799   3.4876

          k = 0.1667-0.4811 0.0000 ( 25036 PWs)   bands (ev):

   -13.1442 -11.2926 -11.2423 -11.2382 -11.2272 -11.2102 -11.1809 -11.1736
   -11.1676 -11.1540 -11.1437 -11.1321 -11.1169 -11.1076 -11.0983 -11.0852
   -11.0764 -11.0572 -11.0439 -11.0275 -11.0175 -10.9892 -10.9620 -10.9534
   -10.9325 -10.9249 -10.9128 -10.9024 -10.8958 -10.8645 -10.8466 -10.8258
   -10.8065 -10.7990 -10.7861 -10.7789 -10.7709 -10.7590 -10.7421 -10.7294
   -10.7132 -10.7100 -10.6981 -10.6809 -10.6674 -10.6511 -10.6460 -10.6332
   -10.6272 -10.6198 -10.6095 -10.5990 -10.5804 -10.5688 -10.5528 -10.5413
   -10.5234 -10.4865 -10.4026 -10.3214  -9.6262  -7.8725  -7.0277  -6.5410
    -6.1673  -5.6878  -5.2483  -4.7228  -4.1877  -3.9957  -3.7654  -3.3351
    -2.8970  -1.0884  -0.2950   0.0742   0.2476   0.4485   0.9231   1.0319
     1.3785   1.5234   1.7909   2.0927   2.2475   2.4197   2.6734   3.0667
     3.1799   3.4876

          k = 0.1667-0.2887 0.0000 ( 25022 PWs)   bands (ev):

   -13.1728 -11.3471 -11.3466 -11.2865 -11.2644 -11.2478 -11.2318 -11.2261
   -11.2240 -11.2182 -11.1926 -11.1764 -11.1647 -11.1421 -11.1303 -11.1060
   -11.0900 -11.0800 -11.0699 -11.0658 -11.0616 -11.0532 -10.9959 -10.9717
   -10.9608 -10.9552 -10.9470 -10.9097 -10.8452 -10.8385 -10.8223 -10.8070
   -10.7736 -10.7651 -10.7474 -10.7302 -10.7119 -10.7047 -10.6962 -10.6905
   -10.6738 -10.6679 -10.6555 -10.6446 -10.6382 -10.6229 -10.5988 -10.5919
   -10.5792 -10.5785 -10.5736 -10.5648 -10.5497 -10.5452 -10.5354 -10.5231
   -10.4800 -10.4340 -10.3295 -10.2825  -9.6987  -8.4364  -6.8475  -5.9042
    -5.8503  -5.5675  -4.9958  -4.3496  -4.0007  -3.8094  -3.6617  -3.4005
    -3.0239  -1.1710  -0.7519  -0.5494  -0.1012   0.0234   0.2524   0.3754
     0.6164   1.0338   1.1410   1.8687   2.0504   2.2429   2.5670   2.6709
     3.2538   3.7068

          k = 0.3333-0.1925 0.0000 ( 25069 PWs)   bands (ev):

   -13.1635 -11.3572 -11.2751 -11.2735 -11.2725 -11.2447 -11.2271 -11.2130
   -11.2065 -11.1895 -11.1706 -11.1512 -11.1471 -11.1231 -11.1128 -11.1070
   -11.1032 -11.0812 -11.0577 -11.0490 -11.0471 -11.0131 -10.9824 -10.9796
   -10.9558 -10.9378 -10.9313 -10.9232 -10.8676 -10.8284 -10.8073 -10.7917
   -10.7917 -10.7784 -10.7585 -10.7403 -10.7320 -10.7191 -10.7162 -10.7004
   -10.6961 -10.6752 -10.6648 -10.6544 -10.6487 -10.6297 -10.6232 -10.6225
   -10.6183 -10.6030 -10.5934 -10.5865 -10.5677 -10.5477 -10.5145 -10.5138
   -10.4835 -10.4586 -10.3751 -10.2771  -9.6743  -8.2966  -6.8240  -6.5153
    -5.6128  -5.1539  -4.9821  -4.8422  -4.3550  -4.1691  -3.5900  -3.1484
    -2.9767  -1.0781  -0.4836  -0.4163  -0.1457   0.2960   0.3128   0.7935
     1.0139   1.1998   1.2981   1.7791   2.1011   2.2313   2.8463   3.0124
     3.1283   3.7047

          k = 0.3333-0.0000 0.0000 ( 25022 PWs)   bands (ev):

   -13.1728 -11.3471 -11.3466 -11.2865 -11.2644 -11.2478 -11.2318 -11.2261
   -11.2240 -11.2182 -11.1926 -11.1764 -11.1647 -11.1421 -11.1303 -11.1060
   -11.0900 -11.0800 -11.0699 -11.0658 -11.0616 -11.0532 -10.9959 -10.9717
   -10.9608 -10.9552 -10.9470 -10.9097 -10.8452 -10.8384 -10.8223 -10.8070
   -10.7736 -10.7651 -10.7474 -10.7302 -10.7119 -10.7047 -10.6962 -10.6905
   -10.6738 -10.6679 -10.6555 -10.6446 -10.6382 -10.6229 -10.5988 -10.5919
   -10.5792 -10.5785 -10.5736 -10.5648 -10.5496 -10.5452 -10.5354 -10.5231
   -10.4800 -10.4340 -10.3295 -10.2825  -9.6987  -8.4364  -6.8476  -5.9042
    -5.8503  -5.5675  -4.9957  -4.3496  -4.0007  -3.8094  -3.6617  -3.4005
    -3.0239  -1.1710  -0.7519  -0.5494  -0.1012   0.0234   0.2524   0.3754
     0.6164   1.0338   1.1410   1.8687   2.0504   2.2429   2.5670   2.6709
     3.2538   3.7069

          k = 0.3333 0.1925 0.0000 ( 25069 PWs)   bands (ev):

   -13.1635 -11.3572 -11.2751 -11.2735 -11.2725 -11.2447 -11.2271 -11.2130
   -11.2065 -11.1895 -11.1706 -11.1512 -11.1471 -11.1231 -11.1128 -11.1070
   -11.1032 -11.0812 -11.0577 -11.0490 -11.0471 -11.0131 -10.9824 -10.9796
   -10.9558 -10.9378 -10.9313 -10.9231 -10.8676 -10.8284 -10.8073 -10.7917
   -10.7917 -10.7784 -10.7585 -10.7403 -10.7320 -10.7191 -10.7162 -10.7004
   -10.6961 -10.6752 -10.6648 -10.6544 -10.6487 -10.6297 -10.6232 -10.6225
   -10.6183 -10.6030 -10.5934 -10.5865 -10.5677 -10.5477 -10.5145 -10.5138
   -10.4835 -10.4586 -10.3751 -10.2771  -9.6743  -8.2966  -6.8240  -6.5153
    -5.6128  -5.1539  -4.9821  -4.8422  -4.3550  -4.1690  -3.5900  -3.1484
    -2.9767  -1.0781  -0.4836  -0.4163  -0.1457   0.2960   0.3128   0.7935
     1.0139   1.1998   1.2982   1.7791   2.1011   2.2313   2.8463   3.0124
     3.1283   3.7047

          k = 0.3333-0.7698 0.0000 ( 25036 PWs)   bands (ev):

   -13.1442 -11.2926 -11.2423 -11.2382 -11.2272 -11.2102 -11.1809 -11.1736
   -11.1676 -11.1540 -11.1437 -11.1321 -11.1169 -11.1076 -11.0983 -11.0852
   -11.0764 -11.0572 -11.0439 -11.0275 -11.0175 -10.9892 -10.9620 -10.9534
   -10.9324 -10.9249 -10.9128 -10.9024 -10.8958 -10.8645 -10.8466 -10.8258
   -10.8065 -10.7990 -10.7861 -10.7789 -10.7709 -10.7590 -10.7421 -10.7294
   -10.7132 -10.7100 -10.6981 -10.6809 -10.6674 -10.6511 -10.6460 -10.6332
   -10.6272 -10.6198 -10.6095 -10.5990 -10.5804 -10.5688 -10.5528 -10.5413
   -10.5234 -10.4865 -10.4026 -10.3214  -9.6262  -7.8725  -7.0277  -6.5410
    -6.1673  -5.6877  -5.2483  -4.7229  -4.1876  -3.9957  -3.7654  -3.3351
    -2.8970  -1.0884  -0.2950   0.0742   0.2476   0.4485   0.9231   1.0319
     1.3785   1.5234   1.7909   2.0927   2.2475   2.4197   2.6734   3.0667
     3.1799   3.4876

          k = 0.3333-0.5774 0.0000 ( 25044 PWs)   bands (ev):

   -13.1344 -11.2139 -11.2130 -11.2006 -11.1914 -11.1897 -11.1657 -11.1587
   -11.1555 -11.1532 -11.1380 -11.1373 -11.1243 -11.0967 -11.0871 -11.0716
   -11.0631 -11.0447 -11.0122 -11.0098 -11.0084 -10.9566 -10.9564 -10.9514
   -10.9262 -10.9245 -10.9220 -10.8981 -10.8857 -10.8785 -10.8708 -10.8590
   -10.8579 -10.8552 -10.8345 -10.8136 -10.7564 -10.7545 -10.7430 -10.7278
   -10.7151 -10.7054 -10.6949 -10.6895 -10.6849 -10.6562 -10.6531 -10.6412
   -10.6378 -10.6283 -10.6260 -10.6227 -10.5943 -10.5933 -10.5645 -10.5579
   -10.5234 -10.4668 -10.4086 -10.3831  -9.6025  -7.1990  -7.1884  -7.0863
    -6.1710  -6.1502  -5.1423  -4.6872  -4.6404  -3.7263  -3.4712  -3.1973
    -3.1224  -1.0966  -0.0825   0.0823   0.4910   0.6769   0.9386   1.1268
     1.1689   1.2070   2.3323   2.3379   2.6994   2.7681   2.8246   3.0749
     3.5807   3.6025

          k = 0.3333-0.3849 0.0000 ( 25036 PWs)   bands (ev):

   -13.1442 -11.2926 -11.2423 -11.2382 -11.2272 -11.2102 -11.1809 -11.1736
   -11.1676 -11.1540 -11.1437 -11.1321 -11.1169 -11.1076 -11.0983 -11.0852
   -11.0764 -11.0572 -11.0439 -11.0275 -11.0175 -10.9892 -10.9620 -10.9534
   -10.9325 -10.9249 -10.9128 -10.9024 -10.8958 -10.8645 -10.8466 -10.8258
   -10.8065 -10.7990 -10.7861 -10.7789 -10.7709 -10.7590 -10.7421 -10.7294
   -10.7132 -10.7100 -10.6981 -10.6809 -10.6674 -10.6511 -10.6460 -10.6332
   -10.6272 -10.6198 -10.6095 -10.5990 -10.5804 -10.5688 -10.5528 -10.5413
   -10.5234 -10.4865 -10.4026 -10.3214  -9.6262  -7.8725  -7.0277  -6.5410
    -6.1673  -5.6878  -5.2483  -4.7229  -4.1877  -3.9957  -3.7654  -3.3351
    -2.8970  -1.0884  -0.2950   0.0742   0.2476   0.4485   0.9231   1.0319
     1.3785   1.5234   1.7909   2.0927   2.2475   2.4197   2.6734   3.0667
     3.1799   3.4876

          k =-0.5000 0.2887 0.0000 ( 25090 PWs)   bands (ev):

   -13.1443 -11.3016 -11.2879 -11.2575 -11.1983 -11.1885 -11.1859 -11.1848
   -11.1739 -11.1687 -11.1384 -11.1274 -11.1253 -11.0958 -11.0861 -11.0859
   -11.0566 -11.0554 -11.0236 -11.0143 -10.9899 -10.9868 -10.9734 -10.9631
   -10.9316 -10.9261 -10.9110 -10.8864 -10.8745 -10.8606 -10.8475 -10.8095
   -10.8060 -10.7966 -10.7954 -10.7759 -10.7660 -10.7508 -10.7451 -10.7428
   -10.7377 -10.7350 -10.7241 -10.7056 -10.6642 -10.6495 -10.6463 -10.6360
   -10.6338 -10.6202 -10.6197 -10.6023 -10.5622 -10.5506 -10.5457 -10.5426
   -10.5136 -10.5025 -10.4345 -10.2897  -9.6266  -7.6340  -7.5441  -6.5609
    -5.7935  -5.1124  -5.0815  -5.0214  -4.6865  -4.4507  -3.5674  -3.1782
    -2.9692  -1.0922   0.0773   0.1501   0.4455   0.5476   0.7336   0.9507
     1.0608   1.3152   1.8337   2.2551   2.3522   2.4657   2.7790   3.2614
     3.5723   3.6210

          k =-0.5000 0.4811 0.0000 ( 25036 PWs)   bands (ev):

   -13.1442 -11.2926 -11.2423 -11.2382 -11.2272 -11.2102 -11.1809 -11.1736
   -11.1676 -11.1540 -11.1437 -11.1321 -11.1169 -11.1076 -11.0983 -11.0852
   -11.0764 -11.0572 -11.0439 -11.0275 -11.0175 -10.9892 -10.9620 -10.9534
   -10.9325 -10.9249 -10.9128 -10.9024 -10.8958 -10.8645 -10.8466 -10.8258
   -10.8065 -10.7990 -10.7861 -10.7789 -10.7709 -10.7590 -10.7421 -10.7294
   -10.7132 -10.7100 -10.6981 -10.6809 -10.6674 -10.6511 -10.6460 -10.6332
   -10.6272 -10.6198 -10.6095 -10.5990 -10.5804 -10.5688 -10.5528 -10.5413
   -10.5234 -10.4865 -10.4026 -10.3214  -9.6262  -7.8725  -7.0277  -6.5410
    -6.1673  -5.6877  -5.2483  -4.7228  -4.1877  -3.9957  -3.7654  -3.3351
    -2.8970  -1.0884  -0.2950   0.0742   0.2476   0.4485   0.9231   1.0319
     1.3785   1.5234   1.7909   2.0927   2.2475   2.4197   2.6734   3.0667
     3.1799   3.4876

          k =-0.5000 0.6736 0.0000 ( 25036 PWs)   bands (ev):

   -13.1442 -11.2926 -11.2423 -11.2382 -11.2272 -11.2102 -11.1809 -11.1736
   -11.1676 -11.1541 -11.1437 -11.1321 -11.1169 -11.1076 -11.0983 -11.0852
   -11.0764 -11.0572 -11.0439 -11.0275 -11.0175 -10.9892 -10.9620 -10.9534
   -10.9324 -10.9249 -10.9128 -10.9024 -10.8958 -10.8645 -10.8466 -10.8258
   -10.8065 -10.7990 -10.7861 -10.7789 -10.7709 -10.7590 -10.7421 -10.7294
   -10.7132 -10.7100 -10.6981 -10.6809 -10.6674 -10.6511 -10.6460 -10.6332
   -10.6272 -10.6198 -10.6095 -10.5990 -10.5804 -10.5688 -10.5528 -10.5413
   -10.5234 -10.4865 -10.4026 -10.3214  -9.6262  -7.8725  -7.0277  -6.5410
    -6.1673  -5.6877  -5.2483  -4.7228  -4.1876  -3.9957  -3.7654  -3.3351
    -2.8970  -1.0884  -0.2950   0.0742   0.2476   0.4485   0.9231   1.0319
     1.3785   1.5234   1.7909   2.0927   2.2475   2.4197   2.6734   3.0667
     3.1799   3.4876

          k =-0.5000-0.2887 0.0000 ( 25090 PWs)   bands (ev):

   -13.1443 -11.3016 -11.2879 -11.2575 -11.1983 -11.1885 -11.1859 -11.1848
   -11.1739 -11.1687 -11.1384 -11.1274 -11.1253 -11.0958 -11.0861 -11.0859
   -11.0566 -11.0554 -11.0236 -11.0143 -10.9899 -10.9868 -10.9734 -10.9631
   -10.9316 -10.9261 -10.9110 -10.8864 -10.8745 -10.8606 -10.8475 -10.8095
   -10.8060 -10.7966 -10.7954 -10.7759 -10.7660 -10.7508 -10.7451 -10.7428
   -10.7377 -10.7350 -10.7241 -10.7056 -10.6642 -10.6495 -10.6463 -10.6360
   -10.6338 -10.6202 -10.6197 -10.6023 -10.5622 -10.5506 -10.5457 -10.5426
   -10.5135 -10.5025 -10.4345 -10.2897  -9.6266  -7.6340  -7.5441  -6.5609
    -5.7934  -5.1124  -5.0815  -5.0214  -4.6865  -4.4507  -3.5674  -3.1782
    -2.9692  -1.0922   0.0772   0.1501   0.4455   0.5476   0.7336   0.9507
     1.0608   1.3152   1.8337   2.2551   2.3522   2.4658   2.7790   3.2614
     3.5723   3.6210

     the Fermi energy is     0.9702 ev

!    total energy              =   -1781.67888818 Ry
     Harris-Foulkes estimate   =   -1781.67888322 Ry
     estimated scf accuracy    <       0.00000174 Ry

     The total energy is the sum of the following terms:

     one-electron contribution =   -8453.30262699 Ry
     hartree contribution      =    4311.11586939 Ry
     xc contribution           =    -773.82295342 Ry
     ewald contribution        =    3134.37088623 Ry
     electric field correction =       0.00021697 Ry
     smearing contrib. (-TS)   =      -0.04028035 Ry

     convergence has been achieved in   5 iterations

     negative rho (up, down):  6.309E-01 0.000E+00

     Forces acting on atoms (cartesian axes, Ry/au):

     atom    1 type  1   force =     0.00000030    0.00000104   -0.02105695
     atom    2 type  1   force =     0.00001394    0.00021001   -0.02314008
     atom    3 type  1   force =     0.00018413   -0.00010276   -0.02314099
     atom    4 type  1   force =    -0.00018769   -0.00010481   -0.02316210
     atom    5 type  1   force =     0.00053400   -0.00032222    0.02151213
     atom    6 type  1   force =    -0.00054666   -0.00030768    0.02149976
     atom    7 type  1   force =     0.00001219   -0.00000188    0.01901523
     atom    8 type  1   force =    -0.00000760    0.00063013    0.02150396
     atom    9 type  1   force =     0.00141307    0.00080041    0.00267359
     atom   10 type  1   force =    -0.00140970    0.00080465    0.00266556
     atom   11 type  1   force =    -0.00001032   -0.00161289    0.00267144
     atom   12 type  1   force =     0.00000188    0.00000592   -0.00055626
     atom   13 type  2   force =     0.00000246    0.00000008   -0.00048529

     Total force =     0.005460     Total SCF correction =     0.002426
     SCF correction compared to forces is large: reduce conv_thr to get better values

     number of scf cycles    =   2
     number of bfgs steps    =   1

     energy   old            =   -1781.6788753910 Ry
     energy   new            =   -1781.6788881752 Ry

     CASE: energy  _new < energy  _old

     new trust radius        =       0.0022391792 bohr
     new conv_thr            =       0.0000010000 Ry


ATOMIC_POSITIONS (angstrom)
Tl       1.671975640   0.965315586  10.000000000    0   0   0
Tl       5.015926920   0.965315586  10.000000000    0   0   0
Tl       3.343951280   3.861262344  10.000000000    0   0   0
Tl       6.687902560   3.861262344  10.000000000    0   0   0
Tl       6.687902560   1.930631172  12.730324787    0   0   0
Tl       3.343951280   1.930631172  12.730324787    0   0   0
Tl       8.359878201   4.826577930  12.730324787    0   0   0
Tl       5.015926920   4.826577930  12.730324787    0   0   0
Tl      -0.059786047  -0.034503564  15.898343702
Tl       3.403715689  -0.034500805  15.898371747
Tl       1.671982477   2.964955014  15.898356737
Tl       5.015903688   2.895933561  15.817289351
N        1.671962047   0.965315511  16.934194603



     Writing output data file calc.save
     Check: negative starting charge=   -0.602171
     NEW-OLD atomic charge density approx. for the potential

     Check: negative/imaginary core charge=   -0.000001    0.000000
     Check: negative starting charge=   -0.602223

     negative rho (up, down):  6.310E-01 0.000E+00

     Adding external electric field

     Computed dipole along edir(3) : 
        Dipole               -0.3390 Ry au,         -0.8615 Debye
        Dipole field         -0.0006 Ry au, 

        Potential amp.        0.0554 Ry
        Total length         43.3023 bohr


     total cpu time spent up to now is      276.9 secs

     per-process dynamical memory:   162.0 Mb

     Self-consistent Calculation

     iteration #  1     ecut=    36.75 Ry     beta=0.20
     Davidson diagonalization with overlap
     ethr =  1.00E-06,  avg # of iterations =  2.0

     Threshold (ethr) on eigenvalues was too large:
     Diagonalizing with lowered threshold

     Davidson diagonalization with overlap
     ethr =  3.17E-08,  avg # of iterations =  2.6

     negative rho (up, down):  6.310E-01 0.000E+00

     Adding external electric field

     Computed dipole along edir(3) : 
        Dipole               -0.3256 Ry au,         -0.8276 Debye
        Dipole field         -0.0006 Ry au, 

        Potential amp.        0.0532 Ry
        Total length         43.3023 bohr


     total cpu time spent up to now is      300.0 secs

     total energy              =   -1781.67888890 Ry
     Harris-Foulkes estimate   =   -1781.67892562 Ry
     estimated scf accuracy    <       0.00005733 Ry

     iteration #  2     ecut=    36.75 Ry     beta=0.20
     Davidson diagonalization with overlap
     ethr =  3.56E-08,  avg # of iterations =  4.2

     negative rho (up, down):  6.310E-01 0.000E+00

     Adding external electric field

     Computed dipole along edir(3) : 
        Dipole               -0.3381 Ry au,         -0.8592 Debye
        Dipole field         -0.0006 Ry au, 

        Potential amp.        0.0553 Ry
        Total length         43.3023 bohr


     total cpu time spent up to now is      312.3 secs

     total energy              =   -1781.67887711 Ry
     Harris-Foulkes estimate   =   -1781.67890611 Ry
     estimated scf accuracy    <       0.00053673 Ry

     iteration #  3     ecut=    36.75 Ry     beta=0.20
     Davidson diagonalization with overlap
     ethr =  3.56E-08,  avg # of iterations =  4.0

     negative rho (up, down):  6.310E-01 0.000E+00

     Adding external electric field

     Computed dipole along edir(3) : 
        Dipole               -0.3348 Ry au,         -0.8511 Debye
        Dipole field         -0.0006 Ry au, 

        Potential amp.        0.0548 Ry
        Total length         43.3023 bohr


     total cpu time spent up to now is      323.8 secs

     total energy              =   -1781.67889916 Ry
     Harris-Foulkes estimate   =   -1781.67891217 Ry
     estimated scf accuracy    <       0.00012459 Ry

     iteration #  4     ecut=    36.75 Ry     beta=0.20
     Davidson diagonalization with overlap
     ethr =  3.56E-08,  avg # of iterations =  1.3

     negative rho (up, down):  6.310E-01 0.000E+00

     Adding external electric field

     Computed dipole along edir(3) : 
        Dipole               -0.3317 Ry au,         -0.8431 Debye
        Dipole field         -0.0006 Ry au, 

        Potential amp.        0.0542 Ry
        Total length         43.3023 bohr


     total cpu time spent up to now is      333.4 secs

     End of self-consistent calculation

          k = 0.0000 0.0000 0.0000 ( 24957 PWs)   bands (ev):

   -13.2237 -11.4206 -11.4206 -11.4199 -11.3157 -11.3157 -11.2997 -11.2931
   -11.2800 -11.2800 -11.2675 -11.2675 -11.2594 -11.2311 -11.1556 -11.1110
   -11.1110 -11.0954 -11.0911 -11.0911 -11.0687 -11.0687 -11.0474 -11.0474
   -10.9592 -10.9592 -10.9572 -10.8920 -10.8918 -10.8918 -10.7877 -10.7877
   -10.7216 -10.7216 -10.7084 -10.6735 -10.6694 -10.6694 -10.6624 -10.6444
   -10.6444 -10.6133 -10.6133 -10.5820 -10.5820 -10.5814 -10.5439 -10.5061
   -10.5053 -10.5053 -10.4935 -10.4935 -10.4775 -10.4775 -10.4680 -10.4516
   -10.4516 -10.2896 -10.2896 -10.1833  -9.8360  -8.8529  -7.0660  -5.7494
    -4.2935  -4.2935  -4.2720  -4.0969  -4.0969  -3.7780  -3.3022  -3.3022
    -3.0193  -1.5320  -1.5319  -1.4840  -1.0141  -0.5804  -0.5804  -0.5666
    -0.2755  -0.2755  -0.1612   1.3414   1.3415   1.7177   2.9320   3.6246
     3.7473   3.7473

          k = 0.0000 0.1925 0.0000 ( 25013 PWs)   bands (ev):

   -13.2059 -11.4029 -11.3774 -11.3770 -11.3005 -11.2798 -11.2723 -11.2679
   -11.2583 -11.2536 -11.2427 -11.2343 -11.2268 -11.2007 -11.1403 -11.1091
   -11.1046 -11.0843 -11.0811 -11.0786 -11.0752 -11.0504 -11.0352 -11.0182
   -10.9694 -10.9675 -10.9508 -10.9039 -10.8654 -10.8577 -10.8100 -10.7932
   -10.7443 -10.7229 -10.7164 -10.6965 -10.6885 -10.6798 -10.6654 -10.6630
   -10.6451 -10.6419 -10.6150 -10.6135 -10.6044 -10.5899 -10.5519 -10.5416
   -10.5397 -10.5383 -10.5196 -10.5170 -10.5112 -10.5101 -10.4964 -10.4828
   -10.4621 -10.3500 -10.3058 -10.2201  -9.7749  -8.7136  -6.9883  -5.7215
    -5.3002  -4.6251  -4.5939  -4.3760  -4.1449  -3.7526  -3.3209  -3.1806
    -2.9968  -1.3309  -1.2463  -0.9796  -0.8050  -0.5078  -0.4235  -0.2019
     0.1839   0.2940   0.7240   1.4397   1.4533   1.8698   2.8431   3.1483
     3.5397   3.7819

          k = 0.0000 0.3849 0.0000 ( 25069 PWs)   bands (ev):

   -13.1691 -11.3555 -11.2746 -11.2718 -11.2709 -11.2430 -11.2255 -11.2115
   -11.2050 -11.1890 -11.1698 -11.1497 -11.1453 -11.1217 -11.1113 -11.1065
   -11.1016 -11.0802 -11.0562 -11.0475 -11.0457 -11.0113 -10.9809 -10.9779
   -10.9541 -10.9361 -10.9296 -10.9211 -10.8659 -10.8264 -10.8055 -10.7901
   -10.7896 -10.7766 -10.7565 -10.7385 -10.7303 -10.7175 -10.7145 -10.6988
   -10.6945 -10.6736 -10.6630 -10.6525 -10.6470 -10.6281 -10.6217 -10.6206
   -10.6165 -10.6013 -10.5914 -10.5849 -10.5661 -10.5462 -10.5126 -10.5122
   -10.4818 -10.4566 -10.3731 -10.2751  -9.6713  -8.2943  -6.8214  -6.5131
    -5.6113  -5.1516  -4.9803  -4.8400  -4.3549  -4.1677  -3.5881  -3.1472
    -2.9752  -1.0783  -0.4818  -0.4150  -0.1440   0.2973   0.3132   0.7952
     1.0154   1.2014   1.2998   1.7806   2.1021   2.2332   2.8473   3.0137
     3.1300   3.7066

          k = 0.0000-0.5774 0.0000 ( 25090 PWs)   bands (ev):

   -13.1500 -11.2999 -11.2863 -11.2570 -11.1966 -11.1869 -11.1845 -11.1832
   -11.1720 -11.1671 -11.1376 -11.1259 -11.1243 -11.0955 -11.0857 -11.0849
   -11.0549 -11.0539 -11.0221 -11.0129 -10.9885 -10.9854 -10.9715 -10.9615
   -10.9295 -10.9242 -10.9094 -10.8844 -10.8729 -10.8589 -10.8458 -10.8077
   -10.8045 -10.7946 -10.7935 -10.7743 -10.7640 -10.7490 -10.7432 -10.7408
   -10.7360 -10.7333 -10.7225 -10.7034 -10.6619 -10.6477 -10.6442 -10.6343
   -10.6322 -10.6187 -10.6177 -10.6006 -10.5608 -10.5485 -10.5446 -10.5408
   -10.5119 -10.5006 -10.4326 -10.2876  -9.6237  -7.6317  -7.5420  -6.5588
    -5.7907  -5.1106  -5.0796  -5.0199  -4.6847  -4.4506  -3.5652  -3.1770
    -2.9678  -1.0925   0.0786   0.1508   0.4463   0.5481   0.7354   0.9522
     1.0627   1.3170   1.8354   2.2562   2.3539   2.4671   2.7797   3.2641
     3.5741   3.6227

          k = 0.1667-0.0962 0.0000 ( 25013 PWs)   bands (ev):

   -13.2059 -11.4029 -11.3774 -11.3770 -11.3005 -11.2798 -11.2723 -11.2679
   -11.2583 -11.2536 -11.2427 -11.2343 -11.2268 -11.2007 -11.1403 -11.1091
   -11.1046 -11.0843 -11.0811 -11.0786 -11.0752 -11.0504 -11.0352 -11.0182
   -10.9694 -10.9675 -10.9508 -10.9039 -10.8654 -10.8577 -10.8100 -10.7932
   -10.7443 -10.7229 -10.7164 -10.6965 -10.6885 -10.6798 -10.6654 -10.6630
   -10.6451 -10.6419 -10.6150 -10.6135 -10.6044 -10.5899 -10.5519 -10.5416
   -10.5397 -10.5383 -10.5196 -10.5170 -10.5112 -10.5101 -10.4964 -10.4828
   -10.4621 -10.3500 -10.3058 -10.2201  -9.7749  -8.7136  -6.9883  -5.7215
    -5.3002  -4.6251  -4.5939  -4.3760  -4.1449  -3.7526  -3.3209  -3.1806
    -2.9968  -1.3309  -1.2463  -0.9796  -0.8050  -0.5078  -0.4235  -0.2019
     0.1839   0.2940   0.7240   1.4397   1.4533   1.8698   2.8431   3.1483
     3.5397   3.7819

          k = 0.1667 0.0962 0.0000 ( 25013 PWs)   bands (ev):

   -13.2059 -11.4029 -11.3774 -11.3770 -11.3005 -11.2798 -11.2723 -11.2679
   -11.2583 -11.2536 -11.2427 -11.2343 -11.2268 -11.2007 -11.1403 -11.1091
   -11.1046 -11.0843 -11.0811 -11.0786 -11.0752 -11.0504 -11.0352 -11.0182
   -10.9694 -10.9675 -10.9508 -10.9039 -10.8654 -10.8577 -10.8100 -10.7932
   -10.7443 -10.7229 -10.7164 -10.6965 -10.6885 -10.6798 -10.6654 -10.6630
   -10.6451 -10.6419 -10.6150 -10.6135 -10.6044 -10.5899 -10.5519 -10.5416
   -10.5397 -10.5383 -10.5196 -10.5170 -10.5112 -10.5101 -10.4964 -10.4828
   -10.4621 -10.3500 -10.3058 -10.2201  -9.7749  -8.7136  -6.9883  -5.7215
    -5.3002  -4.6251  -4.5939  -4.3760  -4.1449  -3.7526  -3.3209  -3.1806
    -2.9968  -1.3309  -1.2463  -0.9796  -0.8050  -0.5078  -0.4235  -0.2019
     0.1840   0.2940   0.7240   1.4397   1.4533   1.8698   2.8431   3.1483
     3.5397   3.7819

          k = 0.1667 0.2887 0.0000 ( 25022 PWs)   bands (ev):

   -13.1784 -11.3454 -11.3449 -11.2848 -11.2639 -11.2471 -11.2301 -11.2244
   -11.2224 -11.2171 -11.1915 -11.1748 -11.1633 -11.1406 -11.1288 -11.1055
   -11.0894 -11.0783 -11.0682 -11.0639 -11.0601 -11.0519 -10.9943 -10.9702
   -10.9588 -10.9535 -10.9454 -10.9076 -10.8434 -10.8365 -10.8205 -10.8053
   -10.7719 -10.7631 -10.7458 -10.7285 -10.7103 -10.7030 -10.6944 -10.6887
   -10.6721 -10.6662 -10.6539 -10.6429 -10.6366 -10.6212 -10.5971 -10.5902
   -10.5775 -10.5768 -10.5719 -10.5630 -10.5481 -10.5433 -10.5338 -10.5214
   -10.4783 -10.4319 -10.3273 -10.2805  -9.6958  -8.4342  -6.8446  -5.9020
    -5.8484  -5.5660  -4.9943  -4.3479  -3.9989  -3.8087  -3.6603  -3.3989
    -3.0225  -1.1704  -0.7509  -0.5481  -0.0998   0.0247   0.2541   0.3769
     0.6175   1.0356   1.1426   1.8699   2.0514   2.2446   2.5681   2.6722
     3.2555   3.7089

          k = 0.1667-0.6736 0.0000 ( 25036 PWs)   bands (ev):

   -13.1499 -11.2908 -11.2413 -11.2368 -11.2259 -11.2087 -11.1795 -11.1725
   -11.1660 -11.1528 -11.1426 -11.1305 -11.1157 -11.1067 -11.0968 -11.0843
   -11.0750 -11.0559 -11.0428 -11.0259 -11.0159 -10.9879 -10.9601 -10.9517
   -10.9307 -10.9233 -10.9111 -10.9004 -10.8941 -10.8628 -10.8450 -10.8240
   -10.8046 -10.7971 -10.7842 -10.7770 -10.7690 -10.7573 -10.7402 -10.7274
   -10.7115 -10.7083 -10.6965 -10.6789 -10.6656 -10.6492 -10.6443 -10.6314
   -10.6256 -10.6181 -10.6079 -10.5972 -10.5787 -10.5671 -10.5510 -10.5397
   -10.5217 -10.4847 -10.4007 -10.3194  -9.6233  -7.8703  -7.0255  -6.5387
    -6.1651  -5.6857  -5.2469  -4.7211  -4.1859  -3.9941  -3.7644  -3.3338
    -2.8954  -1.0885  -0.2938   0.0754   0.2483   0.4499   0.9247   1.0330
     1.3802   1.5249   1.7924   2.0940   2.2494   2.4208   2.6749   3.0685
     3.1813   3.4891

          k = 0.1667-0.4811 0.0000 ( 25036 PWs)   bands (ev):

   -13.1499 -11.2908 -11.2413 -11.2368 -11.2259 -11.2087 -11.1795 -11.1725
   -11.1660 -11.1528 -11.1426 -11.1305 -11.1157 -11.1067 -11.0968 -11.0843
   -11.0750 -11.0559 -11.0428 -11.0259 -11.0159 -10.9879 -10.9601 -10.9517
   -10.9307 -10.9233 -10.9111 -10.9004 -10.8941 -10.8628 -10.8450 -10.8240
   -10.8046 -10.7971 -10.7842 -10.7770 -10.7690 -10.7573 -10.7402 -10.7274
   -10.7115 -10.7083 -10.6965 -10.6789 -10.6656 -10.6492 -10.6443 -10.6314
   -10.6256 -10.6181 -10.6079 -10.5972 -10.5787 -10.5671 -10.5510 -10.5397
   -10.5217 -10.4847 -10.4007 -10.3194  -9.6233  -7.8703  -7.0255  -6.5387
    -6.1651  -5.6857  -5.2469  -4.7212  -4.1859  -3.9941  -3.7644  -3.3337
    -2.8954  -1.0885  -0.2938   0.0753   0.2484   0.4499   0.9247   1.0330
     1.3802   1.5249   1.7924   2.0940   2.2494   2.4208   2.6749   3.0685
     3.1813   3.4891

          k = 0.1667-0.2887 0.0000 ( 25022 PWs)   bands (ev):

   -13.1784 -11.3454 -11.3449 -11.2848 -11.2639 -11.2471 -11.2301 -11.2244
   -11.2224 -11.2171 -11.1915 -11.1748 -11.1633 -11.1406 -11.1288 -11.1055
   -11.0894 -11.0783 -11.0682 -11.0639 -11.0601 -11.0519 -10.9943 -10.9702
   -10.9588 -10.9535 -10.9454 -10.9077 -10.8434 -10.8365 -10.8205 -10.8053
   -10.7719 -10.7631 -10.7458 -10.7285 -10.7103 -10.7030 -10.6944 -10.6887
   -10.6721 -10.6661 -10.6539 -10.6429 -10.6366 -10.6212 -10.5971 -10.5902
   -10.5775 -10.5768 -10.5719 -10.5630 -10.5481 -10.5433 -10.5338 -10.5214
   -10.4783 -10.4319 -10.3273 -10.2805  -9.6958  -8.4342  -6.8446  -5.9020
    -5.8484  -5.5659  -4.9943  -4.3479  -3.9989  -3.8087  -3.6603  -3.3989
    -3.0225  -1.1704  -0.7509  -0.5481  -0.0997   0.0247   0.2541   0.3769
     0.6174   1.0356   1.1426   1.8699   2.0514   2.2446   2.5681   2.6722
     3.2555   3.7089

          k = 0.3333-0.1925 0.0000 ( 25069 PWs)   bands (ev):

   -13.1691 -11.3555 -11.2746 -11.2718 -11.2709 -11.2430 -11.2255 -11.2115
   -11.2050 -11.1890 -11.1698 -11.1497 -11.1453 -11.1217 -11.1113 -11.1065
   -11.1016 -11.0802 -11.0562 -11.0475 -11.0457 -11.0113 -10.9809 -10.9779
   -10.9541 -10.9361 -10.9296 -10.9211 -10.8659 -10.8264 -10.8055 -10.7901
   -10.7896 -10.7766 -10.7565 -10.7385 -10.7303 -10.7175 -10.7145 -10.6988
   -10.6945 -10.6736 -10.6630 -10.6525 -10.6470 -10.6281 -10.6217 -10.6206
   -10.6165 -10.6013 -10.5914 -10.5849 -10.5661 -10.5462 -10.5126 -10.5122
   -10.4818 -10.4566 -10.3731 -10.2751  -9.6713  -8.2943  -6.8214  -6.5131
    -5.6113  -5.1515  -4.9803  -4.8400  -4.3549  -4.1677  -3.5881  -3.1472
    -2.9752  -1.0783  -0.4818  -0.4150  -0.1440   0.2972   0.3132   0.7952
     1.0154   1.2014   1.2998   1.7806   2.1020   2.2332   2.8473   3.0137
     3.1300   3.7066

          k = 0.3333-0.0000 0.0000 ( 25022 PWs)   bands (ev):

   -13.1784 -11.3454 -11.3449 -11.2848 -11.2639 -11.2471 -11.2301 -11.2244
   -11.2224 -11.2171 -11.1915 -11.1748 -11.1633 -11.1406 -11.1288 -11.1055
   -11.0894 -11.0783 -11.0682 -11.0639 -11.0601 -11.0519 -10.9943 -10.9702
   -10.9588 -10.9535 -10.9454 -10.9076 -10.8433 -10.8365 -10.8205 -10.8053
   -10.7719 -10.7631 -10.7458 -10.7285 -10.7103 -10.7030 -10.6944 -10.6887
   -10.6721 -10.6661 -10.6539 -10.6429 -10.6366 -10.6212 -10.5971 -10.5902
   -10.5775 -10.5768 -10.5719 -10.5630 -10.5481 -10.5433 -10.5338 -10.5214
   -10.4783 -10.4319 -10.3273 -10.2805  -9.6958  -8.4342  -6.8446  -5.9020
    -5.8484  -5.5660  -4.9943  -4.3479  -3.9989  -3.8087  -3.6603  -3.3989
    -3.0225  -1.1704  -0.7509  -0.5481  -0.0998   0.0247   0.2541   0.3769
     0.6175   1.0356   1.1426   1.8699   2.0514   2.2446   2.5681   2.6722
     3.2555   3.7089

          k = 0.3333 0.1925 0.0000 ( 25069 PWs)   bands (ev):

   -13.1691 -11.3555 -11.2746 -11.2718 -11.2709 -11.2430 -11.2255 -11.2114
   -11.2050 -11.1890 -11.1698 -11.1497 -11.1453 -11.1217 -11.1113 -11.1065
   -11.1016 -11.0802 -11.0562 -11.0475 -11.0457 -11.0113 -10.9809 -10.9779
   -10.9541 -10.9361 -10.9296 -10.9211 -10.8659 -10.8264 -10.8055 -10.7901
   -10.7896 -10.7766 -10.7565 -10.7385 -10.7303 -10.7175 -10.7145 -10.6988
   -10.6945 -10.6736 -10.6630 -10.6525 -10.6470 -10.6281 -10.6217 -10.6206
   -10.6165 -10.6013 -10.5914 -10.5849 -10.5661 -10.5462 -10.5126 -10.5122
   -10.4818 -10.4566 -10.3731 -10.2751  -9.6713  -8.2943  -6.8214  -6.5131
    -5.6113  -5.1515  -4.9803  -4.8400  -4.3549  -4.1677  -3.5881  -3.1472
    -2.9752  -1.0783  -0.4818  -0.4150  -0.1440   0.2972   0.3132   0.7952
     1.0154   1.2014   1.2998   1.7806   2.1020   2.2332   2.8473   3.0137
     3.1300   3.7066

          k = 0.3333-0.7698 0.0000 ( 25036 PWs)   bands (ev):

   -13.1499 -11.2908 -11.2413 -11.2368 -11.2259 -11.2087 -11.1795 -11.1725
   -11.1660 -11.1528 -11.1426 -11.1305 -11.1157 -11.1067 -11.0968 -11.0843
   -11.0750 -11.0559 -11.0428 -11.0259 -11.0159 -10.9879 -10.9601 -10.9517
   -10.9307 -10.9233 -10.9111 -10.9004 -10.8941 -10.8628 -10.8450 -10.8240
   -10.8046 -10.7971 -10.7842 -10.7770 -10.7690 -10.7573 -10.7402 -10.7274
   -10.7115 -10.7083 -10.6965 -10.6789 -10.6656 -10.6492 -10.6443 -10.6314
   -10.6256 -10.6181 -10.6079 -10.5972 -10.5787 -10.5671 -10.5510 -10.5397
   -10.5217 -10.4847 -10.4007 -10.3194  -9.6233  -7.8703  -7.0255  -6.5387
    -6.1651  -5.6857  -5.2469  -4.7212  -4.1858  -3.9942  -3.7644  -3.3338
    -2.8954  -1.0885  -0.2938   0.0754   0.2483   0.4499   0.9247   1.0330
     1.3802   1.5249   1.7924   2.0940   2.2494   2.4208   2.6749   3.0685
     3.1813   3.4891

          k = 0.3333-0.5774 0.0000 ( 25044 PWs)   bands (ev):

   -13.1401 -11.2122 -11.2114 -11.1990 -11.1898 -11.1892 -11.1641 -11.1571
   -11.1539 -11.1528 -11.1367 -11.1359 -11.1237 -11.0952 -11.0858 -11.0704
   -11.0625 -11.0437 -11.0105 -11.0081 -11.0069 -10.9550 -10.9542 -10.9500
   -10.9248 -10.9228 -10.9202 -10.8963 -10.8845 -10.8763 -10.8688 -10.8569
   -10.8563 -10.8535 -10.8328 -10.8116 -10.7546 -10.7522 -10.7408 -10.7258
   -10.7131 -10.7035 -10.6932 -10.6881 -10.6833 -10.6545 -10.6515 -10.6395
   -10.6362 -10.6267 -10.6244 -10.6207 -10.5929 -10.5913 -10.5627 -10.5562
   -10.5219 -10.4646 -10.4070 -10.3810  -9.5995  -7.1973  -7.1856  -7.0842
    -6.1678  -6.1496  -5.1399  -4.6857  -4.6393  -3.7237  -3.4718  -3.1949
    -3.1209  -1.0967  -0.0829   0.0844   0.4925   0.6785   0.9398   1.1277
     1.1704   1.2087   2.3328   2.3391   2.7015   2.7689   2.8263   3.0762
     3.5823   3.6039

          k = 0.3333-0.3849 0.0000 ( 25036 PWs)   bands (ev):

   -13.1499 -11.2908 -11.2413 -11.2368 -11.2259 -11.2087 -11.1795 -11.1725
   -11.1660 -11.1528 -11.1426 -11.1305 -11.1157 -11.1067 -11.0968 -11.0843
   -11.0750 -11.0559 -11.0428 -11.0259 -11.0159 -10.9879 -10.9601 -10.9517
   -10.9307 -10.9233 -10.9111 -10.9004 -10.8941 -10.8628 -10.8450 -10.8240
   -10.8046 -10.7971 -10.7842 -10.7770 -10.7690 -10.7573 -10.7402 -10.7274
   -10.7115 -10.7083 -10.6965 -10.6789 -10.6656 -10.6492 -10.6443 -10.6314
   -10.6256 -10.6181 -10.6079 -10.5972 -10.5787 -10.5671 -10.5510 -10.5397
   -10.5217 -10.4847 -10.4007 -10.3194  -9.6233  -7.8703  -7.0255  -6.5387
    -6.1651  -5.6857  -5.2469  -4.7212  -4.1859  -3.9941  -3.7644  -3.3338
    -2.8954  -1.0885  -0.2938   0.0753   0.2483   0.4499   0.9247   1.0330
     1.3802   1.5249   1.7924   2.0940   2.2494   2.4208   2.6749   3.0685
     3.1813   3.4891

          k =-0.5000 0.2887 0.0000 ( 25090 PWs)   bands (ev):

   -13.1500 -11.2999 -11.2863 -11.2571 -11.1966 -11.1869 -11.1845 -11.1832
   -11.1720 -11.1671 -11.1376 -11.1259 -11.1243 -11.0955 -11.0857 -11.0849
   -11.0549 -11.0539 -11.0221 -11.0129 -10.9885 -10.9854 -10.9715 -10.9615
   -10.9295 -10.9242 -10.9094 -10.8844 -10.8729 -10.8589 -10.8458 -10.8077
   -10.8045 -10.7946 -10.7935 -10.7743 -10.7640 -10.7490 -10.7432 -10.7408
   -10.7360 -10.7333 -10.7225 -10.7034 -10.6619 -10.6477 -10.6442 -10.6343
   -10.6322 -10.6187 -10.6177 -10.6006 -10.5608 -10.5485 -10.5446 -10.5408
   -10.5119 -10.5006 -10.4326 -10.2876  -9.6237  -7.6317  -7.5420  -6.5589
    -5.7907  -5.1106  -5.0796  -5.0199  -4.6847  -4.4506  -3.5652  -3.1770
    -2.9678  -1.0925   0.0785   0.1508   0.4463   0.5481   0.7354   0.9522
     1.0627   1.3170   1.8354   2.2562   2.3539   2.4671   2.7797   3.2641
     3.5741   3.6227

          k =-0.5000 0.4811 0.0000 ( 25036 PWs)   bands (ev):

   -13.1499 -11.2908 -11.2413 -11.2368 -11.2259 -11.2087 -11.1795 -11.1725
   -11.1660 -11.1528 -11.1426 -11.1305 -11.1157 -11.1067 -11.0968 -11.0843
   -11.0750 -11.0559 -11.0428 -11.0259 -11.0159 -10.9879 -10.9601 -10.9517
   -10.9307 -10.9233 -10.9111 -10.9004 -10.8941 -10.8628 -10.8450 -10.8240
   -10.8046 -10.7971 -10.7842 -10.7770 -10.7690 -10.7573 -10.7402 -10.7274
   -10.7115 -10.7083 -10.6965 -10.6789 -10.6656 -10.6492 -10.6443 -10.6314
   -10.6256 -10.6181 -10.6079 -10.5972 -10.5787 -10.5671 -10.5510 -10.5397
   -10.5217 -10.4847 -10.4007 -10.3194  -9.6233  -7.8703  -7.0255  -6.5387
    -6.1651  -5.6857  -5.2469  -4.7211  -4.1859  -3.9941  -3.7644  -3.3338
    -2.8954  -1.0885  -0.2938   0.0754   0.2484   0.4499   0.9247   1.0330
     1.3802   1.5249   1.7924   2.0940   2.2494   2.4208   2.6749   3.0685
     3.1813   3.4891

          k =-0.5000 0.6736 0.0000 ( 25036 PWs)   bands (ev):

   -13.1499 -11.2908 -11.2413 -11.2368 -11.2259 -11.2087 -11.1795 -11.1725
   -11.1660 -11.1528 -11.1426 -11.1305 -11.1157 -11.1067 -11.0968 -11.0843
   -11.0750 -11.0559 -11.0428 -11.0259 -11.0159 -10.9879 -10.9601 -10.9517
   -10.9307 -10.9233 -10.9111 -10.9004 -10.8941 -10.8628 -10.8450 -10.8240
   -10.8046 -10.7971 -10.7842 -10.7770 -10.7690 -10.7573 -10.7402 -10.7274
   -10.7115 -10.7083 -10.6965 -10.6789 -10.6656 -10.6492 -10.6443 -10.6314
   -10.6256 -10.6181 -10.6079 -10.5972 -10.5787 -10.5671 -10.5510 -10.5397
   -10.5217 -10.4847 -10.4007 -10.3194  -9.6233  -7.8703  -7.0255  -6.5387
    -6.1651  -5.6857  -5.2469  -4.7212  -4.1858  -3.9942  -3.7644  -3.3338
    -2.8954  -1.0885  -0.2938   0.0753   0.2483   0.4499   0.9247   1.0330
     1.3802   1.5249   1.7924   2.0940   2.2494   2.4208   2.6749   3.0685
     3.1813   3.4891

          k =-0.5000-0.2887 0.0000 ( 25090 PWs)   bands (ev):

   -13.1500 -11.2999 -11.2863 -11.2571 -11.1966 -11.1869 -11.1845 -11.1832
   -11.1720 -11.1671 -11.1376 -11.1259 -11.1243 -11.0955 -11.0857 -11.0849
   -11.0549 -11.0539 -11.0221 -11.0129 -10.9885 -10.9854 -10.9715 -10.9615
   -10.9295 -10.9242 -10.9094 -10.8844 -10.8729 -10.8589 -10.8458 -10.8077
   -10.8045 -10.7946 -10.7935 -10.7743 -10.7640 -10.7490 -10.7431 -10.7408
   -10.7360 -10.7333 -10.7225 -10.7034 -10.6619 -10.6477 -10.6442 -10.6343
   -10.6322 -10.6187 -10.6177 -10.6006 -10.5608 -10.5485 -10.5446 -10.5408
   -10.5120 -10.5006 -10.4326 -10.2876  -9.6237  -7.6317  -7.5420  -6.5589
    -5.7906  -5.1106  -5.0796  -5.0199  -4.6847  -4.4506  -3.5652  -3.1770
    -2.9678  -1.0925   0.0785   0.1508   0.4464   0.5481   0.7353   0.9522
     1.0627   1.3170   1.8354   2.2562   2.3539   2.4671   2.7797   3.2640
     3.5741   3.6227

     the Fermi energy is     0.9717 ev

!    total energy              =   -1781.67890297 Ry
     Harris-Foulkes estimate   =   -1781.67890741 Ry
     estimated scf accuracy    <       0.00000040 Ry

     The total energy is the sum of the following terms:

     one-electron contribution =   -8452.59516595 Ry
     hartree contribution      =    4310.75752791 Ry
     xc contribution           =    -773.82443034 Ry
     ewald contribution        =    3134.02322941 Ry
     electric field correction =       0.00020774 Ry
     smearing contrib. (-TS)   =      -0.04027176 Ry

     convergence has been achieved in   4 iterations

     negative rho (up, down):  6.310E-01 0.000E+00

     Forces acting on atoms (cartesian axes, Ry/au):

     atom    1 type  1   force =    -0.00000066   -0.00000054   -0.02012323
     atom    2 type  1   force =    -0.00000767    0.00028974   -0.02222350
     atom    3 type  1   force =     0.00025021   -0.00014712   -0.02222518
     atom    4 type  1   force =    -0.00024911   -0.00014616   -0.02221324
     atom    5 type  1   force =     0.00058402   -0.00032554    0.02140562
     atom    6 type  1   force =    -0.00057737   -0.00033712    0.02141658
     atom    7 type  1   force =    -0.00001198   -0.00000198    0.01978254
     atom    8 type  1   force =     0.00000915    0.00066531    0.02141238
     atom    9 type  1   force =     0.00120380    0.00070341    0.00148349
     atom   10 type  1   force =    -0.00120290    0.00069395    0.00148688
     atom   11 type  1   force =     0.00000234   -0.00139254    0.00147846
     atom   12 type  1   force =     0.00000463    0.00000065   -0.00138464
     atom   13 type  2   force =    -0.00000445   -0.00000207   -0.00029616

     Total force =     0.003797     Total SCF correction =     0.002287
     SCF correction compared to forces is large: reduce conv_thr to get better values

     bfgs converged in   3 scf cycles and   2 bfgs steps
     (criteria: energy <  1.0E+12 Ry, force <  1.9E-03 Ry/Bohr)

     End of BFGS Geometry Optimization

     Final energy   =   -1781.6789029748 Ry
Begin final coordinates

ATOMIC_POSITIONS (angstrom)
Tl       1.671975640   0.965315586  10.000000000    0   0   0
Tl       5.015926920   0.965315586  10.000000000    0   0   0
Tl       3.343951280   3.861262344  10.000000000    0   0   0
Tl       6.687902560   3.861262344  10.000000000    0   0   0
Tl       6.687902560   1.930631172  12.730324787    0   0   0
Tl       3.343951280   1.930631172  12.730324787    0   0   0
Tl       8.359878201   4.826577930  12.730324787    0   0   0
Tl       5.015926920   4.826577930  12.730324787    0   0   0
Tl      -0.059786047  -0.034503564  15.898343702
Tl       3.403715689  -0.034500805  15.898371747
Tl       1.671982477   2.964955014  15.898356737
Tl       5.015903688   2.895933561  15.817289351
N        1.671962047   0.965315511  16.934194603
End final coordinates



     Writing output data file calc.save

     init_run     :      7.06s CPU      8.38s WALL (       1 calls)
     electrons    :    258.62s CPU    310.27s WALL (       3 calls)
     update_pot   :      5.16s CPU      6.32s WALL (       2 calls)
     forces       :      9.64s CPU     10.52s WALL (       3 calls)

     Called by init_run:
     wfcinit      :      4.18s CPU      4.99s WALL (       1 calls)
     potinit      :      1.10s CPU      1.26s WALL (       1 calls)

     Called by electrons:
     c_bands      :    207.91s CPU    250.38s WALL (      22 calls)
     sum_band     :     34.86s CPU     39.88s WALL (      22 calls)
     v_of_rho     :     12.32s CPU     14.49s WALL (      24 calls)
     newd         :      5.23s CPU      7.78s WALL (      24 calls)
     mix_rho      :      0.33s CPU      0.37s WALL (      22 calls)

     Called by c_bands:
     init_us_2    :      1.86s CPU      1.89s WALL (     960 calls)
     cegterg      :    201.12s CPU    242.71s WALL (     440 calls)

     Called by sum_band:
     sum_band:bec :      0.11s CPU      0.11s WALL (     440 calls)
     addusdens    :      5.55s CPU      7.77s WALL (      22 calls)

     Called by *egterg:
     h_psi        :    124.51s CPU    139.12s WALL (    2011 calls)
     s_psi        :      8.57s CPU      8.64s WALL (    2011 calls)
     g_psi        :      0.40s CPU      0.42s WALL (    1551 calls)
     cdiaghg      :     30.82s CPU     51.07s WALL (    1931 calls)

     Called by h_psi:
     h_psi:pot    :    123.38s CPU    137.95s WALL (    2011 calls)
     h_psi:calbec :     10.27s CPU     11.23s WALL (    2011 calls)
     vloc_psi     :    104.42s CPU    117.96s WALL (    2011 calls)
     add_vuspsi   :      8.67s CPU      8.73s WALL (    2011 calls)

     General routines
     calbec       :     15.91s CPU     17.19s WALL (    2691 calls)
     fft          :      7.70s CPU     10.26s WALL (    1761 calls)
     ffts         :      0.06s CPU      0.07s WALL (      46 calls)
     fftw         :    106.88s CPU    121.88s WALL (  227450 calls)
     interpolate  :      0.24s CPU      0.30s WALL (      46 calls)
     davcio       :      0.00s CPU      0.02s WALL (      20 calls)

     Parallel routines
     fft_scatter  :     37.55s CPU     51.43s WALL (  229257 calls)

     PWSCF        :  4m41.83s CPU     5m37.39s WALL


   This run was terminated on:   0:59: 1  12Jan2019            

=------------------------------------------------------------------------------=
   JOB DONE.
=------------------------------------------------------------------------------=
