  python dir          : /nfs/slac/g/suncatfs/sw/espv20/lib/python2.7/site-packages/espresso
  espresso dir        : /nfs/slac/g/suncatfs/sw/espv18/espresso-dynpy-beef/bin
  pseudo dir          : /afs/slac.stanford.edu/u/if/mamunm/psp/gbrv1.5pbe
  ase-espresso py git : ffa2778-git



     Program PWSCF v.5.1rc2 (svn rev. 11289) starts on 15Jan2018 at  1:19:10 

     This program is part of the open-source Quantum ESPRESSO suite
     for quantum simulation of materials; please cite
         "P. Giannozzi et al., J. Phys.:Condens. Matter 21 395502 (2009);
          URL http://www.quantum-espresso.org", 
     in publications or presentations arising from this work. More details at
     http://www.quantum-espresso.org/quote

     Parallel version (MPI), running on    32 processors
     R & G space division:  proc/nbgrp/npool/nimage =      32
     Reading input from pw.inp
     Message from routine read_cards :
     DEPRECATED: no units specified in CELL_PARAMETERS card

     Current dimensions of program PWSCF are:
     Max number of different atomic species (ntypx) = 10
     Max number of k-points (npk) =  40000
     Max angular momentum in pseudopotentials (lmaxx) =  3
     Presently stress not available with electric field


     **************************************************************************
     Initializing libbeef V0.1.1 with the BEEF-vdW functional.
     Citation: Wellendorff et al., PRB 85, 235149 (2012).
     **************************************************************************


     IMPORTANT: XC functional enforced from input :
     Exchange-correlation      = BEEF-VDW ( 1  4 27 13 2)
     Any further DFT definition will be discarded
     Please, verify this is what you really want


     Subspace diagonalization in iterative solution of the eigenvalue problem:
     a serial algorithm will be used

 
     Parallelization info
     --------------------
     sticks:   dense  smooth     PW     G-vecs:    dense   smooth      PW
     Min          84      33      9                15972     4017     623
     Max          85      34     10                16001     4054     650
     Sum        2713    1069    313               511711   129131   20509
 


     bravais-lattice index     =            0
     lattice parameter (alat)  =       1.8897  a.u.
     unit-cell volume          =    4299.0717 (a.u.)^3
     number of atoms/cell      =           13
     number of atomic types    =            2
     number of electrons       =       185.00
     number of Kohn-Sham states=          102
     kinetic-energy cutoff     =      36.7493  Ry
     charge density cutoff     =     367.4932  Ry
     convergence threshold     =      1.0E-05
     mixing beta               =       0.3000
     number of iterations used =           10  plain     mixing
     Exchange-correlation      = BEEF-VDW ( 1  4 27 13 2)
     nstep                     =           50


     celldm(1)=   1.889726  celldm(2)=   0.000000  celldm(3)=   0.000000
     celldm(4)=   0.000000  celldm(5)=   0.000000  celldm(6)=   0.000000

     crystal axes: (cart. coord. in units of alat)
               a(1) = (   5.482164   0.000000   0.000000 )  
               a(2) = (   2.741082   4.747693   0.000000 )  
               a(3) = (   0.000000   0.000000  24.476168 )  

     reciprocal axes: (cart. coord. in units 2 pi/alat)
               b(1) = (  0.182410 -0.105314  0.000000 )  
               b(2) = (  0.000000  0.210629  0.000000 )  
               b(3) = (  0.000000  0.000000  0.040856 )  


     PseudoPot. # 1 for Ir read from file:
     /afs/slac.stanford.edu/u/if/mamunm/psp/gbrv1.5pbe/Ir.UPF
     MD5 check sum: 8836f839c3459d2b385c504ce6d91f2c
     Pseudo is Ultrasoft + core correction, Zval = 15.0
     Generated by new atomic code, or converted to UPF format
     Using radial grid of  983 points,  7 beta functions with: 
                l(1) =   0
                l(2) =   0
                l(3) =   1
                l(4) =   1
                l(5) =   1
                l(6) =   2
                l(7) =   2
     Q(r) pseudized with  8 coefficients,  rinner =    1.400   1.400   1.400
                                                       1.400   1.400

     PseudoPot. # 2 for N  read from file:
     /afs/slac.stanford.edu/u/if/mamunm/psp/gbrv1.5pbe/N.UPF
     MD5 check sum: 95339753478d7afb44899504a8723017
     Pseudo is Ultrasoft + core correction, Zval =  5.0
     Generated by new atomic code, or converted to UPF format
     Using radial grid of  729 points,  4 beta functions with: 
                l(1) =   0
                l(2) =   0
                l(3) =   1
                l(4) =   1
     Q(r) pseudized with  8 coefficients,  rinner =    0.900   0.900   0.900


     vdW kernel table read from file vdW_kernel_table
     MD5 check sum: 095c7af220d748ca6e76c0b4c6cfb241

     atomic species   valence    mass     pseudopotential
        Ir1           15.00   192.21700     Ir( 1.00)
        N1             5.00    14.00700     N ( 1.00)

     No symmetry found



   Cartesian axes

     site n.     atom                  positions (alat units)
         1           Ir1 tau(   1) = (   1.3705410   0.7912822  10.0000000  )
         2           Ir1 tau(   2) = (   4.1116229   0.7912822  10.0000000  )
         3           Ir1 tau(   3) = (   2.7410819   3.1651288  10.0000000  )
         4           Ir1 tau(   4) = (   5.4821639   3.1651288  10.0000000  )
         5           Ir1 tau(   5) = (   5.4821639   1.5825644  12.2380840  )
         6           Ir1 tau(   6) = (   2.7410819   1.5825644  12.2380840  )
         7           Ir1 tau(   7) = (   6.8527049   3.9564110  12.2380840  )
         8           Ir1 tau(   8) = (   4.1116229   3.9564110  12.2380840  )
         9           Ir1 tau(   9) = (   0.0000000   0.0000000  14.4761681  )
        10           Ir1 tau(  10) = (   2.7410819   0.0000000  14.4761681  )
        11           Ir1 tau(  11) = (   1.3705410   2.3738466  14.4761681  )
        12           Ir1 tau(  12) = (   4.1116229   2.3738466  14.4761681  )
        13           N1  tau(  13) = (   1.3705410   0.7912822  16.5961681  )

     number of k points=    20  Fermi-Dirac smearing, width (Ry)=  0.0110
                       cart. coord. in units 2pi/alat
        k(    1) = (   0.0000000   0.0000000   0.0000000), wk =   0.0555556
        k(    2) = (   0.0000000   0.0351048   0.0000000), wk =   0.1111111
        k(    3) = (   0.0000000   0.0702095   0.0000000), wk =   0.1111111
        k(    4) = (   0.0000000  -0.1053143   0.0000000), wk =   0.0555556
        k(    5) = (   0.0304016  -0.0175524   0.0000000), wk =   0.1111111
        k(    6) = (   0.0304016   0.0175524   0.0000000), wk =   0.1111111
        k(    7) = (   0.0304016   0.0526572   0.0000000), wk =   0.1111111
        k(    8) = (   0.0304016  -0.1228667   0.0000000), wk =   0.1111111
        k(    9) = (   0.0304016  -0.0877619   0.0000000), wk =   0.1111111
        k(   10) = (   0.0304016  -0.0526572   0.0000000), wk =   0.1111111
        k(   11) = (   0.0608032  -0.0351048   0.0000000), wk =   0.1111111
        k(   12) = (   0.0608032   0.0000000   0.0000000), wk =   0.1111111
        k(   13) = (   0.0608032   0.0351048   0.0000000), wk =   0.1111111
        k(   14) = (   0.0608032  -0.1404191   0.0000000), wk =   0.1111111
        k(   15) = (   0.0608032  -0.1053143   0.0000000), wk =   0.1111111
        k(   16) = (   0.0608032  -0.0702095   0.0000000), wk =   0.1111111
        k(   17) = (  -0.0912049   0.0526572   0.0000000), wk =   0.0555556
        k(   18) = (  -0.0912049   0.0877619   0.0000000), wk =   0.1111111
        k(   19) = (  -0.0912049   0.1228667   0.0000000), wk =   0.1111111
        k(   20) = (  -0.0912049  -0.0526572   0.0000000), wk =   0.0555556

     Dense  grid:   511711 G-vectors     FFT dimensions: (  64,  64, 288)

     Smooth grid:   129131 G-vectors     FFT dimensions: (  40,  40, 180)

     Largest allocated arrays     est. size (Mb)     dimensions
        Kohn-Sham Wavefunctions         0.80 Mb     (     515,  102)
        NL pseudopotentials             2.04 Mb     (     515,  260)
        Each V/rho on FFT grid          0.56 Mb     (   36864)
        Each G-vector array             0.12 Mb     (   16001)
        G-vector shells                 0.06 Mb     (    7228)
     Largest temporary arrays     est. size (Mb)     dimensions
        Auxiliary wavefunctions         3.21 Mb     (     515,  408)
        Each subspace H/S matrix        2.54 Mb     (     408,  408)
        Each <psi_i|beta_j> matrix      0.40 Mb     (     260,  102)
        Arrays for rho mixing           5.62 Mb     (   36864,   10)

     Initial potential from superposition of free atoms
     Check: negative starting charge=   -4.361759

     starting charge  178.99961, renormalised to  185.00000

     negative rho (up, down):  4.508E+00 0.000E+00


     ************************************************************************
     *
     * You are using vdW-DF for exchange-correlation in this calculation.
     * Please cite the following three references that made this development
     * possible:
     *
     *   M. Dion, H. Rydberg, E. Schroder, D. C. Langreth, and
     *   B. I. Lundqvist, Phys. Rev. Lett. 92, 246401 (2004).
     *
     *   T. Thonhauser, V. R. Cooper, S. Li, A. Puzder, P. Hyldgaard, and
     *   D. C. Langreth, Phys. Rev. B 76, 125112 (2007).
     *
     *   G. Roman-Perez and J. M. Soler, Phys. Rev. Lett. 103, 096102 (2009).
     *
     *
     * If you are using vdW-DF2, please also cite:
     *
     *   K. Lee, E. D. Murray, L. Kong, B. I. Lundqvist, and
     *   D. C. Langreth, Phys. Rev. B 82, 081101(R) (2010).
     *
     *
     * If you are calculating the stress with vdW-DF, please also cite:
     *
     *   R. Sabatini, E. Kucukbenli, B. Kolb, T. Thonhauser, and
     *   S. de Gironcoli, J. Phys.: Condens. Matter 24, 424209 (2012).
     *
     ************************************************************************

     Carrying out vdW-DF run using the following parameters:

     Nqs =      20    Nr_points =    1024   r_max =   100.000
     q_mesh =
               0.00001000     0.04494208     0.09755937     0.15916263
               0.23128650     0.31572767     0.41458969     0.53033537
               0.66584808     0.82450364     1.01025438     1.22772762
               1.48234092     1.78043706     2.12944203     2.53805004
               3.01644009     3.57652955     4.23227104     5.00000000

     Gradients computed in reciprocal space

     ************************************************************************


 
     Adding external electric field

     Computed dipole along edir(3) : 
        Dipole               -1.3803 Ry au,         -3.5083 Debye
        Dipole field         -0.0040 Ry au
 
        Potential amp.        0.3639 Ry
        Total length         45.0969 bohr
 
     Starting wfc are  148 randomized atomic wfcs

     total cpu time spent up to now is       17.9 secs

     per-process dynamical memory:    45.6 Mb

     Self-consistent Calculation

     iteration #  1     ecut=    36.75 Ry     beta=0.30
     Davidson diagonalization with overlap
     ethr =  1.00E-02,  avg # of iterations =  2.5

     negative rho (up, down):  4.165E+00 0.000E+00
 
     Adding external electric field

     Computed dipole along edir(3) : 
        Dipole               15.7585 Ry au,         40.0541 Debye
        Dipole field          0.0461 Ry au
 
        Potential amp.       -4.1546 Ry
        Total length         45.0969 bohr
 

     total cpu time spent up to now is       50.1 secs

     total energy              =   -2195.43992916 Ry
     Harris-Foulkes estimate   =   -2222.96651481 Ry
     estimated scf accuracy    <      58.24836936 Ry

     iteration #  2     ecut=    36.75 Ry     beta=0.30
     Davidson diagonalization with overlap
     ethr =  1.00E-02,  avg # of iterations = 13.9

     negative rho (up, down):  4.118E+00 0.000E+00
 
     Adding external electric field

     Computed dipole along edir(3) : 
        Dipole               -1.7362 Ry au,         -4.4130 Debye
        Dipole field         -0.0051 Ry au
 
        Potential amp.        0.4577 Ry
        Total length         45.0969 bohr
 

     total cpu time spent up to now is      132.9 secs

     total energy              =   -2163.77582769 Ry
     Harris-Foulkes estimate   =   -2344.38002869 Ry
     estimated scf accuracy    <    3801.97284481 Ry

     iteration #  3     ecut=    36.75 Ry     beta=0.30
     Davidson diagonalization with overlap
     ethr =  1.00E-02,  avg # of iterations =  7.7

     negative rho (up, down):  4.126E+00 0.000E+00
 
     Adding external electric field

     Computed dipole along edir(3) : 
        Dipole               -0.6102 Ry au,         -1.5510 Debye
        Dipole field         -0.0018 Ry au
 
        Potential amp.        0.1609 Ry
        Total length         45.0969 bohr
 

     total cpu time spent up to now is      197.1 secs

     total energy              =   -2206.91107582 Ry
     Harris-Foulkes estimate   =   -2244.48013649 Ry
     estimated scf accuracy    <     528.28336843 Ry

     iteration #  4     ecut=    36.75 Ry     beta=0.30
     Davidson diagonalization with overlap
     ethr =  1.00E-02,  avg # of iterations =  5.2

     negative rho (up, down):  4.100E+00 0.000E+00
 
     Adding external electric field

     Computed dipole along edir(3) : 
        Dipole                0.2443 Ry au,          0.6209 Debye
        Dipole field          0.0007 Ry au
 
        Potential amp.       -0.0644 Ry
        Total length         45.0969 bohr
 

     total cpu time spent up to now is      247.1 secs

     total energy              =   -2218.45543045 Ry
     Harris-Foulkes estimate   =   -2221.62529354 Ry
     estimated scf accuracy    <      15.46667682 Ry

     iteration #  5     ecut=    36.75 Ry     beta=0.30
     Davidson diagonalization with overlap
     ethr =  8.36E-03,  avg # of iterations =  3.1

     negative rho (up, down):  4.030E+00 0.000E+00
 
     Adding external electric field

     Computed dipole along edir(3) : 
        Dipole               -0.4530 Ry au,         -1.1514 Debye
        Dipole field         -0.0013 Ry au
 
        Potential amp.        0.1194 Ry
        Total length         45.0969 bohr
 

     total cpu time spent up to now is      278.7 secs

     total energy              =   -2219.43653947 Ry
     Harris-Foulkes estimate   =   -2220.25422206 Ry
     estimated scf accuracy    <       6.80979560 Ry

     iteration #  6     ecut=    36.75 Ry     beta=0.30
     Davidson diagonalization with overlap
     ethr =  3.68E-03,  avg # of iterations =  2.2

     negative rho (up, down):  3.963E+00 0.000E+00
 
     Adding external electric field

     Computed dipole along edir(3) : 
        Dipole               -1.0471 Ry au,         -2.6616 Debye
        Dipole field         -0.0031 Ry au
 
        Potential amp.        0.2761 Ry
        Total length         45.0969 bohr
 

     total cpu time spent up to now is      308.9 secs

     total energy              =   -2219.50460429 Ry
     Harris-Foulkes estimate   =   -2219.92993030 Ry
     estimated scf accuracy    <       7.25635076 Ry

     iteration #  7     ecut=    36.75 Ry     beta=0.30
     Davidson diagonalization with overlap
     ethr =  3.68E-03,  avg # of iterations =  1.4

     negative rho (up, down):  3.920E+00 0.000E+00
 
     Adding external electric field

     Computed dipole along edir(3) : 
        Dipole               -0.7526 Ry au,         -1.9130 Debye
        Dipole field         -0.0022 Ry au
 
        Potential amp.        0.1984 Ry
        Total length         45.0969 bohr
 

     total cpu time spent up to now is      337.3 secs

     total energy              =   -2219.67093569 Ry
     Harris-Foulkes estimate   =   -2219.97175405 Ry
     estimated scf accuracy    <      10.07251632 Ry

     iteration #  8     ecut=    36.75 Ry     beta=0.30
     Davidson diagonalization with overlap
     ethr =  3.68E-03,  avg # of iterations =  1.0

     negative rho (up, down):  3.906E+00 0.000E+00
 
     Adding external electric field

     Computed dipole along edir(3) : 
        Dipole               -0.7292 Ry au,         -1.8535 Debye
        Dipole field         -0.0021 Ry au
 
        Potential amp.        0.1923 Ry
        Total length         45.0969 bohr
 

     total cpu time spent up to now is      365.1 secs

     total energy              =   -2219.78626413 Ry
     Harris-Foulkes estimate   =   -2219.81120606 Ry
     estimated scf accuracy    <       0.15265725 Ry

     iteration #  9     ecut=    36.75 Ry     beta=0.30
     Davidson diagonalization with overlap
     ethr =  8.25E-05,  avg # of iterations =  6.8

     negative rho (up, down):  3.890E+00 0.000E+00
 
     Adding external electric field

     Computed dipole along edir(3) : 
        Dipole               -0.6278 Ry au,         -1.5958 Debye
        Dipole field         -0.0018 Ry au
 
        Potential amp.        0.1655 Ry
        Total length         45.0969 bohr
 

     total cpu time spent up to now is      404.6 secs

     total energy              =   -2219.80248426 Ry
     Harris-Foulkes estimate   =   -2219.81634528 Ry
     estimated scf accuracy    <       0.18772239 Ry

     iteration # 10     ecut=    36.75 Ry     beta=0.30
     Davidson diagonalization with overlap
     ethr =  8.25E-05,  avg # of iterations =  1.1

     negative rho (up, down):  3.886E+00 0.000E+00
 
     Adding external electric field

     Computed dipole along edir(3) : 
        Dipole               -0.6173 Ry au,         -1.5690 Debye
        Dipole field         -0.0018 Ry au
 
        Potential amp.        0.1627 Ry
        Total length         45.0969 bohr
 

     total cpu time spent up to now is      432.4 secs

     total energy              =   -2219.80468830 Ry
     Harris-Foulkes estimate   =   -2219.80986165 Ry
     estimated scf accuracy    <       0.08185270 Ry

     iteration # 11     ecut=    36.75 Ry     beta=0.30
     Davidson diagonalization with overlap
     ethr =  4.42E-05,  avg # of iterations =  1.0

     negative rho (up, down):  3.879E+00 0.000E+00
 
     Adding external electric field

     Computed dipole along edir(3) : 
        Dipole               -0.6138 Ry au,         -1.5602 Debye
        Dipole field         -0.0018 Ry au
 
        Potential amp.        0.1618 Ry
        Total length         45.0969 bohr
 

     total cpu time spent up to now is      460.0 secs

     total energy              =   -2219.80505845 Ry
     Harris-Foulkes estimate   =   -2219.80717862 Ry
     estimated scf accuracy    <       0.01997649 Ry

     iteration # 12     ecut=    36.75 Ry     beta=0.30
     Davidson diagonalization with overlap
     ethr =  1.08E-05,  avg # of iterations =  5.8

     negative rho (up, down):  3.878E+00 0.000E+00
 
     Adding external electric field

     Computed dipole along edir(3) : 
        Dipole               -0.6035 Ry au,         -1.5339 Debye
        Dipole field         -0.0018 Ry au
 
        Potential amp.        0.1591 Ry
        Total length         45.0969 bohr
 

     total cpu time spent up to now is      496.9 secs

     total energy              =   -2219.80636108 Ry
     Harris-Foulkes estimate   =   -2219.80747629 Ry
     estimated scf accuracy    <       0.03701604 Ry

     iteration # 13     ecut=    36.75 Ry     beta=0.30
     Davidson diagonalization with overlap
     ethr =  1.08E-05,  avg # of iterations =  1.0

     negative rho (up, down):  3.877E+00 0.000E+00
 
     Adding external electric field

     Computed dipole along edir(3) : 
        Dipole               -0.4839 Ry au,         -1.2300 Debye
        Dipole field         -0.0014 Ry au
 
        Potential amp.        0.1276 Ry
        Total length         45.0969 bohr
 

     total cpu time spent up to now is      525.0 secs

     total energy              =   -2219.80506106 Ry
     Harris-Foulkes estimate   =   -2219.80711875 Ry
     estimated scf accuracy    <       0.03143696 Ry

     iteration # 14     ecut=    36.75 Ry     beta=0.30
     Davidson diagonalization with overlap
     ethr =  1.08E-05,  avg # of iterations =  4.5

     negative rho (up, down):  3.878E+00 0.000E+00
 
     Adding external electric field

     Computed dipole along edir(3) : 
        Dipole               -0.4513 Ry au,         -1.1471 Debye
        Dipole field         -0.0013 Ry au
 
        Potential amp.        0.1190 Ry
        Total length         45.0969 bohr
 

     total cpu time spent up to now is      558.5 secs

     total energy              =   -2219.80620316 Ry
     Harris-Foulkes estimate   =   -2219.80692055 Ry
     estimated scf accuracy    <       0.01946371 Ry

     iteration # 15     ecut=    36.75 Ry     beta=0.30
     Davidson diagonalization with overlap
     ethr =  1.05E-05,  avg # of iterations =  1.0

     negative rho (up, down):  3.879E+00 0.000E+00
 
     Adding external electric field

     Computed dipole along edir(3) : 
        Dipole               -0.4171 Ry au,         -1.0602 Debye
        Dipole field         -0.0012 Ry au
 
        Potential amp.        0.1100 Ry
        Total length         45.0969 bohr
 

     total cpu time spent up to now is      586.1 secs

     total energy              =   -2219.80607260 Ry
     Harris-Foulkes estimate   =   -2219.80650438 Ry
     estimated scf accuracy    <       0.00352604 Ry

     iteration # 16     ecut=    36.75 Ry     beta=0.30
     Davidson diagonalization with overlap
     ethr =  1.91E-06,  avg # of iterations =  5.5

     negative rho (up, down):  3.880E+00 0.000E+00
 
     Adding external electric field

     Computed dipole along edir(3) : 
        Dipole               -0.3961 Ry au,         -1.0068 Debye
        Dipole field         -0.0012 Ry au
 
        Potential amp.        0.1044 Ry
        Total length         45.0969 bohr
 

     total cpu time spent up to now is      622.8 secs

     total energy              =   -2219.80627240 Ry
     Harris-Foulkes estimate   =   -2219.80663807 Ry
     estimated scf accuracy    <       0.00790956 Ry

     iteration # 17     ecut=    36.75 Ry     beta=0.30
     Davidson diagonalization with overlap
     ethr =  1.91E-06,  avg # of iterations =  2.6

     negative rho (up, down):  3.880E+00 0.000E+00
 
     Adding external electric field

     Computed dipole along edir(3) : 
        Dipole               -0.3877 Ry au,         -0.9855 Debye
        Dipole field         -0.0011 Ry au
 
        Potential amp.        0.1022 Ry
        Total length         45.0969 bohr
 

     total cpu time spent up to now is      653.0 secs

     total energy              =   -2219.80645209 Ry
     Harris-Foulkes estimate   =   -2219.80647453 Ry
     estimated scf accuracy    <       0.00013173 Ry

     iteration # 18     ecut=    36.75 Ry     beta=0.30
     Davidson diagonalization with overlap
     ethr =  7.12E-08,  avg # of iterations =  6.8

     negative rho (up, down):  3.881E+00 0.000E+00
 
     Adding external electric field

     Computed dipole along edir(3) : 
        Dipole               -0.3812 Ry au,         -0.9690 Debye
        Dipole field         -0.0011 Ry au
 
        Potential amp.        0.1005 Ry
        Total length         45.0969 bohr
 

     total cpu time spent up to now is      692.7 secs

     total energy              =   -2219.80646669 Ry
     Harris-Foulkes estimate   =   -2219.80648558 Ry
     estimated scf accuracy    <       0.00012897 Ry

     iteration # 19     ecut=    36.75 Ry     beta=0.30
     Davidson diagonalization with overlap
     ethr =  6.97E-08,  avg # of iterations =  1.0

     negative rho (up, down):  3.881E+00 0.000E+00
 
     Adding external electric field

     Computed dipole along edir(3) : 
        Dipole               -0.3782 Ry au,         -0.9613 Debye
        Dipole field         -0.0011 Ry au
 
        Potential amp.        0.0997 Ry
        Total length         45.0969 bohr
 

     total cpu time spent up to now is      720.3 secs

     total energy              =   -2219.80646507 Ry
     Harris-Foulkes estimate   =   -2219.80647533 Ry
     estimated scf accuracy    <       0.00002874 Ry

     iteration # 20     ecut=    36.75 Ry     beta=0.30
     Davidson diagonalization with overlap
     ethr =  1.55E-08,  avg # of iterations =  4.0

     negative rho (up, down):  3.881E+00 0.000E+00
 
     Adding external electric field

     Computed dipole along edir(3) : 
        Dipole               -0.3772 Ry au,         -0.9588 Debye
        Dipole field         -0.0011 Ry au
 
        Potential amp.        0.0995 Ry
        Total length         45.0969 bohr
 

     total cpu time spent up to now is      752.9 secs

     total energy              =   -2219.80646670 Ry
     Harris-Foulkes estimate   =   -2219.80646966 Ry
     estimated scf accuracy    <       0.00001521 Ry

     iteration # 21     ecut=    36.75 Ry     beta=0.30
     Davidson diagonalization with overlap
     ethr =  8.22E-09,  avg # of iterations =  1.1

     negative rho (up, down):  3.881E+00 0.000E+00

     negative rho (up, down):  3.881E+00 0.000E+00

     negative rho (up, down):  3.881E+00 0.000E+00

     negative rho (up, down):  3.881E+00 0.000E+00

     negative rho (up, down):  3.881E+00 0.000E+00

     negative rho (up, down):  3.881E+00 0.000E+00

     negative rho (up, down):  3.881E+00 0.000E+00

     negative rho (up, down):  3.881E+00 0.000E+00

     negative rho (up, down):  3.881E+00 0.000E+00

     negative rho (up, down):  3.881E+00 0.000E+00

     negative rho (up, down):  3.881E+00 0.000E+00

     negative rho (up, down):  3.881E+00 0.000E+00

     negative rho (up, down):  3.881E+00 0.000E+00

     negative rho (up, down):  3.881E+00 0.000E+00

     negative rho (up, down):  3.881E+00 0.000E+00

     negative rho (up, down):  3.881E+00 0.000E+00

     negative rho (up, down):  3.881E+00 0.000E+00

     negative rho (up, down):  3.881E+00 0.000E+00

     negative rho (up, down):  3.881E+00 0.000E+00

     negative rho (up, down):  3.881E+00 0.000E+00

     negative rho (up, down):  3.881E+00 0.000E+00

     negative rho (up, down):  3.881E+00 0.000E+00

     negative rho (up, down):  3.881E+00 0.000E+00

     negative rho (up, down):  3.881E+00 0.000E+00

     negative rho (up, down):  3.881E+00 0.000E+00

     negative rho (up, down):  3.881E+00 0.000E+00

     negative rho (up, down):  3.881E+00 0.000E+00

     negative rho (up, down):  3.881E+00 0.000E+00

     negative rho (up, down):  3.881E+00 0.000E+00

     negative rho (up, down):  3.881E+00 0.000E+00

     negative rho (up, down):  3.881E+00 0.000E+00

     negative rho (up, down):  3.881E+00 0.000E+00

     negative rho (up, down):  3.881E+00 0.000E+00

     negative rho (up, down):  3.881E+00 0.000E+00

     negative rho (up, down):  3.881E+00 0.000E+00
 
     Adding external electric field

     Computed dipole along edir(3) : 
        Dipole               -0.3989 Ry au,         -1.0139 Debye
        Dipole field         -0.0012 Ry au
 
        Potential amp.        0.1052 Ry
        Total length         45.0969 bohr
 

     total cpu time spent up to now is      827.9 secs

     End of self-consistent calculation

          k = 0.0000 0.0000 0.0000 ( 16073 PWs)   bands (ev):

   -48.1335 -48.1121 -48.1120 -47.9957 -47.9243 -47.9242 -47.8582 -47.7412
   -47.6886 -47.6885 -47.6824 -47.6397 -47.6396 -47.5572 -47.5572 -47.5385
   -47.5383 -47.5155 -47.3544 -47.3541 -47.3506 -47.3110 -47.2674 -47.2671
   -47.1742 -47.1741 -47.1739 -47.1704 -47.1253 -47.1151 -47.1119 -47.1118
   -47.1079 -47.1076 -47.0443 -47.0443 -10.0623  -7.4795  -5.5612  -5.2362
    -4.9341  -4.9254  -4.9254  -4.6418  -4.6357  -4.6357  -4.1451  -4.1344
    -4.1343  -3.8637  -3.8513  -3.8512  -2.3949  -2.3727  -2.3726  -1.8153
    -1.8153  -1.8045  -1.6214  -1.4736  -1.4736  -1.2546  -1.0318  -1.0318
    -0.9870  -0.9679  -0.9678  -0.7221  -0.7221  -0.4735  -0.4734  -0.4102
     0.4321   0.6374   0.6374   0.8737   0.9227   0.9227   0.9737   0.9737
     1.1343   1.4845   1.4845   1.7276   1.7276   1.8882   2.3941   2.4043
     2.4044   2.4203   2.5792   2.5792   2.6969   2.6969   2.9122   2.9548
     2.9549   3.0488   3.3600   3.4045   3.4047   3.4998

          k = 0.0000 0.0351 0.0000 ( 16131 PWs)   bands (ev):

   -48.1113 -48.0914 -48.0823 -47.9886 -47.9236 -47.9203 -47.8463 -47.7565
   -47.7115 -47.6878 -47.6681 -47.6210 -47.6172 -47.5929 -47.5647 -47.5242
   -47.5175 -47.4975 -47.3624 -47.3577 -47.3449 -47.3210 -47.2796 -47.2667
   -47.1938 -47.1907 -47.1723 -47.1644 -47.1399 -47.1246 -47.1183 -47.1177
   -47.1091 -47.1082 -47.0785 -47.0528 -10.0546  -7.2247  -5.3033  -4.9856
    -4.8989  -4.7167  -4.7100  -4.5418  -4.4674  -4.4629  -4.0690  -4.0156
    -4.0096  -3.7289  -3.6037  -3.5941  -2.3818  -2.3585  -2.3091  -1.7877
    -1.7187  -1.7098  -1.6956  -1.6307  -1.4904  -1.2749  -1.2615  -1.2324
    -0.9363  -0.9093  -0.8818  -0.8115  -0.6778  -0.5204  -0.4918  -0.4834
     0.1240   0.4542   0.4560   0.5713   0.6178   0.7491   0.8688   0.8930
     0.9315   1.2475   1.3398   1.3815   1.6636   1.7060   1.8544   1.9207
     2.1680   2.1687   2.2268   2.3097   2.3602   2.4951   2.5284   2.6012
     2.6525   2.8501   2.9000   3.0302   3.0545   3.0789

          k = 0.0000 0.0702 0.0000 ( 16137 PWs)   bands (ev):

   -48.0659 -48.0391 -47.9929 -47.9704 -47.9273 -47.9125 -47.8243 -47.8066
   -47.7690 -47.6887 -47.6736 -47.6324 -47.5863 -47.5707 -47.5515 -47.4862
   -47.4726 -47.4277 -47.3947 -47.3913 -47.3343 -47.3313 -47.3006 -47.2605
   -47.2418 -47.2354 -47.2115 -47.1773 -47.1610 -47.1422 -47.1333 -47.1271
   -47.1166 -47.1094 -47.1082 -47.0753 -10.0402  -6.5242  -5.0107  -4.6519
    -4.3385  -4.3014  -4.1689  -4.1588  -4.0677  -4.0603  -3.8674  -3.6352
    -3.6284  -3.3741  -2.9361  -2.9244  -2.4137  -2.3846  -2.3446  -2.1712
    -2.0332  -1.8477  -1.8163  -1.6318  -1.5938  -1.3707  -1.3604  -1.1229
    -1.0148  -0.8694  -0.8321  -0.8302  -0.7401  -0.7350  -0.5395  -0.4299
    -0.1884  -0.1576  -0.0740   0.0808   0.1408   0.1557   0.2223   0.3568
     0.3762   0.4802   0.7513   0.8018   0.9815   1.1611   1.2004   1.3354
     1.4672   1.5081   1.6871   1.7286   1.8012   1.9153   2.0532   2.2110
     2.2362   2.4427   2.6153   2.7084   2.8576   2.9487

          k = 0.0000-0.1053 0.0000 ( 16164 PWs)   bands (ev):

   -48.0388 -48.0002 -47.9551 -47.9369 -47.9089 -47.8842 -47.8530 -47.8461
   -47.8143 -47.7444 -47.6603 -47.6139 -47.6006 -47.5305 -47.4822 -47.4592
   -47.4521 -47.4405 -47.4308 -47.3335 -47.3325 -47.3228 -47.3050 -47.2936
   -47.2675 -47.2672 -47.2527 -47.2521 -47.1580 -47.1421 -47.1309 -47.1161
   -47.1159 -47.1133 -47.1107 -47.0964 -10.0334  -5.6284  -5.6211  -4.1939
    -4.1668  -3.8311  -3.8098  -3.7873  -3.7781  -3.7750  -3.7490  -3.2067
    -3.1901  -2.8895  -2.8560  -2.7009  -2.7007  -2.3951  -2.3621  -2.3393
    -2.3193  -2.0251  -1.9794  -1.5712  -1.5459  -1.2543  -1.1564  -1.1104
    -1.1093  -1.0822  -1.0570  -0.8748  -0.7586  -0.7441  -0.7238  -0.6946
    -0.6932  -0.5792  -0.5618  -0.5558  -0.5451   0.1426   0.1779   0.2295
     0.3040   0.4711   0.4845   0.5319   0.7411   0.9386   1.0115   1.1039
     1.1054   1.1771   1.2979   1.3082   1.5923   1.6495   1.6955   1.8556
     2.2165   2.4318   2.6185   2.6664   2.8679   2.9636

          k = 0.0304-0.0176 0.0000 ( 16131 PWs)   bands (ev):

   -48.1113 -48.0915 -48.0823 -47.9886 -47.9238 -47.9202 -47.8463 -47.7565
   -47.7116 -47.6877 -47.6681 -47.6209 -47.6173 -47.5929 -47.5647 -47.5242
   -47.5176 -47.4975 -47.3623 -47.3578 -47.3449 -47.3210 -47.2795 -47.2669
   -47.1938 -47.1908 -47.1723 -47.1644 -47.1400 -47.1246 -47.1183 -47.1176
   -47.1091 -47.1082 -47.0785 -47.0528 -10.0546  -7.2247  -5.3033  -4.9856
    -4.8989  -4.7167  -4.7100  -4.5418  -4.4673  -4.4629  -4.0690  -4.0156
    -4.0095  -3.7289  -3.6037  -3.5941  -2.3818  -2.3585  -2.3091  -1.7877
    -1.7187  -1.7098  -1.6956  -1.6307  -1.4904  -1.2749  -1.2615  -1.2324
    -0.9363  -0.9093  -0.8818  -0.8115  -0.6778  -0.5204  -0.4919  -0.4834
     0.1240   0.4541   0.4561   0.5713   0.6178   0.7491   0.8688   0.8930
     0.9315   1.2475   1.3398   1.3815   1.6636   1.7061   1.8544   1.9206
     2.1680   2.1687   2.2268   2.3097   2.3602   2.4950   2.5284   2.6012
     2.6525   2.8501   2.9000   3.0303   3.0546   3.0790

          k = 0.0304 0.0176 0.0000 ( 16131 PWs)   bands (ev):

   -48.1113 -48.0914 -48.0823 -47.9886 -47.9237 -47.9202 -47.8463 -47.7565
   -47.7116 -47.6877 -47.6681 -47.6209 -47.6173 -47.5929 -47.5647 -47.5243
   -47.5174 -47.4975 -47.3622 -47.3579 -47.3449 -47.3210 -47.2793 -47.2670
   -47.1939 -47.1906 -47.1723 -47.1645 -47.1400 -47.1246 -47.1182 -47.1177
   -47.1093 -47.1080 -47.0785 -47.0528 -10.0546  -7.2247  -5.3033  -4.9856
    -4.8989  -4.7167  -4.7100  -4.5418  -4.4673  -4.4629  -4.0690  -4.0156
    -4.0095  -3.7289  -3.6037  -3.5941  -2.3818  -2.3585  -2.3091  -1.7877
    -1.7187  -1.7098  -1.6956  -1.6307  -1.4904  -1.2749  -1.2615  -1.2324
    -0.9363  -0.9093  -0.8818  -0.8115  -0.6778  -0.5204  -0.4919  -0.4834
     0.1240   0.4541   0.4560   0.5713   0.6178   0.7491   0.8687   0.8931
     0.9315   1.2475   1.3398   1.3815   1.6636   1.7061   1.8545   1.9206
     2.1680   2.1687   2.2267   2.3097   2.3602   2.4951   2.5284   2.6012
     2.6525   2.8501   2.9000   3.0302   3.0546   3.0790

          k = 0.0304 0.0527 0.0000 ( 16186 PWs)   bands (ev):

   -48.0794 -48.0378 -48.0364 -47.9759 -47.9249 -47.9149 -47.8293 -47.8039
   -47.7246 -47.6960 -47.6615 -47.6362 -47.5840 -47.5787 -47.5781 -47.5004
   -47.4730 -47.4602 -47.3974 -47.3595 -47.3375 -47.3345 -47.2897 -47.2716
   -47.2521 -47.1877 -47.1747 -47.1740 -47.1634 -47.1456 -47.1329 -47.1256
   -47.1160 -47.1092 -47.1077 -47.0703 -10.0437  -6.7427  -4.8329  -4.7113
    -4.7034  -4.5255  -4.2823  -4.2767  -4.2029  -4.1172  -3.8782  -3.8692
    -3.6877  -3.3764  -3.3578  -3.0312  -2.4507  -2.2859  -2.2666  -2.1926
    -1.8371  -1.7182  -1.6894  -1.6130  -1.5932  -1.5072  -1.2837  -1.2667
    -1.0196  -0.9833  -0.8672  -0.7325  -0.7132  -0.6802  -0.6256  -0.2856
    -0.0859  -0.0091   0.0314   0.1304   0.3981   0.4252   0.4614   0.4978
     0.6308   0.7177   0.7466   0.8715   1.0174   1.1902   1.3362   1.5434
     1.5968   1.7517   1.8236   1.9442   2.0788   2.1419   2.2386   2.3625
     2.5338   2.6553   2.7205   2.7851   2.8742   2.9814

          k = 0.0304-0.1229 0.0000 ( 16191 PWs)   bands (ev):

   -48.0314 -47.9853 -47.9570 -47.9373 -47.9303 -47.9103 -47.8775 -47.8136
   -47.7986 -47.7153 -47.6751 -47.6154 -47.6031 -47.5305 -47.5087 -47.4652
   -47.4495 -47.4218 -47.3942 -47.3725 -47.3501 -47.3277 -47.3213 -47.3066
   -47.2709 -47.2500 -47.2222 -47.2001 -47.1602 -47.1513 -47.1430 -47.1302
   -47.1175 -47.1114 -47.1098 -47.0978 -10.0334  -5.9066  -5.0696  -4.3469
    -4.1670  -4.0237  -3.8699  -3.8158  -3.7755  -3.6234  -3.5610  -3.4182
    -3.1668  -2.9584  -2.8708  -2.7440  -2.6542  -2.3896  -2.3521  -2.3385
    -2.2570  -2.0451  -1.9173  -1.7672  -1.7072  -1.3965  -1.3364  -1.2289
    -1.1575  -1.1446  -1.0528  -1.0126  -0.9732  -0.9535  -0.7826  -0.5734
    -0.5034  -0.4533  -0.3439  -0.3206  -0.2461  -0.1264   0.2484   0.2950
     0.3489   0.4628   0.6158   0.7114   0.7708   0.8564   0.9683   1.1711
     1.3077   1.3448   1.4894   1.6540   1.9001   1.9290   1.9530   2.1481
     2.2087   2.3276   2.4774   2.6073   2.6844   2.7891

          k = 0.0304-0.0878 0.0000 ( 16191 PWs)   bands (ev):

   -48.0314 -47.9853 -47.9570 -47.9373 -47.9303 -47.9103 -47.8775 -47.8136
   -47.7986 -47.7153 -47.6751 -47.6154 -47.6031 -47.5305 -47.5087 -47.4653
   -47.4496 -47.4218 -47.3940 -47.3724 -47.3501 -47.3277 -47.3214 -47.3067
   -47.2709 -47.2498 -47.2222 -47.2001 -47.1602 -47.1513 -47.1430 -47.1302
   -47.1177 -47.1113 -47.1098 -47.0979 -10.0334  -5.9066  -5.0696  -4.3469
    -4.1670  -4.0237  -3.8699  -3.8158  -3.7755  -3.6234  -3.5610  -3.4182
    -3.1668  -2.9584  -2.8708  -2.7440  -2.6542  -2.3896  -2.3521  -2.3385
    -2.2570  -2.0451  -1.9173  -1.7672  -1.7072  -1.3965  -1.3364  -1.2289
    -1.1574  -1.1446  -1.0528  -1.0126  -0.9732  -0.9535  -0.7826  -0.5734
    -0.5034  -0.4533  -0.3439  -0.3207  -0.2461  -0.1264   0.2484   0.2951
     0.3489   0.4628   0.6158   0.7114   0.7708   0.8564   0.9683   1.1711
     1.3077   1.3448   1.4894   1.6540   1.9001   1.9290   1.9529   2.1481
     2.2087   2.3276   2.4774   2.6073   2.6844   2.7891

          k = 0.0304-0.0527 0.0000 ( 16186 PWs)   bands (ev):

   -48.0794 -48.0378 -48.0364 -47.9759 -47.9250 -47.9149 -47.8293 -47.8039
   -47.7246 -47.6959 -47.6615 -47.6362 -47.5841 -47.5788 -47.5781 -47.5004
   -47.4731 -47.4602 -47.3976 -47.3594 -47.3375 -47.3345 -47.2897 -47.2715
   -47.2522 -47.1877 -47.1746 -47.1740 -47.1634 -47.1456 -47.1330 -47.1257
   -47.1160 -47.1090 -47.1079 -47.0703 -10.0437  -6.7427  -4.8329  -4.7114
    -4.7034  -4.5255  -4.2823  -4.2767  -4.2029  -4.1172  -3.8782  -3.8692
    -3.6877  -3.3764  -3.3578  -3.0312  -2.4507  -2.2859  -2.2666  -2.1926
    -1.8371  -1.7182  -1.6894  -1.6130  -1.5932  -1.5072  -1.2837  -1.2667
    -1.0196  -0.9833  -0.8672  -0.7325  -0.7132  -0.6803  -0.6256  -0.2856
    -0.0859  -0.0091   0.0314   0.1303   0.3982   0.4252   0.4614   0.4978
     0.6308   0.7177   0.7467   0.8714   1.0174   1.1902   1.3363   1.5434
     1.5968   1.7517   1.8236   1.9442   2.0788   2.1418   2.2386   2.3625
     2.5339   2.6553   2.7205   2.7851   2.8742   2.9814

          k = 0.0608-0.0351 0.0000 ( 16137 PWs)   bands (ev):

   -48.0658 -48.0392 -47.9929 -47.9704 -47.9275 -47.9124 -47.8243 -47.8065
   -47.7691 -47.6887 -47.6735 -47.6325 -47.5863 -47.5706 -47.5515 -47.4861
   -47.4727 -47.4277 -47.3946 -47.3914 -47.3343 -47.3314 -47.3004 -47.2606
   -47.2418 -47.2354 -47.2116 -47.1773 -47.1610 -47.1422 -47.1332 -47.1271
   -47.1166 -47.1094 -47.1083 -47.0753 -10.0402  -6.5242  -5.0107  -4.6519
    -4.3385  -4.3014  -4.1690  -4.1587  -4.0677  -4.0604  -3.8674  -3.6353
    -3.6284  -3.3741  -2.9361  -2.9244  -2.4138  -2.3845  -2.3446  -2.1712
    -2.0332  -1.8477  -1.8162  -1.6317  -1.5938  -1.3706  -1.3605  -1.1229
    -1.0148  -0.8694  -0.8321  -0.8302  -0.7402  -0.7349  -0.5395  -0.4298
    -0.1884  -0.1576  -0.0740   0.0808   0.1409   0.1556   0.2223   0.3568
     0.3761   0.4802   0.7513   0.8018   0.9815   1.1610   1.2004   1.3354
     1.4672   1.5081   1.6871   1.7287   1.8011   1.9153   2.0532   2.2110
     2.2362   2.4428   2.6152   2.7084   2.8576   2.9486

          k = 0.0608 0.0000 0.0000 ( 16186 PWs)   bands (ev):

   -48.0794 -48.0377 -48.0364 -47.9759 -47.9251 -47.9148 -47.8294 -47.8039
   -47.7247 -47.6959 -47.6615 -47.6362 -47.5840 -47.5786 -47.5782 -47.5004
   -47.4730 -47.4602 -47.3973 -47.3596 -47.3376 -47.3345 -47.2895 -47.2717
   -47.2522 -47.1877 -47.1746 -47.1740 -47.1634 -47.1456 -47.1329 -47.1256
   -47.1160 -47.1092 -47.1078 -47.0703 -10.0437  -6.7427  -4.8329  -4.7113
    -4.7034  -4.5255  -4.2823  -4.2767  -4.2029  -4.1172  -3.8782  -3.8692
    -3.6877  -3.3764  -3.3578  -3.0312  -2.4507  -2.2859  -2.2666  -2.1926
    -1.8371  -1.7182  -1.6894  -1.6130  -1.5931  -1.5072  -1.2837  -1.2667
    -1.0196  -0.9833  -0.8672  -0.7325  -0.7131  -0.6803  -0.6256  -0.2856
    -0.0859  -0.0092   0.0314   0.1303   0.3981   0.4252   0.4613   0.4979
     0.6308   0.7177   0.7467   0.8714   1.0174   1.1902   1.3362   1.5434
     1.5968   1.7517   1.8236   1.9442   2.0788   2.1419   2.2386   2.3626
     2.5339   2.6553   2.7205   2.7850   2.8742   2.9814

          k = 0.0608 0.0351 0.0000 ( 16137 PWs)   bands (ev):

   -48.0659 -48.0392 -47.9929 -47.9704 -47.9275 -47.9124 -47.8244 -47.8065
   -47.7691 -47.6887 -47.6735 -47.6326 -47.5863 -47.5705 -47.5515 -47.4864
   -47.4724 -47.4277 -47.3945 -47.3915 -47.3343 -47.3315 -47.3003 -47.2608
   -47.2420 -47.2352 -47.2116 -47.1774 -47.1610 -47.1423 -47.1331 -47.1270
   -47.1167 -47.1097 -47.1080 -47.0752 -10.0402  -6.5242  -5.0107  -4.6519
    -4.3385  -4.3014  -4.1689  -4.1587  -4.0677  -4.0604  -3.8674  -3.6352
    -3.6284  -3.3741  -2.9361  -2.9244  -2.4137  -2.3845  -2.3447  -2.1712
    -2.0332  -1.8477  -1.8162  -1.6317  -1.5938  -1.3707  -1.3604  -1.1229
    -1.0148  -0.8694  -0.8321  -0.8303  -0.7402  -0.7350  -0.5395  -0.4298
    -0.1884  -0.1577  -0.0740   0.0808   0.1408   0.1556   0.2223   0.3568
     0.3761   0.4802   0.7513   0.8018   0.9815   1.1610   1.2004   1.3354
     1.4672   1.5081   1.6870   1.7286   1.8011   1.9154   2.0532   2.2110
     2.2362   2.4427   2.6152   2.7084   2.8576   2.9486

          k = 0.0608-0.1404 0.0000 ( 16191 PWs)   bands (ev):

   -48.0314 -47.9854 -47.9570 -47.9374 -47.9303 -47.9103 -47.8775 -47.8136
   -47.7986 -47.7152 -47.6751 -47.6155 -47.6032 -47.5303 -47.5084 -47.4654
   -47.4497 -47.4217 -47.3940 -47.3725 -47.3503 -47.3278 -47.3213 -47.3064
   -47.2711 -47.2499 -47.2222 -47.2001 -47.1602 -47.1512 -47.1431 -47.1302
   -47.1176 -47.1114 -47.1099 -47.0977 -10.0334  -5.9066  -5.0696  -4.3469
    -4.1670  -4.0237  -3.8699  -3.8158  -3.7755  -3.6234  -3.5610  -3.4182
    -3.1668  -2.9584  -2.8708  -2.7440  -2.6542  -2.3896  -2.3521  -2.3385
    -2.2570  -2.0451  -1.9173  -1.7672  -1.7072  -1.3965  -1.3364  -1.2289
    -1.1575  -1.1445  -1.0528  -1.0126  -0.9732  -0.9535  -0.7826  -0.5734
    -0.5034  -0.4533  -0.3439  -0.3207  -0.2461  -0.1264   0.2484   0.2950
     0.3489   0.4628   0.6158   0.7114   0.7708   0.8564   0.9683   1.1711
     1.3077   1.3448   1.4894   1.6540   1.9000   1.9290   1.9530   2.1481
     2.2087   2.3276   2.4773   2.6072   2.6845   2.7890

          k = 0.0608-0.1053 0.0000 ( 16242 PWs)   bands (ev):

   -47.9681 -47.9672 -47.9430 -47.9409 -47.9306 -47.9104 -47.8767 -47.8762
   -47.8070 -47.7015 -47.6623 -47.6553 -47.5682 -47.5435 -47.4789 -47.4394
   -47.4329 -47.4124 -47.3897 -47.3754 -47.3470 -47.3460 -47.3409 -47.3144
   -47.3095 -47.2758 -47.1940 -47.1916 -47.1557 -47.1549 -47.1538 -47.1427
   -47.1322 -47.1170 -47.1110 -47.1041 -10.0302  -5.0498  -5.0449  -5.0448
    -3.7736  -3.7540  -3.7527  -3.3515  -3.3411  -3.3347  -3.1888  -3.1874
    -3.1715  -3.0132  -2.9926  -2.9883  -2.6045  -2.5871  -2.2893  -2.2886
    -2.2553  -2.0685  -1.9629  -1.9597  -1.7541  -1.7192  -1.7116  -1.5902
    -1.5293  -1.5192  -1.4233  -0.9726  -0.9687  -0.8142  -0.7842  -0.6545
    -0.5403  -0.5291  -0.5241  -0.5213  -0.5194   0.0387   0.1191   0.1816
     0.5607   0.6277   0.6581   0.6664   0.7697   1.0356   1.0389   1.1130
     1.4141   1.4728   1.9459   1.9481   1.9830   2.0295   2.0997   2.1290
     2.1897   2.1978   2.2122   2.3411   2.3534   2.3588

          k = 0.0608-0.0702 0.0000 ( 16191 PWs)   bands (ev):

   -48.0314 -47.9854 -47.9570 -47.9374 -47.9303 -47.9103 -47.8775 -47.8136
   -47.7986 -47.7152 -47.6751 -47.6154 -47.6032 -47.5304 -47.5085 -47.4654
   -47.4497 -47.4219 -47.3939 -47.3725 -47.3502 -47.3277 -47.3213 -47.3066
   -47.2710 -47.2498 -47.2222 -47.2001 -47.1602 -47.1512 -47.1430 -47.1303
   -47.1177 -47.1113 -47.1097 -47.0979 -10.0334  -5.9066  -5.0696  -4.3469
    -4.1670  -4.0237  -3.8699  -3.8158  -3.7755  -3.6234  -3.5610  -3.4182
    -3.1668  -2.9584  -2.8708  -2.7440  -2.6542  -2.3896  -2.3521  -2.3385
    -2.2570  -2.0451  -1.9173  -1.7672  -1.7072  -1.3965  -1.3364  -1.2289
    -1.1574  -1.1446  -1.0528  -1.0126  -0.9732  -0.9535  -0.7826  -0.5734
    -0.5034  -0.4533  -0.3439  -0.3207  -0.2461  -0.1264   0.2484   0.2951
     0.3489   0.4628   0.6158   0.7114   0.7708   0.8564   0.9683   1.1711
     1.3077   1.3448   1.4894   1.6540   1.9000   1.9290   1.9530   2.1481
     2.2088   2.3276   2.4773   2.6073   2.6844   2.7890

          k =-0.0912 0.0527 0.0000 ( 16164 PWs)   bands (ev):

   -48.0386 -48.0004 -47.9550 -47.9371 -47.9087 -47.8841 -47.8532 -47.8460
   -47.8144 -47.7443 -47.6602 -47.6140 -47.6007 -47.5302 -47.4819 -47.4591
   -47.4522 -47.4405 -47.4310 -47.3337 -47.3326 -47.3226 -47.3049 -47.2936
   -47.2676 -47.2671 -47.2528 -47.2523 -47.1579 -47.1420 -47.1310 -47.1161
   -47.1158 -47.1134 -47.1106 -47.0965 -10.0334  -5.6284  -5.6211  -4.1939
    -4.1668  -3.8310  -3.8098  -3.7873  -3.7780  -3.7751  -3.7490  -3.2066
    -3.1902  -2.8895  -2.8560  -2.7009  -2.7007  -2.3951  -2.3621  -2.3392
    -2.3193  -2.0251  -1.9793  -1.5713  -1.5459  -1.2542  -1.1564  -1.1103
    -1.1093  -1.0821  -1.0570  -0.8748  -0.7586  -0.7440  -0.7238  -0.6946
    -0.6933  -0.5792  -0.5617  -0.5559  -0.5451   0.1427   0.1778   0.2295
     0.3040   0.4712   0.4845   0.5318   0.7411   0.9385   1.0116   1.1039
     1.1054   1.1771   1.2979   1.3082   1.5922   1.6495   1.6955   1.8556
     2.2165   2.4319   2.6184   2.6664   2.8679   2.9635

          k =-0.0912 0.0878 0.0000 ( 16191 PWs)   bands (ev):

   -48.0314 -47.9854 -47.9569 -47.9374 -47.9304 -47.9102 -47.8776 -47.8136
   -47.7986 -47.7152 -47.6751 -47.6155 -47.6032 -47.5304 -47.5085 -47.4652
   -47.4495 -47.4219 -47.3943 -47.3725 -47.3502 -47.3278 -47.3212 -47.3064
   -47.2711 -47.2499 -47.2222 -47.2001 -47.1602 -47.1512 -47.1430 -47.1302
   -47.1176 -47.1114 -47.1098 -47.0979 -10.0334  -5.9066  -5.0696  -4.3469
    -4.1670  -4.0237  -3.8699  -3.8158  -3.7755  -3.6234  -3.5610  -3.4182
    -3.1668  -2.9584  -2.8708  -2.7440  -2.6542  -2.3896  -2.3521  -2.3385
    -2.2570  -2.0451  -1.9173  -1.7672  -1.7072  -1.3965  -1.3364  -1.2289
    -1.1575  -1.1445  -1.0528  -1.0126  -0.9732  -0.9535  -0.7826  -0.5733
    -0.5034  -0.4533  -0.3439  -0.3207  -0.2461  -0.1264   0.2484   0.2950
     0.3488   0.4628   0.6158   0.7114   0.7708   0.8564   0.9683   1.1711
     1.3077   1.3448   1.4893   1.6540   1.9000   1.9290   1.9530   2.1481
     2.2088   2.3276   2.4774   2.6073   2.6844   2.7890

          k =-0.0912 0.1229 0.0000 ( 16191 PWs)   bands (ev):

   -48.0314 -47.9854 -47.9569 -47.9374 -47.9304 -47.9102 -47.8776 -47.8136
   -47.7985 -47.7152 -47.6751 -47.6155 -47.6032 -47.5304 -47.5084 -47.4653
   -47.4496 -47.4217 -47.3942 -47.3725 -47.3503 -47.3278 -47.3213 -47.3063
   -47.2711 -47.2499 -47.2222 -47.2001 -47.1602 -47.1512 -47.1430 -47.1302
   -47.1176 -47.1114 -47.1099 -47.0977 -10.0334  -5.9066  -5.0696  -4.3469
    -4.1670  -4.0237  -3.8699  -3.8158  -3.7755  -3.6234  -3.5610  -3.4182
    -3.1668  -2.9584  -2.8708  -2.7440  -2.6542  -2.3896  -2.3521  -2.3385
    -2.2570  -2.0451  -1.9173  -1.7672  -1.7072  -1.3965  -1.3364  -1.2289
    -1.1575  -1.1445  -1.0528  -1.0126  -0.9732  -0.9535  -0.7826  -0.5734
    -0.5034  -0.4533  -0.3439  -0.3207  -0.2461  -0.1264   0.2484   0.2950
     0.3489   0.4628   0.6158   0.7114   0.7708   0.8564   0.9683   1.1711
     1.3077   1.3448   1.4893   1.6540   1.9000   1.9290   1.9530   2.1481
     2.2087   2.3276   2.4774   2.6072   2.6845   2.7890

          k =-0.0912-0.0527 0.0000 ( 16164 PWs)   bands (ev):

   -48.0386 -48.0003 -47.9550 -47.9371 -47.9087 -47.8842 -47.8531 -47.8460
   -47.8144 -47.7443 -47.6602 -47.6141 -47.6007 -47.5301 -47.4817 -47.4594
   -47.4524 -47.4402 -47.4311 -47.3337 -47.3327 -47.3226 -47.3048 -47.2934
   -47.2677 -47.2673 -47.2528 -47.2523 -47.1580 -47.1420 -47.1308 -47.1162
   -47.1161 -47.1131 -47.1110 -47.0961 -10.0334  -5.6283  -5.6211  -4.1940
    -4.1668  -3.8310  -3.8098  -3.7873  -3.7781  -3.7751  -3.7490  -3.2066
    -3.1902  -2.8895  -2.8560  -2.7009  -2.7007  -2.3951  -2.3621  -2.3393
    -2.3193  -2.0251  -1.9794  -1.5713  -1.5459  -1.2541  -1.1564  -1.1103
    -1.1094  -1.0822  -1.0570  -0.8748  -0.7586  -0.7440  -0.7237  -0.6946
    -0.6933  -0.5793  -0.5617  -0.5558  -0.5451   0.1427   0.1778   0.2296
     0.3040   0.4711   0.4845   0.5318   0.7410   0.9384   1.0117   1.1038
     1.1054   1.1771   1.2979   1.3082   1.5923   1.6494   1.6956   1.8557
     2.2165   2.4318   2.6185   2.6664   2.8679   2.9635

     the Fermi energy is     1.9800 ev

!    total energy              =   -2219.80645797 Ry
     Harris-Foulkes estimate   =   -2219.80641777 Ry
     estimated scf accuracy    <       0.00000929 Ry

     The total energy is the sum of the following terms:

     one-electron contribution =  -18693.07104881 Ry
     hartree contribution      =    9375.82902264 Ry
     xc contribution           =    -628.60179972 Ry
     ewald contribution        =    7726.13368109 Ry
     electric field correction =       0.00046514 Ry
     smearing contrib. (-TS)   =      -0.09677831 Ry

     convergence has been achieved in  21 iterations
 
 BEEF-vdW xc energy contributions
           1 :   -556.601237180659     
           2 :    517.568972876457     
           3 :   -447.881700061734     
           4 :    361.327201042615     
           5 :   -272.956220290940     
           6 :    195.238495546188     
           7 :   -135.462742724004     
           8 :    94.9467373048222     
           9 :   -70.0958757749565     
          10 :    54.7312353760800     
          11 :   -42.7392217107285     
          12 :    30.0905792731610     
          13 :   -15.6597250743999     
          14 :   0.807937861588243     
          15 :    11.8680346035449     
          16 :   -20.0201252825584     
          17 :    22.6695597989238     
          18 :   -20.5904873670056     
          19 :    15.9133218360471     
          20 :   -11.2148761316053     
          21 :    8.51925027049231     
          22 :   -8.61498335177919     
          23 :    10.9246193066907     
          24 :   -13.9300616178846     
          25 :    15.9319626274166     
          26 :   -15.8035441066547     
          27 :    13.4290728162864     
          28 :   -9.67559987324353     
          29 :    5.94721390757991     
          30 :   -3.54522166721881     
          31 :   -47.8303197629806     
          32 :   -35.8179233049430     

     Forces acting on atoms (Ry/au):


     negative rho (up, down):  3.881E+00 0.000E+00
     atom    1 type  1   force =    -0.00000174   -0.00000752    0.02199540
     atom    2 type  1   force =     0.00000345    0.00272430    0.01316784
     atom    3 type  1   force =     0.00236468   -0.00135853    0.01317097
     atom    4 type  1   force =    -0.00237140   -0.00136315    0.01316265
     atom    5 type  1   force =    -0.00130067    0.00071698    0.00271944
     atom    6 type  1   force =     0.00130203    0.00074360    0.00269522
     atom    7 type  1   force =     0.00002574    0.00002510    0.01790846
     atom    8 type  1   force =    -0.00002270   -0.00148243    0.00274003
     atom    9 type  1   force =     0.02763563    0.01595058    0.03805645
     atom   10 type  1   force =    -0.02763192    0.01594972    0.03805791
     atom   11 type  1   force =    -0.00000170   -0.03190341    0.03808357
     atom   12 type  1   force =     0.00000134    0.00000815   -0.02365504
     atom   13 type  2   force =    -0.00000276   -0.00000340   -0.17810290

     Total force =     0.202625     Total SCF correction =     0.023390
     SCF correction compared to forces is large: reduce conv_thr to get better values


     entering subroutine stress ...


     negative rho (up, down):  3.881E+00 0.000E+00
          total   stress  (Ry/bohr**3)                   (kbar)     P=  -47.29
  -0.00029615  -0.00000000   0.00000000        -43.56     -0.00      0.00
  -0.00000000  -0.00029615  -0.00000000         -0.00    -43.56     -0.00
   0.00000000  -0.00000000  -0.00037209          0.00     -0.00    -54.74

 !ASE

     Writing output data file calc.save
 
     init_run     :     10.67s CPU     17.59s WALL (       1 calls)
     electrons    :    510.78s CPU    810.09s WALL (       1 calls)
     forces       :      3.50s CPU      4.35s WALL (       1 calls)
     stress       :      9.70s CPU     11.42s WALL (       1 calls)

     Called by init_run:
     wfcinit      :      8.22s CPU     13.99s WALL (       1 calls)
     potinit      :      0.99s CPU      1.67s WALL (       1 calls)

     Called by electrons:
     c_bands      :    395.95s CPU    617.11s WALL (      21 calls)
     sum_band     :     60.59s CPU    102.87s WALL (      21 calls)
     v_of_rho     :     17.60s CPU     31.61s WALL (      22 calls)
     newd         :     10.79s CPU     11.18s WALL (      22 calls)
     mix_rho      :      0.71s CPU      1.25s WALL (      21 calls)
     vdW_energy   :      2.34s CPU      2.35s WALL (      58 calls)
     vdW_ffts     :     26.78s CPU     52.55s WALL (     118 calls)
     vdW_v        :      5.29s CPU      9.22s WALL (      58 calls)

     Called by c_bands:
     init_us_2    :      1.23s CPU      1.25s WALL (     900 calls)
     cegterg      :    386.46s CPU    606.43s WALL (     420 calls)

     Called by *egterg:
     h_psi        :    236.54s CPU    440.27s WALL (    2028 calls)
     s_psi        :     13.52s CPU     13.61s WALL (    2028 calls)
     g_psi        :      0.67s CPU      0.67s WALL (    1588 calls)
     cdiaghg      :     89.42s CPU     93.60s WALL (    2008 calls)

     Called by h_psi:
     add_vuspsi   :     13.53s CPU     13.59s WALL (    2028 calls)

     General routines
     calbec       :     26.24s CPU     33.20s WALL (    2488 calls)
     fft          :     40.44s CPU     79.64s WALL (    3555 calls)
     ffts         :      0.12s CPU      0.29s WALL (      43 calls)
     fftw         :    233.90s CPU    471.01s WALL (  257144 calls)
     interpolate  :      0.58s CPU      1.21s WALL (      43 calls)
     davcio       :      0.00s CPU      0.02s WALL (      20 calls)
 
     Parallel routines
     fft_scatter  :    243.66s CPU    518.56s WALL (  260742 calls)
 
     PWSCF        :  8m55.38s CPU    14m 4.72s WALL

 
   This run was terminated on:   1:33:15  15Jan2018            

=------------------------------------------------------------------------------=
   JOB DONE.
=------------------------------------------------------------------------------=
Job  /afs/slac/g/suncat/bin/suncat-tsmpirun -x LD_LIBRARY_PATH -wdir /scratch/qe842452_egLGZ pw.x -in pw.inp

TID   HOST_NAME   COMMAND_LINE            STATUS            TERMINATION_TIME
===== ========== ================  =======================  ===================
00000 suncat0253 pw.x -in pw.inp   Done                     01/15/2018 01:33:15
00001 suncat0253 pw.x -in pw.inp   Done                     01/15/2018 01:33:15
00002 suncat0253 pw.x -in pw.inp   Done                     01/15/2018 01:33:15
00003 suncat0253 pw.x -in pw.inp   Done                     01/15/2018 01:33:15
00004 suncat0253 pw.x -in pw.inp   Done                     01/15/2018 01:33:15
00005 suncat0253 pw.x -in pw.inp   Done                     01/15/2018 01:33:15
00006 suncat0253 pw.x -in pw.inp   Done                     01/15/2018 01:33:15
00007 suncat0253 pw.x -in pw.inp   Done                     01/15/2018 01:33:15
00008 suncat0249 pw.x -in pw.inp   Done                     01/15/2018 01:33:15
00009 suncat0249 pw.x -in pw.inp   Done                     01/15/2018 01:33:15
00010 suncat0249 pw.x -in pw.inp   Done                     01/15/2018 01:33:15
00011 suncat0249 pw.x -in pw.inp   Done                     01/15/2018 01:33:15
00012 suncat0249 pw.x -in pw.inp   Done                     01/15/2018 01:33:15
00013 suncat0249 pw.x -in pw.inp   Done                     01/15/2018 01:33:15
00014 suncat0249 pw.x -in pw.inp   Done                     01/15/2018 01:33:15
00015 suncat0249 pw.x -in pw.inp   Done                     01/15/2018 01:33:15
00016 suncat0248 pw.x -in pw.inp   Done                     01/15/2018 01:33:15
00017 suncat0248 pw.x -in pw.inp   Done                     01/15/2018 01:33:15
00018 suncat0248 pw.x -in pw.inp   Done                     01/15/2018 01:33:15
00019 suncat0248 pw.x -in pw.inp   Done                     01/15/2018 01:33:15
00020 suncat0248 pw.x -in pw.inp   Done                     01/15/2018 01:33:15
00021 suncat0248 pw.x -in pw.inp   Done                     01/15/2018 01:33:15
00022 suncat0248 pw.x -in pw.inp   Done                     01/15/2018 01:33:15
00023 suncat0248 pw.x -in pw.inp   Done                     01/15/2018 01:33:15
00024 suncat0247 pw.x -in pw.inp   Done                     01/15/2018 01:33:15
00025 suncat0247 pw.x -in pw.inp   Done                     01/15/2018 01:33:15
00026 suncat0247 pw.x -in pw.inp   Done                     01/15/2018 01:33:15
00027 suncat0247 pw.x -in pw.inp   Done                     01/15/2018 01:33:15
00028 suncat0247 pw.x -in pw.inp   Done                     01/15/2018 01:33:15
00029 suncat0247 pw.x -in pw.inp   Done                     01/15/2018 01:33:15
00030 suncat0247 pw.x -in pw.inp   Done                     01/15/2018 01:33:15
00031 suncat0247 pw.x -in pw.inp   Done                     01/15/2018 01:33:15

     Program PWSCF v.5.1rc2 (svn rev. 11289) starts on 15Jan2018 at  1:33:21 

     This program is part of the open-source Quantum ESPRESSO suite
     for quantum simulation of materials; please cite
         "P. Giannozzi et al., J. Phys.:Condens. Matter 21 395502 (2009);
          URL http://www.quantum-espresso.org", 
     in publications or presentations arising from this work. More details at
     http://www.quantum-espresso.org/quote

     Parallel version (MPI), running on    32 processors
     R & G space division:  proc/nbgrp/npool/nimage =      32
     Reading input from pw.inp
     Message from routine read_cards :
     DEPRECATED: no units specified in CELL_PARAMETERS card

     Current dimensions of program PWSCF are:
     Max number of different atomic species (ntypx) = 10
     Max number of k-points (npk) =  40000
     Max angular momentum in pseudopotentials (lmaxx) =  3
     Presently stress not available with electric field


     **************************************************************************
     Initializing libbeef V0.1.1 with the BEEF-vdW functional.
     Citation: Wellendorff et al., PRB 85, 235149 (2012).
     **************************************************************************


     IMPORTANT: XC functional enforced from input :
     Exchange-correlation      = BEEF-VDW ( 1  4 27 13 2)
     Any further DFT definition will be discarded
     Please, verify this is what you really want


     Subspace diagonalization in iterative solution of the eigenvalue problem:
     a serial algorithm will be used

 
     Parallelization info
     --------------------
     sticks:   dense  smooth     PW     G-vecs:    dense   smooth      PW
     Min          84      33      9                15972     4017     623
     Max          85      34     10                16001     4054     650
     Sum        2713    1069    313               511711   129131   20509
 


     bravais-lattice index     =            0
     lattice parameter (alat)  =       1.8897  a.u.
     unit-cell volume          =    4299.0717 (a.u.)^3
     number of atoms/cell      =           13
     number of atomic types    =            2
     number of electrons       =       185.00
     number of Kohn-Sham states=          102
     kinetic-energy cutoff     =      36.7493  Ry
     charge density cutoff     =     367.4932  Ry
     convergence threshold     =      1.0E-05
     mixing beta               =       0.3000
     number of iterations used =           10  plain     mixing
     Exchange-correlation      = BEEF-VDW ( 1  4 27 13 2)
     nstep                     =           50


     celldm(1)=   1.889726  celldm(2)=   0.000000  celldm(3)=   0.000000
     celldm(4)=   0.000000  celldm(5)=   0.000000  celldm(6)=   0.000000

     crystal axes: (cart. coord. in units of alat)
               a(1) = (   5.482164   0.000000   0.000000 )  
               a(2) = (   2.741082   4.747693   0.000000 )  
               a(3) = (   0.000000   0.000000  24.476168 )  

     reciprocal axes: (cart. coord. in units 2 pi/alat)
               b(1) = (  0.182410 -0.105314  0.000000 )  
               b(2) = (  0.000000  0.210629  0.000000 )  
               b(3) = (  0.000000  0.000000  0.040856 )  


     PseudoPot. # 1 for Ir read from file:
     /afs/slac.stanford.edu/u/if/mamunm/psp/gbrv1.5pbe/Ir.UPF
     MD5 check sum: 8836f839c3459d2b385c504ce6d91f2c
     Pseudo is Ultrasoft + core correction, Zval = 15.0
     Generated by new atomic code, or converted to UPF format
     Using radial grid of  983 points,  7 beta functions with: 
                l(1) =   0
                l(2) =   0
                l(3) =   1
                l(4) =   1
                l(5) =   1
                l(6) =   2
                l(7) =   2
     Q(r) pseudized with  8 coefficients,  rinner =    1.400   1.400   1.400
                                                       1.400   1.400

     PseudoPot. # 2 for N  read from file:
     /afs/slac.stanford.edu/u/if/mamunm/psp/gbrv1.5pbe/N.UPF
     MD5 check sum: 95339753478d7afb44899504a8723017
     Pseudo is Ultrasoft + core correction, Zval =  5.0
     Generated by new atomic code, or converted to UPF format
     Using radial grid of  729 points,  4 beta functions with: 
                l(1) =   0
                l(2) =   0
                l(3) =   1
                l(4) =   1
     Q(r) pseudized with  8 coefficients,  rinner =    0.900   0.900   0.900


     vdW kernel table read from file vdW_kernel_table
     MD5 check sum: 095c7af220d748ca6e76c0b4c6cfb241

     atomic species   valence    mass     pseudopotential
        Ir1           15.00   192.21700     Ir( 1.00)
        N1             5.00    14.00700     N ( 1.00)

     No symmetry found



   Cartesian axes

     site n.     atom                  positions (alat units)
         1           Ir1 tau(   1) = (   1.3705410   0.7912822  10.0000000  )
         2           Ir1 tau(   2) = (   4.1116229   0.7912822  10.0000000  )
         3           Ir1 tau(   3) = (   2.7410819   3.1651288  10.0000000  )
         4           Ir1 tau(   4) = (   5.4821639   3.1651288  10.0000000  )
         5           Ir1 tau(   5) = (   5.4821639   1.5825644  12.2380840  )
         6           Ir1 tau(   6) = (   2.7410819   1.5825644  12.2380840  )
         7           Ir1 tau(   7) = (   6.8527049   3.9564110  12.2380840  )
         8           Ir1 tau(   8) = (   4.1116229   3.9564110  12.2380840  )
         9           Ir1 tau(   9) = (   0.0710541   0.0410106  14.5740151  )
        10           Ir1 tau(  10) = (   2.6700374   0.0410084  14.5740189  )
        11           Ir1 tau(  11) = (   1.3705366   2.2918196  14.5740849  )
        12           Ir1 tau(  12) = (   4.1116264   2.3738675  14.4153485  )
        13           N1  tau(  13) = (   1.3705339   0.7912735  16.1382471  )

     number of k points=    20  Fermi-Dirac smearing, width (Ry)=  0.0110
                       cart. coord. in units 2pi/alat
        k(    1) = (   0.0000000   0.0000000   0.0000000), wk =   0.0555556
        k(    2) = (   0.0000000   0.0351048   0.0000000), wk =   0.1111111
        k(    3) = (   0.0000000   0.0702095   0.0000000), wk =   0.1111111
        k(    4) = (   0.0000000  -0.1053143   0.0000000), wk =   0.0555556
        k(    5) = (   0.0304016  -0.0175524   0.0000000), wk =   0.1111111
        k(    6) = (   0.0304016   0.0175524   0.0000000), wk =   0.1111111
        k(    7) = (   0.0304016   0.0526572   0.0000000), wk =   0.1111111
        k(    8) = (   0.0304016  -0.1228667   0.0000000), wk =   0.1111111
        k(    9) = (   0.0304016  -0.0877619   0.0000000), wk =   0.1111111
        k(   10) = (   0.0304016  -0.0526572   0.0000000), wk =   0.1111111
        k(   11) = (   0.0608032  -0.0351048   0.0000000), wk =   0.1111111
        k(   12) = (   0.0608032   0.0000000   0.0000000), wk =   0.1111111
        k(   13) = (   0.0608032   0.0351048   0.0000000), wk =   0.1111111
        k(   14) = (   0.0608032  -0.1404191   0.0000000), wk =   0.1111111
        k(   15) = (   0.0608032  -0.1053143   0.0000000), wk =   0.1111111
        k(   16) = (   0.0608032  -0.0702095   0.0000000), wk =   0.1111111
        k(   17) = (  -0.0912049   0.0526572   0.0000000), wk =   0.0555556
        k(   18) = (  -0.0912049   0.0877619   0.0000000), wk =   0.1111111
        k(   19) = (  -0.0912049   0.1228667   0.0000000), wk =   0.1111111
        k(   20) = (  -0.0912049  -0.0526572   0.0000000), wk =   0.0555556

     Dense  grid:   511711 G-vectors     FFT dimensions: (  64,  64, 288)

     Smooth grid:   129131 G-vectors     FFT dimensions: (  40,  40, 180)

     Largest allocated arrays     est. size (Mb)     dimensions
        Kohn-Sham Wavefunctions         0.80 Mb     (     515,  102)
        NL pseudopotentials             2.04 Mb     (     515,  260)
        Each V/rho on FFT grid          0.56 Mb     (   36864)
        Each G-vector array             0.12 Mb     (   16001)
        G-vector shells                 0.06 Mb     (    7228)
     Largest temporary arrays     est. size (Mb)     dimensions
        Auxiliary wavefunctions         3.21 Mb     (     515,  408)
        Each subspace H/S matrix        2.54 Mb     (     408,  408)
        Each <psi_i|beta_j> matrix      0.40 Mb     (     260,  102)
        Arrays for rho mixing           5.62 Mb     (   36864,   10)

     Initial potential from superposition of free atoms
     Check: negative starting charge=   -4.369592

     starting charge  178.99961, renormalised to  185.00000

     negative rho (up, down):  4.516E+00 0.000E+00


     ************************************************************************
     *
     * You are using vdW-DF for exchange-correlation in this calculation.
     * Please cite the following three references that made this development
     * possible:
     *
     *   M. Dion, H. Rydberg, E. Schroder, D. C. Langreth, and
     *   B. I. Lundqvist, Phys. Rev. Lett. 92, 246401 (2004).
     *
     *   T. Thonhauser, V. R. Cooper, S. Li, A. Puzder, P. Hyldgaard, and
     *   D. C. Langreth, Phys. Rev. B 76, 125112 (2007).
     *
     *   G. Roman-Perez and J. M. Soler, Phys. Rev. Lett. 103, 096102 (2009).
     *
     *
     * If you are using vdW-DF2, please also cite:
     *
     *   K. Lee, E. D. Murray, L. Kong, B. I. Lundqvist, and
     *   D. C. Langreth, Phys. Rev. B 82, 081101(R) (2010).
     *
     *
     * If you are calculating the stress with vdW-DF, please also cite:
     *
     *   R. Sabatini, E. Kucukbenli, B. Kolb, T. Thonhauser, and
     *   S. de Gironcoli, J. Phys.: Condens. Matter 24, 424209 (2012).
     *
     ************************************************************************

     Carrying out vdW-DF run using the following parameters:

     Nqs =      20    Nr_points =    1024   r_max =   100.000
     q_mesh =
               0.00001000     0.04494208     0.09755937     0.15916263
               0.23128650     0.31572767     0.41458969     0.53033537
               0.66584808     0.82450364     1.01025438     1.22772762
               1.48234092     1.78043706     2.12944203     2.53805004
               3.01644009     3.57652955     4.23227104     5.00000000

     Gradients computed in reciprocal space

     ************************************************************************


 
     Adding external electric field

     Computed dipole along edir(3) : 
        Dipole               -1.2291 Ry au,         -3.1241 Debye
        Dipole field         -0.0036 Ry au
 
        Potential amp.        0.3240 Ry
        Total length         45.0969 bohr
 
     Starting wfc are  148 randomized atomic wfcs

     total cpu time spent up to now is       18.0 secs

     per-process dynamical memory:    46.1 Mb

     Self-consistent Calculation

     iteration #  1     ecut=    36.75 Ry     beta=0.30
     Davidson diagonalization with overlap
     ethr =  1.00E-02,  avg # of iterations =  2.1

     negative rho (up, down):  4.173E+00 0.000E+00
 
     Adding external electric field

     Computed dipole along edir(3) : 
        Dipole               17.4876 Ry au,         44.4490 Debye
        Dipole field          0.0511 Ry au
 
        Potential amp.       -4.6104 Ry
        Total length         45.0969 bohr
 

     total cpu time spent up to now is       50.7 secs

     total energy              =   -2194.55434124 Ry
     Harris-Foulkes estimate   =   -2222.97761950 Ry
     estimated scf accuracy    <      60.29835847 Ry

     iteration #  2     ecut=    36.75 Ry     beta=0.30
     Davidson diagonalization with overlap
     c_bands:  1 eigenvalues not converged
     c_bands:  1 eigenvalues not converged
     ethr =  1.00E-02,  avg # of iterations = 17.1

     negative rho (up, down):  4.103E+00 0.000E+00
 
     Adding external electric field

     Computed dipole along edir(3) : 
        Dipole               -1.0123 Ry au,         -2.5731 Debye
        Dipole field         -0.0030 Ry au
 
        Potential amp.        0.2669 Ry
        Total length         45.0969 bohr
 

     total cpu time spent up to now is      152.1 secs

     total energy              =   -2154.76917548 Ry
     Harris-Foulkes estimate   =   -2369.08758395 Ry
     estimated scf accuracy    <    5219.87995054 Ry

     iteration #  3     ecut=    36.75 Ry     beta=0.30
     Davidson diagonalization with overlap
     ethr =  1.00E-02,  avg # of iterations =  7.0

     negative rho (up, down):  4.048E+00 0.000E+00
 
     Adding external electric field

     Computed dipole along edir(3) : 
        Dipole                0.0738 Ry au,          0.1875 Debye
        Dipole field          0.0002 Ry au
 
        Potential amp.       -0.0194 Ry
        Total length         45.0969 bohr
 

     total cpu time spent up to now is      212.5 secs

     total energy              =   -2201.27617601 Ry
     Harris-Foulkes estimate   =   -2250.84633708 Ry
     estimated scf accuracy    <     865.16043032 Ry

     iteration #  4     ecut=    36.75 Ry     beta=0.30
     Davidson diagonalization with overlap
     ethr =  1.00E-02,  avg # of iterations =  5.3

     negative rho (up, down):  4.023E+00 0.000E+00
 
     Adding external electric field

     Computed dipole along edir(3) : 
        Dipole                0.6207 Ry au,          1.5777 Debye
        Dipole field          0.0018 Ry au
 
        Potential amp.       -0.1636 Ry
        Total length         45.0969 bohr
 

     total cpu time spent up to now is      267.5 secs

     total energy              =   -2219.07194480 Ry
     Harris-Foulkes estimate   =   -2221.10852300 Ry
     estimated scf accuracy    <       9.05389120 Ry

     iteration #  5     ecut=    36.75 Ry     beta=0.30
     Davidson diagonalization with overlap
     ethr =  4.89E-03,  avg # of iterations =  2.6

     negative rho (up, down):  3.970E+00 0.000E+00
 
     Adding external electric field

     Computed dipole along edir(3) : 
        Dipole               -0.6268 Ry au,         -1.5932 Debye
        Dipole field         -0.0018 Ry au
 
        Potential amp.        0.1653 Ry
        Total length         45.0969 bohr
 

     total cpu time spent up to now is      298.6 secs

     total energy              =   -2219.60788867 Ry
     Harris-Foulkes estimate   =   -2220.44377797 Ry
     estimated scf accuracy    <       5.66843694 Ry

     iteration #  6     ecut=    36.75 Ry     beta=0.30
     Davidson diagonalization with overlap
     ethr =  3.06E-03,  avg # of iterations =  2.0

     negative rho (up, down):  3.922E+00 0.000E+00
 
     Adding external electric field

     Computed dipole along edir(3) : 
        Dipole               -0.5913 Ry au,         -1.5029 Debye
        Dipole field         -0.0017 Ry au
 
        Potential amp.        0.1559 Ry
        Total length         45.0969 bohr
 

     total cpu time spent up to now is      328.0 secs

     total energy              =   -2219.82961366 Ry
     Harris-Foulkes estimate   =   -2220.08013947 Ry
     estimated scf accuracy    <       2.12304279 Ry

     iteration #  7     ecut=    36.75 Ry     beta=0.30
     Davidson diagonalization with overlap
     ethr =  1.15E-03,  avg # of iterations =  2.4

     negative rho (up, down):  3.887E+00 0.000E+00
 
     Adding external electric field

     Computed dipole along edir(3) : 
        Dipole               -0.6656 Ry au,         -1.6918 Debye
        Dipole field         -0.0019 Ry au
 
        Potential amp.        0.1755 Ry
        Total length         45.0969 bohr
 

     total cpu time spent up to now is      357.5 secs

     total energy              =   -2219.86379929 Ry
     Harris-Foulkes estimate   =   -2220.08707317 Ry
     estimated scf accuracy    <       6.57497694 Ry

     iteration #  8     ecut=    36.75 Ry     beta=0.30
     Davidson diagonalization with overlap
     ethr =  1.15E-03,  avg # of iterations =  1.6

     negative rho (up, down):  3.885E+00 0.000E+00
 
     Adding external electric field

     Computed dipole along edir(3) : 
        Dipole               -0.6606 Ry au,         -1.6790 Debye
        Dipole field         -0.0019 Ry au
 
        Potential amp.        0.1742 Ry
        Total length         45.0969 bohr
 

     total cpu time spent up to now is      386.1 secs

     total energy              =   -2219.97747246 Ry
     Harris-Foulkes estimate   =   -2219.99520346 Ry
     estimated scf accuracy    <       0.15979618 Ry

     iteration #  9     ecut=    36.75 Ry     beta=0.30
     Davidson diagonalization with overlap
     ethr =  8.64E-05,  avg # of iterations =  6.2

     negative rho (up, down):  3.885E+00 0.000E+00
 
     Adding external electric field

     Computed dipole along edir(3) : 
        Dipole               -0.5669 Ry au,         -1.4409 Debye
        Dipole field         -0.0017 Ry au
 
        Potential amp.        0.1495 Ry
        Total length         45.0969 bohr
 

     total cpu time spent up to now is      425.1 secs

     total energy              =   -2219.98313446 Ry
     Harris-Foulkes estimate   =   -2219.99828245 Ry
     estimated scf accuracy    <       0.34151227 Ry

     iteration # 10     ecut=    36.75 Ry     beta=0.30
     Davidson diagonalization with overlap
     ethr =  8.64E-05,  avg # of iterations =  1.0

     negative rho (up, down):  3.883E+00 0.000E+00
 
     Adding external electric field

     Computed dipole along edir(3) : 
        Dipole               -0.5719 Ry au,         -1.4536 Debye
        Dipole field         -0.0017 Ry au
 
        Potential amp.        0.1508 Ry
        Total length         45.0969 bohr
 

     total cpu time spent up to now is      453.2 secs

     total energy              =   -2219.98850796 Ry
     Harris-Foulkes estimate   =   -2219.99067947 Ry
     estimated scf accuracy    <       0.01787945 Ry

     iteration # 11     ecut=    36.75 Ry     beta=0.30
     Davidson diagonalization with overlap
     ethr =  9.66E-06,  avg # of iterations =  5.4

     negative rho (up, down):  3.882E+00 0.000E+00
 
     Adding external electric field

     Computed dipole along edir(3) : 
        Dipole               -0.5939 Ry au,         -1.5095 Debye
        Dipole field         -0.0017 Ry au
 
        Potential amp.        0.1566 Ry
        Total length         45.0969 bohr
 

     total cpu time spent up to now is      488.2 secs

     total energy              =   -2219.98890298 Ry
     Harris-Foulkes estimate   =   -2219.99021441 Ry
     estimated scf accuracy    <       0.02041783 Ry

     iteration # 12     ecut=    36.75 Ry     beta=0.30
     Davidson diagonalization with overlap
     ethr =  9.66E-06,  avg # of iterations =  1.1

     negative rho (up, down):  3.883E+00 0.000E+00
 
     Adding external electric field

     Computed dipole along edir(3) : 
        Dipole               -0.5765 Ry au,         -1.4654 Debye
        Dipole field         -0.0017 Ry au
 
        Potential amp.        0.1520 Ry
        Total length         45.0969 bohr
 

     total cpu time spent up to now is      516.1 secs

     total energy              =   -2219.98821121 Ry
     Harris-Foulkes estimate   =   -2219.98971462 Ry
     estimated scf accuracy    <       0.03458597 Ry

     iteration # 13     ecut=    36.75 Ry     beta=0.30
     Davidson diagonalization with overlap
     ethr =  9.66E-06,  avg # of iterations =  2.0

     negative rho (up, down):  3.884E+00 0.000E+00
 
     Adding external electric field

     Computed dipole along edir(3) : 
        Dipole               -0.4261 Ry au,         -1.0831 Debye
        Dipole field         -0.0012 Ry au
 
        Potential amp.        0.1123 Ry
        Total length         45.0969 bohr
 

     total cpu time spent up to now is      545.1 secs

     total energy              =   -2219.98822947 Ry
     Harris-Foulkes estimate   =   -2219.98939974 Ry
     estimated scf accuracy    <       0.00245035 Ry

     iteration # 14     ecut=    36.75 Ry     beta=0.30
     Davidson diagonalization with overlap
     ethr =  1.32E-06,  avg # of iterations =  5.3

     negative rho (up, down):  3.883E+00 0.000E+00
 
     Adding external electric field

     Computed dipole along edir(3) : 
        Dipole               -0.3333 Ry au,         -0.8472 Debye
        Dipole field         -0.0010 Ry au
 
        Potential amp.        0.0879 Ry
        Total length         45.0969 bohr
 

     total cpu time spent up to now is      583.6 secs

     total energy              =   -2219.98834679 Ry
     Harris-Foulkes estimate   =   -2219.98895279 Ry
     estimated scf accuracy    <       0.00874281 Ry

     iteration # 15     ecut=    36.75 Ry     beta=0.30
     Davidson diagonalization with overlap
     ethr =  1.32E-06,  avg # of iterations =  3.6

     negative rho (up, down):  3.883E+00 0.000E+00
 
     Adding external electric field

     Computed dipole along edir(3) : 
        Dipole               -0.3062 Ry au,         -0.7783 Debye
        Dipole field         -0.0009 Ry au
 
        Potential amp.        0.0807 Ry
        Total length         45.0969 bohr
 

     total cpu time spent up to now is      616.1 secs

     total energy              =   -2219.98822291 Ry
     Harris-Foulkes estimate   =   -2219.98880529 Ry
     estimated scf accuracy    <       0.00501078 Ry

     iteration # 16     ecut=    36.75 Ry     beta=0.30
     Davidson diagonalization with overlap
     ethr =  1.32E-06,  avg # of iterations =  3.6

     negative rho (up, down):  3.883E+00 0.000E+00
 
     Adding external electric field

     Computed dipole along edir(3) : 
        Dipole               -0.2729 Ry au,         -0.6936 Debye
        Dipole field         -0.0008 Ry au
 
        Potential amp.        0.0719 Ry
        Total length         45.0969 bohr
 

     total cpu time spent up to now is      649.3 secs

     total energy              =   -2219.98855820 Ry
     Harris-Foulkes estimate   =   -2219.98869849 Ry
     estimated scf accuracy    <       0.00086991 Ry

     iteration # 17     ecut=    36.75 Ry     beta=0.30
     Davidson diagonalization with overlap
     ethr =  4.70E-07,  avg # of iterations =  2.6

     negative rho (up, down):  3.883E+00 0.000E+00
 
     Adding external electric field

     Computed dipole along edir(3) : 
        Dipole               -0.2596 Ry au,         -0.6599 Debye
        Dipole field         -0.0008 Ry au
 
        Potential amp.        0.0684 Ry
        Total length         45.0969 bohr
 

     total cpu time spent up to now is      679.1 secs

     total energy              =   -2219.98862257 Ry
     Harris-Foulkes estimate   =   -2219.98864856 Ry
     estimated scf accuracy    <       0.00008754 Ry

     iteration # 18     ecut=    36.75 Ry     beta=0.30
     Davidson diagonalization with overlap
     ethr =  4.73E-08,  avg # of iterations =  4.7

     negative rho (up, down):  3.884E+00 0.000E+00
 
     Adding external electric field

     Computed dipole along edir(3) : 
        Dipole               -0.2438 Ry au,         -0.6196 Debye
        Dipole field         -0.0007 Ry au
 
        Potential amp.        0.0643 Ry
        Total length         45.0969 bohr
 

     total cpu time spent up to now is      714.6 secs

     total energy              =   -2219.98863637 Ry
     Harris-Foulkes estimate   =   -2219.98866398 Ry
     estimated scf accuracy    <       0.00005731 Ry

     iteration # 19     ecut=    36.75 Ry     beta=0.30
     Davidson diagonalization with overlap
     ethr =  3.10E-08,  avg # of iterations =  1.5

     negative rho (up, down):  3.884E+00 0.000E+00

[...]

   -47.7361 -47.6471 -47.5755 -47.5738 -47.5179 -47.4945 -47.4767 -47.4517
   -47.4023 -47.3414 -47.2778 -47.2570 -47.2480 -47.2315 -47.2269 -47.1503
   -47.1160 -47.0935 -47.0911 -47.0789 -47.0773 -47.0492 -47.0157 -47.0065
   -46.8799 -46.8059 -46.7973 -46.7912 -46.7816 -46.7781 -46.7643 -46.7576
   -46.7493 -46.7461 -46.7251 -46.6982 -13.0456  -6.3094  -4.6863  -4.4237
    -4.3147  -4.1970  -4.1505  -4.0635  -3.9188  -3.7298  -3.6406  -3.5061
    -3.3314  -3.2266  -3.1415  -3.0730  -2.6328  -2.4100  -2.0364  -1.9383
    -1.8568  -1.7282  -1.5452  -1.3830  -1.2546  -1.2375  -1.0810  -0.9356
    -0.8493  -0.8404  -0.6619  -0.6372  -0.4476  -0.4163  -0.2955  -0.1892
    -0.0499   0.1924   0.2435   0.4290   0.5712   0.6126   0.7324   0.8326
     0.9121   0.9635   1.0610   1.2882   1.4748   1.6036   1.7997   1.8442
     1.9429   2.0938   2.2861   2.3570   2.5129   2.5561   2.6453   2.6966
     2.9331   3.0151   3.0868   3.2688   3.3625   3.6462

          k = 0.0608-0.0351 0.0000 ( 16137 PWs)   bands (ev):

   -47.7204 -47.6342 -47.5676 -47.5449 -47.5106 -47.4918 -47.4694 -47.4598
   -47.3990 -47.3429 -47.3273 -47.2489 -47.2359 -47.2300 -47.2241 -47.1706
   -47.1130 -47.0901 -47.0899 -47.0728 -47.0685 -47.0428 -47.0139 -47.0041
   -46.8727 -46.8584 -46.8065 -46.8029 -46.7845 -46.7735 -46.7626 -46.7592
   -46.7471 -46.7456 -46.7271 -46.7035 -13.0283  -6.1076  -4.7992  -4.4361
    -4.1369  -3.9947  -3.9876  -3.8672  -3.7332  -3.6856  -3.5793  -3.3336
    -3.3062  -3.0920  -3.0523  -2.9189  -2.5086  -2.3153  -2.0384  -2.0198
    -1.9176  -1.7857  -1.6326  -1.4717  -1.3472  -1.3365  -1.1723  -0.9694
    -0.8416  -0.8021  -0.6230  -0.6064  -0.4572  -0.4016  -0.3321  -0.2210
    -0.1051   0.0807   0.3097   0.3194   0.3899   0.4547   0.5000   0.5511
     0.6720   0.8791   0.9658   1.1101   1.3534   1.5708   1.6398   1.7202
     1.7903   2.0254   2.0479   2.0714   2.2137   2.3331   2.4263   2.5733
     2.7032   2.8487   2.8789   3.0749   3.2948   3.5493

          k = 0.0608 0.0000 0.0000 ( 16186 PWs)   bands (ev):

   -47.7364 -47.6469 -47.5757 -47.5738 -47.5179 -47.4945 -47.4764 -47.4514
   -47.4026 -47.3418 -47.2776 -47.2570 -47.2478 -47.2316 -47.2267 -47.1503
   -47.1160 -47.0935 -47.0913 -47.0791 -47.0775 -47.0492 -47.0147 -47.0075
   -46.8799 -46.8060 -46.7973 -46.7912 -46.7816 -46.7780 -46.7644 -46.7576
   -46.7492 -46.7460 -46.7251 -46.6982 -13.0457  -6.3093  -4.6862  -4.4238
    -4.3145  -4.1969  -4.1505  -4.0636  -3.9189  -3.7298  -3.6405  -3.5060
    -3.3313  -3.2266  -3.1416  -3.0731  -2.6321  -2.4105  -2.0365  -1.9381
    -1.8569  -1.7282  -1.5453  -1.3830  -1.2545  -1.2376  -1.0809  -0.9356
    -0.8492  -0.8404  -0.6618  -0.6371  -0.4476  -0.4163  -0.2957  -0.1891
    -0.0498   0.1920   0.2438   0.4292   0.5711   0.6126   0.7324   0.8324
     0.9121   0.9634   1.0611   1.2880   1.4749   1.6037   1.7996   1.8440
     1.9431   2.0939   2.2857   2.3571   2.5131   2.5563   2.6453   2.6970
     2.9331   3.0150   3.0867   3.2686   3.3623   3.6463

          k = 0.0608 0.0351 0.0000 ( 16137 PWs)   bands (ev):

   -47.7204 -47.6345 -47.5672 -47.5449 -47.5108 -47.4915 -47.4698 -47.4594
   -47.3989 -47.3431 -47.3269 -47.2489 -47.2360 -47.2300 -47.2244 -47.1707
   -47.1132 -47.0902 -47.0897 -47.0727 -47.0685 -47.0428 -47.0139 -47.0042
   -46.8725 -46.8587 -46.8064 -46.8028 -46.7846 -46.7733 -46.7628 -46.7590
   -46.7472 -46.7457 -46.7271 -46.7035 -13.0284  -6.1075  -4.7991  -4.4360
    -4.1367  -3.9944  -3.9877  -3.8673  -3.7333  -3.6857  -3.5793  -3.3335
    -3.3062  -3.0920  -3.0526  -2.9185  -2.5085  -2.3155  -2.0383  -2.0199
    -1.9180  -1.7855  -1.6325  -1.4715  -1.3472  -1.3366  -1.1724  -0.9695
    -0.8415  -0.8019  -0.6227  -0.6066  -0.4575  -0.4018  -0.3322  -0.2212
    -0.1047   0.0805   0.3096   0.3196   0.3897   0.4547   0.5000   0.5516
     0.6718   0.8790   0.9654   1.1102   1.3537   1.5710   1.6398   1.7203
     1.7903   2.0253   2.0479   2.0715   2.2136   2.3333   2.4264   2.5733
     2.7030   2.8488   2.8789   3.0747   3.2947   3.5495

          k = 0.0608-0.1404 0.0000 ( 16191 PWs)   bands (ev):

   -47.6775 -47.5957 -47.5337 -47.5126 -47.4995 -47.4833 -47.4722 -47.4592
   -47.4158 -47.3798 -47.3450 -47.2553 -47.2373 -47.2293 -47.2188 -47.1809
   -47.1238 -47.0960 -47.0756 -47.0622 -47.0436 -47.0294 -47.0066 -46.9866
   -46.9455 -46.8775 -46.8279 -46.8129 -46.7824 -46.7739 -46.7667 -46.7631
   -46.7573 -46.7422 -46.7333 -46.7274 -12.9935  -5.5557  -4.8453  -4.2987
    -3.9522  -3.7575  -3.6273  -3.5319  -3.4591  -3.3141  -3.2284  -3.1511
    -2.9695  -2.8178  -2.7130  -2.6659  -2.4391  -2.3621  -2.2378  -2.0790
    -1.9618  -1.9062  -1.8016  -1.6916  -1.5510  -1.4930  -1.3511  -1.2476
    -1.0186  -0.9025  -0.8345  -0.7454  -0.6758  -0.6417  -0.5127  -0.4119
    -0.3117  -0.1464  -0.0118   0.0134   0.1593   0.2736   0.3878   0.5326
     0.7437   0.8106   0.9270   0.9983   1.1254   1.2399   1.2998   1.4332
     1.6022   1.8569   1.9210   2.0807   2.1403   2.2692   2.4578   2.5276
     2.5570   2.7325   2.8544   2.9435   3.0574   3.4636

          k = 0.0608-0.1053 0.0000 ( 16242 PWs)   bands (ev):

   -47.6399 -47.5629 -47.5352 -47.5245 -47.4867 -47.4785 -47.4617 -47.4555
   -47.4250 -47.4009 -47.3564 -47.2749 -47.2347 -47.2241 -47.2070 -47.1460
   -47.1421 -47.1417 -47.0583 -47.0394 -47.0345 -47.0095 -47.0079 -46.9743
   -46.9592 -46.9542 -46.7964 -46.7922 -46.7824 -46.7804 -46.7801 -46.7779
   -46.7617 -46.7591 -46.7362 -46.7356 -12.9759  -5.0614  -4.6823  -4.6099
    -3.8444  -3.5787  -3.3944  -3.2973  -3.1788  -3.0279  -2.9079  -2.8909
    -2.8340  -2.8022  -2.7093  -2.5693  -2.5152  -2.4089  -2.2412  -2.1497
    -2.1410  -1.8866  -1.8373  -1.8133  -1.6786  -1.5992  -1.4159  -1.3424
    -1.3090  -1.2245  -1.1510  -1.1095  -1.1063  -0.8960  -0.4309  -0.4054
    -0.2826  -0.1766  -0.1655  -0.1589   0.0433   0.1272   0.4016   0.6790
     0.8673   0.8897   0.9408   1.0351   1.2758   1.2811   1.3696   1.6106
     1.6407   1.7381   2.0601   2.1456   2.3647   2.4408   2.4611   2.5556
     2.5673   2.5799   2.6273   2.7263   2.7355   2.7413

          k = 0.0608-0.0702 0.0000 ( 16191 PWs)   bands (ev):

   -47.6775 -47.5953 -47.5338 -47.5129 -47.4993 -47.4837 -47.4725 -47.4588
   -47.4160 -47.3799 -47.3449 -47.2550 -47.2373 -47.2293 -47.2188 -47.1808
   -47.1238 -47.0961 -47.0756 -47.0621 -47.0437 -47.0294 -47.0066 -46.9866
   -46.9456 -46.8775 -46.8279 -46.8130 -46.7823 -46.7741 -46.7666 -46.7630
   -46.7573 -46.7421 -46.7333 -46.7274 -12.9934  -5.5559  -4.8452  -4.2990
    -3.9523  -3.7575  -3.6273  -3.5316  -3.4589  -3.3141  -3.2284  -3.1510
    -2.9694  -2.8178  -2.7132  -2.6662  -2.4391  -2.3618  -2.2379  -2.0792
    -1.9617  -1.9063  -1.8016  -1.6916  -1.5509  -1.4932  -1.3512  -1.2475
    -1.0187  -0.9026  -0.8347  -0.7456  -0.6757  -0.6413  -0.5125  -0.4120
    -0.3114  -0.1462  -0.0119   0.0133   0.1595   0.2734   0.3882   0.5324
     0.7435   0.8106   0.9269   0.9985   1.1252   1.2398   1.2999   1.4332
     1.6018   1.8570   1.9210   2.0807   2.1404   2.2695   2.4578   2.5276
     2.5570   2.7323   2.8546   2.9436   3.0575   3.4636

          k =-0.0912 0.0527 0.0000 ( 16164 PWs)   bands (ev):

   -47.6811 -47.6039 -47.5264 -47.5184 -47.4965 -47.4811 -47.4599 -47.4235
   -47.4233 -47.3868 -47.3808 -47.2440 -47.2366 -47.2228 -47.2154 -47.2126
   -47.1205 -47.0808 -47.0742 -47.0710 -47.0498 -47.0323 -47.0032 -46.9354
   -46.9203 -46.9043 -46.8870 -46.8277 -46.7824 -46.7674 -46.7654 -46.7520
   -46.7420 -46.7347 -46.7331 -46.7324 -12.9935  -5.3949  -5.2040  -4.3545
    -3.8035  -3.6678  -3.6232  -3.5170  -3.3795  -3.3652  -3.3257  -3.1970
    -2.9449  -2.6574  -2.6500  -2.6036  -2.5163  -2.3326  -2.1957  -2.0484
    -1.9622  -1.9079  -1.9048  -1.7510  -1.5956  -1.5313  -1.1962  -1.1154
    -0.9056  -0.9020  -0.7587  -0.5666  -0.5475  -0.4450  -0.3828  -0.3776
    -0.3014  -0.2341  -0.2183  -0.1567  -0.1227   0.3304   0.5184   0.5521
     0.5687   0.7425   0.8350   0.9535   1.0189   1.1524   1.2267   1.4133
     1.4565   1.4928   1.7991   1.8516   1.9028   2.0956   2.3627   2.4081
     2.4510   2.7688   2.8174   3.0506   3.3224   3.6593

          k =-0.0912 0.0878 0.0000 ( 16191 PWs)   bands (ev):

   -47.6777 -47.5952 -47.5336 -47.5129 -47.4992 -47.4837 -47.4725 -47.4587
   -47.4167 -47.3801 -47.3443 -47.2549 -47.2375 -47.2294 -47.2183 -47.1809
   -47.1241 -47.0962 -47.0756 -47.0620 -47.0436 -47.0293 -47.0067 -46.9866
   -46.9456 -46.8775 -46.8279 -46.8129 -46.7823 -46.7741 -46.7666 -46.7630
   -46.7573 -46.7421 -46.7333 -46.7274 -12.9934  -5.5558  -4.8453  -4.2988
    -3.9524  -3.7573  -3.6276  -3.5318  -3.4589  -3.3140  -3.2282  -3.1511
    -2.9695  -2.8176  -2.7133  -2.6662  -2.4390  -2.3618  -2.2380  -2.0792
    -1.9618  -1.9062  -1.8016  -1.6917  -1.5508  -1.4930  -1.3512  -1.2476
    -1.0187  -0.9026  -0.8349  -0.7453  -0.6757  -0.6415  -0.5124  -0.4122
    -0.3115  -0.1461  -0.0119   0.0132   0.1597   0.2733   0.3881   0.5323
     0.7438   0.8107   0.9268   0.9982   1.1254   1.2399   1.2999   1.4332
     1.6017   1.8568   1.9209   2.0808   2.1403   2.2695   2.4579   2.5275
     2.5571   2.7326   2.8545   2.9436   3.0574   3.4635

          k =-0.0912 0.1229 0.0000 ( 16191 PWs)   bands (ev):

   -47.6777 -47.5955 -47.5334 -47.5127 -47.4992 -47.4836 -47.4722 -47.4588
   -47.4170 -47.3800 -47.3441 -47.2551 -47.2375 -47.2294 -47.2184 -47.1810
   -47.1241 -47.0961 -47.0756 -47.0621 -47.0436 -47.0294 -47.0067 -46.9866
   -46.9455 -46.8775 -46.8279 -46.8129 -46.7824 -46.7739 -46.7667 -46.7631
   -46.7572 -46.7421 -46.7333 -46.7274 -12.9935  -5.5557  -4.8453  -4.2987
    -3.9522  -3.7574  -3.6273  -3.5321  -3.4590  -3.3143  -3.2281  -3.1511
    -2.9695  -2.8176  -2.7131  -2.6659  -2.4391  -2.3622  -2.2379  -2.0790
    -1.9616  -1.9063  -1.8015  -1.6917  -1.5508  -1.4930  -1.3512  -1.2476
    -1.0186  -0.9025  -0.8348  -0.7453  -0.6760  -0.6416  -0.5126  -0.4119
    -0.3117  -0.1461  -0.0120   0.0132   0.1592   0.2736   0.3880   0.5325
     0.7438   0.8105   0.9271   0.9982   1.1253   1.2399   1.2998   1.4332
     1.6021   1.8570   1.9209   2.0808   2.1404   2.2692   2.4579   2.5276
     2.5571   2.7326   2.8544   2.9434   3.0574   3.4635

          k =-0.0912-0.0527 0.0000 ( 16164 PWs)   bands (ev):

   -47.6811 -47.6044 -47.5259 -47.5183 -47.4970 -47.4803 -47.4603 -47.4239
   -47.4225 -47.3872 -47.3806 -47.2440 -47.2365 -47.2228 -47.2153 -47.2130
   -47.1205 -47.0807 -47.0739 -47.0714 -47.0497 -47.0323 -47.0032 -46.9351
   -46.9207 -46.9039 -46.8873 -46.8276 -46.7824 -46.7671 -46.7656 -46.7520
   -46.7422 -46.7343 -46.7335 -46.7324 -12.9936  -5.3943  -5.2045  -4.3542
    -3.8033  -3.6675  -3.6229  -3.5175  -3.3795  -3.3657  -3.3260  -3.1972
    -2.9450  -2.6573  -2.6497  -2.6033  -2.5163  -2.3327  -2.1959  -2.0482
    -1.9620  -1.9079  -1.9049  -1.7510  -1.5958  -1.5311  -1.1960  -1.1152
    -0.9049  -0.9024  -0.7586  -0.5667  -0.5477  -0.4451  -0.3828  -0.3779
    -0.3015  -0.2341  -0.2182  -0.1571  -0.1232   0.3299   0.5188   0.5519
     0.5688   0.7423   0.8352   0.9534   1.0197   1.1523   1.2275   1.4129
     1.4573   1.4929   1.7991   1.8514   1.9024   2.0958   2.3628   2.4083
     2.4509   2.7688   2.8173   3.0505   3.3222   3.6595

     the Fermi energy is     2.3685 ev

!    total energy              =   -2220.05578439 Ry
     Harris-Foulkes estimate   =   -2220.05578572 Ry
     estimated scf accuracy    <       0.00000633 Ry

     The total energy is the sum of the following terms:

     one-electron contribution =  -18941.37878322 Ry
     hartree contribution      =    9501.80618713 Ry
     xc contribution           =    -629.19485836 Ry
     ewald contribution        =    7848.80837499 Ry
     electric field correction =       0.00003014 Ry
     smearing contrib. (-TS)   =      -0.09673507 Ry

     convergence has been achieved in  19 iterations
 
 BEEF-vdW xc energy contributions
           1 :   -557.212317854512     
           2 :    518.384100878186     
           3 :   -448.930122488160     
           4 :    362.450006497011     
           5 :   -273.908753925166     
           6 :    195.806675559143     
           7 :   -135.548159378643     
           8 :    94.5994836122306     
           9 :   -69.4886323444714     
          10 :    54.0872594101262     
          11 :   -42.2456231560542     
          12 :    29.8376840716040     
          13 :   -15.6317508321554     
          14 :   0.917114604775065     
          15 :    11.7287752202172     
          16 :   -19.9300035550899     
          17 :    22.6561056343450     
          18 :   -20.6323878629006     
          19 :    15.9614295841794     
          20 :   -11.2197774608989     
          21 :    8.45415300861248     
          22 :   -8.48626575293895     
          23 :    10.7688387680506     
          24 :   -13.7985674877604     
          25 :    15.8689702346568     
          26 :   -15.8290326507284     
          27 :    13.5319105005052     
          28 :   -9.81682555999248     
          29 :    6.07345567189748     
          30 :   -3.60711869907459     
          31 :   -47.8694571735738     
          32 :   -35.9021988250859     

     Forces acting on atoms (Ry/au):


     negative rho (up, down):  3.887E+00 0.000E+00
     atom    1 type  1   force =     0.00000234   -0.00004501    0.01521466
     atom    2 type  1   force =    -0.00001050    0.00298961    0.01967337
     atom    3 type  1   force =     0.00262246   -0.00148264    0.01975923
     atom    4 type  1   force =    -0.00263117   -0.00146261    0.01971797
     atom    5 type  1   force =    -0.00177998    0.00097812   -0.02047589
     atom    6 type  1   force =     0.00181158    0.00100006   -0.02042874
     atom    7 type  1   force =     0.00002315    0.00006158   -0.01719995
     atom    8 type  1   force =    -0.00002497   -0.00201853   -0.02041766
     atom    9 type  1   force =    -0.00107312   -0.00073155    0.00100701
     atom   10 type  1   force =     0.00110630   -0.00049490    0.00100198
     atom   11 type  1   force =     0.00022448    0.00134926    0.00100522
     atom   12 type  1   force =    -0.00027702   -0.00003340    0.00155386
     atom   13 type  2   force =     0.00000645   -0.00010998   -0.00041106

     Total force =     0.054748     Total SCF correction =     0.016426
     SCF correction compared to forces is large: reduce conv_thr to get better values


     entering subroutine stress ...


     negative rho (up, down):  3.887E+00 0.000E+00
          total   stress  (Ry/bohr**3)                   (kbar)     P=  -26.41
  -0.00021010  -0.00000002   0.00000000        -30.91     -0.00      0.00
  -0.00000002  -0.00021015  -0.00000002         -0.00    -30.91     -0.00
   0.00000000  -0.00000002  -0.00011839          0.00     -0.00    -17.42

 !ASE

     Writing output data file calc.save
 
     init_run     :     10.28s CPU     17.19s WALL (       1 calls)
     electrons    :    481.85s CPU    757.56s WALL (       1 calls)
     forces       :      3.45s CPU      4.27s WALL (       1 calls)
     stress       :      9.73s CPU     11.20s WALL (       1 calls)

     Called by init_run:
     wfcinit      :      8.11s CPU     13.95s WALL (       1 calls)
     potinit      :      0.93s CPU      1.66s WALL (       1 calls)

     Called by electrons:
     c_bands      :    375.64s CPU    578.86s WALL (      19 calls)
     sum_band     :     54.58s CPU     92.34s WALL (      19 calls)
     v_of_rho     :     16.10s CPU     29.08s WALL (      20 calls)
     newd         :      9.79s CPU     10.25s WALL (      20 calls)
     mix_rho      :      0.62s CPU      1.15s WALL (      19 calls)
     vdW_energy   :      2.50s CPU      2.71s WALL (      56 calls)
     vdW_ffts     :     25.76s CPU     50.52s WALL (     114 calls)
     vdW_v        :      5.16s CPU      8.81s WALL (      56 calls)

     Called by c_bands:
     init_us_2    :      0.89s CPU      0.92s WALL (     820 calls)
     cegterg      :    367.17s CPU    569.30s WALL (     380 calls)

     Called by *egterg:
     h_psi        :    221.83s CPU    409.40s WALL (    1920 calls)
     s_psi        :     12.30s CPU     12.43s WALL (    1920 calls)
     g_psi        :      0.62s CPU      0.64s WALL (    1520 calls)
     cdiaghg      :     88.16s CPU     91.93s WALL (    1900 calls)

     Called by h_psi:
     add_vuspsi   :     12.39s CPU     12.45s WALL (    1920 calls)

     General routines
     calbec       :     23.77s CPU     30.53s WALL (    2340 calls)
     fft          :     38.91s CPU     76.20s WALL (    3423 calls)
     ffts         :      0.11s CPU      0.24s WALL (      39 calls)
     fftw         :    218.82s CPU    435.76s WALL (  238996 calls)
     interpolate  :      0.53s CPU      1.08s WALL (      39 calls)
     davcio       :      0.00s CPU      0.02s WALL (      20 calls)
 
     Parallel routines
     fft_scatter  :    229.11s CPU    482.22s WALL (  242458 calls)
 
     PWSCF        :  8m25.97s CPU    13m11.31s WALL

 
   This run was terminated on:   3:34:48  15Jan2018            

=------------------------------------------------------------------------------=
   JOB DONE.
=------------------------------------------------------------------------------=
Job  /afs/slac/g/suncat/bin/suncat-tsmpirun -x LD_LIBRARY_PATH -wdir /scratch/qe842452_egLGZ pw.x -in pw.inp

TID   HOST_NAME   COMMAND_LINE            STATUS            TERMINATION_TIME
===== ========== ================  =======================  ===================
00000 suncat0253 pw.x -in pw.inp   Done                     01/15/2018 03:34:48
00001 suncat0253 pw.x -in pw.inp   Done                     01/15/2018 03:34:48
00002 suncat0253 pw.x -in pw.inp   Done                     01/15/2018 03:34:48
00003 suncat0253 pw.x -in pw.inp   Done                     01/15/2018 03:34:48
00004 suncat0253 pw.x -in pw.inp   Done                     01/15/2018 03:34:48
00005 suncat0253 pw.x -in pw.inp   Done                     01/15/2018 03:34:48
00006 suncat0253 pw.x -in pw.inp   Done                     01/15/2018 03:34:48
00007 suncat0253 pw.x -in pw.inp   Done                     01/15/2018 03:34:48
00008 suncat0249 pw.x -in pw.inp   Done                     01/15/2018 03:34:48
00009 suncat0249 pw.x -in pw.inp   Done                     01/15/2018 03:34:48
00010 suncat0249 pw.x -in pw.inp   Done                     01/15/2018 03:34:48
00011 suncat0249 pw.x -in pw.inp   Done                     01/15/2018 03:34:48
00012 suncat0249 pw.x -in pw.inp   Done                     01/15/2018 03:34:48
00013 suncat0249 pw.x -in pw.inp   Done                     01/15/2018 03:34:48
00014 suncat0249 pw.x -in pw.inp   Done                     01/15/2018 03:34:48
00015 suncat0249 pw.x -in pw.inp   Done                     01/15/2018 03:34:48
00016 suncat0248 pw.x -in pw.inp   Done                     01/15/2018 03:34:48
00017 suncat0248 pw.x -in pw.inp   Done                     01/15/2018 03:34:48
00018 suncat0248 pw.x -in pw.inp   Done                     01/15/2018 03:34:48
00019 suncat0248 pw.x -in pw.inp   Done                     01/15/2018 03:34:48
00020 suncat0248 pw.x -in pw.inp   Done                     01/15/2018 03:34:48
00021 suncat0248 pw.x -in pw.inp   Done                     01/15/2018 03:34:48
00022 suncat0248 pw.x -in pw.inp   Done                     01/15/2018 03:34:48
00023 suncat0248 pw.x -in pw.inp   Done                     01/15/2018 03:34:48
00024 suncat0247 pw.x -in pw.inp   Done                     01/15/2018 03:34:48
00025 suncat0247 pw.x -in pw.inp   Done                     01/15/2018 03:34:48
00026 suncat0247 pw.x -in pw.inp   Done                     01/15/2018 03:34:48
00027 suncat0247 pw.x -in pw.inp   Done                     01/15/2018 03:34:48
00028 suncat0247 pw.x -in pw.inp   Done                     01/15/2018 03:34:48
00029 suncat0247 pw.x -in pw.inp   Done                     01/15/2018 03:34:48
00030 suncat0247 pw.x -in pw.inp   Done                     01/15/2018 03:34:48
00031 suncat0247 pw.x -in pw.inp   Done                     01/15/2018 03:34:48
