  python dir          : /home/users/mamunm/src/espresso
  espresso dir        : /home/users/vossj/suncat/s2/qe5/bin
  pseudo dir          : /home/users/mamunm/src/pseudo/gbrv1.5pbe
  ase-espresso py git : GITVERSION



     Program PWSCF v.5.1rc2 starts on 27Apr2018 at 11:25:12 

     This program is part of the open-source Quantum ESPRESSO suite
     for quantum simulation of materials; please cite
         "P. Giannozzi et al., J. Phys.:Condens. Matter 21 395502 (2009);
          URL http://www.quantum-espresso.org", 
     in publications or presentations arising from this work. More details at
     http://www.quantum-espresso.org/quote

     Parallel version (MPI), running on    16 processors
     R & G space division:  proc/nbgrp/npool/nimage =      16
     Reading input from pw.inp
     Message from routine read_cards :
     DEPRECATED: no units specified in CELL_PARAMETERS card

     Current dimensions of program PWSCF are:
     Max number of different atomic species (ntypx) = 10
     Max number of k-points (npk) =  40000
     Max angular momentum in pseudopotentials (lmaxx) =  3
     Presently stress not available with electric field


     **************************************************************************
     Initializing libbeef V0.1.2 with the BEEF-vdW functional.
     Citation: Wellendorff et al., PRB 85, 235149 (2012).
     **************************************************************************


     IMPORTANT: XC functional enforced from input :
     Exchange-correlation      = BEEF-VDW ( 1  4 27 13 2)
     Any further DFT definition will be discarded
     Please, verify this is what you really want


     Subspace diagonalization in iterative solution of the eigenvalue problem:
     scalapack distributed-memory algorithm (size of sub-group:  2*  2 procs)

 
     Parallelization info
     --------------------
     sticks:   dense  smooth     PW     G-vecs:    dense   smooth      PW
     Min         232      93     27                45190    11433    1759
     Max         233      94     28                45199    11472    1773
     Sum        3721    1495    433               723123   183131   28227
 


     bravais-lattice index     =            0
     lattice parameter (alat)  =       1.8897  a.u.
     unit-cell volume          =    6082.7792 (a.u.)^3
     number of atoms/cell      =           16
     number of atomic types    =            3
     number of electrons       =       151.00
     number of Kohn-Sham states=           85
     kinetic-energy cutoff     =      36.7493  Ry
     charge density cutoff     =     367.4932  Ry
     convergence threshold     =      1.0E-05
     mixing beta               =       0.3000
     number of iterations used =           10  plain     mixing
     Exchange-correlation      = BEEF-VDW ( 1  4 27 13 2)
     nstep                     =           50


     celldm(1)=   1.889726  celldm(2)=   0.000000  celldm(3)=   0.000000
     celldm(4)=   0.000000  celldm(5)=   0.000000  celldm(6)=   0.000000

     crystal axes: (cart. coord. in units of alat)
               a(1) = (   6.421223   0.000000   0.000000 )  
               a(2) = (   3.210611   5.560942   0.000000 )  
               a(3) = (   0.000000   0.000000  25.242906 )  

     reciprocal axes: (cart. coord. in units 2 pi/alat)
               b(1) = (  0.155734 -0.089913  0.000000 )  
               b(2) = (  0.000000  0.179826  0.000000 )  
               b(3) = (  0.000000  0.000000  0.039615 )  


     PseudoPot. # 1 for Zr read from file:
     /home/users/mamunm/src/pseudo/gbrv1.5pbe/Zr.UPF
     MD5 check sum: 5db81b1e868ab7776c4564c113de050b
     Pseudo is Ultrasoft + core correction, Zval = 12.0
     Generated by new atomic code, or converted to UPF format
     Using radial grid of  887 points,  6 beta functions with: 
                l(1) =   0
                l(2) =   0
                l(3) =   1
                l(4) =   1
                l(5) =   2
                l(6) =   2
     Q(r) pseudized with  6 coefficients,  rinner =    1.200   1.200   1.200
                                                       1.200   1.200

     PseudoPot. # 2 for C  read from file:
     /home/users/mamunm/src/pseudo/gbrv1.5pbe/C.UPF
     MD5 check sum: d1aef80898a10debaa0f26306b886e00
     Pseudo is Ultrasoft + core correction, Zval =  4.0
     Generated by new atomic code, or converted to UPF format
     Using radial grid of  721 points,  4 beta functions with: 
                l(1) =   0
                l(2) =   0
                l(3) =   1
                l(4) =   1
     Q(r) pseudized with  8 coefficients,  rinner =    1.100   1.100   1.100


     PseudoPot. # 3 for H  read from file:
     /home/users/mamunm/src/pseudo/gbrv1.5pbe/H.UPF
     MD5 check sum: 761ae9a214b05c3daf00ab9f6b793d6f
     Pseudo is Ultrasoft, Zval =  1.0
     Generated by new atomic code, or converted to UPF format
     Using radial grid of  615 points,  2 beta functions with: 
                l(1) =   0
                l(2) =   0
     Q(r) pseudized with  8 coefficients,  rinner =    0.700

     vdW kernel table read from file vdW_kernel_table
     MD5 check sum: 095c7af220d748ca6e76c0b4c6cfb241

     atomic species   valence    mass     pseudopotential
        Zr1           12.00    91.22400     Zr( 1.00)
        C1             4.00    12.01100     C ( 1.00)
        H1             1.00     1.00800     H ( 1.00)

     No symmetry found



   Cartesian axes

     site n.     atom                  positions (alat units)
         1           Zr1 tau(   1) = (   1.6053057   0.9268237  10.0000000  )
         2           Zr1 tau(   2) = (   4.8159170   0.9268237  10.0000000  )
         3           Zr1 tau(   3) = (   3.2106113   3.7072946  10.0000000  )
         4           Zr1 tau(   4) = (   6.4212227   3.7072946  10.0000000  )
         5           Zr1 tau(   5) = (   6.4212227   1.8536473  12.6214532  )
         6           Zr1 tau(   6) = (   3.2106113   1.8536473  12.6214532  )
         7           Zr1 tau(   7) = (   8.0265283   4.6341183  12.6214532  )
         8           Zr1 tau(   8) = (   4.8159170   4.6341183  12.6214532  )
         9           Zr1 tau(   9) = (   0.0000000   0.0000000  15.2429064  )
        10           Zr1 tau(  10) = (   3.2106113   0.0000000  15.2429064  )
        11           Zr1 tau(  11) = (   1.6053057   2.7804710  15.2429064  )
        12           Zr1 tau(  12) = (   4.8159170   2.7804710  15.2429064  )
        13           C1  tau(  13) = (   3.2106113   1.8536473  16.8744064  )
        14           H1  tau(  14) = (   4.3006113   1.8536473  17.5044064  )
        15           H1  tau(  15) = (   2.7606113   2.7431473  17.5044064  )
        16           H1  tau(  16) = (   2.7606113   0.9641473  17.5044064  )

     number of k points=    20  Fermi-Dirac smearing, width (Ry)=  0.0110
                       cart. coord. in units 2pi/alat
        k(    1) = (   0.0000000   0.0000000   0.0000000), wk =   0.0555556
        k(    2) = (   0.0000000   0.0299709   0.0000000), wk =   0.1111111
        k(    3) = (   0.0000000   0.0599419   0.0000000), wk =   0.1111111
        k(    4) = (   0.0000000  -0.0899128   0.0000000), wk =   0.0555556
        k(    5) = (   0.0259556  -0.0149855   0.0000000), wk =   0.1111111
        k(    6) = (   0.0259556   0.0149855   0.0000000), wk =   0.1111111
        k(    7) = (   0.0259556   0.0449564   0.0000000), wk =   0.1111111
        k(    8) = (   0.0259556  -0.1048983   0.0000000), wk =   0.1111111
        k(    9) = (   0.0259556  -0.0749274   0.0000000), wk =   0.1111111
        k(   10) = (   0.0259556  -0.0449564   0.0000000), wk =   0.1111111
        k(   11) = (   0.0519112  -0.0299709   0.0000000), wk =   0.1111111
        k(   12) = (   0.0519112   0.0000000   0.0000000), wk =   0.1111111
        k(   13) = (   0.0519112   0.0299709   0.0000000), wk =   0.1111111
        k(   14) = (   0.0519112  -0.1198838   0.0000000), wk =   0.1111111
        k(   15) = (   0.0519112  -0.0899128   0.0000000), wk =   0.1111111
        k(   16) = (   0.0519112  -0.0599419   0.0000000), wk =   0.1111111
        k(   17) = (  -0.0778668   0.0449564   0.0000000), wk =   0.0555556
        k(   18) = (  -0.0778668   0.0749274   0.0000000), wk =   0.1111111
        k(   19) = (  -0.0778668   0.1048983   0.0000000), wk =   0.1111111
        k(   20) = (  -0.0778668  -0.0449564   0.0000000), wk =   0.0555556

     Dense  grid:   723123 G-vectors     FFT dimensions: (  75,  75, 300)

     Smooth grid:   183131 G-vectors     FFT dimensions: (  48,  48, 192)

     Largest allocated arrays     est. size (Mb)     dimensions
        Kohn-Sham Wavefunctions         1.90 Mb     (    1464,   85)
        NL pseudopotentials             5.14 Mb     (    1464,  230)
        Each V/rho on FFT grid          1.63 Mb     (  106875)
        Each G-vector array             0.34 Mb     (   45199)
        G-vector shells                 0.14 Mb     (   17726)
     Largest temporary arrays     est. size (Mb)     dimensions
        Auxiliary wavefunctions         7.60 Mb     (    1464,  340)
        Each subspace H/S matrix        0.44 Mb     (     170,  170)
        Each <psi_i|beta_j> matrix      0.30 Mb     (     230,   85)
        Arrays for rho mixing          16.31 Mb     (  106875,   10)

     Initial potential from superposition of free atoms
     Check: negative starting charge=   -0.728992

     starting charge  150.97414, renormalised to  151.00000

     negative rho (up, down):  7.291E-01 0.000E+00


     ************************************************************************
     *
     * You are using vdW-DF for exchange-correlation in this calculation.
     * Please cite the following three references that made this development
     * possible:
     *
     *   M. Dion, H. Rydberg, E. Schroder, D. C. Langreth, and
     *   B. I. Lundqvist, Phys. Rev. Lett. 92, 246401 (2004).
     *
     *   T. Thonhauser, V. R. Cooper, S. Li, A. Puzder, P. Hyldgaard, and
     *   D. C. Langreth, Phys. Rev. B 76, 125112 (2007).
     *
     *   G. Roman-Perez and J. M. Soler, Phys. Rev. Lett. 103, 096102 (2009).
     *
     *
     * If you are using vdW-DF2, please also cite:
     *
     *   K. Lee, E. D. Murray, L. Kong, B. I. Lundqvist, and
     *   D. C. Langreth, Phys. Rev. B 82, 081101(R) (2010).
     *
     *
     * If you are calculating the stress with vdW-DF, please also cite:
     *
     *   R. Sabatini, E. Kucukbenli, B. Kolb, T. Thonhauser, and
     *   S. de Gironcoli, J. Phys.: Condens. Matter 24, 424209 (2012).
     *
     ************************************************************************

     Carrying out vdW-DF run using the following parameters:

     Nqs =      20    Nr_points =    1024   r_max =   100.000
     q_mesh =
               0.00001000     0.04494208     0.09755937     0.15916263
               0.23128650     0.31572767     0.41458969     0.53033537
               0.66584808     0.82450364     1.01025438     1.22772762
               1.48234092     1.78043706     2.12944203     2.53805004
               3.01644009     3.57652955     4.23227104     5.00000000

     Gradients computed in reciprocal space

     ************************************************************************


 
     Adding external electric field

     Computed dipole along edir(3) : 
        Dipole               -0.0097 Ry au,         -0.0246 Debye
        Dipole field         -0.0000 Ry au
 
        Potential amp.        0.0019 Ry
        Total length         46.5096 bohr
 
     Starting wfc are  163 randomized atomic wfcs

     total cpu time spent up to now is        7.9 secs

     per-process dynamical memory:    44.8 Mb

     Self-consistent Calculation

     iteration #  1     ecut=    36.75 Ry     beta=0.30
     Davidson diagonalization with overlap
     ethr =  1.00E-02,  avg # of iterations =  2.0

     negative rho (up, down):  7.329E-01 0.000E+00
 
     Adding external electric field

     Computed dipole along edir(3) : 
        Dipole               -1.7941 Ry au,         -4.5602 Debye
        Dipole field         -0.0037 Ry au
 
        Potential amp.        0.3448 Ry
        Total length         46.5096 bohr
 

     total cpu time spent up to now is       17.6 secs

     total energy              =   -1209.15210665 Ry
     Harris-Foulkes estimate   =   -1212.83973513 Ry
     estimated scf accuracy    <       7.80729201 Ry

     iteration #  2     ecut=    36.75 Ry     beta=0.30
     Davidson diagonalization with overlap
     ethr =  5.17E-03,  avg # of iterations =  8.6

     negative rho (up, down):  7.330E-01 0.000E+00
 
     Adding external electric field

     Computed dipole along edir(3) : 
        Dipole                4.0458 Ry au,         10.2835 Debye
        Dipole field          0.0084 Ry au
 
        Potential amp.       -0.7775 Ry
        Total length         46.5096 bohr
 

     total cpu time spent up to now is       36.9 secs

     total energy              =   -1201.64667906 Ry
     Harris-Foulkes estimate   =   -1220.55066286 Ry
     estimated scf accuracy    <     352.10580096 Ry

     iteration #  3     ecut=    36.75 Ry     beta=0.30
     Davidson diagonalization with overlap
     ethr =  5.17E-03,  avg # of iterations = 11.4

     negative rho (up, down):  7.324E-01 0.000E+00
 
     Adding external electric field

     Computed dipole along edir(3) : 
        Dipole               -0.1331 Ry au,         -0.3384 Debye
        Dipole field         -0.0003 Ry au
 
        Potential amp.        0.0256 Ry
        Total length         46.5096 bohr
 

     total cpu time spent up to now is       61.0 secs

     total energy              =   -1203.34887519 Ry
     Harris-Foulkes estimate   =   -1222.80163256 Ry
     estimated scf accuracy    <     610.79957668 Ry

     iteration #  4     ecut=    36.75 Ry     beta=0.30
     Davidson diagonalization with overlap
     ethr =  5.17E-03,  avg # of iterations =  6.8

     negative rho (up, down):  7.342E-01 0.000E+00
 
     Adding external electric field

     Computed dipole along edir(3) : 
        Dipole                0.2370 Ry au,          0.6024 Debye
        Dipole field          0.0005 Ry au
 
        Potential amp.       -0.0455 Ry
        Total length         46.5096 bohr
 

     total cpu time spent up to now is       78.1 secs

     total energy              =   -1212.05407729 Ry
     Harris-Foulkes estimate   =   -1212.24111831 Ry
     estimated scf accuracy    <       3.66719322 Ry

     iteration #  5     ecut=    36.75 Ry     beta=0.30
     Davidson diagonalization with overlap
     ethr =  2.43E-03,  avg # of iterations =  2.2

     negative rho (up, down):  7.375E-01 0.000E+00
 
     Adding external electric field

     Computed dipole along edir(3) : 
        Dipole               -0.0823 Ry au,         -0.2092 Debye
        Dipole field         -0.0002 Ry au
 
        Potential amp.        0.0158 Ry
        Total length         46.5096 bohr
 

     total cpu time spent up to now is       87.8 secs

     total energy              =   -1212.09644674 Ry
     Harris-Foulkes estimate   =   -1212.15351132 Ry
     estimated scf accuracy    <       0.30322670 Ry

     iteration #  6     ecut=    36.75 Ry     beta=0.30
     Davidson diagonalization with overlap
     ethr =  2.01E-04,  avg # of iterations =  6.5

     negative rho (up, down):  7.396E-01 0.000E+00
 
     Adding external electric field

     Computed dipole along edir(3) : 
        Dipole               -0.0008 Ry au,         -0.0021 Debye
        Dipole field         -0.0000 Ry au
 
        Potential amp.        0.0002 Ry
        Total length         46.5096 bohr
 

     total cpu time spent up to now is      102.0 secs

     total energy              =   -1212.11928850 Ry
     Harris-Foulkes estimate   =   -1212.14678477 Ry
     estimated scf accuracy    <       0.33407053 Ry

     iteration #  7     ecut=    36.75 Ry     beta=0.30
     Davidson diagonalization with overlap
     ethr =  2.01E-04,  avg # of iterations =  2.1

     negative rho (up, down):  7.417E-01 0.000E+00
 
     Adding external electric field

     Computed dipole along edir(3) : 
        Dipole                0.0972 Ry au,          0.2472 Debye
        Dipole field          0.0002 Ry au
 
        Potential amp.       -0.0187 Ry
        Total length         46.5096 bohr
 

     total cpu time spent up to now is      111.4 secs

     total energy              =   -1212.12268031 Ry
     Harris-Foulkes estimate   =   -1212.13051201 Ry
     estimated scf accuracy    <       0.09158063 Ry

     iteration #  8     ecut=    36.75 Ry     beta=0.30
     Davidson diagonalization with overlap
     ethr =  6.06E-05,  avg # of iterations =  4.7

     negative rho (up, down):  7.454E-01 0.000E+00
 
     Adding external electric field

     Computed dipole along edir(3) : 
        Dipole                0.1094 Ry au,          0.2780 Debye
        Dipole field          0.0002 Ry au
 
        Potential amp.       -0.0210 Ry
        Total length         46.5096 bohr
 

     total cpu time spent up to now is      122.9 secs

     total energy              =   -1212.12095194 Ry
     Harris-Foulkes estimate   =   -1212.12815880 Ry
     estimated scf accuracy    <       0.02672126 Ry

     iteration #  9     ecut=    36.75 Ry     beta=0.30
     Davidson diagonalization with overlap
     ethr =  1.77E-05,  avg # of iterations =  5.5

     negative rho (up, down):  7.465E-01 0.000E+00
 
     Adding external electric field

     Computed dipole along edir(3) : 
        Dipole                0.1616 Ry au,          0.4108 Debye
        Dipole field          0.0003 Ry au
 
        Potential amp.       -0.0311 Ry
        Total length         46.5096 bohr
 

     total cpu time spent up to now is      135.4 secs

     total energy              =   -1212.12315996 Ry
     Harris-Foulkes estimate   =   -1212.12397554 Ry
     estimated scf accuracy    <       0.02047796 Ry

     iteration # 10     ecut=    36.75 Ry     beta=0.30
     Davidson diagonalization with overlap
     ethr =  1.36E-05,  avg # of iterations =  1.1

     negative rho (up, down):  7.473E-01 0.000E+00
 
     Adding external electric field

     Computed dipole along edir(3) : 
        Dipole                0.2068 Ry au,          0.5256 Debye
        Dipole field          0.0004 Ry au
 
        Potential amp.       -0.0397 Ry
        Total length         46.5096 bohr
 

     total cpu time spent up to now is      144.4 secs

     total energy              =   -1212.12356481 Ry
     Harris-Foulkes estimate   =   -1212.12360348 Ry
     estimated scf accuracy    <       0.00446567 Ry

     iteration # 11     ecut=    36.75 Ry     beta=0.30
     Davidson diagonalization with overlap
     ethr =  2.96E-06,  avg # of iterations =  8.4

     negative rho (up, down):  7.481E-01 0.000E+00
 
     Adding external electric field

     Computed dipole along edir(3) : 
        Dipole                0.2442 Ry au,          0.6207 Debye
        Dipole field          0.0005 Ry au
 
        Potential amp.       -0.0469 Ry
        Total length         46.5096 bohr
 

     total cpu time spent up to now is      158.4 secs

     total energy              =   -1212.12398723 Ry
     Harris-Foulkes estimate   =   -1212.12381653 Ry
     estimated scf accuracy    <       0.00060554 Ry

     iteration # 12     ecut=    36.75 Ry     beta=0.30
     Davidson diagonalization with overlap
     ethr =  4.01E-07,  avg # of iterations =  5.6

     negative rho (up, down):  7.484E-01 0.000E+00
 
     Adding external electric field

     Computed dipole along edir(3) : 
        Dipole                0.2456 Ry au,          0.6243 Debye
        Dipole field          0.0005 Ry au
 
        Potential amp.       -0.0472 Ry
        Total length         46.5096 bohr
 

     total cpu time spent up to now is      171.8 secs

     total energy              =   -1212.12409507 Ry
     Harris-Foulkes estimate   =   -1212.12408959 Ry
     estimated scf accuracy    <       0.00132166 Ry

     iteration # 13     ecut=    36.75 Ry     beta=0.30
     Davidson diagonalization with overlap
     ethr =  4.01E-07,  avg # of iterations =  1.3

     negative rho (up, down):  7.486E-01 0.000E+00
 
     Adding external electric field

     Computed dipole along edir(3) : 
        Dipole                0.2468 Ry au,          0.6273 Debye
        Dipole field          0.0005 Ry au
 
        Potential amp.       -0.0474 Ry
        Total length         46.5096 bohr
 

     total cpu time spent up to now is      180.7 secs

     total energy              =   -1212.12413399 Ry
     Harris-Foulkes estimate   =   -1212.12411332 Ry
     estimated scf accuracy    <       0.00011765 Ry

     iteration # 14     ecut=    36.75 Ry     beta=0.30
     Davidson diagonalization with overlap
     ethr =  7.79E-08,  avg # of iterations =  6.3

     negative rho (up, down):  7.487E-01 0.000E+00
 
     Adding external electric field

     Computed dipole along edir(3) : 
        Dipole                0.2578 Ry au,          0.6553 Debye
        Dipole field          0.0005 Ry au
 
        Potential amp.       -0.0495 Ry
        Total length         46.5096 bohr
 

     total cpu time spent up to now is      195.5 secs

     total energy              =   -1212.12415406 Ry
     Harris-Foulkes estimate   =   -1212.12415524 Ry
     estimated scf accuracy    <       0.00051697 Ry

     iteration # 15     ecut=    36.75 Ry     beta=0.30
     Davidson diagonalization with overlap
     ethr =  7.79E-08,  avg # of iterations =  3.2

     negative rho (up, down):  7.487E-01 0.000E+00
 
     Adding external electric field

     Computed dipole along edir(3) : 
        Dipole                0.2582 Ry au,          0.6562 Debye
        Dipole field          0.0005 Ry au
 
        Potential amp.       -0.0496 Ry
        Total length         46.5096 bohr
 

     total cpu time spent up to now is      205.9 secs

     total energy              =   -1212.12415878 Ry
     Harris-Foulkes estimate   =   -1212.12416171 Ry
     estimated scf accuracy    <       0.00009900 Ry

     iteration # 16     ecut=    36.75 Ry     beta=0.30
     Davidson diagonalization with overlap
     ethr =  6.56E-08,  avg # of iterations =  2.7

     negative rho (up, down):  7.487E-01 0.000E+00
 
     Adding external electric field

     Computed dipole along edir(3) : 
        Dipole                0.2596 Ry au,          0.6599 Debye
        Dipole field          0.0005 Ry au
 
        Potential amp.       -0.0499 Ry
        Total length         46.5096 bohr
 

     total cpu time spent up to now is      215.6 secs

     total energy              =   -1212.12416168 Ry
     Harris-Foulkes estimate   =   -1212.12416069 Ry
     estimated scf accuracy    <       0.00003789 Ry

     iteration # 17     ecut=    36.75 Ry     beta=0.30
     Davidson diagonalization with overlap
     ethr =  2.51E-08,  avg # of iterations =  4.0

     negative rho (up, down):  7.487E-01 0.000E+00

     negative rho (up, down):  7.487E-01 0.000E+00

     negative rho (up, down):  7.487E-01 0.000E+00

     negative rho (up, down):  7.487E-01 0.000E+00

     negative rho (up, down):  7.487E-01 0.000E+00

     negative rho (up, down):  7.487E-01 0.000E+00

     negative rho (up, down):  7.487E-01 0.000E+00

     negative rho (up, down):  7.487E-01 0.000E+00

     negative rho (up, down):  7.487E-01 0.000E+00

     negative rho (up, down):  7.487E-01 0.000E+00

     negative rho (up, down):  7.487E-01 0.000E+00

     negative rho (up, down):  7.487E-01 0.000E+00

     negative rho (up, down):  7.487E-01 0.000E+00

     negative rho (up, down):  7.487E-01 0.000E+00

     negative rho (up, down):  7.487E-01 0.000E+00

     negative rho (up, down):  7.487E-01 0.000E+00

     negative rho (up, down):  7.487E-01 0.000E+00

     negative rho (up, down):  7.487E-01 0.000E+00

     negative rho (up, down):  7.487E-01 0.000E+00

     negative rho (up, down):  7.487E-01 0.000E+00

     negative rho (up, down):  7.487E-01 0.000E+00

     negative rho (up, down):  7.487E-01 0.000E+00

     negative rho (up, down):  7.487E-01 0.000E+00

     negative rho (up, down):  7.487E-01 0.000E+00

     negative rho (up, down):  7.487E-01 0.000E+00

     negative rho (up, down):  7.487E-01 0.000E+00

     negative rho (up, down):  7.487E-01 0.000E+00

     negative rho (up, down):  7.487E-01 0.000E+00

     negative rho (up, down):  7.487E-01 0.000E+00

     negative rho (up, down):  7.487E-01 0.000E+00

     negative rho (up, down):  7.487E-01 0.000E+00

     negative rho (up, down):  7.487E-01 0.000E+00

     negative rho (up, down):  7.487E-01 0.000E+00

     negative rho (up, down):  7.487E-01 0.000E+00

     negative rho (up, down):  7.487E-01 0.000E+00
 
     Adding external electric field

     Computed dipole along edir(3) : 
        Dipole                0.2430 Ry au,          0.6177 Debye
        Dipole field          0.0005 Ry au
 
        Potential amp.       -0.0467 Ry
        Total length         46.5096 bohr
 

     total cpu time spent up to now is      241.2 secs

     End of self-consistent calculation

          k = 0.0000 0.0000 0.0000 ( 22923 PWs)   bands (ev):

   -47.4305 -47.4129 -47.3410 -47.3400 -47.3391 -47.3267 -47.3229 -47.3180
   -47.1061 -47.0255 -47.0248 -47.0230 -25.7297 -25.7207 -25.7190 -25.6836
   -25.6708 -25.6677 -25.6343 -25.5494 -25.5475 -25.5424 -25.4531 -25.3500
   -25.3459 -25.3446 -25.2059 -25.2043 -25.1998 -25.1676 -25.1673 -25.1671
   -25.1454 -25.1435 -25.1407 -24.9997 -24.9997 -24.9801 -24.9792 -24.9411
   -24.9400 -24.9367 -24.9218 -24.8490 -24.8413 -24.8410 -24.6937 -24.6934
   -11.7492  -4.8605  -4.4467  -3.3712  -2.7936  -1.7679  -1.1021  -0.7145
    -0.7136  -0.6227  -0.5345  -0.5288  -0.4744  -0.1314  -0.1276   0.0254
     0.0297   0.0423   0.2820   0.8810   0.8957   1.2038   1.7558   1.9537
     2.0277   2.0338   2.3537   2.4422   2.5743   2.6143   2.6227   2.7136
     2.7262   2.7358   2.9203   2.9491   3.0111

          k = 0.0000 0.0300 0.0000 ( 22902 PWs)   bands (ev):

   -47.4245 -47.4069 -47.3463 -47.3402 -47.3398 -47.3294 -47.3259 -47.3185
   -47.1007 -47.0302 -47.0248 -47.0238 -25.7017 -25.6950 -25.6801 -25.6558
   -25.6455 -25.6293 -25.6182 -25.5305 -25.5301 -25.5226 -25.4490 -25.3682
   -25.3539 -25.3526 -25.1984 -25.1962 -25.1928 -25.1909 -25.1849 -25.1750
   -25.1698 -25.1562 -25.1327 -25.0541 -25.0342 -25.0111 -24.9911 -24.9356
   -24.9355 -24.9311 -24.9094 -24.8714 -24.8663 -24.8334 -24.7389 -24.7036
   -11.7467  -4.8740  -4.4454  -3.2421  -2.6607  -1.5975  -0.9164  -0.6951
    -0.5838  -0.5760  -0.4694  -0.4023  -0.3333  -0.0144   0.0614   0.1355
     0.1516   0.1596   0.3938   0.9342   0.9480   1.1776   1.7283   1.9134
     1.9944   2.0513   2.2073   2.3137   2.3740   2.4386   2.4446   2.5650
     2.6626   2.7711   2.7885   2.8613   2.8851

          k = 0.0000 0.0599 0.0000 ( 22852 PWs)   bands (ev):

   -47.4080 -47.3908 -47.3628 -47.3454 -47.3402 -47.3399 -47.3263 -47.3187
   -47.0858 -47.0451 -47.0248 -47.0240 -25.6386 -25.6335 -25.5992 -25.5856
   -25.5788 -25.5691 -25.5117 -25.4910 -25.4899 -25.4811 -25.4400 -25.4057
   -25.3735 -25.3729 -25.2607 -25.2603 -25.2470 -25.2411 -25.1899 -25.1659
   -25.1590 -25.1571 -25.1259 -25.1254 -25.1034 -25.0420 -25.0216 -24.9430
   -24.9343 -24.9232 -24.9170 -24.9160 -24.9032 -24.8578 -24.8065 -24.7313
   -11.7415  -4.8987  -4.4429  -2.9908  -2.2483  -1.1494  -0.9851  -0.4893
    -0.3695  -0.2481  -0.2008  -0.0870  -0.0279   0.2140   0.4457   0.4929
     0.5032   0.5704   0.7309   1.0465   1.0636   1.1865   1.4786   1.6711
     1.7216   1.7819   1.8152   1.9217   2.1276   2.1493   2.1915   2.2899
     2.3252   2.3595   2.4181   2.4492   2.4851

          k = 0.0000-0.0899 0.0000 ( 22880 PWs)   bands (ev):

   -47.3856 -47.3853 -47.3716 -47.3647 -47.3402 -47.3399 -47.3263 -47.3188
   -47.0658 -47.0652 -47.0248 -47.0240 -25.5952 -25.5911 -25.5557 -25.5463
   -25.5391 -25.5313 -25.4671 -25.4619 -25.4403 -25.4365 -25.3963 -25.3956
   -25.3601 -25.3539 -25.3420 -25.3299 -25.3034 -25.3013 -25.2865 -25.2813
   -25.1329 -25.1321 -25.0848 -25.0835 -25.0643 -25.0612 -25.0084 -25.0046
   -24.9792 -24.9704 -24.9210 -24.9192 -24.9104 -24.9052 -24.7724 -24.7658
   -11.7390  -4.9101  -4.4418  -2.8744  -1.6408  -1.5707  -0.6924  -0.5350
    -0.0223  -0.0116   0.0670   0.1021   0.1308   0.2298   0.8143   0.8279
     0.8951   0.9040   0.9110   1.0028   1.2529   1.3342   1.3513   1.3986
     1.4373   1.4689   1.6464   1.7218   1.7516   1.8378   1.8817   1.8912
     1.9446   2.1061   2.1075   2.3296   2.4651

          k = 0.0260-0.0150 0.0000 ( 22902 PWs)   bands (ev):

   -47.4245 -47.4069 -47.3463 -47.3401 -47.3399 -47.3305 -47.3239 -47.3194
   -47.1007 -47.0301 -47.0253 -47.0234 -25.7026 -25.6940 -25.6802 -25.6569
   -25.6430 -25.6307 -25.6181 -25.5321 -25.5280 -25.5231 -25.4490 -25.3676
   -25.3558 -25.3513 -25.1995 -25.1957 -25.1917 -25.1913 -25.1850 -25.1733
   -25.1724 -25.1561 -25.1320 -25.0541 -25.0349 -25.0111 -24.9904 -24.9364
   -24.9347 -24.9312 -24.9094 -24.8715 -24.8662 -24.8335 -24.7388 -24.7038
   -11.7467  -4.8634  -4.4596  -3.2407  -2.6604  -1.5966  -0.9160  -0.6946
    -0.5837  -0.5753  -0.4670  -0.4061  -0.3322  -0.0124   0.0597   0.1372
     0.1491   0.1599   0.3936   0.9331   0.9498   1.1776   1.7286   1.9157
     2.0021   2.0467   2.2066   2.3130   2.3754   2.4337   2.4482   2.5673
     2.6649   2.7684   2.7974   2.8583   2.8822

          k = 0.0260 0.0150 0.0000 ( 22902 PWs)   bands (ev):

   -47.4245 -47.4069 -47.3461 -47.3410 -47.3391 -47.3309 -47.3229 -47.3200
   -47.1007 -47.0301 -47.0253 -47.0234 -25.7014 -25.6955 -25.6800 -25.6555
   -25.6458 -25.6297 -25.6178 -25.5317 -25.5286 -25.5229 -25.4489 -25.3680
   -25.3546 -25.3522 -25.1995 -25.1960 -25.1922 -25.1907 -25.1849 -25.1733
   -25.1715 -25.1563 -25.1327 -25.0540 -25.0342 -25.0111 -24.9911 -24.9364
   -24.9347 -24.9311 -24.9094 -24.8715 -24.8660 -24.8336 -24.7387 -24.7039
   -11.7467  -4.8633  -4.4589  -3.2417  -2.6605  -1.5968  -0.9160  -0.6946
    -0.5829  -0.5754  -0.4680  -0.4058  -0.3322  -0.0121   0.0600   0.1348
     0.1518   0.1595   0.3939   0.9350   0.9471   1.1785   1.7290   1.9152
     1.9967   2.0504   2.2086   2.3102   2.3739   2.4335   2.4468   2.5660
     2.6600   2.7682   2.8046   2.8614   2.8818

          k = 0.0260 0.0450 0.0000 ( 22896 PWs)   bands (ev):

   -47.4133 -47.3959 -47.3515 -47.3514 -47.3365 -47.3348 -47.3323 -47.3164
   -47.0906 -47.0356 -47.0339 -47.0196 -25.6644 -25.6300 -25.6195 -25.6163
   -25.5962 -25.5721 -25.5655 -25.5030 -25.4983 -25.4933 -25.4423 -25.3917
   -25.3847 -25.3555 -25.2787 -25.2626 -25.1787 -25.1763 -25.1735 -25.1605
   -25.1575 -25.1460 -25.1428 -25.1401 -25.1207 -25.0349 -25.0162 -24.9448
   -24.9324 -24.9258 -24.9234 -24.9033 -24.8497 -24.8440 -24.8175 -24.7256
   -11.7428  -4.8829  -4.4554  -3.0533  -2.3848  -1.2779  -0.6829  -0.6578
    -0.5644  -0.3984  -0.3289  -0.1576  -0.0179   0.2158   0.3083   0.3538
     0.3865   0.4223   0.6291   1.0068   1.0457   1.1583   1.6211   1.7537
     1.7932   1.8310   1.9444   2.0166   2.1679   2.2303   2.2636   2.3851
     2.4171   2.4978   2.5319   2.5941   2.6432

          k = 0.0260-0.1049 0.0000 ( 22856 PWs)   bands (ev):

   -47.3937 -47.3769 -47.3711 -47.3545 -47.3535 -47.3374 -47.3318 -47.3136
   -47.0730 -47.0525 -47.0374 -47.0168 -25.5981 -25.5663 -25.5575 -25.5484
   -25.5267 -25.5073 -25.4688 -25.4625 -25.4550 -25.4384 -25.4282 -25.4142
   -25.4044 -25.3927 -25.3623 -25.3464 -25.2898 -25.2649 -25.2126 -25.1961
   -25.1420 -25.1315 -25.1126 -25.1077 -25.0793 -25.0650 -25.0609 -25.0245
   -24.9433 -24.9311 -24.9223 -24.9127 -24.9037 -24.8795 -24.8092 -24.7646
   -11.7390  -4.9003  -4.4536  -2.8778  -1.8315  -1.1581  -0.7495  -0.5552
    -0.3481  -0.0672   0.0470   0.1695   0.3510   0.4059   0.7098   0.7351
     0.7898   0.8137   0.8913   1.1026   1.1835   1.2684   1.3342   1.4010
     1.4873   1.5312   1.5722   1.6512   1.7231   1.8242   1.8985   1.9632
     2.0453   2.0670   2.1114   2.2093   2.4927

          k = 0.0260-0.0749 0.0000 ( 22856 PWs)   bands (ev):

   -47.3937 -47.3769 -47.3711 -47.3544 -47.3533 -47.3376 -47.3318 -47.3136
   -47.0729 -47.0526 -47.0374 -47.0168 -25.5981 -25.5663 -25.5578 -25.5480
   -25.5265 -25.5072 -25.4694 -25.4623 -25.4547 -25.4381 -25.4282 -25.4139
   -25.4033 -25.3935 -25.3626 -25.3464 -25.2900 -25.2658 -25.2126 -25.1957
   -25.1420 -25.1315 -25.1129 -25.1077 -25.0793 -25.0650 -25.0605 -25.0245
   -24.9433 -24.9310 -24.9225 -24.9128 -24.9036 -24.8795 -24.8092 -24.7646
   -11.7390  -4.9004  -4.4542  -2.8767  -1.8314  -1.1582  -0.7485  -0.5559
    -0.3484  -0.0693   0.0478   0.1675   0.3539   0.4075   0.7077   0.7385
     0.7866   0.8150   0.8853   1.0939   1.1993   1.2762   1.3138   1.4100
     1.4930   1.5325   1.5714   1.6581   1.7313   1.8138   1.9043   1.9680
     2.0447   2.0526   2.1107   2.2027   2.4935

          k = 0.0260-0.0450 0.0000 ( 22896 PWs)   bands (ev):

   -47.4132 -47.3959 -47.3524 -47.3505 -47.3349 -47.3348 -47.3340 -47.3163
   -47.0906 -47.0356 -47.0339 -47.0196 -25.6647 -25.6300 -25.6206 -25.6151
   -25.5953 -25.5708 -25.5673 -25.5034 -25.4974 -25.4937 -25.4423 -25.3909
   -25.3852 -25.3556 -25.2788 -25.2630 -25.1791 -25.1759 -25.1735 -25.1608
   -25.1570 -25.1467 -25.1433 -25.1395 -25.1211 -25.0349 -25.0155 -24.9448
   -24.9324 -24.9259 -24.9233 -24.9033 -24.8498 -24.8438 -24.8176 -24.7255
   -11.7428  -4.8830  -4.4567  -3.0512  -2.3848  -1.2773  -0.6834  -0.6582
    -0.5639  -0.4002  -0.3279  -0.1573  -0.0181   0.2149   0.3089   0.3534
     0.3860   0.4228   0.6284   1.0155   1.0373   1.1579   1.6205   1.7563
     1.8027   1.8306   1.9435   2.0163   2.1657   2.2441   2.2622   2.3823
     2.4132   2.5005   2.5269   2.5849   2.6415

          k = 0.0519-0.0300 0.0000 ( 22852 PWs)   bands (ev):

   -47.4080 -47.3907 -47.3628 -47.3459 -47.3401 -47.3400 -47.3245 -47.3201
   -47.0858 -47.0450 -47.0253 -47.0235 -25.6404 -25.6322 -25.6002 -25.5825
   -25.5793 -25.5692 -25.5113 -25.4929 -25.4881 -25.4821 -25.4397 -25.4050
   -25.3762 -25.3709 -25.2606 -25.2603 -25.2447 -25.2442 -25.1900 -25.1663
   -25.1600 -25.1567 -25.1259 -25.1253 -25.1028 -25.0420 -25.0208 -24.9434
   -24.9344 -24.9227 -24.9175 -24.9157 -24.9032 -24.8577 -24.8066 -24.7314
   -11.7415  -4.8693  -4.4814  -2.9887  -2.2471  -1.1466  -0.9835  -0.4872
    -0.3697  -0.2482  -0.1989  -0.0882  -0.0268   0.2151   0.4477   0.4915
     0.5037   0.5694   0.7303   1.0508   1.0584   1.1908   1.4795   1.6741
     1.7260   1.7852   1.8122   1.9230   2.1387   2.1418   2.1951   2.2919
     2.3283   2.3573   2.4216   2.4328   2.4833

          k = 0.0519 0.0000 0.0000 ( 22896 PWs)   bands (ev):

   -47.4133 -47.3959 -47.3516 -47.3513 -47.3378 -47.3348 -47.3306 -47.3169
   -47.0906 -47.0351 -47.0344 -47.0195 -25.6646 -25.6305 -25.6201 -25.6149
   -25.5960 -25.5709 -25.5666 -25.5039 -25.4963 -25.4946 -25.4423 -25.3900
   -25.3862 -25.3556 -25.2787 -25.2629 -25.1799 -25.1759 -25.1734 -25.1612
   -25.1567 -25.1467 -25.1423 -25.1397 -25.1211 -25.0349 -25.0155 -24.9446
   -24.9327 -24.9255 -24.9237 -24.9032 -24.8498 -24.8439 -24.8174 -24.7257
   -11.7428  -4.8618  -4.4829  -3.0516  -2.3839  -1.2755  -0.6835  -0.6570
    -0.5628  -0.3979  -0.3287  -0.1560  -0.0192   0.2154   0.3095   0.3538
     0.3848   0.4229   0.6288   1.0141   1.0386   1.1584   1.6211   1.7575
     1.7968   1.8359   1.9461   2.0132   2.1645   2.2386   2.2643   2.3848
     2.4177   2.5060   2.5278   2.5812   2.6415

          k = 0.0519 0.0300 0.0000 ( 22852 PWs)   bands (ev):

   -47.4080 -47.3907 -47.3628 -47.3462 -47.3410 -47.3391 -47.3230 -47.3213
   -47.0858 -47.0450 -47.0253 -47.0235 -25.6383 -25.6340 -25.5988 -25.5857
   -25.5791 -25.5687 -25.5110 -25.4922 -25.4888 -25.4820 -25.4396 -25.4053
   -25.3753 -25.3717 -25.2609 -25.2601 -25.2444 -25.2437 -25.1899 -25.1661
   -25.1589 -25.1568 -25.1260 -25.1252 -25.1034 -25.0421 -25.0217 -24.9436
   -24.9340 -24.9227 -24.9173 -24.9159 -24.9031 -24.8576 -24.8067 -24.7315
   -11.7416  -4.8692  -4.4795  -2.9920  -2.2469  -1.1467  -0.9830  -0.4864
    -0.3696  -0.2487  -0.2003  -0.0892  -0.0254   0.2143   0.4469   0.4930
     0.5033   0.5691   0.7316   1.0452   1.0648   1.1882   1.4792   1.6738
     1.7240   1.7852   1.8109   1.9249   2.1238   2.1493   2.1969   2.2909
     2.3250   2.3564   2.4199   2.4481   2.4846

          k = 0.0519-0.1199 0.0000 ( 22856 PWs)   bands (ev):

   -47.3937 -47.3767 -47.3710 -47.3546 -47.3543 -47.3365 -47.3318 -47.3138
   -47.0730 -47.0525 -47.0375 -47.0168 -25.5982 -25.5669 -25.5569 -25.5486
   -25.5262 -25.5073 -25.4676 -25.4631 -25.4557 -25.4389 -25.4276 -25.4149
   -25.4035 -25.3930 -25.3626 -25.3461 -25.2897 -25.2649 -25.2126 -25.1963
   -25.1418 -25.1316 -25.1123 -25.1077 -25.0793 -25.0650 -25.0610 -25.0245
   -24.9432 -24.9313 -24.9221 -24.9129 -24.9036 -24.8793 -24.8094 -24.7648
   -11.7390  -4.8814  -4.4769  -2.8791  -1.8304  -1.1554  -0.7477  -0.5565
    -0.3448  -0.0695   0.0480   0.1674   0.3541   0.4076   0.7073   0.7388
     0.7859   0.8165   0.8874   1.0923   1.1998   1.2765   1.3152   1.4079
     1.4921   1.5366   1.5692   1.6538   1.7191   1.8206   1.9035   1.9767
     2.0457   2.0554   2.1106   2.2065   2.4925

          k = 0.0519-0.0899 0.0000 ( 22914 PWs)   bands (ev):

   -47.3751 -47.3741 -47.3732 -47.3610 -47.3571 -47.3526 -47.3287 -47.3108
   -47.0563 -47.0556 -47.0539 -47.0141 -25.5345 -25.5227 -25.5179 -25.5142
   -25.4950 -25.4816 -25.4781 -25.4459 -25.4378 -25.4364 -25.4040 -25.3991
   -25.3982 -25.3974 -25.3932 -25.3880 -25.3815 -25.3765 -25.1477 -25.1470
   -25.1441 -25.1319 -25.1287 -25.1248 -25.0987 -25.0974 -25.0366 -25.0286
   -25.0282 -24.9336 -24.9117 -24.9110 -24.9065 -24.8255 -24.8249 -24.8159
   -11.7377  -4.8864  -4.4775  -2.8251  -1.2305  -1.1818  -1.1720  -0.3138
    -0.2480  -0.1988   0.5149   0.5321   0.5832   0.5856   0.5993   0.7321
     1.0032   1.0251   1.1099   1.1115   1.1608   1.1734   1.1789   1.1959
     1.1999   1.3135   1.4358   1.6535   1.6602   1.6714   1.6839   1.7645
     1.7993   1.8784   2.0146   2.0888   2.1192

          k = 0.0519-0.0599 0.0000 ( 22856 PWs)   bands (ev):

   -47.3937 -47.3768 -47.3711 -47.3545 -47.3538 -47.3370 -47.3318 -47.3137
   -47.0730 -47.0525 -47.0375 -47.0168 -25.5986 -25.5681 -25.5564 -25.5472
   -25.5265 -25.5064 -25.4666 -25.4633 -25.4559 -25.4387 -25.4279 -25.4139
   -25.4044 -25.3931 -25.3628 -25.3465 -25.2900 -25.2660 -25.2126 -25.1967
   -25.1420 -25.1315 -25.1129 -25.1071 -25.0793 -25.0651 -25.0599 -25.0245
   -24.9432 -24.9312 -24.9222 -24.9128 -24.9037 -24.8793 -24.8093 -24.7646
   -11.7390  -4.8815  -4.4787  -2.8756  -1.8307  -1.1568  -0.7467  -0.5559
    -0.3467  -0.0697   0.0486   0.1704   0.3514   0.4068   0.7115   0.7359
     0.7899   0.8125   0.8889   1.1036   1.1886   1.2666   1.3359   1.4031
     1.4884   1.5296   1.5761   1.6548   1.7262   1.8248   1.8959   1.9670
     2.0420   2.0641   2.1106   2.2029   2.4884

          k =-0.0779 0.0450 0.0000 ( 22880 PWs)   bands (ev):

   -47.3855 -47.3854 -47.3706 -47.3660 -47.3401 -47.3400 -47.3246 -47.3202
   -47.0663 -47.0647 -47.0253 -47.0235 -25.5979 -25.5896 -25.5584 -25.5425
   -25.5363 -25.5328 -25.4643 -25.4635 -25.4420 -25.4353 -25.3993 -25.3934
   -25.3592 -25.3540 -25.3415 -25.3314 -25.3026 -25.3019 -25.2865 -25.2838
   -25.1337 -25.1313 -25.0848 -25.0836 -25.0661 -25.0579 -25.0087 -25.0042
   -24.9795 -24.9703 -24.9201 -24.9199 -24.9106 -24.9052 -24.7719 -24.7664
   -11.7390  -4.8723  -4.4908  -2.8724  -1.6384  -1.5698  -0.6869  -0.5336
    -0.0226  -0.0116   0.0698   0.1025   0.1323   0.2303   0.8174   0.8270
     0.8963   0.9044   0.9121   1.0016   1.2603   1.3363   1.3505   1.4019
     1.4383   1.4627   1.6442   1.7310   1.7441   1.8408   1.8756   1.8920
     1.9558   2.1056   2.1076   2.3343   2.4423

          k =-0.0779 0.0749 0.0000 ( 22856 PWs)   bands (ev):

   -47.3937 -47.3767 -47.3711 -47.3545 -47.3542 -47.3366 -47.3318 -47.3139
   -47.0730 -47.0525 -47.0375 -47.0168 -25.5985 -25.5685 -25.5556 -25.5483
   -25.5262 -25.5060 -25.4682 -25.4625 -25.4557 -25.4383 -25.4283 -25.4130
   -25.4051 -25.3929 -25.3628 -25.3464 -25.2901 -25.2660 -25.2127 -25.1967
   -25.1423 -25.1315 -25.1123 -25.1076 -25.0793 -25.0651 -25.0596 -25.0245
   -24.9431 -24.9313 -24.9224 -24.9129 -24.9036 -24.8794 -24.8092 -24.7648
   -11.7390  -4.8709  -4.4915  -2.8763  -1.8295  -1.1571  -0.7448  -0.5557
    -0.3461  -0.0694   0.0489   0.1691   0.3541   0.4078   0.7077   0.7383
     0.7861   0.8165   0.8862   1.0955   1.2005   1.2760   1.3153   1.4083
     1.4929   1.5347   1.5664   1.6575   1.7288   1.8191   1.9003   1.9769
     2.0478   2.0525   2.1098   2.2007   2.4869

          k =-0.0779 0.1049 0.0000 ( 22856 PWs)   bands (ev):

   -47.3937 -47.3766 -47.3710 -47.3547 -47.3544 -47.3363 -47.3318 -47.3139
   -47.0730 -47.0525 -47.0375 -47.0168 -25.5981 -25.5670 -25.5574 -25.5481
   -25.5263 -25.5073 -25.4681 -25.4624 -25.4557 -25.4390 -25.4272 -25.4129
   -25.4053 -25.3931 -25.3627 -25.3459 -25.2900 -25.2658 -25.2127 -25.1961
   -25.1417 -25.1317 -25.1130 -25.1074 -25.0793 -25.0649 -25.0604 -25.0244
   -24.9431 -24.9314 -24.9222 -24.9130 -24.9035 -24.8793 -24.8093 -24.7649
   -11.7390  -4.8709  -4.4903  -2.8786  -1.8290  -1.1564  -0.7451  -0.5555
    -0.3473  -0.0685   0.0477   0.1722   0.3513   0.4052   0.7105   0.7360
     0.7903   0.8128   0.8894   1.0999   1.1936   1.2676   1.3301   1.4030
     1.4879   1.5297   1.5718   1.6590   1.7276   1.8228   1.8993   1.9665
     2.0455   2.0630   2.1097   2.2048   2.4882

          k =-0.0779-0.0450 0.0000 ( 22880 PWs)   bands (ev):

   -47.3864 -47.3845 -47.3689 -47.3679 -47.3411 -47.3392 -47.3230 -47.3215
   -47.0663 -47.0646 -47.0253 -47.0235 -25.5951 -25.5917 -25.5558 -25.5461
   -25.5373 -25.5326 -25.4653 -25.4628 -25.4420 -25.4356 -25.3989 -25.3942
   -25.3599 -25.3537 -25.3411 -25.3303 -25.3035 -25.3010 -25.2845 -25.2837
   -25.1328 -25.1319 -25.0858 -25.0826 -25.0637 -25.0619 -25.0087 -25.0041
   -24.9798 -24.9699 -24.9201 -24.9198 -24.9108 -24.9050 -24.7719 -24.7666
   -11.7390  -4.8722  -4.4884  -2.8770  -1.6376  -1.5687  -0.6868  -0.5340
    -0.0238  -0.0109   0.0682   0.1013   0.1345   0.2284   0.8153   0.8271
     0.8966   0.9042   0.9119   1.0037   1.2543   1.3402   1.3506   1.3968
     1.4391   1.4650   1.6494   1.7269   1.7491   1.8326   1.8789   1.8938
     1.9542   2.1055   2.1069   2.3273   2.4612

     the Fermi energy is     1.8462 ev

!    total energy              =   -1212.12416097 Ry
     Harris-Foulkes estimate   =   -1212.12418036 Ry
     estimated scf accuracy    <       0.00000349 Ry

     The total energy is the sum of the following terms:

     one-electron contribution =   -8486.48895157 Ry
     hartree contribution      =    4237.84921549 Ry
     xc contribution           =    -226.44966153 Ry
     ewald contribution        =    3263.08604037 Ry
     electric field correction =       0.00012200 Ry
     smearing contrib. (-TS)   =      -0.12092574 Ry

     convergence has been achieved in  17 iterations
 
 BEEF-vdW xc energy contributions
           1 :   -193.826813655643     
           2 :    175.317843213354     
           3 :   -144.163825464705     
           4 :    109.165660535930     
           5 :   -78.2318810588380     
           6 :    55.6417661884067     
           7 :   -41.3889117947313     
           8 :    32.5118450280897     
           9 :   -25.4041297557155     
          10 :    17.7917952972204     
          11 :   -9.48557016075429     
          12 :    1.81763370267171     
          13 :    3.62486722879305     
          14 :   -6.11868253065225     
          15 :    6.18691720881330     
          16 :   -5.17546816378805     
          17 :    4.40890799444534     
          18 :   -4.48547717273783     
          19 :    5.11012464514130     
          20 :   -5.49146342859561     
          21 :    4.98375520736286     
          22 :   -3.54359738501691     
          23 :    1.73529601266463     
          24 :  -0.334198152237065     
          25 :  -0.171619035115071     
          26 :  -0.150362048622895     
          27 :   0.785433635170676     
          28 :   -1.14620567465064     
          29 :   0.946918961176493     
          30 :  -0.342283847947471     
          31 :   -22.5867547429427     
          32 :   -16.8248737999845     

     Forces acting on atoms (Ry/au):


     negative rho (up, down):  7.487E-01 0.000E+00
     atom    1 type  1   force =     0.00026941    0.00005289    0.01424182
     atom    2 type  1   force =    -0.00019766    0.00025099    0.01403504
     atom    3 type  1   force =    -0.00005450   -0.00030240    0.01405028
     atom    4 type  1   force =     0.00001524   -0.00006657    0.01522980
     atom    5 type  1   force =    -0.00050177    0.00237415   -0.00358158
     atom    6 type  1   force =    -0.00002386   -0.00017858   -0.00030718
     atom    7 type  1   force =    -0.00174236   -0.00196051   -0.00308875
     atom    8 type  1   force =     0.00233240   -0.00032590   -0.00391179
     atom    9 type  1   force =     0.00162275    0.00011613   -0.03539832
     atom   10 type  1   force =    -0.00612613    0.00320028   -0.01075505
     atom   11 type  1   force =     0.00417964    0.00322784   -0.01168978
     atom   12 type  1   force =     0.00047471   -0.00548819   -0.00805785
     atom   13 type  2   force =     0.04220450   -0.00110325    0.17164754
     atom   14 type  3   force =    -0.07152391    0.00772002   -0.06508046
     atom   15 type  3   force =     0.00807717   -0.04439930   -0.04417848
     atom   16 type  3   force =     0.02099436    0.03688240   -0.04315525

     Total force =     0.223577     Total SCF correction =     0.003061


     entering subroutine stress ...


     negative rho (up, down):  7.487E-01 0.000E+00
          total   stress  (Ry/bohr**3)                   (kbar)     P=  -14.62
  -0.00010053  -0.00000013  -0.00000855        -14.79     -0.02     -1.26
  -0.00000013  -0.00009545  -0.00000025         -0.02    -14.04     -0.04
  -0.00000855  -0.00000025  -0.00010214         -1.26     -0.04    -15.03


     BFGS Geometry Optimization

     number of scf cycles    =   1
     number of bfgs steps    =   0

     energy   new            =   -1212.1241609721 Ry

     new trust radius        =       0.1767634416 bohr
     new conv_thr            =       0.0000099958 Ry


ATOMIC_POSITIONS (crystal)
Zr1      0.166666667   0.166666667   0.396150897    0   0   0
Zr1      0.666666667   0.166666667   0.396150897    0   0   0
Zr1      0.166666667   0.666666667   0.396150897    0   0   0
Zr1      0.666666667   0.666666667   0.396150897    0   0   0
Zr1      0.833333333   0.333333333   0.500000000    0   0   0
Zr1      0.333333333   0.333333333   0.500000000    0   0   0
Zr1      0.833333333   0.833333333   0.500000000    0   0   0
Zr1      0.333333333   0.833333333   0.500000000    0   0   0
Zr1      0.000128207   0.000011051   0.603107034
Zr1      0.499342873   0.000304537   0.603623640
Zr1      0.000190867   0.500307160   0.603604045
Zr1      0.500300248   0.499477746   0.603680183
C1       0.336863926   0.333228349   0.672079438
H1       0.496821286   0.334067967   0.692074320
H1       0.186053920   0.489063227   0.692512497
H1       0.343205981   0.176888134   0.692533947



     Writing output data file calc.save
     Check: negative starting charge=   -0.728992
     NEW-OLD atomic charge density approx. for the potential
     Check: negative starting charge=   -0.729574

     negative rho (up, down):  7.491E-01 0.000E+00
 
     Adding external electric field

     Computed dipole along edir(3) : 
        Dipole                0.2429 Ry au,          0.6173 Debye
        Dipole field          0.0005 Ry au
 
        Potential amp.       -0.0467 Ry
        Total length         46.5096 bohr
 

     total cpu time spent up to now is      264.6 secs

     per-process dynamical memory:    47.0 Mb

     Self-consistent Calculation

     iteration #  1     ecut=    36.75 Ry     beta=0.30
     Davidson diagonalization with overlap
     ethr =  1.00E-06,  avg # of iterations = 11.8

     negative rho (up, down):  7.492E-01 0.000E+00
 
     Adding external electric field

     Computed dipole along edir(3) : 
        Dipole                0.6198 Ry au,          1.5753 Debye
        Dipole field          0.0013 Ry au
 
        Potential amp.       -0.1191 Ry
        Total length         46.5096 bohr
 

     total cpu time spent up to now is      287.4 secs

     total energy              =   -1212.14789478 Ry
     Harris-Foulkes estimate   =   -1212.16340334 Ry
     estimated scf accuracy    <       0.03596981 Ry

     iteration #  2     ecut=    36.75 Ry     beta=0.30
     Davidson diagonalization with overlap
     ethr =  2.38E-05,  avg # of iterations =  6.6

     negative rho (up, down):  7.493E-01 0.000E+00
 
     Adding external electric field

     Computed dipole along edir(3) : 
        Dipole                0.1855 Ry au,          0.4716 Debye
        Dipole field          0.0004 Ry au
 
        Potential amp.       -0.0357 Ry
        Total length         46.5096 bohr
 

     total cpu time spent up to now is      303.6 secs

     total energy              =   -1212.02687328 Ry
     Harris-Foulkes estimate   =   -1212.29550842 Ry
     estimated scf accuracy    <      13.44433039 Ry

     iteration #  3     ecut=    36.75 Ry     beta=0.30
     Davidson diagonalization with overlap
     ethr =  2.38E-05,  avg # of iterations =  6.2

     negative rho (up, down):  7.493E-01 0.000E+00
 
     Adding external electric field

     Computed dipole along edir(3) : 
        Dipole                0.2346 Ry au,          0.5962 Debye
        Dipole field          0.0005 Ry au
 
        Potential amp.       -0.0451 Ry
        Total length         46.5096 bohr
 

     total cpu time spent up to now is      318.7 secs

     total energy              =   -1212.15661883 Ry
     Harris-Foulkes estimate   =   -1212.15895250 Ry
     estimated scf accuracy    <       0.02672291 Ry

     iteration #  4     ecut=    36.75 Ry     beta=0.30
     Davidson diagonalization with overlap
     ethr =  1.77E-05,  avg # of iterations =  3.2

     negative rho (up, down):  7.493E-01 0.000E+00
 
     Adding external electric field

     Computed dipole along edir(3) : 
        Dipole                0.2380 Ry au,          0.6050 Debye
        Dipole field          0.0005 Ry au
 
        Potential amp.       -0.0457 Ry
        Total length         46.5096 bohr
 

     total cpu time spent up to now is      329.7 secs

     total energy              =   -1212.15548656 Ry
     Harris-Foulkes estimate   =   -1212.15996558 Ry
     estimated scf accuracy    <       0.03933285 Ry

     iteration #  5     ecut=    36.75 Ry     beta=0.30
     Davidson diagonalization with overlap
     ethr =  1.77E-05,  avg # of iterations =  3.6

     negative rho (up, down):  7.493E-01 0.000E+00
 
     Adding external electric field

     Computed dipole along edir(3) : 
        Dipole                0.2286 Ry au,          0.5811 Debye
        Dipole field          0.0005 Ry au
 
        Potential amp.       -0.0439 Ry
        Total length         46.5096 bohr
 

     total cpu time spent up to now is      340.3 secs

     total energy              =   -1212.15754680 Ry
     Harris-Foulkes estimate   =   -1212.15823962 Ry
     estimated scf accuracy    <       0.00467954 Ry

     iteration #  6     ecut=    36.75 Ry     beta=0.30
     Davidson diagonalization with overlap
     ethr =  3.10E-06,  avg # of iterations =  3.8

     negative rho (up, down):  7.492E-01 0.000E+00
 
     Adding external electric field

     Computed dipole along edir(3) : 
        Dipole                0.2235 Ry au,          0.5681 Debye
        Dipole field          0.0005 Ry au
 
        Potential amp.       -0.0430 Ry
        Total length         46.5096 bohr
 

     total cpu time spent up to now is      351.5 secs

     total energy              =   -1212.15791830 Ry
     Harris-Foulkes estimate   =   -1212.15802152 Ry
     estimated scf accuracy    <       0.00057174 Ry

     iteration #  7     ecut=    36.75 Ry     beta=0.30
     Davidson diagonalization with overlap
     ethr =  3.79E-07,  avg # of iterations =  4.1

     negative rho (up, down):  7.492E-01 0.000E+00
 
     Adding external electric field

     Computed dipole along edir(3) : 
        Dipole                0.2308 Ry au,          0.5867 Debye
        Dipole field          0.0005 Ry au
 
        Potential amp.       -0.0444 Ry
        Total length         46.5096 bohr
 

     total cpu time spent up to now is      363.4 secs

     total energy              =   -1212.15798346 Ry
     Harris-Foulkes estimate   =   -1212.15798849 Ry
     estimated scf accuracy    <       0.00011331 Ry

     iteration #  8     ecut=    36.75 Ry     beta=0.30
     Davidson diagonalization with overlap
     ethr =  7.50E-08,  avg # of iterations =  5.0

     negative rho (up, down):  7.492E-01 0.000E+00
 
     Adding external electric field

     Computed dipole along edir(3) : 
        Dipole                0.2318 Ry au,          0.5891 Debye
        Dipole field          0.0005 Ry au
 
        Potential amp.       -0.0445 Ry
        Total length         46.5096 bohr
 

     total cpu time spent up to now is      376.1 secs

     total energy              =   -1212.15799616 Ry
     Harris-Foulkes estimate   =   -1212.15800076 Ry
     estimated scf accuracy    <       0.00005721 Ry

     iteration #  9     ecut=    36.75 Ry     beta=0.30
     Davidson diagonalization with overlap
     ethr =  3.79E-08,  avg # of iterations =  4.1

     negative rho (up, down):  7.492E-01 0.000E+00
 
     Adding external electric field

     Computed dipole along edir(3) : 
        Dipole                0.2311 Ry au,          0.5875 Debye
        Dipole field          0.0005 Ry au
 
        Potential amp.       -0.0444 Ry
        Total length         46.5096 bohr
 

     total cpu time spent up to now is      387.8 secs

     total energy              =   -1212.15800273 Ry
     Harris-Foulkes estimate   =   -1212.15800401 Ry
     estimated scf accuracy    <       0.00002121 Ry

     iteration # 10     ecut=    36.75 Ry     beta=0.30
     Davidson diagonalization with overlap
     ethr =  1.40E-08,  avg # of iterations =  3.3

     negative rho (up, down):  7.492E-01 0.000E+00

     negative rho (up, down):  7.492E-01 0.000E+00

     negative rho (up, down):  7.492E-01 0.000E+00

     negative rho (up, down):  7.492E-01 0.000E+00

     negative rho (up, down):  7.492E-01 0.000E+00

     negative rho (up, down):  7.492E-01 0.000E+00

     negative rho (up, down):  7.492E-01 0.000E+00

     negative rho (up, down):  7.492E-01 0.000E+00

     negative rho (up, down):  7.492E-01 0.000E+00

     negative rho (up, down):  7.492E-01 0.000E+00

     negative rho (up, down):  7.492E-01 0.000E+00

     negative rho (up, down):  7.492E-01 0.000E+00

     negative rho (up, down):  7.492E-01 0.000E+00

     negative rho (up, down):  7.492E-01 0.000E+00

     negative rho (up, down):  7.492E-01 0.000E+00

     negative rho (up, down):  7.492E-01 0.000E+00

     negative rho (up, down):  7.492E-01 0.000E+00

     negative rho (up, down):  7.492E-01 0.000E+00

     negative rho (up, down):  7.492E-01 0.000E+00

     negative rho (up, down):  7.492E-01 0.000E+00

     negative rho (up, down):  7.492E-01 0.000E+00

     negative rho (up, down):  7.492E-01 0.000E+00

     negative rho (up, down):  7.492E-01 0.000E+00

     negative rho (up, down):  7.492E-01 0.000E+00

     negative rho (up, down):  7.492E-01 0.000E+00

     negative rho (up, down):  7.492E-01 0.000E+00

     negative rho (up, down):  7.492E-01 0.000E+00

     negative rho (up, down):  7.492E-01 0.000E+00

     negative rho (up, down):  7.492E-01 0.000E+00

     negative rho (up, down):  7.492E-01 0.000E+00

     negative rho (up, down):  7.492E-01 0.000E+00

     negative rho (up, down):  7.492E-01 0.000E+00

     negative rho (up, down):  7.492E-01 0.000E+00

     negative rho (up, down):  7.492E-01 0.000E+00

     negative rho (up, down):  7.492E-01 0.000E+00
 
     Adding external electric field

     Computed dipole along edir(3) : 
        Dipole                0.2209 Ry au,          0.5614 Debye
        Dipole field          0.0005 Ry au
 
        Potential amp.       -0.0424 Ry
        Total length         46.5096 bohr
 

     total cpu time spent up to now is      413.9 secs

     End of self-consistent calculation

          k = 0.0000 0.0000 0.0000 ( 22923 PWs)   bands (ev):

   -47.4602 -47.4474 -47.3703 -47.3699 -47.3680 -47.3633 -47.3616 -47.3446
   -47.1334 -47.0533 -47.0514 -47.0506 -25.7585 -25.7504 -25.7499 -25.7122
   -25.7004 -25.6993 -25.6680 -25.5813 -25.5804 -25.5719 -25.4843 -25.3826
   -25.3815 -25.3680 -25.2349 -25.2345 -25.2221 -25.1988 -25.1968 -25.1963
   -25.1794 -25.1749 -25.1732 -25.0291 -25.0291 -25.0131 -25.0119 -24.9670
   -24.9662 -24.9653 -24.9489 -24.8755 -24.8690 -24.8689 -24.7210 -24.7208
   -12.0701  -5.1416  -4.9030  -3.2553  -2.5998  -1.7374  -1.1244  -0.7509
    -0.7508  -0.6526  -0.5745  -0.5715  -0.4982  -0.1685  -0.1662  -0.0058
    -0.0032   0.0055   0.2430   0.8500   0.8610   1.1804   1.7201   1.9064
     2.0039   2.0080   2.3347   2.4170   2.5570   2.5835   2.5897   2.6820
     2.7098   2.7131   2.9297   2.9432   2.9786

          k = 0.0000 0.0300 0.0000 ( 22902 PWs)   bands (ev):

   -47.4541 -47.4416 -47.3756 -47.3702 -47.3686 -47.3675 -47.3617 -47.3463
   -47.1280 -47.0575 -47.0523 -47.0509 -25.7313 -25.7251 -25.7100 -25.6853
   -25.6753 -25.6605 -25.6518 -25.5636 -25.5617 -25.5525 -25.4803 -25.4002
   -25.3882 -25.3779 -25.2286 -25.2245 -25.2209 -25.2203 -25.2098 -25.2074
   -25.2029 -25.1861 -25.1651 -25.0833 -25.0667 -25.0405 -25.0239 -24.9621
   -24.9609 -24.9599 -24.9366 -24.8983 -24.8940 -24.8610 -24.7661 -24.7311
   -12.0681  -5.1526  -4.9026  -3.0845  -2.4877  -1.5810  -0.9415  -0.7297
    -0.6201  -0.6125  -0.5031  -0.4439  -0.3610  -0.0491   0.0249   0.1025
     0.1178   0.1245   0.3534   0.9018   0.9141   1.1551   1.6938   1.8709
     1.9698   2.0258   2.1860   2.2888   2.3562   2.4037   2.4087   2.5412
     2.6359   2.7596   2.7803   2.8373   2.8574

          k = 0.0000 0.0599 0.0000 ( 22852 PWs)   bands (ev):

   -47.4376 -47.4257 -47.3922 -47.3818 -47.3702 -47.3686 -47.3617 -47.3484
   -47.1131 -47.0724 -47.0524 -47.0510 -25.6692 -25.6632 -25.6283 -25.6148
   -25.6127 -25.6008 -25.5417 -25.5247 -25.5213 -25.5118 -25.4714 -25.4363
   -25.4080 -25.3994 -25.2903 -25.2889 -25.2794 -25.2741 -25.2196 -25.1974
   -25.1894 -25.1821 -25.1557 -25.1516 -25.1361 -25.0715 -25.0542 -24.9696
   -24.9626 -24.9483 -24.9443 -24.9436 -24.9306 -24.8848 -24.8341 -24.7587
   -12.0641  -5.1731  -4.9020  -2.6852  -2.1833  -1.1647  -1.0162  -0.5230
    -0.3985  -0.2836  -0.2323  -0.1246  -0.0636   0.1849   0.4120   0.4612
     0.4688   0.5334   0.6926   1.0186   1.0274   1.1598   1.4446   1.6388
     1.6960   1.7492   1.7762   1.8918   2.1049   2.1173   2.1685   2.2615
     2.2977   2.3269   2.3976   2.4256   2.4543

          k = 0.0000-0.0899 0.0000 ( 22880 PWs)   bands (ev):

   -47.4156 -47.4142 -47.4070 -47.4001 -47.3702 -47.3687 -47.3618 -47.3490
   -47.0937 -47.0919 -47.0525 -47.0510 -25.6268 -25.6204 -25.5866 -25.5748
   -25.5685 -25.5681 -25.4962 -25.4956 -25.4729 -25.4661 -25.4306 -25.4230
   -25.3892 -25.3842 -25.3732 -25.3627 -25.3322 -25.3305 -25.3210 -25.3112
   -25.1633 -25.1559 -25.1144 -25.1133 -25.0994 -25.0913 -25.0348 -25.0326
   -25.0056 -24.9979 -24.9473 -24.9457 -24.9358 -24.9344 -24.8008 -24.7922
   -12.0622  -5.1827  -4.9017  -2.4738  -1.6747  -1.5824  -0.7286  -0.5560
    -0.0550  -0.0436   0.0370   0.0665   0.0942   0.2012   0.7821   0.7945
     0.8600   0.8697   0.8805   0.9656   1.2359   1.2993   1.3222   1.3596
     1.4058   1.4261   1.6145   1.6858   1.6997   1.8166   1.8506   1.8656
     1.9194   2.0766   2.0838   2.2942   2.4483

          k = 0.0260-0.0150 0.0000 ( 22902 PWs)   bands (ev):

   -47.4541 -47.4416 -47.3757 -47.3699 -47.3687 -47.3671 -47.3622 -47.3462
   -47.1280 -47.0576 -47.0518 -47.0513 -25.7314 -25.7248 -25.7102 -25.6855
   -25.6746 -25.6607 -25.6521 -25.5639 -25.5614 -25.5526 -25.4803 -25.3998
   -25.3889 -25.3776 -25.2286 -25.2246 -25.2209 -25.2202 -25.2100 -25.2079
   -25.2029 -25.1860 -25.1645 -25.0833 -25.0674 -25.0405 -25.0231 -24.9624
   -24.9606 -24.9601 -24.9366 -24.8984 -24.8940 -24.8609 -24.7662 -24.7310
   -12.0681  -5.1440  -4.9125  -3.0842  -2.4880  -1.5807  -0.9413  -0.7293
    -0.6196  -0.6124  -0.5011  -0.4460  -0.3610  -0.0471   0.0237   0.1026
     0.1170   0.1248   0.3530   0.9008   0.9155   1.1556   1.6938   1.8725
     1.9745   2.0231   2.1865   2.2886   2.3569   2.4007   2.4123   2.5421
     2.6362   2.7551   2.7895   2.8360   2.8552

          k = 0.0260 0.0150 0.0000 ( 22902 PWs)   bands (ev):

   -47.4541 -47.4416 -47.3756 -47.3702 -47.3685 -47.3663 -47.3631 -47.3461
   -47.1280 -47.0574 -47.0527 -47.0506 -25.7311 -25.7252 -25.7101 -25.6850
   -25.6757 -25.6606 -25.6516 -25.5644 -25.5608 -25.5527 -25.4803 -25.3997
   -25.3891 -25.3775 -25.2292 -25.2243 -25.2210 -25.2199 -25.2095 -25.2080
   -25.2021 -25.1862 -25.1654 -25.0833 -25.0666 -25.0405 -25.0241 -24.9618
   -24.9614 -24.9598 -24.9366 -24.8981 -24.8940 -24.8611 -24.7660 -24.7312
   -12.0681  -5.1445  -4.9118  -3.0839  -2.4876  -1.5807  -0.9413  -0.7294
    -0.6194  -0.6122  -0.5036  -0.4451  -0.3603  -0.0488   0.0250   0.1009
     0.1187   0.1248   0.3534   0.9048   0.9113   1.1542   1.6941   1.8714
     1.9697   2.0253   2.1862   2.2880   2.3569   2.3992   2.4106   2.5416
     2.6340   2.7561   2.7869   2.8369   2.8562

          k = 0.0260 0.0450 0.0000 ( 22896 PWs)   bands (ev):

   -47.4428 -47.4307 -47.3813 -47.3804 -47.3738 -47.3664 -47.3641 -47.3464
   -47.1179 -47.0626 -47.0616 -47.0469 -25.6946 -25.6581 -25.6505 -25.6469
   -25.6289 -25.6017 -25.5972 -25.5360 -25.5310 -25.5231 -25.4738 -25.4232
   -25.4148 -25.3853 -25.3080 -25.2951 -25.2079 -25.2059 -25.2005 -25.1901
   -25.1891 -25.1773 -25.1724 -25.1688 -25.1519 -25.0642 -25.0492 -24.9718
   -24.9589 -24.9521 -24.9514 -24.9304 -24.8771 -24.8717 -24.8445 -24.7530
   -12.0651  -5.1609  -4.9103  -2.7935  -2.2819  -1.2826  -0.7170  -0.6929
    -0.5940  -0.4369  -0.3636  -0.1888  -0.0542   0.1808   0.2796   0.3187
     0.3493   0.3879   0.5888   0.9802   1.0085   1.1297   1.5884   1.7148
     1.7673   1.8032   1.9153   1.9836   2.1390   2.2095   2.2382   2.3545
     2.3863   2.4812   2.5084   2.5611   2.6150

          k = 0.0260-0.1049 0.0000 ( 22856 PWs)   bands (ev):

   -47.4232 -47.4122 -47.4005 -47.3898 -47.3838 -47.3706 -47.3611 -47.3452
   -47.1003 -47.0798 -47.0648 -47.0442 -25.6284 -25.5963 -25.5880 -25.5813
   -25.5591 -25.5370 -25.4997 -25.4961 -25.4849 -25.4692 -25.4592 -25.4441
   -25.4355 -25.4234 -25.3930 -25.3772 -25.3197 -25.2969 -25.2417 -25.2283
   -25.1698 -25.1607 -25.1449 -25.1347 -25.1086 -25.0938 -25.0920 -25.0515
   -24.9703 -24.9576 -24.9497 -24.9394 -24.9309 -24.9068 -24.8368 -24.7919
   -12.0622  -5.1752  -4.9101  -2.4842  -1.8368  -1.1903  -0.7756  -0.5892
    -0.3798  -0.1016   0.0161   0.1328   0.3157   0.3754   0.6769   0.7017
     0.7515   0.7818   0.8548   1.0733   1.1566   1.2318   1.2981   1.3715
     1.4548   1.5027   1.5356   1.6129   1.6855   1.7982   1.8734   1.9443
     2.0159   2.0383   2.0780   2.1756   2.4647

          k = 0.0260-0.0749 0.0000 ( 22856 PWs)   bands (ev):

   -47.4232 -47.4121 -47.4005 -47.3901 -47.3838 -47.3704 -47.3611 -47.3453
   -47.1003 -47.0798 -47.0647 -47.0442 -25.6284 -25.5964 -25.5883 -25.5809
   -25.5590 -25.5371 -25.5002 -25.4959 -25.4848 -25.4691 -25.4593 -25.4445
   -25.4343 -25.4237 -25.3931 -25.3776 -25.3199 -25.2974 -25.2417 -25.2280
   -25.1697 -25.1607 -25.1451 -25.1348 -25.1086 -25.0939 -25.0914 -25.0518
   -24.9701 -24.9577 -24.9499 -24.9392 -24.9310 -24.9067 -24.8368 -24.7918
   -12.0622  -5.1748  -4.9106  -2.4855  -1.8362  -1.1906  -0.7744  -0.5895
    -0.3804  -0.1022   0.0170   0.1318   0.3181   0.3766   0.6743   0.7033
     0.7493   0.7842   0.8516   1.0661   1.1698   1.2385   1.2826   1.3785
     1.4591   1.5041   1.5331   1.6190   1.6921   1.7894   1.8771   1.9482
     2.0194   2.0268   2.0769   2.1696   2.4654

          k = 0.0260-0.0450 0.0000 ( 22896 PWs)   bands (ev):

   -47.4428 -47.4307 -47.3816 -47.3801 -47.3745 -47.3656 -47.3641 -47.3466
   -47.1178 -47.0632 -47.0609 -47.0469 -25.6946 -25.6582 -25.6509 -25.6464
   -25.6284 -25.6014 -25.5980 -25.5357 -25.5313 -25.5229 -25.4739 -25.4233
   -25.4146 -25.3853 -25.3080 -25.2958 -25.2077 -25.2057 -25.2005 -25.1905
   -25.1890 -25.1776 -25.1727 -25.1680 -25.1525 -25.0641 -25.0483 -24.9719
   -24.9590 -24.9526 -24.9509 -24.9304 -24.8770 -24.8716 -24.8447 -24.7529
   -12.0652  -5.1601  -4.9115  -2.7946  -2.2824  -1.2821  -0.7174  -0.6931
    -0.5931  -0.4377  -0.3625  -0.1866  -0.0556   0.1810   0.2806   0.3188
     0.3487   0.3883   0.5883   0.9869   1.0006   1.1334   1.5879   1.7177
     1.7752   1.8039   1.9153   1.9834   2.1383   2.2182   2.2362   2.3533
     2.3857   2.4860   2.5064   2.5513   2.6142

          k = 0.0519-0.0300 0.0000 ( 22852 PWs)   bands (ev):

   -47.4376 -47.4257 -47.3922 -47.3814 -47.3700 -47.3688 -47.3624 -47.3481
   -47.1131 -47.0724 -47.0520 -47.0513 -25.6694 -25.6629 -25.6285 -25.6140
   -25.6124 -25.6010 -25.5418 -25.5252 -25.5209 -25.5121 -25.4713 -25.4360
   -25.4086 -25.3990 -25.2902 -25.2890 -25.2803 -25.2743 -25.2198 -25.1979
   -25.1896 -25.1820 -25.1556 -25.1516 -25.1355 -25.0715 -25.0534 -24.9698
   -24.9626 -24.9480 -24.9443 -24.9438 -24.9306 -24.8848 -24.8340 -24.7587
   -12.0642  -5.1492  -4.9293  -2.6860  -2.1835  -1.1639  -1.0145  -0.5216
    -0.3976  -0.2837  -0.2305  -0.1251  -0.0636   0.1871   0.4126   0.4610
     0.4690   0.5323   0.6919   1.0194   1.0276   1.1616   1.4447   1.6401
     1.7009   1.7531   1.7752   1.8915   2.1074   2.1190   2.1678   2.2624
     2.2991   2.3263   2.3986   2.4178   2.4527

          k = 0.0519 0.0000 0.0000 ( 22896 PWs)   bands (ev):

   -47.4428 -47.4308 -47.3815 -47.3801 -47.3731 -47.3673 -47.3641 -47.3463
   -47.1178 -47.0629 -47.0613 -47.0469 -25.6945 -25.6583 -25.6508 -25.6465
   -25.6287 -25.6016 -25.5975 -25.5363 -25.5305 -25.5233 -25.4738 -25.4225
   -25.4154 -25.3853 -25.3080 -25.2958 -25.2080 -25.2057 -25.2005 -25.1903
   -25.1888 -25.1775 -25.1723 -25.1685 -25.1524 -25.0642 -25.0484 -24.9718
   -24.9590 -24.9523 -24.9512 -24.9304 -24.8771 -24.8716 -24.8446 -24.7530
   -12.0651  -5.1436  -4.9299  -2.7935  -2.2822  -1.2816  -0.7172  -0.6926
    -0.5930  -0.4366  -0.3630  -0.1869  -0.0558   0.1810   0.2805   0.3188
     0.3481   0.3887   0.5881   0.9852   1.0039   1.1304   1.5884   1.7177
     1.7711   1.8051   1.9162   1.9826   2.1382   2.2152   2.2368   2.3542
     2.3864   2.4850   2.5078   2.5519   2.6147

          k = 0.0519 0.0300 0.0000 ( 22852 PWs)   bands (ev):

   -47.4376 -47.4258 -47.3922 -47.3809 -47.3703 -47.3686 -47.3632 -47.3477
   -47.1131 -47.0723 -47.0528 -47.0506 -25.6690 -25.6633 -25.6281 -25.6151
   -25.6128 -25.6006 -25.5415 -25.5256 -25.5205 -25.5122 -25.4713 -25.4359
   -25.4089 -25.3989 -25.2904 -25.2888 -25.2807 -25.2726 -25.2196 -25.1974
   -25.1895 -25.1819 -25.1557 -25.1515 -25.1362 -25.0716 -25.0544 -24.9694
   -24.9628 -24.9486 -24.9442 -24.9432 -24.9305 -24.8847 -24.8343 -24.7588
   -12.0641  -5.1507  -4.9274  -2.6838  -2.1828  -1.1630  -1.0160  -0.5219
    -0.3991  -0.2837  -0.2332  -0.1257  -0.0620   0.1841   0.4112   0.4614
     0.4694   0.5333   0.6926   1.0204   1.0270   1.1571   1.4446   1.6408
     1.6950   1.7486   1.7734   1.8944   2.1046   2.1162   2.1698   2.2613
     2.2963   2.3255   2.3973   2.4269   2.4547

          k = 0.0519-0.1199 0.0000 ( 22856 PWs)   bands (ev):

   -47.4232 -47.4125 -47.4004 -47.3890 -47.3838 -47.3714 -47.3611 -47.3450
   -47.1003 -47.0798 -47.0648 -47.0441 -25.6284 -25.5961 -25.5880 -25.5816
   -25.5588 -25.5370 -25.4999 -25.4960 -25.4852 -25.4693 -25.4589 -25.4447
   -25.4349 -25.4234 -25.3931 -25.3774 -25.3197 -25.2967 -25.2417 -25.2283
   -25.1698 -25.1607 -25.1449 -25.1347 -25.1086 -25.0943 -25.0916 -25.0516
   -24.9701 -24.9576 -24.9500 -24.9393 -24.9309 -24.9066 -24.8370 -24.7919
   -12.0621  -5.1608  -4.9264  -2.4834  -1.8363  -1.1892  -0.7750  -0.5900
    -0.3792  -0.1027   0.0163   0.1309   0.3183   0.3760   0.6735   0.7034
     0.7497   0.7844   0.8513   1.0666   1.1665   1.2395   1.2828   1.3764
     1.4579   1.5054   1.5320   1.6146   1.6868   1.7922   1.8777   1.9499
     2.0186   2.0300   2.0773   2.1735   2.4655

          k = 0.0519-0.0899 0.0000 ( 22914 PWs)   bands (ev):

   -47.4045 -47.4040 -47.4023 -47.3976 -47.3952 -47.3821 -47.3581 -47.3428
   -47.0843 -47.0821 -47.0813 -47.0414 -25.5641 -25.5546 -25.5506 -25.5474
   -25.5247 -25.5137 -25.5066 -25.4782 -25.4700 -25.4662 -25.4322 -25.4316
   -25.4285 -25.4247 -25.4223 -25.4195 -25.4175 -25.4070 -25.1761 -25.1758
   -25.1746 -25.1653 -25.1592 -25.1577 -25.1257 -25.1253 -25.0634 -25.0561
   -25.0551 -24.9602 -24.9381 -24.9371 -24.9351 -24.8535 -24.8529 -24.8419
   -12.0612  -5.1641  -4.9277  -2.4024  -1.2650  -1.2197  -1.1926  -0.3494
    -0.2890  -0.2228   0.4851   0.4950   0.5484   0.5527   0.5601   0.6993
     0.9791   0.9913   1.0768   1.0822   1.1307   1.1383   1.1489   1.1522
     1.1619   1.2673   1.4044   1.6178   1.6351   1.6527   1.6732   1.7210
     1.7677   1.8535   1.9839   2.0515   2.0899

          k = 0.0519-0.0599 0.0000 ( 22856 PWs)   bands (ev):

   -47.4232 -47.4123 -47.4005 -47.3897 -47.3838 -47.3707 -47.3611 -47.3452
   -47.1003 -47.0799 -47.0647 -47.0442 -25.6284 -25.5968 -25.5881 -25.5803
   -25.5591 -25.5367 -25.4995 -25.4958 -25.4852 -25.4692 -25.4594 -25.4444
   -25.4351 -25.4237 -25.3932 -25.3777 -25.3200 -25.2977 -25.2417 -25.2288
   -25.1697 -25.1606 -25.1447 -25.1347 -25.1086 -25.0933 -25.0915 -25.0517
   -24.9702 -24.9577 -24.9498 -24.9393 -24.9310 -24.9067 -24.8367 -24.7918
   -12.0623  -5.1594  -4.9282  -2.4868  -1.8359  -1.1896  -0.7734  -0.5894
    -0.3784  -0.1027   0.0175   0.1343   0.3161   0.3768   0.6781   0.7016
     0.7511   0.7815   0.8546   1.0726   1.1612   1.2303   1.2993   1.3732
     1.4561   1.5027   1.5375   1.6178   1.6879   1.7988   1.8717   1.9452
     2.0142   2.0370   2.0772   2.1708   2.4622

          k =-0.0779 0.0450 0.0000 ( 22880 PWs)   bands (ev):

   -47.4154 -47.4145 -47.4077 -47.3991 -47.3700 -47.3689 -47.3624 -47.3486
   -47.0933 -47.0922 -47.0521 -47.0514 -25.6271 -25.6201 -25.5872 -25.5740
   -25.5683 -25.5674 -25.4965 -25.4948 -25.4734 -25.4656 -25.4311 -25.4228
   -25.3893 -25.3842 -25.3739 -25.3631 -25.3322 -25.3305 -25.3222 -25.3116
   -25.1634 -25.1558 -25.1143 -25.1134 -25.0994 -25.0897 -25.0350 -25.0326
   -25.0059 -24.9977 -24.9469 -24.9461 -24.9360 -24.9343 -24.8003 -24.7926
   -12.0623  -5.1520  -4.9368  -2.4765  -1.6741  -1.5810  -0.7259  -0.5534
    -0.0548  -0.0437   0.0392   0.0667   0.0946   0.2038   0.7841   0.7942
     0.8605   0.8707   0.8797   0.9655   1.2412   1.3002   1.3215   1.3632
     1.4072   1.4195   1.6152   1.6900   1.6967   1.8185   1.8489   1.8657
     1.9244   2.0762   2.0834   2.2969   2.4373

          k =-0.0779 0.0749 0.0000 ( 22856 PWs)   bands (ev):

   -47.4232 -47.4124 -47.4005 -47.3892 -47.3838 -47.3712 -47.3611 -47.3451
   -47.1003 -47.0799 -47.0647 -47.0442 -25.6283 -25.5969 -25.5874 -25.5811
   -25.5588 -25.5365 -25.5000 -25.4957 -25.4851 -25.4689 -25.4596 -25.4441
   -25.4351 -25.4237 -25.3932 -25.3778 -25.3199 -25.2976 -25.2418 -25.2288
   -25.1700 -25.1606 -25.1444 -25.1347 -25.1086 -25.0939 -25.0909 -25.0517
   -24.9701 -24.9577 -24.9499 -24.9394 -24.9309 -24.9068 -24.8366 -24.7919
   -12.0622  -5.1511  -4.9375  -2.4862  -1.8358  -1.1897  -0.7723  -0.5898
    -0.3778  -0.1026   0.0178   0.1323   0.3180   0.3778   0.6742   0.7035
     0.7488   0.7853   0.8518   1.0680   1.1677   1.2386   1.2843   1.3758
     1.4590   1.5047   1.5350   1.6160   1.6900   1.7931   1.8757   1.9536
     2.0167   2.0289   2.0767   2.1698   2.4624

          k =-0.0779 0.1049 0.0000 ( 22856 PWs)   bands (ev):

   -47.4232 -47.4125 -47.4005 -47.3888 -47.3838 -47.3716 -47.3611 -47.3450
   -47.1003 -47.0798 -47.0648 -47.0441 -25.6283 -25.5962 -25.5885 -25.5809
   -25.5588 -25.5372 -25.5001 -25.4956 -25.4853 -25.4695 -25.4586 -25.4440
   -25.4355 -25.4235 -25.3930 -25.3774 -25.3199 -25.2973 -25.2417 -25.2280
   -25.1696 -25.1608 -25.1453 -25.1347 -25.1086 -25.0933 -25.0920 -25.0516
   -24.9701 -24.9576 -24.9499 -24.9393 -24.9309 -24.9065 -24.8370 -24.7919
   -12.0622  -5.1521  -4.9362  -2.4840  -1.8355  -1.1897  -0.7741  -0.5888
    -0.3807  -0.1020   0.0166   0.1344   0.3158   0.3745   0.6765   0.7016
     0.7523   0.7814   0.8540   1.0710   1.1625   1.2307   1.2941   1.3744
     1.4550   1.5024   1.5331   1.6210   1.6887   1.7957   1.8734   1.9429
     2.0175   2.0360   2.0769   2.1730   2.4629

          k =-0.0779-0.0450 0.0000 ( 22880 PWs)   bands (ev):

   -47.4157 -47.4142 -47.4083 -47.3981 -47.3703 -47.3686 -47.3632 -47.3482
   -47.0940 -47.0915 -47.0528 -47.0506 -25.6267 -25.6204 -25.5864 -25.5751
   -25.5690 -25.5674 -25.4971 -25.4946 -25.4738 -25.4654 -25.4317 -25.4225
   -25.3890 -25.3842 -25.3733 -25.3622 -25.3323 -25.3303 -25.3225 -25.3099
   -25.1635 -25.1556 -25.1145 -25.1133 -25.0995 -25.0915 -25.0345 -25.0326
   -25.0053 -24.9981 -24.9476 -24.9454 -24.9359 -24.9343 -24.8012 -24.7921
   -12.0621  -5.1539  -4.9342  -2.4720  -1.6723  -1.5829  -0.7261  -0.5572
    -0.0557  -0.0433   0.0364   0.0659   0.0965   0.1986   0.7829   0.7930
     0.8612   0.8691   0.8795   0.9654   1.2362   1.3020   1.3207   1.3579
     1.4081   1.4232   1.6145   1.6870   1.7027   1.8128   1.8514   1.8662
     1.9195   2.0766   2.0837   2.2933   2.4455

     the Fermi energy is     1.8156 ev

!    total energy              =   -1212.15800394 Ry
     Harris-Foulkes estimate   =   -1212.15801435 Ry
     estimated scf accuracy    <       0.00000439 Ry

     The total energy is the sum of the following terms:

     one-electron contribution =   -8487.35081578 Ry
     hartree contribution      =    4238.13931108 Ry
     xc contribution           =    -226.57605066 Ry
     ewald contribution        =    3263.74948836 Ry
     electric field correction =       0.00010078 Ry
     smearing contrib. (-TS)   =      -0.12003772 Ry

     convergence has been achieved in  10 iterations
 
 BEEF-vdW xc energy contributions
           1 :   -193.934340369314     
           2 :    175.396728388264     
           3 :   -144.210720431489     
           4 :    109.199800370926     
           5 :   -78.2751270196008     
           6 :    55.7044258559119     
           7 :   -41.4683863889744     
           8 :    32.5984786637622     
           9 :   -25.4880760897211     
          10 :    17.8670041279634     
          11 :   -9.54992064525862     
          12 :    1.87117478887120     
          13 :    3.58099636483396     
          14 :   -6.08270990535053     
          15 :    6.15698404709090     
          16 :   -5.14947940420046     
          17 :    4.38425432200566     
          18 :   -4.46013130086911     
          19 :    5.08401877933696     
          20 :   -5.46677700285287     
          21 :    4.96415516162884     
          22 :   -3.53277937777520     
          23 :    1.73528517706785     
          24 :  -0.343874362526606     
          25 :  -0.157009632194615     
          26 :  -0.163146541829548     
          27 :   0.790859215140813     
          28 :   -1.14257416072198     
          29 :   0.936653114691410     
          30 :  -0.329865198999897     
          31 :   -22.5933318701974     
          32 :   -16.8257475283810     

     Forces acting on atoms (Ry/au):


     negative rho (up, down):  7.492E-01 0.000E+00
     atom    1 type  1   force =     0.00036581    0.00013181    0.01361637
     atom    2 type  1   force =    -0.00031254    0.00019635    0.01362955
     atom    3 type  1   force =    -0.00008504   -0.00036904    0.01362524
     atom    4 type  1   force =     0.00009044    0.00000880    0.01425630
     atom    5 type  1   force =    -0.00035525    0.00303168   -0.00351362
     atom    6 type  1   force =     0.00008409   -0.00007006    0.00020358
     atom    7 type  1   force =    -0.00244503   -0.00189820   -0.00322666
     atom    8 type  1   force =     0.00279341   -0.00102840   -0.00392866
     atom    9 type  1   force =     0.00135779    0.00013402   -0.03368640
     atom   10 type  1   force =    -0.00405043    0.00714327   -0.00815120
     atom   11 type  1   force =     0.00804020   -0.00071205   -0.00769777
     atom   12 type  1   force =    -0.00385894   -0.00639065   -0.00740405
     atom   13 type  2   force =     0.03197512    0.00034741    0.04812174
     atom   14 type  3   force =    -0.02690469    0.00564839   -0.02309839
     atom   15 type  3   force =    -0.00852012   -0.00562646   -0.00681883
     atom   16 type  3   force =     0.00182517   -0.00054686   -0.00592720

     Total force =     0.079514     Total SCF correction =     0.003293


     entering subroutine stress ...


     negative rho (up, down):  7.492E-01 0.000E+00
          total   stress  (Ry/bohr**3)                   (kbar)     P=  -11.90
  -0.00008405   0.00000025  -0.00000617        -12.36      0.04     -0.91
   0.00000025  -0.00007796  -0.00000018          0.04    -11.47     -0.03
  -0.00000617  -0.00000018  -0.00008070         -0.91     -0.03    -11.87


     number of scf cycles    =   2
     number of bfgs steps    =   1

     energy   old            =   -1212.1241609721 Ry
     energy   new            =   -1212.1580039363 Ry

     CASE: energy  _new < energy  _old

     new trust radius        =       0.0945773578 bohr
     new conv_thr            =       0.0000001000 Ry


ATOMIC_POSITIONS (crystal)
Zr1      0.166666667   0.166666667   0.396150897    0   0   0
Zr1      0.666666667   0.166666667   0.396150897    0   0   0
Zr1      0.166666667   0.666666667   0.396150897    0   0   0
Zr1      0.666666667   0.666666667   0.396150897    0   0   0
Zr1      0.833333333   0.333333333   0.500000000    0   0   0
Zr1      0.333333333   0.333333333   0.500000000    0   0   0
Zr1      0.833333333   0.833333333   0.500000000    0   0   0
Zr1      0.333333333   0.833333333   0.500000000    0   0   0
Zr1      0.000289133   0.000030205   0.602037743
Zr1      0.498326176   0.001306613   0.603361855
Zr1      0.001209560   0.500229671   0.603354689
Zr1      0.500300020   0.498564671   0.603444774
C1       0.340880612   0.333269134   0.673775393
H1       0.492814858   0.334893110   0.691284346
H1       0.185610761   0.488009459   0.692244556
H1       0.343459191   0.177045888   0.692294429



     Writing output data file calc.save
     Check: negative starting charge=   -0.729574
     NEW-OLD atomic charge density approx. for the potential
     Check: negative starting charge=   -0.728550

     negative rho (up, down):  7.481E-01 0.000E+00
 
     Adding external electric field

     Computed dipole along edir(3) : 
        Dipole                0.2207 Ry au,          0.5609 Debye
        Dipole field          0.0005 Ry au
 
        Potential amp.       -0.0424 Ry
        Total length         46.5096 bohr
 

     total cpu time spent up to now is      437.2 secs

     per-process dynamical memory:    51.8 Mb

     Self-consistent Calculation

     iteration #  1     ecut=    36.75 Ry     beta=0.30
     Davidson diagonalization with overlap
     ethr =  1.00E-06,  avg # of iterations = 10.2

     negative rho (up, down):  7.482E-01 0.000E+00
 
     Adding external electric field

     Computed dipole along edir(3) : 
        Dipole                0.5760 Ry au,          1.4640 Debye
        Dipole field          0.0012 Ry au
 
        Potential amp.       -0.1107 Ry
        Total length         46.5096 bohr
 

     total cpu time spent up to now is      459.2 secs

     total energy              =   -1212.15579181 Ry
     Harris-Foulkes estimate   =   -1212.16332118 Ry
[...]
   -24.9340 -24.9303 -24.8876 -24.8864 -24.8732 -24.8448 -24.7533 -24.7186
   -12.0473  -5.1069  -5.0868  -3.0805  -2.4025  -1.5852  -0.9725  -0.7992
    -0.7096  -0.6941  -0.5562  -0.5047  -0.4085  -0.0947  -0.0246   0.0093
     0.0628   0.0713   0.2583   0.8623   0.8701   1.1262   1.6650   1.8317
     1.9616   2.0461   2.1568   2.2369   2.3789   2.3931   2.4180   2.5550
     2.6508   2.6742   2.7494   2.7889   2.8022

          k = 0.0260 0.0450 0.0000 ( 22896 PWs)   bands (ev):

   -47.4766 -47.4666 -47.4154 -47.4148 -47.4140 -47.4024 -47.3981 -47.2436
   -47.1023 -47.0518 -47.0447 -47.0330 -25.7360 -25.7026 -25.6853 -25.6756
   -25.6699 -25.6273 -25.6176 -25.5697 -25.5692 -25.5602 -25.5074 -25.4581
   -25.4431 -25.4031 -25.3395 -25.3180 -25.2355 -25.2318 -25.2196 -25.2102
   -25.2061 -25.1933 -25.1890 -25.1355 -25.1229 -25.0969 -25.0580 -24.9588
   -24.9472 -24.9288 -24.9226 -24.8831 -24.8636 -24.8552 -24.8250 -24.7399
   -12.0449  -5.1239  -5.0861  -2.7566  -2.2189  -1.2995  -0.7723  -0.7539
    -0.6237  -0.5158  -0.4506  -0.2377  -0.1231   0.1280   0.2078   0.2620
     0.2686   0.3341   0.5135   0.9375   0.9562   1.0924   1.5419   1.6641
     1.7030   1.7935   1.8737   1.9554   2.1040   2.1639   2.2333   2.2931
     2.3919   2.4435   2.5272   2.5418   2.6239

          k = 0.0260-0.1049 0.0000 ( 22856 PWs)   bands (ev):

   -47.4577 -47.4538 -47.4342 -47.4245 -47.4177 -47.4037 -47.3951 -47.2448
   -47.0868 -47.0652 -47.0497 -47.0306 -25.6733 -25.6423 -25.6302 -25.6143
   -25.5983 -25.5630 -25.5387 -25.5304 -25.5190 -25.5030 -25.4938 -25.4769
   -25.4644 -25.4479 -25.4173 -25.3956 -25.3483 -25.3108 -25.2703 -25.2325
   -25.1908 -25.1688 -25.1624 -25.1406 -25.1085 -25.0980 -25.0671 -25.0321
   -24.9564 -24.9451 -24.9264 -24.9183 -24.8980 -24.8637 -24.8237 -24.7770
   -12.0426  -5.1395  -5.0860  -2.3551  -1.8572  -1.2369  -0.8055  -0.6394
    -0.4297  -0.1600  -0.0310   0.0429   0.2412   0.3266   0.5698   0.6207
     0.6680   0.7307   0.8047   1.0328   1.0848   1.1733   1.2210   1.3222
     1.4042   1.4644   1.4796   1.5853   1.6147   1.7410   1.8488   1.9429
     1.9603   2.0377   2.0583   2.1172   2.4093

          k = 0.0260-0.0749 0.0000 ( 22856 PWs)   bands (ev):

   -47.4578 -47.4540 -47.4342 -47.4237 -47.4177 -47.4043 -47.3951 -47.2448
   -47.0869 -47.0650 -47.0499 -47.0305 -25.6732 -25.6423 -25.6302 -25.6143
   -25.5983 -25.5630 -25.5385 -25.5305 -25.5186 -25.5029 -25.4939 -25.4768
   -25.4649 -25.4480 -25.4167 -25.3960 -25.3484 -25.3110 -25.2703 -25.2330
   -25.1908 -25.1691 -25.1634 -25.1406 -25.1089 -25.0974 -25.0665 -25.0311
   -24.9563 -24.9450 -24.9266 -24.9184 -24.8982 -24.8637 -24.8231 -24.7776
   -12.0426  -5.1411  -5.0843  -2.3546  -1.8574  -1.2369  -0.8047  -0.6402
    -0.4309  -0.1608  -0.0304   0.0417   0.2432   0.3277   0.5738   0.6205
     0.6687   0.7293   0.8047   1.0348   1.0829   1.1744   1.2218   1.3227
     1.4042   1.4620   1.4781   1.5842   1.6130   1.7432   1.8455   1.9426
     1.9602   2.0363   2.0587   2.1179   2.4108

          k = 0.0260-0.0450 0.0000 ( 22896 PWs)   bands (ev):

   -47.4766 -47.4668 -47.4149 -47.4147 -47.4125 -47.4042 -47.3981 -47.2436
   -47.1023 -47.0514 -47.0452 -47.0328 -25.7358 -25.7027 -25.6856 -25.6753
   -25.6699 -25.6266 -25.6179 -25.5694 -25.5690 -25.5599 -25.5075 -25.4578
   -25.4441 -25.4033 -25.3391 -25.3181 -25.2356 -25.2318 -25.2196 -25.2118
   -25.2062 -25.1944 -25.1888 -25.1354 -25.1227 -25.0970 -25.0566 -24.9583
   -24.9469 -24.9290 -24.9225 -24.8833 -24.8638 -24.8551 -24.8240 -24.7407
   -12.0449  -5.1282  -5.0817  -2.7563  -2.2186  -1.2992  -0.7732  -0.7543
    -0.6224  -0.5161  -0.4522  -0.2397  -0.1211   0.1286   0.2123   0.2617
     0.2706   0.3307   0.5149   0.9351   0.9579   1.0933   1.5403   1.6621
     1.7039   1.7963   1.8720   1.9546   2.1057   2.1648   2.2325   2.2944
     2.3893   2.4432   2.5232   2.5433   2.6150

          k = 0.0519-0.0300 0.0000 ( 22852 PWs)   bands (ev):

   -47.4714 -47.4633 -47.4260 -47.4161 -47.4041 -47.4033 -47.4032 -47.2440
   -47.0981 -47.0584 -47.0399 -47.0356 -25.7174 -25.6937 -25.6669 -25.6634
   -25.6351 -25.6253 -25.5704 -25.5602 -25.5589 -25.5469 -25.5048 -25.4676
   -25.4443 -25.4151 -25.3224 -25.3176 -25.3161 -25.2870 -25.2478 -25.2057
   -25.1963 -25.1875 -25.1576 -25.1488 -25.1112 -25.1042 -25.0604 -24.9557
   -24.9428 -24.9395 -24.9260 -24.9140 -24.8877 -24.8542 -24.8211 -24.7458
   -12.0441  -5.1268  -5.0886  -2.6222  -2.1411  -1.1899  -1.0631  -0.5792
    -0.4506  -0.3691  -0.2838  -0.1885  -0.1318   0.1415   0.3170   0.4004
     0.4022   0.4778   0.6294   0.9632   0.9881   1.1085   1.3919   1.5651
     1.6404   1.7295   1.7348   1.8544   2.0431   2.0510   2.1373   2.2181
     2.2917   2.3050   2.4029   2.4319   2.4524

          k = 0.0519 0.0000 0.0000 ( 22896 PWs)   bands (ev):

   -47.4766 -47.4667 -47.4150 -47.4148 -47.4135 -47.4032 -47.3981 -47.2436
   -47.1023 -47.0517 -47.0449 -47.0330 -25.7359 -25.7027 -25.6854 -25.6755
   -25.6698 -25.6271 -25.6177 -25.5696 -25.5690 -25.5600 -25.5075 -25.4579
   -25.4437 -25.4032 -25.3393 -25.3180 -25.2355 -25.2318 -25.2196 -25.2110
   -25.2062 -25.1939 -25.1887 -25.1355 -25.1228 -25.0969 -25.0573 -24.9585
   -24.9470 -24.9290 -24.9225 -24.8832 -24.8637 -24.8551 -24.8244 -24.7403
   -12.0449  -5.1122  -5.0980  -2.7562  -2.2187  -1.2993  -0.7728  -0.7541
    -0.6230  -0.5159  -0.4516  -0.2389  -0.1219   0.1284   0.2101   0.2619
     0.2698   0.3322   0.5141   0.9363   0.9570   1.0928   1.5410   1.6630
     1.7035   1.7953   1.8730   1.9550   2.1050   2.1643   2.2330   2.2937
     2.3905   2.4432   2.5247   2.5429   2.6190

          k = 0.0519 0.0300 0.0000 ( 22852 PWs)   bands (ev):

   -47.4714 -47.4629 -47.4260 -47.4186 -47.4036 -47.4032 -47.4017 -47.2441
   -47.0981 -47.0586 -47.0392 -47.0362 -25.7173 -25.6940 -25.6668 -25.6632
   -25.6350 -25.6262 -25.5705 -25.5611 -25.5591 -25.5472 -25.5047 -25.4676
   -25.4431 -25.4143 -25.3225 -25.3177 -25.3148 -25.2878 -25.2479 -25.2046
   -25.1946 -25.1873 -25.1568 -25.1495 -25.1118 -25.1041 -25.0617 -24.9553
   -24.9436 -24.9399 -24.9260 -24.9147 -24.8880 -24.8552 -24.8203 -24.7451
   -12.0442  -5.1176  -5.0979  -2.6230  -2.1414  -1.1904  -1.0620  -0.5794
    -0.4517  -0.3680  -0.2830  -0.1869  -0.1317   0.1390   0.3136   0.4001
     0.4023   0.4781   0.6282   0.9644   0.9898   1.1046   1.3926   1.5658
     1.6426   1.7285   1.7349   1.8563   2.0443   2.0508   2.1393   2.2205
     2.2952   2.3074   2.4019   2.4269   2.4551

          k = 0.0519-0.1199 0.0000 ( 22856 PWs)   bands (ev):

   -47.4577 -47.4536 -47.4342 -47.4254 -47.4177 -47.4031 -47.3951 -47.2448
   -47.0868 -47.0653 -47.0496 -47.0306 -25.6732 -25.6423 -25.6304 -25.6144
   -25.5986 -25.5635 -25.5387 -25.5309 -25.5188 -25.5027 -25.4941 -25.4767
   -25.4641 -25.4478 -25.4170 -25.3956 -25.3484 -25.3104 -25.2703 -25.2325
   -25.1907 -25.1681 -25.1620 -25.1406 -25.1085 -25.0986 -25.0676 -25.0321
   -24.9567 -24.9452 -24.9264 -24.9183 -24.8983 -24.8640 -24.8231 -24.7770
   -12.0426  -5.1285  -5.0972  -2.3552  -1.8572  -1.2367  -0.8053  -0.6398
    -0.4298  -0.1592  -0.0316   0.0433   0.2418   0.3250   0.5699   0.6190
     0.6689   0.7304   0.8043   1.0340   1.0838   1.1734   1.2214   1.3217
     1.4041   1.4635   1.4803   1.5862   1.6149   1.7426   1.8476   1.9428
     1.9605   2.0392   2.0608   2.1170   2.4090

          k = 0.0519-0.0899 0.0000 ( 22914 PWs)   bands (ev):

   -47.4493 -47.4373 -47.4371 -47.4371 -47.4283 -47.4053 -47.3921 -47.2451
   -47.0768 -47.0668 -47.0608 -47.0280 -25.6308 -25.6026 -25.5915 -25.5789
   -25.5589 -25.5540 -25.5438 -25.5111 -25.5047 -25.5001 -25.4687 -25.4667
   -25.4638 -25.4622 -25.4439 -25.4393 -25.4270 -25.3862 -25.2063 -25.2046
   -25.2029 -25.2015 -25.1707 -25.1504 -25.1157 -25.1072 -25.0540 -25.0323
   -25.0196 -24.9453 -24.9260 -24.9093 -24.8834 -24.8443 -24.8325 -24.8215
   -12.0418  -5.1340  -5.0966  -2.2487  -1.3063  -1.2614  -1.2432  -0.3777
    -0.3211  -0.2844   0.3072   0.4528   0.4616   0.4891   0.5243   0.6471
     0.8543   0.9510   0.9610   0.9947   1.0738   1.0916   1.1074   1.1078
     1.1433   1.2527   1.2840   1.5394   1.6151   1.6606   1.6628   1.7190
     1.7219   1.8589   1.9049   1.9504   2.0647

          k = 0.0519-0.0599 0.0000 ( 22856 PWs)   bands (ev):

   -47.4579 -47.4542 -47.4342 -47.4229 -47.4177 -47.4049 -47.3951 -47.2447
   -47.0870 -47.0650 -47.0499 -47.0305 -25.6732 -25.6422 -25.6301 -25.6143
   -25.5980 -25.5626 -25.5384 -25.5301 -25.5189 -25.5031 -25.4937 -25.4770
   -25.4651 -25.4482 -25.4170 -25.3960 -25.3483 -25.3112 -25.2703 -25.2332
   -25.1909 -25.1696 -25.1638 -25.1407 -25.1090 -25.0970 -25.0661 -25.0310
   -24.9560 -24.9450 -24.9266 -24.9183 -24.8979 -24.8632 -24.8237 -24.7778
   -12.0426  -5.1354  -5.0902  -2.3538  -1.8575  -1.2373  -0.8050  -0.6396
    -0.4310  -0.1619  -0.0295   0.0413   0.2425   0.3297   0.5738   0.6225
     0.6681   0.7294   0.8051   1.0331   1.0843   1.1747   1.2215   1.3231
     1.4043   1.4619   1.4774   1.5836   1.6133   1.7414   1.8466   1.9418
     1.9599   2.0349   2.0563   2.1179   2.4111

          k =-0.0779 0.0450 0.0000 ( 22880 PWs)   bands (ev):

   -47.4555 -47.4484 -47.4479 -47.4243 -47.4041 -47.4033 -47.4033 -47.2448
   -47.0840 -47.0727 -47.0401 -47.0356 -25.6793 -25.6502 -25.6297 -25.6218
   -25.6017 -25.5863 -25.5315 -25.5258 -25.5104 -25.4964 -25.4663 -25.4557
   -25.4490 -25.4172 -25.4078 -25.3689 -25.3595 -25.3551 -25.3535 -25.2730
   -25.1670 -25.1492 -25.1462 -25.1376 -25.1138 -25.0826 -25.0245 -25.0149
   -24.9844 -24.9791 -24.9379 -24.9239 -24.9126 -24.8669 -24.7940 -24.7735
   -12.0426  -5.1357  -5.0901  -2.3314  -1.7164  -1.6197  -0.7647  -0.5978
    -0.1102  -0.1043  -0.0290   0.0031   0.0432   0.1373   0.6678   0.7218
     0.7838   0.7900   0.8199   0.9352   1.1607   1.2331   1.2655   1.2875
     1.3648   1.3937   1.5688   1.5894   1.6614   1.7939   1.8090   1.8133
     1.9338   2.0206   2.0972   2.1918   2.4589

          k =-0.0779 0.0749 0.0000 ( 22856 PWs)   bands (ev):

   -47.4579 -47.4541 -47.4342 -47.4233 -47.4177 -47.4046 -47.3951 -47.2448
   -47.0869 -47.0651 -47.0498 -47.0305 -25.6732 -25.6422 -25.6302 -25.6143
   -25.5980 -25.5628 -25.5384 -25.5301 -25.5190 -25.5031 -25.4936 -25.4770
   -25.4650 -25.4481 -25.4173 -25.3962 -25.3483 -25.3106 -25.2703 -25.2334
   -25.1908 -25.1692 -25.1635 -25.1406 -25.1087 -25.0975 -25.0664 -25.0315
   -24.9560 -24.9450 -24.9266 -24.9182 -24.8979 -24.8632 -24.8239 -24.7775
   -12.0426  -5.1293  -5.0964  -2.3538  -1.8575  -1.2373  -0.8052  -0.6395
    -0.4303  -0.1619  -0.0298   0.0418   0.2418   0.3293   0.5723   0.6212
     0.6690   0.7299   0.8051   1.0327   1.0847   1.1741   1.2213   1.3225
     1.4037   1.4633   1.4780   1.5842   1.6133   1.7415   1.8488   1.9416
     1.9602   2.0355   2.0554   2.1173   2.4105

          k =-0.0779 0.1049 0.0000 ( 22856 PWs)   bands (ev):

   -47.4577 -47.4537 -47.4342 -47.4250 -47.4177 -47.4034 -47.3951 -47.2448
   -47.0868 -47.0653 -47.0496 -47.0306 -25.6731 -25.6423 -25.6303 -25.6144
   -25.5985 -25.5634 -25.5387 -25.5308 -25.5186 -25.5027 -25.4943 -25.4767
   -25.4644 -25.4478 -25.4167 -25.3954 -25.3484 -25.3110 -25.2703 -25.2323
   -25.1908 -25.1686 -25.1624 -25.1406 -25.1090 -25.0980 -25.0671 -25.0318
   -24.9566 -24.9452 -24.9264 -24.9184 -24.8984 -24.8641 -24.8228 -24.7773
   -12.0426  -5.1226  -5.1031  -2.3548  -1.8573  -1.2367  -0.8051  -0.6400
    -0.4306  -0.1592  -0.0314   0.0425   0.2428   0.3256   0.5716   0.6205
     0.6682   0.7298   0.8038   1.0343   1.0833   1.1736   1.2221   1.3225
     1.4049   1.4632   1.4790   1.5856   1.6144   1.7422   1.8453   1.9431
     1.9600   2.0385   2.0613   2.1177   2.4096

          k =-0.0779-0.0450 0.0000 ( 22880 PWs)   bands (ev):

   -47.4544 -47.4484 -47.4478 -47.4275 -47.4037 -47.4032 -47.4017 -47.2448
   -47.0836 -47.0731 -47.0394 -47.0362 -25.6791 -25.6507 -25.6297 -25.6214
   -25.6029 -25.5875 -25.5330 -25.5273 -25.5095 -25.4963 -25.4641 -25.4559
   -25.4477 -25.4173 -25.4078 -25.3685 -25.3582 -25.3552 -25.3539 -25.2721
   -25.1646 -25.1488 -25.1462 -25.1367 -25.1135 -25.0844 -25.0257 -25.0161
   -24.9840 -24.9802 -24.9384 -24.9240 -24.9131 -24.8675 -24.7929 -24.7732
   -12.0426  -5.1258  -5.1001  -2.3335  -1.7165  -1.6185  -0.7650  -0.5967
    -0.1111  -0.1044  -0.0249  -0.0012   0.0470   0.1325   0.6664   0.7171
     0.7815   0.7932   0.8185   0.9338   1.1642   1.2316   1.2673   1.2846
     1.3683   1.3890   1.5707   1.5910   1.6636   1.7925   1.8110   1.8147
     1.9382   2.0222   2.1054   2.1962   2.4608

     the Fermi energy is     1.7782 ev

!    total energy              =   -1212.17944343 Ry
     Harris-Foulkes estimate   =   -1212.17944335 Ry
     estimated scf accuracy    <       0.00000005 Ry

     The total energy is the sum of the following terms:

     one-electron contribution =   -8568.13869657 Ry
     hartree contribution      =    4278.51573270 Ry
     xc contribution           =    -226.70588636 Ry
     ewald contribution        =    3304.26554842 Ry
     electric field correction =       0.00008840 Ry
     smearing contrib. (-TS)   =      -0.11623004 Ry

     convergence has been achieved in  10 iterations
 
 BEEF-vdW xc energy contributions
           1 :   -194.059344977205     
           2 :    175.542822783605     
           3 :   -144.380239867058     
           4 :    109.361661753507     
           5 :   -78.3790071053209     
           6 :    55.7199505442730     
           7 :   -41.4129877543187     
           8 :    32.5298285394080     
           9 :   -25.4678507880898     
          10 :    17.9224899254219     
          11 :   -9.65809396433707     
          12 :    1.97316822558622     
          13 :    3.54470059897130     
          14 :   -6.13659902922603     
          15 :    6.27434290463432     
          16 :   -5.26605291225374     
          17 :    4.43656370483922     
          18 :   -4.42635938852663     
          19 :    4.99988199728054     
          20 :   -5.40342947890679     
          21 :    4.98111218494245     
          22 :   -3.63779161265555     
          23 :    1.87928654793814     
          24 :  -0.454244159676165     
          25 :  -0.128471467526026     
          26 :  -0.115942595455124     
          27 :   0.721120115333065     
          28 :   -1.11343935578532     
          29 :   0.980431509186559     
          30 :  -0.429895248707112     
          31 :   -22.6025961204085     
          32 :   -16.8385605592441     

     Forces acting on atoms (Ry/au):


     negative rho (up, down):  7.476E-01 0.000E+00
     atom    1 type  1   force =    -0.00028962   -0.00015016    0.01243929
     atom    2 type  1   force =     0.00027249   -0.00019084    0.01246131
     atom    3 type  1   force =    -0.00001157    0.00033270    0.01244916
     atom    4 type  1   force =    -0.00001771    0.00000667    0.01120364
     atom    5 type  1   force =     0.00037452    0.01095396   -0.01447395
     atom    6 type  1   force =     0.00047223   -0.00002517   -0.00435722
     atom    7 type  1   force =    -0.00921199   -0.00529648   -0.01485542
     atom    8 type  1   force =     0.00974145   -0.00571631   -0.01428457
     atom    9 type  1   force =    -0.00042088    0.00001148   -0.00034334
     atom   10 type  1   force =    -0.00022398   -0.00022999    0.00031991
     atom   11 type  1   force =    -0.00085479   -0.00004208    0.00046042
     atom   12 type  1   force =    -0.00033033    0.00033132    0.00024453
     atom   13 type  2   force =     0.00065547    0.00052827    0.00070665
     atom   14 type  3   force =     0.00078513   -0.00026013   -0.00087527
     atom   15 type  3   force =    -0.00063692   -0.00058556   -0.00074372
     atom   16 type  3   force =    -0.00030348    0.00033234   -0.00035140

     Total force =     0.002451     Total SCF correction =     0.000614
     SCF correction compared to forces is large: reduce conv_thr to get better values


     entering subroutine stress ...


     negative rho (up, down):  7.476E-01 0.000E+00
          total   stress  (Ry/bohr**3)                   (kbar)     P=   -8.52
  -0.00006582  -0.00000083  -0.00000073         -9.68     -0.12     -0.11
  -0.00000083  -0.00006654  -0.00000000         -0.12     -9.79     -0.00
  -0.00000073  -0.00000000  -0.00004137         -0.11     -0.00     -6.09


     bfgs converged in  29 scf cycles and  28 bfgs steps
     (criteria: energy <  1.0E+00, force <  1.9E-03)

     End of BFGS Geometry Optimization

     Final energy   =   -1212.1794434347 Ry
Begin final coordinates

ATOMIC_POSITIONS (crystal)
Zr1      0.166666667   0.166666667   0.396150897    0   0   0
Zr1      0.666666667   0.166666667   0.396150897    0   0   0
Zr1      0.166666667   0.666666667   0.396150897    0   0   0
Zr1      0.666666667   0.666666667   0.396150897    0   0   0
Zr1      0.833333333   0.333333333   0.500000000    0   0   0
Zr1      0.333333333   0.333333333   0.500000000    0   0   0
Zr1      0.833333333   0.833333333   0.500000000    0   0   0
Zr1      0.333333333   0.833333333   0.500000000    0   0   0
Zr1      0.001365543  -0.000087128   0.595051890
Zr1      0.497519468   0.007867069   0.602009831
Zr1      0.009734690   0.496304552   0.601972068
Zr1      0.497985992   0.495520788   0.602091390
C1       0.333917074   0.333135746   0.674255529
H1       0.423486133   0.423574646   0.693112998
H1       0.153559101   0.423535894   0.692968121
H1       0.424391485   0.152488916   0.692855037
End final coordinates



     Writing output data file calc.save
 
     init_run     :      6.93s CPU      7.36s WALL (       1 calls)
     electrons    :   4265.94s CPU   4505.06s WALL (      29 calls)
     update_pot   :     35.17s CPU     36.67s WALL (      28 calls)
     forces       :    145.97s CPU    148.94s WALL (      29 calls)
     stress       :    453.18s CPU    458.24s WALL (      29 calls)

     Called by init_run:
     wfcinit      :      4.78s CPU      5.10s WALL (       1 calls)
     potinit      :      0.70s CPU      0.76s WALL (       1 calls)

     Called by electrons:
     c_bands      :   2989.49s CPU   3145.81s WALL (     316 calls)
     sum_band     :    525.07s CPU    554.81s WALL (     316 calls)
     v_of_rho     :    153.51s CPU    172.83s WALL (     339 calls)
     newd         :    205.50s CPU    210.47s WALL (     339 calls)
     mix_rho      :      5.60s CPU      6.01s WALL (     316 calls)
     vdW_energy   :    132.41s CPU    140.48s WALL (    1383 calls)
     vdW_ffts     :    190.98s CPU    217.78s WALL (    2824 calls)
     vdW_v        :     85.52s CPU     89.53s WALL (    1383 calls)

     Called by c_bands:
     init_us_2    :     28.14s CPU     28.37s WALL (   13820 calls)
     cegterg      :   2835.13s CPU   2990.56s WALL (    6320 calls)

     Called by *egterg:
     h_psi        :   1538.99s CPU   1675.42s WALL (   34757 calls)
     s_psi        :    143.31s CPU    143.74s WALL (   34757 calls)
     g_psi        :      9.85s CPU      9.93s WALL (   28417 calls)
     cdiaghg      :    556.00s CPU    565.70s WALL (   34057 calls)

     Called by h_psi:
     add_vuspsi   :    143.39s CPU    143.88s WALL (   34757 calls)

     General routines
     calbec       :    219.43s CPU    231.22s WALL (   42237 calls)
     fft          :    316.23s CPU    355.65s WALL (   83413 calls)
     ffts         :      0.49s CPU      0.55s WALL (     655 calls)
     fftw         :   1191.86s CPU   1315.09s WALL ( 3415998 calls)
     interpolate  :      3.17s CPU      3.59s WALL (     655 calls)
     davcio       :      0.00s CPU      0.03s WALL (      20 calls)
 
     Parallel routines
     fft_scatter  :    814.49s CPU    921.67s WALL ( 3500066 calls)
 
     PWSCF        :     1h22m CPU        1h26m WALL

 
   This run was terminated on:  12:51:40  27Apr2018            

=------------------------------------------------------------------------------=
   JOB DONE.
=------------------------------------------------------------------------------=
