  python dir          : /u/if/mamunm/src/espresso
  espresso dir        : /nfs/slac/g/suncatfs/sw/espv18/espresso-dynpy-beef/bin
  pseudo dir          : /u/if/mamunm/psp/gbrv1.5pbe
  ase-espresso py git : GITVERSION



     Program PWSCF v.5.1rc2 (svn rev. 11289) starts on 25Apr2018 at  6:56:50 

     This program is part of the open-source Quantum ESPRESSO suite
     for quantum simulation of materials; please cite
         "P. Giannozzi et al., J. Phys.:Condens. Matter 21 395502 (2009);
          URL http://www.quantum-espresso.org", 
     in publications or presentations arising from this work. More details at
     http://www.quantum-espresso.org/quote

     Parallel version (MPI), running on    32 processors
     K-points division:     npool     =       4
     R & G space division:  proc/nbgrp/npool/nimage =       8
     Reading input from pw.inp
     Message from routine read_cards :
     DEPRECATED: no units specified in CELL_PARAMETERS card

     Current dimensions of program PWSCF are:
     Max number of different atomic species (ntypx) = 10
     Max number of k-points (npk) =  40000
     Max angular momentum in pseudopotentials (lmaxx) =  3
     Presently stress not available with electric field


     **************************************************************************
     Initializing libbeef V0.1.1 with the BEEF-vdW functional.
     Citation: Wellendorff et al., PRB 85, 235149 (2012).
     **************************************************************************


     IMPORTANT: XC functional enforced from input :
     Exchange-correlation      = BEEF-VDW ( 1  4 27 13 2)
     Any further DFT definition will be discarded
     Please, verify this is what you really want


     Subspace diagonalization in iterative solution of the eigenvalue problem:
     a serial algorithm will be used

 
     Parallelization info
     --------------------
     sticks:   dense  smooth     PW     G-vecs:    dense   smooth      PW
     Min         465     186     53                90387    22883    3523
     Max         466     187     55                90396    22907    3532
     Sum        3721    1495    433               723123   183131   28227
 


     bravais-lattice index     =            0
     lattice parameter (alat)  =       1.8897  a.u.
     unit-cell volume          =    6082.7792 (a.u.)^3
     number of atoms/cell      =           14
     number of atomic types    =            3
     number of electrons       =       149.00
     number of Kohn-Sham states=           84
     kinetic-energy cutoff     =      36.7493  Ry
     charge density cutoff     =     367.4932  Ry
     convergence threshold     =      1.0E-05
     mixing beta               =       0.3000
     number of iterations used =           10  plain     mixing
     Exchange-correlation      = BEEF-VDW ( 1  4 27 13 2)
     nstep                     =           50


     celldm(1)=   1.889726  celldm(2)=   0.000000  celldm(3)=   0.000000
     celldm(4)=   0.000000  celldm(5)=   0.000000  celldm(6)=   0.000000

     crystal axes: (cart. coord. in units of alat)
               a(1) = (   6.421223   0.000000   0.000000 )  
               a(2) = (   3.210611   5.560942   0.000000 )  
               a(3) = (   0.000000   0.000000  25.242906 )  

     reciprocal axes: (cart. coord. in units 2 pi/alat)
               b(1) = (  0.155734 -0.089913  0.000000 )  
               b(2) = (  0.000000  0.179826  0.000000 )  
               b(3) = (  0.000000  0.000000  0.039615 )  


     PseudoPot. # 1 for Zr read from file:
     /u/if/mamunm/psp/gbrv1.5pbe/Zr.UPF
     MD5 check sum: 5db81b1e868ab7776c4564c113de050b
     Pseudo is Ultrasoft + core correction, Zval = 12.0
     Generated by new atomic code, or converted to UPF format
     Using radial grid of  887 points,  6 beta functions with: 
                l(1) =   0
                l(2) =   0
                l(3) =   1
                l(4) =   1
                l(5) =   2
                l(6) =   2
     Q(r) pseudized with  6 coefficients,  rinner =    1.200   1.200   1.200
                                                       1.200   1.200

     PseudoPot. # 2 for C  read from file:
     /u/if/mamunm/psp/gbrv1.5pbe/C.UPF
     MD5 check sum: d1aef80898a10debaa0f26306b886e00
     Pseudo is Ultrasoft + core correction, Zval =  4.0
     Generated by new atomic code, or converted to UPF format
     Using radial grid of  721 points,  4 beta functions with: 
                l(1) =   0
                l(2) =   0
                l(3) =   1
                l(4) =   1
     Q(r) pseudized with  8 coefficients,  rinner =    1.100   1.100   1.100


     PseudoPot. # 3 for H  read from file:
     /u/if/mamunm/psp/gbrv1.5pbe/H.UPF
     MD5 check sum: 761ae9a214b05c3daf00ab9f6b793d6f
     Pseudo is Ultrasoft, Zval =  1.0
     Generated by new atomic code, or converted to UPF format
     Using radial grid of  615 points,  2 beta functions with: 
                l(1) =   0
                l(2) =   0
     Q(r) pseudized with  8 coefficients,  rinner =    0.700

     vdW kernel table read from file vdW_kernel_table
     MD5 check sum: 095c7af220d748ca6e76c0b4c6cfb241

     atomic species   valence    mass     pseudopotential
        Zr1           12.00    91.22400     Zr( 1.00)
        C1             4.00    12.01100     C ( 1.00)
        H1             1.00     1.00800     H ( 1.00)

     No symmetry found



   Cartesian axes

     site n.     atom                  positions (alat units)
         1           Zr1 tau(   1) = (   1.6053057   0.9268237  10.0000000  )
         2           Zr1 tau(   2) = (   4.8159170   0.9268237  10.0000000  )
         3           Zr1 tau(   3) = (   3.2106113   3.7072946  10.0000000  )
         4           Zr1 tau(   4) = (   6.4212227   3.7072946  10.0000000  )
         5           Zr1 tau(   5) = (   6.4212227   1.8536473  12.6214532  )
         6           Zr1 tau(   6) = (   3.2106113   1.8536473  12.6214532  )
         7           Zr1 tau(   7) = (   8.0265283   4.6341183  12.6214532  )
         8           Zr1 tau(   8) = (   4.8159170   4.6341183  12.6214532  )
         9           Zr1 tau(   9) = (   0.0000000   0.0000000  15.2429064  )
        10           Zr1 tau(  10) = (   3.2106113   0.0000000  15.2429064  )
        11           Zr1 tau(  11) = (   1.6053057   2.7804710  15.2429064  )
        12           Zr1 tau(  12) = (   4.8159170   2.7804710  15.2429064  )
        13           C1  tau(  13) = (   3.2106113   1.8536473  16.8744064  )
        14           H1  tau(  14) = (   3.2106113   1.8536473  17.9744064  )

     number of k points=    20  Fermi-Dirac smearing, width (Ry)=  0.0110
                       cart. coord. in units 2pi/alat
        k(    1) = (   0.0000000   0.0000000   0.0000000), wk =   0.0555556
        k(    2) = (   0.0000000   0.0299709   0.0000000), wk =   0.1111111
        k(    3) = (   0.0000000   0.0599419   0.0000000), wk =   0.1111111
        k(    4) = (   0.0000000  -0.0899128   0.0000000), wk =   0.0555556
        k(    5) = (   0.0259556  -0.0149855   0.0000000), wk =   0.1111111
        k(    6) = (   0.0259556   0.0149855   0.0000000), wk =   0.1111111
        k(    7) = (   0.0259556   0.0449564   0.0000000), wk =   0.1111111
        k(    8) = (   0.0259556  -0.1048983   0.0000000), wk =   0.1111111
        k(    9) = (   0.0259556  -0.0749274   0.0000000), wk =   0.1111111
        k(   10) = (   0.0259556  -0.0449564   0.0000000), wk =   0.1111111
        k(   11) = (   0.0519112  -0.0299709   0.0000000), wk =   0.1111111
        k(   12) = (   0.0519112   0.0000000   0.0000000), wk =   0.1111111
        k(   13) = (   0.0519112   0.0299709   0.0000000), wk =   0.1111111
        k(   14) = (   0.0519112  -0.1198838   0.0000000), wk =   0.1111111
        k(   15) = (   0.0519112  -0.0899128   0.0000000), wk =   0.1111111
        k(   16) = (   0.0519112  -0.0599419   0.0000000), wk =   0.1111111
        k(   17) = (  -0.0778668   0.0449564   0.0000000), wk =   0.0555556
        k(   18) = (  -0.0778668   0.0749274   0.0000000), wk =   0.1111111
        k(   19) = (  -0.0778668   0.1048983   0.0000000), wk =   0.1111111
        k(   20) = (  -0.0778668  -0.0449564   0.0000000), wk =   0.0555556

     Dense  grid:   723123 G-vectors     FFT dimensions: (  75,  75, 300)

     Smooth grid:   183131 G-vectors     FFT dimensions: (  48,  48, 192)

     Largest allocated arrays     est. size (Mb)     dimensions
        Kohn-Sham Wavefunctions         3.71 Mb     (    2896,   84)
        NL pseudopotentials             9.99 Mb     (    2896,  226)
        Each V/rho on FFT grid          3.26 Mb     (  213750)
        Each G-vector array             0.69 Mb     (   90391)
        G-vector shells                 0.18 Mb     (   23541)
     Largest temporary arrays     est. size (Mb)     dimensions
        Auxiliary wavefunctions        14.85 Mb     (    2896,  336)
        Each subspace H/S matrix        1.72 Mb     (     336,  336)
        Each <psi_i|beta_j> matrix      0.29 Mb     (     226,   84)
        Arrays for rho mixing          32.62 Mb     (  213750,   10)

     Initial potential from superposition of free atoms
     Check: negative starting charge=   -0.729045

     starting charge  148.97416, renormalised to  149.00000

     negative rho (up, down):  7.292E-01 0.000E+00


     ************************************************************************
     *
     * You are using vdW-DF for exchange-correlation in this calculation.
     * Please cite the following three references that made this development
     * possible:
     *
     *   M. Dion, H. Rydberg, E. Schroder, D. C. Langreth, and
     *   B. I. Lundqvist, Phys. Rev. Lett. 92, 246401 (2004).
     *
     *   T. Thonhauser, V. R. Cooper, S. Li, A. Puzder, P. Hyldgaard, and
     *   D. C. Langreth, Phys. Rev. B 76, 125112 (2007).
     *
     *   G. Roman-Perez and J. M. Soler, Phys. Rev. Lett. 103, 096102 (2009).
     *
     *
     * If you are using vdW-DF2, please also cite:
     *
     *   K. Lee, E. D. Murray, L. Kong, B. I. Lundqvist, and
     *   D. C. Langreth, Phys. Rev. B 82, 081101(R) (2010).
     *
     *
     * If you are calculating the stress with vdW-DF, please also cite:
     *
     *   R. Sabatini, E. Kucukbenli, B. Kolb, T. Thonhauser, and
     *   S. de Gironcoli, J. Phys.: Condens. Matter 24, 424209 (2012).
     *
     ************************************************************************

     Carrying out vdW-DF run using the following parameters:

     Nqs =      20    Nr_points =    1024   r_max =   100.000
     q_mesh =
               0.00001000     0.04494208     0.09755937     0.15916263
               0.23128650     0.31572767     0.41458969     0.53033537
               0.66584808     0.82450364     1.01025438     1.22772762
               1.48234092     1.78043706     2.12944203     2.53805004
               3.01644009     3.57652955     4.23227104     5.00000000

     Gradients computed in reciprocal space

     ************************************************************************


 
     Adding external electric field

     Computed dipole along edir(3) : 
        Dipole               -0.0069 Ry au,         -0.0176 Debye
        Dipole field         -0.0000 Ry au
 
        Potential amp.        0.0013 Ry
        Total length         46.5096 bohr
 
     Starting wfc are  161 randomized atomic wfcs

     total cpu time spent up to now is       15.7 secs

     per-process dynamical memory:    99.7 Mb

     Self-consistent Calculation

     iteration #  1     ecut=    36.75 Ry     beta=0.30
     Davidson diagonalization with overlap
     ethr =  1.00E-02,  avg # of iterations =  2.0

     negative rho (up, down):  7.337E-01 0.000E+00
 
     Adding external electric field

     Computed dipole along edir(3) : 
        Dipole               -5.4360 Ry au,        -13.8168 Debye
        Dipole field         -0.0112 Ry au
 
        Potential amp.        1.0446 Ry
        Total length         46.5096 bohr
 

     total cpu time spent up to now is       35.8 secs

     total energy              =   -1206.47427591 Ry
     Harris-Foulkes estimate   =   -1210.29140565 Ry
     estimated scf accuracy    <       8.16792030 Ry

     iteration #  2     ecut=    36.75 Ry     beta=0.30
     Davidson diagonalization with overlap
     ethr =  5.48E-03,  avg # of iterations =  9.9

     negative rho (up, down):  7.335E-01 0.000E+00
 
     Adding external electric field

     Computed dipole along edir(3) : 
        Dipole                2.2416 Ry au,          5.6975 Debye
        Dipole field          0.0046 Ry au
 
        Potential amp.       -0.4308 Ry
        Total length         46.5096 bohr
 

     total cpu time spent up to now is       68.2 secs

     total energy              =   -1193.86954798 Ry
     Harris-Foulkes estimate   =   -1227.87860960 Ry
     estimated scf accuracy    <     820.37363200 Ry

     iteration #  3     ecut=    36.75 Ry     beta=0.30
     Davidson diagonalization with overlap
     ethr =  5.48E-03,  avg # of iterations =  8.4

     negative rho (up, down):  7.330E-01 0.000E+00
 
     Adding external electric field

     Computed dipole along edir(3) : 
        Dipole                0.9194 Ry au,          2.3369 Debye
        Dipole field          0.0019 Ry au
 
        Potential amp.       -0.1767 Ry
        Total length         46.5096 bohr
 

     total cpu time spent up to now is       99.1 secs

     total energy              =   -1205.26659182 Ry
     Harris-Foulkes estimate   =   -1213.90933110 Ry
     estimated scf accuracy    <     232.48388552 Ry

     iteration #  4     ecut=    36.75 Ry     beta=0.30
     Davidson diagonalization with overlap
     ethr =  5.48E-03,  avg # of iterations =  4.8

     negative rho (up, down):  7.348E-01 0.000E+00
 
     Adding external electric field

     Computed dipole along edir(3) : 
        Dipole                0.8553 Ry au,          2.1739 Debye
        Dipole field          0.0018 Ry au
 
        Potential amp.       -0.1644 Ry
        Total length         46.5096 bohr
 

     total cpu time spent up to now is      123.4 secs

     total energy              =   -1209.58441436 Ry
     Harris-Foulkes estimate   =   -1209.80291659 Ry
     estimated scf accuracy    <       3.12708818 Ry

     iteration #  5     ecut=    36.75 Ry     beta=0.30
     Davidson diagonalization with overlap
     ethr =  2.10E-03,  avg # of iterations =  1.7

     negative rho (up, down):  7.379E-01 0.000E+00
 
     Adding external electric field

     Computed dipole along edir(3) : 
        Dipole                0.5338 Ry au,          1.3567 Debye
        Dipole field          0.0011 Ry au
 
        Potential amp.       -0.1026 Ry
        Total length         46.5096 bohr
 

     total cpu time spent up to now is      143.6 secs

     total energy              =   -1209.62436794 Ry
     Harris-Foulkes estimate   =   -1209.68040537 Ry
     estimated scf accuracy    <       0.37186958 Ry

     iteration #  6     ecut=    36.75 Ry     beta=0.30
     Davidson diagonalization with overlap
     ethr =  2.50E-04,  avg # of iterations =  8.1

     negative rho (up, down):  7.401E-01 0.000E+00
 
     Adding external electric field

     Computed dipole along edir(3) : 
        Dipole                0.6174 Ry au,          1.5693 Debye
        Dipole field          0.0013 Ry au
 
        Potential amp.       -0.1186 Ry
        Total length         46.5096 bohr
 

     total cpu time spent up to now is      168.4 secs

     total energy              =   -1209.63468875 Ry
     Harris-Foulkes estimate   =   -1209.66685736 Ry
     estimated scf accuracy    <       0.48135552 Ry

     iteration #  7     ecut=    36.75 Ry     beta=0.30
     Davidson diagonalization with overlap
     ethr =  2.50E-04,  avg # of iterations =  2.9

     negative rho (up, down):  7.441E-01 0.000E+00
 
     Adding external electric field

     Computed dipole along edir(3) : 
        Dipole                0.3407 Ry au,          0.8659 Debye
        Dipole field          0.0007 Ry au
 
        Potential amp.       -0.0655 Ry
        Total length         46.5096 bohr
 

     total cpu time spent up to now is      189.3 secs

     total energy              =   -1209.64539467 Ry
     Harris-Foulkes estimate   =   -1209.65503288 Ry
     estimated scf accuracy    <       0.15045599 Ry

     iteration #  8     ecut=    36.75 Ry     beta=0.30
     Davidson diagonalization with overlap
     ethr =  1.01E-04,  avg # of iterations =  2.7

     negative rho (up, down):  7.474E-01 0.000E+00
 
     Adding external electric field

     Computed dipole along edir(3) : 
        Dipole                0.1151 Ry au,          0.2926 Debye
        Dipole field          0.0002 Ry au
 
        Potential amp.       -0.0221 Ry
        Total length         46.5096 bohr
 

     total cpu time spent up to now is      210.0 secs

     total energy              =   -1209.64457980 Ry
     Harris-Foulkes estimate   =   -1209.65112733 Ry
     estimated scf accuracy    <       0.02663853 Ry

     iteration #  9     ecut=    36.75 Ry     beta=0.30
     Davidson diagonalization with overlap
     ethr =  1.79E-05,  avg # of iterations =  7.0

     negative rho (up, down):  7.481E-01 0.000E+00
 
     Adding external electric field

     Computed dipole along edir(3) : 
        Dipole                0.0658 Ry au,          0.1671 Debye
        Dipole field          0.0001 Ry au
 
        Potential amp.       -0.0126 Ry
        Total length         46.5096 bohr
 

     total cpu time spent up to now is      234.7 secs

     total energy              =   -1209.64601924 Ry
     Harris-Foulkes estimate   =   -1209.64789663 Ry
     estimated scf accuracy    <       0.02056179 Ry

     iteration # 10     ecut=    36.75 Ry     beta=0.30
     Davidson diagonalization with overlap
     ethr =  1.38E-05,  avg # of iterations =  1.1

     negative rho (up, down):  7.492E-01 0.000E+00
 
     Adding external electric field

     Computed dipole along edir(3) : 
        Dipole               -0.0003 Ry au,         -0.0007 Debye
        Dipole field         -0.0000 Ry au
 
        Potential amp.        0.0001 Ry
        Total length         46.5096 bohr
 

     total cpu time spent up to now is      254.6 secs

     total energy              =   -1209.64532435 Ry
     Harris-Foulkes estimate   =   -1209.64648288 Ry
     estimated scf accuracy    <       0.00497110 Ry

     iteration # 11     ecut=    36.75 Ry     beta=0.30
     Davidson diagonalization with overlap
     ethr =  3.34E-06,  avg # of iterations =  6.5

     negative rho (up, down):  7.494E-01 0.000E+00
 
     Adding external electric field

     Computed dipole along edir(3) : 
        Dipole               -0.0076 Ry au,         -0.0192 Debye
        Dipole field         -0.0000 Ry au
 
        Potential amp.        0.0015 Ry
        Total length         46.5096 bohr
 

     total cpu time spent up to now is      280.1 secs

     total energy              =   -1209.64623582 Ry
     Harris-Foulkes estimate   =   -1209.64666237 Ry
     estimated scf accuracy    <       0.00780278 Ry

     iteration # 12     ecut=    36.75 Ry     beta=0.30
     Davidson diagonalization with overlap
     ethr =  3.34E-06,  avg # of iterations =  1.2

     negative rho (up, down):  7.496E-01 0.000E+00
 
     Adding external electric field

     Computed dipole along edir(3) : 
        Dipole               -0.0161 Ry au,         -0.0410 Debye
        Dipole field         -0.0000 Ry au
 
        Potential amp.        0.0031 Ry
        Total length         46.5096 bohr
 

     total cpu time spent up to now is      300.3 secs

     total energy              =   -1209.64613704 Ry
     Harris-Foulkes estimate   =   -1209.64638657 Ry
     estimated scf accuracy    <       0.00233673 Ry

     iteration # 13     ecut=    36.75 Ry     beta=0.30
     Davidson diagonalization with overlap
     ethr =  1.57E-06,  avg # of iterations =  4.4

     negative rho (up, down):  7.499E-01 0.000E+00
 
     Adding external electric field

     Computed dipole along edir(3) : 
        Dipole               -0.0376 Ry au,         -0.0955 Debye
        Dipole field         -0.0001 Ry au
 
        Potential amp.        0.0072 Ry
        Total length         46.5096 bohr
 

     total cpu time spent up to now is      323.1 secs

     total energy              =   -1209.64640078 Ry
     Harris-Foulkes estimate   =   -1209.64636021 Ry
     estimated scf accuracy    <       0.00024576 Ry

     iteration # 14     ecut=    36.75 Ry     beta=0.30
     Davidson diagonalization with overlap
     ethr =  1.65E-07,  avg # of iterations =  4.3

     negative rho (up, down):  7.500E-01 0.000E+00
 
     Adding external electric field

     Computed dipole along edir(3) : 
        Dipole               -0.0414 Ry au,         -0.1053 Debye
        Dipole field         -0.0001 Ry au
 
        Potential amp.        0.0080 Ry
        Total length         46.5096 bohr
 

     total cpu time spent up to now is      345.8 secs

     total energy              =   -1209.64643088 Ry
     Harris-Foulkes estimate   =   -1209.64642662 Ry
     estimated scf accuracy    <       0.00004652 Ry

     iteration # 15     ecut=    36.75 Ry     beta=0.30
     Davidson diagonalization with overlap
     ethr =  3.12E-08,  avg # of iterations =  4.5

     negative rho (up, down):  7.500E-01 0.000E+00
 
     Adding external electric field

     Computed dipole along edir(3) : 
        Dipole               -0.0434 Ry au,         -0.1103 Debye
        Dipole field         -0.0001 Ry au
 
        Potential amp.        0.0083 Ry
        Total length         46.5096 bohr
 

     total cpu time spent up to now is      370.5 secs

     total energy              =   -1209.64644517 Ry
     Harris-Foulkes estimate   =   -1209.64644360 Ry
     estimated scf accuracy    <       0.00010532 Ry

     iteration # 16     ecut=    36.75 Ry     beta=0.30
     Davidson diagonalization with overlap
     ethr =  3.12E-08,  avg # of iterations =  3.2

     negative rho (up, down):  7.500E-01 0.000E+00
 
     Adding external electric field

     Computed dipole along edir(3) : 
        Dipole               -0.0449 Ry au,         -0.1141 Debye
        Dipole field         -0.0001 Ry au
 
        Potential amp.        0.0086 Ry
        Total length         46.5096 bohr
 

     total cpu time spent up to now is      391.3 secs

     total energy              =   -1209.64644536 Ry
     Harris-Foulkes estimate   =   -1209.64644727 Ry
     estimated scf accuracy    <       0.00006435 Ry

     iteration # 17     ecut=    36.75 Ry     beta=0.30
     Davidson diagonalization with overlap
     ethr =  3.12E-08,  avg # of iterations =  3.6

     negative rho (up, down):  7.500E-01 0.000E+00
 
     Adding external electric field

     Computed dipole along edir(3) : 
        Dipole               -0.0460 Ry au,         -0.1168 Debye
        Dipole field         -0.0001 Ry au
 
        Potential amp.        0.0088 Ry
        Total length         46.5096 bohr
 

     total cpu time spent up to now is      413.4 secs

     total energy              =   -1209.64644964 Ry
     Harris-Foulkes estimate   =   -1209.64644914 Ry
     estimated scf accuracy    <       0.00001387 Ry

     iteration # 18     ecut=    36.75 Ry     beta=0.30
     Davidson diagonalization with overlap
     ethr =  9.31E-09,  avg # of iterations =  2.6

     negative rho (up, down):  7.500E-01 0.000E+00

     negative rho (up, down):  7.500E-01 0.000E+00

     negative rho (up, down):  7.500E-01 0.000E+00

     negative rho (up, down):  7.500E-01 0.000E+00

     negative rho (up, down):  7.500E-01 0.000E+00

     negative rho (up, down):  7.500E-01 0.000E+00

     negative rho (up, down):  7.500E-01 0.000E+00

     negative rho (up, down):  7.500E-01 0.000E+00

     negative rho (up, down):  7.500E-01 0.000E+00

     negative rho (up, down):  7.500E-01 0.000E+00

     negative rho (up, down):  7.500E-01 0.000E+00

     negative rho (up, down):  7.500E-01 0.000E+00

     negative rho (up, down):  7.500E-01 0.000E+00

     negative rho (up, down):  7.500E-01 0.000E+00

     negative rho (up, down):  7.500E-01 0.000E+00

     negative rho (up, down):  7.500E-01 0.000E+00

     negative rho (up, down):  7.500E-01 0.000E+00

     negative rho (up, down):  7.500E-01 0.000E+00

     negative rho (up, down):  7.500E-01 0.000E+00

     negative rho (up, down):  7.500E-01 0.000E+00

     negative rho (up, down):  7.500E-01 0.000E+00

     negative rho (up, down):  7.500E-01 0.000E+00

     negative rho (up, down):  7.500E-01 0.000E+00

     negative rho (up, down):  7.500E-01 0.000E+00

     negative rho (up, down):  7.500E-01 0.000E+00

     negative rho (up, down):  7.500E-01 0.000E+00

     negative rho (up, down):  7.500E-01 0.000E+00

     negative rho (up, down):  7.500E-01 0.000E+00

     negative rho (up, down):  7.500E-01 0.000E+00

     negative rho (up, down):  7.500E-01 0.000E+00

     negative rho (up, down):  7.500E-01 0.000E+00

     negative rho (up, down):  7.500E-01 0.000E+00

     negative rho (up, down):  7.500E-01 0.000E+00

     negative rho (up, down):  7.500E-01 0.000E+00

     negative rho (up, down):  7.500E-01 0.000E+00
 
     Adding external electric field

     Computed dipole along edir(3) : 
        Dipole               -0.0550 Ry au,         -0.1398 Debye
        Dipole field         -0.0001 Ry au
 
        Potential amp.        0.0106 Ry
        Total length         46.5096 bohr
 

     total cpu time spent up to now is      496.5 secs

     End of self-consistent calculation

          k = 0.0000 0.0000 0.0000 ( 22923 PWs)   bands (ev):

   -47.8464 -47.8085 -47.7192 -47.7184 -47.7183 -47.6879 -47.6294 -47.6294
   -47.4948 -47.4204 -47.4203 -47.3926 -26.1009 -26.1009 -26.0875 -26.0510
   -26.0510 -26.0426 -25.9907 -25.9450 -25.9079 -25.9079 -25.8353 -25.7162
   -25.6777 -25.6777 -25.5872 -25.5573 -25.5573 -25.5446 -25.5427 -25.5427
   -25.5053 -25.5053 -25.4791 -25.3780 -25.3780 -25.3338 -25.3338 -25.3273
   -25.3004 -25.3004 -25.2892 -25.2371 -25.2187 -25.2187 -25.0762 -25.0762
    -8.7803  -3.6092  -2.9763  -2.0498  -1.4331  -1.1047  -1.1047  -1.0862
    -1.0862  -1.0003  -0.8492  -0.6236  -0.6236  -0.3467  -0.3467  -0.3391
    -0.1000   0.2597   0.2597   0.8241   0.9732   0.9732   1.3913   1.7213
     1.7213   1.7469   2.0050   2.0496   2.2712   2.3209   2.3209   2.4337
     2.4337   2.4511   2.6357   2.6358

          k = 0.0000 0.0300 0.0000 ( 22902 PWs)   bands (ev):

   -47.8445 -47.8026 -47.7248 -47.7189 -47.7184 -47.6857 -47.6334 -47.6294
   -47.4897 -47.4242 -47.4204 -47.3940 -26.0767 -26.0690 -26.0527 -26.0295
   -26.0279 -26.0135 -25.9630 -25.9289 -25.8900 -25.8856 -25.8293 -25.7220
   -25.6915 -25.6837 -25.5797 -25.5721 -25.5702 -25.5550 -25.5481 -25.5326
   -25.5270 -25.5183 -25.4839 -25.4311 -25.3893 -25.3649 -25.3336 -25.3254
   -25.3120 -25.3065 -25.2761 -25.2564 -25.2436 -25.2134 -25.1211 -25.0863
    -8.7758  -3.4516  -2.8659  -1.9032  -1.2601  -1.1380  -1.0155  -0.9727
    -0.9506  -0.9115  -0.7429  -0.4766  -0.4461  -0.2450  -0.2266  -0.2228
     0.0113   0.2796   0.2844   0.8039   0.9637   0.9751   1.3640   1.6578
     1.7279   1.7313   1.8671   1.9636   2.0720   2.1468   2.1741   2.2322
     2.3676   2.4724   2.5014   2.5307

          k = 0.0000 0.0599 0.0000 ( 22852 PWs)   bands (ev):

   -47.8408 -47.7863 -47.7413 -47.7190 -47.7184 -47.6800 -47.6431 -47.6294
   -47.4757 -47.4362 -47.4204 -47.3962 -26.0183 -26.0084 -25.9977 -25.9723
   -25.9504 -25.9258 -25.9019 -25.8691 -25.8498 -25.8430 -25.8128 -25.7334
   -25.7171 -25.7048 -25.6398 -25.6331 -25.6204 -25.5750 -25.5654 -25.5392
   -25.5185 -25.5111 -25.5030 -25.4664 -25.4629 -25.4199 -25.3471 -25.3322
   -25.3204 -25.3096 -25.2928 -25.2928 -25.2724 -25.2379 -25.1882 -25.1136
    -8.7669  -3.0890  -2.5567  -1.5520  -1.3975  -0.9341  -0.7348  -0.6628
    -0.6571  -0.5855  -0.4818  -0.1732  -0.0801   0.0441   0.1184   0.1322
     0.3230   0.3547   0.3698   0.7843   0.9391   0.9621   1.1395   1.3389
     1.4204   1.5109   1.5443   1.6028   1.8670   1.8810   1.9174   1.9400
     2.0186   2.0214   2.0957   2.2733

          k = 0.0000-0.0899 0.0000 ( 22880 PWs)   bands (ev):

   -47.8389 -47.7643 -47.7635 -47.7190 -47.7184 -47.6754 -47.6497 -47.6294
   -47.4610 -47.4501 -47.4204 -47.3970 -25.9861 -25.9798 -25.9599 -25.9366
   -25.9025 -25.8723 -25.8618 -25.8236 -25.8203 -25.7721 -25.7577 -25.7507
   -25.7323 -25.7271 -25.7125 -25.6763 -25.6648 -25.6557 -25.6061 -25.6045
   -25.4984 -25.4942 -25.4642 -25.4611 -25.4506 -25.3923 -25.3812 -25.3710
   -25.3598 -25.3449 -25.3130 -25.2965 -25.2882 -25.2737 -25.1566 -25.1457
    -8.7626  -2.8975  -2.0803  -1.9441  -1.1954  -0.9230  -0.4892  -0.4130
    -0.3489  -0.3259  -0.2877  -0.1294  -0.0640   0.3460   0.4491   0.4817
     0.5365   0.5409   0.5656   0.6627   0.9649   0.9870   0.9971   1.0628
     1.0932   1.1893   1.3193   1.4356   1.4928   1.4967   1.5854   1.7483
     1.7644   1.8227   1.9404   2.1578

          k = 0.0260-0.0150 0.0000 ( 22902 PWs)   bands (ev):

   -47.8445 -47.8026 -47.7248 -47.7189 -47.7184 -47.6857 -47.6334 -47.6294
   -47.4897 -47.4242 -47.4204 -47.3940 -26.0767 -26.0690 -26.0527 -26.0295
   -26.0279 -26.0135 -25.9630 -25.9289 -25.8900 -25.8856 -25.8293 -25.7220
   -25.6915 -25.6837 -25.5797 -25.5721 -25.5702 -25.5550 -25.5481 -25.5326
   -25.5270 -25.5183 -25.4839 -25.4311 -25.3893 -25.3649 -25.3336 -25.3254
   -25.3120 -25.3065 -25.2761 -25.2564 -25.2436 -25.2135 -25.1211 -25.0863
    -8.7758  -3.4516  -2.8659  -1.9032  -1.2601  -1.1380  -1.0155  -0.9727
    -0.9506  -0.9115  -0.7429  -0.4766  -0.4461  -0.2450  -0.2266  -0.2228
     0.0113   0.2796   0.2844   0.8039   0.9637   0.9751   1.3640   1.6578
     1.7279   1.7313   1.8671   1.9636   2.0720   2.1468   2.1741   2.2322
     2.3676   2.4725   2.5014   2.5307

          k = 0.0260 0.0150 0.0000 ( 22902 PWs)   bands (ev):

   -47.8445 -47.8026 -47.7248 -47.7189 -47.7184 -47.6857 -47.6334 -47.6294
   -47.4897 -47.4242 -47.4203 -47.3940 -26.0767 -26.0690 -26.0527 -26.0295
   -26.0279 -26.0135 -25.9630 -25.9289 -25.8900 -25.8856 -25.8293 -25.7220
   -25.6915 -25.6837 -25.5797 -25.5721 -25.5702 -25.5550 -25.5481 -25.5326
   -25.5270 -25.5183 -25.4839 -25.4311 -25.3893 -25.3649 -25.3336 -25.3254
   -25.3120 -25.3065 -25.2761 -25.2564 -25.2436 -25.2134 -25.1211 -25.0863
    -8.7758  -3.4516  -2.8659  -1.9032  -1.2601  -1.1380  -1.0155  -0.9727
    -0.9506  -0.9115  -0.7429  -0.4766  -0.4461  -0.2450  -0.2266  -0.2228
     0.0113   0.2796   0.2844   0.8039   0.9637   0.9751   1.3640   1.6578
     1.7279   1.7313   1.8671   1.9636   2.0720   2.1468   2.1741   2.2322
     2.3676   2.4725   2.5014   2.5307

          k = 0.0260 0.0450 0.0000 ( 22896 PWs)   bands (ev):

   -47.8418 -47.7915 -47.7303 -47.7297 -47.7134 -47.6816 -47.6409 -47.6290
   -47.4800 -47.4306 -47.4224 -47.3953 -26.0396 -26.0129 -26.0011 -25.9964
   -25.9796 -25.9469 -25.9202 -25.8954 -25.8596 -25.8534 -25.8188 -25.7306
   -25.7150 -25.6941 -25.6540 -25.6195 -25.5604 -25.5483 -25.5432 -25.5262
   -25.5236 -25.5181 -25.5084 -25.5036 -25.4302 -25.4132 -25.3477 -25.3300
   -25.3226 -25.3055 -25.3000 -25.2719 -25.2340 -25.2224 -25.1979 -25.1081
    -8.7691  -3.1870  -2.6573  -1.6338  -1.1398  -1.0874  -0.9374  -0.8543
    -0.7305  -0.6215  -0.5211  -0.2318  -0.1495  -0.0517  -0.0296   0.0312
     0.2466   0.3048   0.3323   0.7619   0.9133   1.0555   1.2516   1.4361
     1.5064   1.5908   1.6241   1.6952   1.8245   1.9542   1.9984   2.0517
     2.1120   2.1679   2.2900   2.3313

          k = 0.0260-0.1049 0.0000 ( 22856 PWs)   bands (ev):

   -47.8390 -47.7721 -47.7496 -47.7331 -47.7104 -47.6743 -47.6518 -47.6284
   -47.4641 -47.4434 -47.4255 -47.3956 -25.9876 -25.9742 -25.9447 -25.9213
   -25.9017 -25.8750 -25.8587 -25.8253 -25.8204 -25.8154 -25.7932 -25.7641
   -25.7473 -25.7269 -25.7021 -25.6879 -25.6586 -25.6075 -25.5839 -25.5444
   -25.5136 -25.5029 -25.4812 -25.4712 -25.4569 -25.4360 -25.4066 -25.3745
   -25.3264 -25.3206 -25.3049 -25.2908 -25.2736 -25.2575 -25.1910 -25.1467
    -8.7626  -2.9076  -2.2140  -1.5878  -1.1948  -0.9872  -0.7986  -0.5242
    -0.3535  -0.2787  -0.1668   0.0145   0.0664   0.2685   0.3551   0.3866
     0.4441   0.5018   0.5966   0.7765   0.8649   0.9481   1.0550   1.0998
     1.1234   1.1967   1.2831   1.3258   1.5105   1.5617   1.6159   1.6915
     1.7139   1.7566   1.9712   2.0584

          k = 0.0260-0.0749 0.0000 ( 22856 PWs)   bands (ev):

   -47.8390 -47.7721 -47.7496 -47.7331 -47.7104 -47.6743 -47.6518 -47.6284
   -47.4641 -47.4434 -47.4255 -47.3956 -25.9877 -25.9742 -25.9447 -25.9213
   -25.9017 -25.8750 -25.8587 -25.8253 -25.8204 -25.8154 -25.7932 -25.7641
   -25.7473 -25.7269 -25.7021 -25.6879 -25.6586 -25.6075 -25.5839 -25.5444
   -25.5136 -25.5029 -25.4812 -25.4712 -25.4569 -25.4360 -25.4066 -25.3745
   -25.3264 -25.3206 -25.3049 -25.2908 -25.2736 -25.2575 -25.1910 -25.1467
    -8.7626  -2.9076  -2.2140  -1.5878  -1.1948  -0.9872  -0.7986  -0.5242
    -0.3535  -0.2787  -0.1668   0.0145   0.0664   0.2685   0.3551   0.3866
     0.4441   0.5018   0.5966   0.7765   0.8649   0.9481   1.0550   1.0998
     1.1234   1.1967   1.2831   1.3258   1.5105   1.5617   1.6159   1.6915
     1.7139   1.7566   1.9712   2.0584

          k = 0.0260-0.0450 0.0000 ( 22896 PWs)   bands (ev):

   -47.8418 -47.7915 -47.7303 -47.7297 -47.7134 -47.6816 -47.6409 -47.6290
   -47.4800 -47.4305 -47.4225 -47.3953 -26.0396 -26.0129 -26.0011 -25.9964
   -25.9796 -25.9469 -25.9202 -25.8954 -25.8596 -25.8534 -25.8188 -25.7305
   -25.7150 -25.6941 -25.6540 -25.6195 -25.5605 -25.5483 -25.5432 -25.5262
   -25.5236 -25.5181 -25.5084 -25.5036 -25.4302 -25.4133 -25.3477 -25.3300
   -25.3226 -25.3055 -25.3000 -25.2719 -25.2340 -25.2224 -25.1979 -25.1081
    -8.7691  -3.1870  -2.6573  -1.6338  -1.1398  -1.0874  -0.9374  -0.8543
    -0.7305  -0.6215  -0.5211  -0.2318  -0.1495  -0.0517  -0.0296   0.0312
     0.2466   0.3048   0.3323   0.7619   0.9133   1.0555   1.2516   1.4361
     1.5064   1.5908   1.6241   1.6952   1.8245   1.9542   1.9984   2.0517
     2.1120   2.1679   2.2900   2.3313

          k = 0.0519-0.0300 0.0000 ( 22852 PWs)   bands (ev):

   -47.8408 -47.7863 -47.7413 -47.7190 -47.7184 -47.6800 -47.6431 -47.6294
   -47.4757 -47.4362 -47.4204 -47.3962 -26.0183 -26.0084 -25.9977 -25.9723
   -25.9504 -25.9258 -25.9019 -25.8691 -25.8498 -25.8430 -25.8128 -25.7334
   -25.7171 -25.7048 -25.6398 -25.6331 -25.6204 -25.5750 -25.5654 -25.5392
   -25.5185 -25.5111 -25.5030 -25.4664 -25.4629 -25.4199 -25.3471 -25.3322
   -25.3204 -25.3096 -25.2928 -25.2928 -25.2724 -25.2379 -25.1882 -25.1136
    -8.7669  -3.0890  -2.5567  -1.5520  -1.3975  -0.9341  -0.7348  -0.6628
    -0.6571  -0.5855  -0.4818  -0.1732  -0.0801   0.0441   0.1184   0.1322
     0.3230   0.3547   0.3698   0.7843   0.9391   0.9621   1.1395   1.3389
     1.4204   1.5109   1.5443   1.6028   1.8670   1.8810   1.9174   1.9400
     2.0186   2.0214   2.0957   2.2734

          k = 0.0519 0.0000 0.0000 ( 22896 PWs)   bands (ev):

   -47.8418 -47.7915 -47.7303 -47.7297 -47.7134 -47.6816 -47.6409 -47.6290
   -47.4800 -47.4306 -47.4224 -47.3953 -26.0396 -26.0129 -26.0011 -25.9964
   -25.9796 -25.9469 -25.9202 -25.8954 -25.8596 -25.8534 -25.8188 -25.7306
   -25.7150 -25.6941 -25.6540 -25.6195 -25.5605 -25.5483 -25.5432 -25.5262
   -25.5236 -25.5181 -25.5084 -25.5036 -25.4302 -25.4133 -25.3477 -25.3300
   -25.3226 -25.3055 -25.3000 -25.2719 -25.2340 -25.2224 -25.1979 -25.1081
    -8.7691  -3.1870  -2.6573  -1.6338  -1.1398  -1.0874  -0.9374  -0.8543
    -0.7305  -0.6215  -0.5211  -0.2318  -0.1495  -0.0517  -0.0296   0.0312
     0.2466   0.3048   0.3323   0.7619   0.9133   1.0555   1.2516   1.4361
     1.5064   1.5908   1.6241   1.6952   1.8245   1.9542   1.9984   2.0517
     2.1120   2.1679   2.2900   2.3313

          k = 0.0519 0.0300 0.0000 ( 22852 PWs)   bands (ev):

   -47.8408 -47.7863 -47.7413 -47.7190 -47.7184 -47.6800 -47.6431 -47.6294
   -47.4757 -47.4362 -47.4203 -47.3962 -26.0183 -26.0084 -25.9977 -25.9723
   -25.9504 -25.9258 -25.9019 -25.8691 -25.8498 -25.8430 -25.8128 -25.7334
   -25.7171 -25.7048 -25.6398 -25.6331 -25.6204 -25.5750 -25.5654 -25.5392
   -25.5185 -25.5111 -25.5030 -25.4664 -25.4629 -25.4199 -25.3471 -25.3322
   -25.3204 -25.3096 -25.2928 -25.2928 -25.2724 -25.2379 -25.1882 -25.1136
    -8.7669  -3.0890  -2.5567  -1.5520  -1.3975  -0.9341  -0.7348  -0.6628
    -0.6571  -0.5855  -0.4818  -0.1732  -0.0801   0.0441   0.1184   0.1322
     0.3230   0.3547   0.3698   0.7843   0.9391   0.9621   1.1395   1.3389
     1.4204   1.5109   1.5443   1.6028   1.8670   1.8810   1.9174   1.9400
     2.0186   2.0214   2.0957   2.2732

          k = 0.0519-0.1199 0.0000 ( 22856 PWs)   bands (ev):

   -47.8390 -47.7721 -47.7496 -47.7331 -47.7104 -47.6743 -47.6518 -47.6284
   -47.4641 -47.4434 -47.4255 -47.3956 -25.9876 -25.9742 -25.9447 -25.9213
   -25.9017 -25.8750 -25.8587 -25.8253 -25.8204 -25.8154 -25.7932 -25.7641
   -25.7473 -25.7269 -25.7021 -25.6879 -25.6586 -25.6075 -25.5839 -25.5444
   -25.5136 -25.5029 -25.4812 -25.4712 -25.4569 -25.4360 -25.4066 -25.3745
   -25.3264 -25.3206 -25.3049 -25.2908 -25.2736 -25.2575 -25.1910 -25.1467
    -8.7626  -2.9076  -2.2140  -1.5878  -1.1948  -0.9872  -0.7986  -0.5242
    -0.3535  -0.2787  -0.1668   0.0145   0.0664   0.2685   0.3551   0.3866
     0.4441   0.5018   0.5966   0.7765   0.8649   0.9481   1.0550   1.0998
     1.1234   1.1967   1.2831   1.3258   1.5105   1.5617   1.6159   1.6915
     1.7139   1.7566   1.9712   2.0584

          k = 0.0519-0.0899 0.0000 ( 22914 PWs)   bands (ev):

   -47.8381 -47.7533 -47.7524 -47.7523 -47.7073 -47.6641 -47.6638 -47.6276
   -47.4513 -47.4505 -47.4323 -47.3945 -25.9788 -25.9103 -25.8953 -25.8846
   -25.8707 -25.8524 -25.8487 -25.8476 -25.7960 -25.7880 -25.7819 -25.7772
   -25.7703 -25.7538 -25.7256 -25.7079 -25.6985 -25.6800 -25.5278 -25.5228
   -25.5204 -25.5005 -25.4946 -25.4837 -25.4780 -25.4168 -25.4053 -25.3979
   -25.3969 -25.3264 -25.2964 -25.2866 -25.2766 -25.2052 -25.2034 -25.2017
    -8.7604  -2.8305  -1.6721  -1.6350  -1.5409  -0.8540  -0.7878  -0.5587
    -0.0834  -0.0216   0.1411   0.2081   0.2099   0.2643   0.3616   0.5010
     0.6682   0.6748   0.7338   0.7800   0.7938   0.7974   0.8029   0.8315
     0.9340   1.0864   1.1303   1.3067   1.3140   1.3771   1.4004   1.4419
     1.5402   1.6296   1.7466   2.0070

          k = 0.0519-0.0599 0.0000 ( 22856 PWs)   bands (ev):

   -47.8390 -47.7721 -47.7496 -47.7331 -47.7104 -47.6743 -47.6518 -47.6284
   -47.4641 -47.4434 -47.4255 -47.3956 -25.9877 -25.9742 -25.9447 -25.9213
   -25.9017 -25.8750 -25.8587 -25.8253 -25.8204 -25.8154 -25.7932 -25.7641
   -25.7473 -25.7269 -25.7021 -25.6879 -25.6586 -25.6075 -25.5839 -25.5444
   -25.5136 -25.5029 -25.4812 -25.4712 -25.4569 -25.4360 -25.4066 -25.3745
   -25.3264 -25.3206 -25.3049 -25.2908 -25.2736 -25.2575 -25.1910 -25.1467
    -8.7626  -2.9076  -2.2140  -1.5878  -1.1948  -0.9872  -0.7986  -0.5242
    -0.3535  -0.2787  -0.1668   0.0145   0.0664   0.2685   0.3551   0.3866
     0.4441   0.5018   0.5966   0.7765   0.8649   0.9481   1.0550   1.0998
     1.1234   1.1967   1.2831   1.3258   1.5105   1.5617   1.6159   1.6915
     1.7139   1.7566   1.9712   2.0584

          k =-0.0779 0.0450 0.0000 ( 22880 PWs)   bands (ev):

   -47.8389 -47.7643 -47.7635 -47.7190 -47.7184 -47.6754 -47.6497 -47.6294
   -47.4610 -47.4501 -47.4204 -47.3970 -25.9861 -25.9798 -25.9599 -25.9366
   -25.9025 -25.8723 -25.8618 -25.8236 -25.8204 -25.7721 -25.7577 -25.7507
   -25.7323 -25.7271 -25.7125 -25.6763 -25.6648 -25.6557 -25.6061 -25.6045
   -25.4984 -25.4942 -25.4642 -25.4611 -25.4506 -25.3923 -25.3812 -25.3710
   -25.3598 -25.3449 -25.3130 -25.2965 -25.2882 -25.2737 -25.1566 -25.1457
    -8.7626  -2.8975  -2.0803  -1.9441  -1.1954  -0.9230  -0.4892  -0.4130
    -0.3489  -0.3259  -0.2877  -0.1294  -0.0640   0.3460   0.4491   0.4817
     0.5365   0.5409   0.5656   0.6627   0.9649   0.9870   0.9971   1.0628
     1.0932   1.1893   1.3193   1.4356   1.4928   1.4967   1.5854   1.7483
     1.7644   1.8227   1.9404   2.1578

          k =-0.0779 0.0749 0.0000 ( 22856 PWs)   bands (ev):

   -47.8390 -47.7721 -47.7496 -47.7331 -47.7104 -47.6743 -47.6518 -47.6284
   -47.4641 -47.4434 -47.4255 -47.3956 -25.9876 -25.9742 -25.9447 -25.9213
   -25.9017 -25.8750 -25.8587 -25.8253 -25.8204 -25.8154 -25.7932 -25.7641
   -25.7473 -25.7269 -25.7021 -25.6879 -25.6586 -25.6075 -25.5839 -25.5444
   -25.5136 -25.5029 -25.4812 -25.4712 -25.4569 -25.4360 -25.4066 -25.3745
   -25.3264 -25.3206 -25.3049 -25.2908 -25.2736 -25.2575 -25.1910 -25.1467
    -8.7626  -2.9076  -2.2140  -1.5878  -1.1948  -0.9872  -0.7986  -0.5242
    -0.3535  -0.2787  -0.1668   0.0145   0.0664   0.2685   0.3551   0.3866
     0.4441   0.5018   0.5966   0.7765   0.8649   0.9481   1.0550   1.0998
     1.1234   1.1967   1.2831   1.3258   1.5105   1.5617   1.6159   1.6915
     1.7139   1.7565   1.9712   2.0584

          k =-0.0779 0.1049 0.0000 ( 22856 PWs)   bands (ev):

   -47.8390 -47.7721 -47.7496 -47.7331 -47.7104 -47.6743 -47.6518 -47.6284
   -47.4641 -47.4434 -47.4255 -47.3956 -25.9876 -25.9742 -25.9447 -25.9213
   -25.9017 -25.8750 -25.8587 -25.8253 -25.8204 -25.8154 -25.7932 -25.7641
   -25.7473 -25.7269 -25.7021 -25.6879 -25.6586 -25.6075 -25.5839 -25.5444
   -25.5136 -25.5029 -25.4812 -25.4712 -25.4569 -25.4360 -25.4066 -25.3745
   -25.3264 -25.3206 -25.3049 -25.2908 -25.2736 -25.2575 -25.1910 -25.1467
    -8.7626  -2.9076  -2.2140  -1.5878  -1.1948  -0.9872  -0.7986  -0.5242
    -0.3535  -0.2787  -0.1668   0.0145   0.0664   0.2685   0.3551   0.3866
     0.4441   0.5018   0.5966   0.7765   0.8649   0.9481   1.0550   1.0998
     1.1234   1.1967   1.2831   1.3258   1.5105   1.5617   1.6159   1.6915
     1.7139   1.7565   1.9712   2.0584

          k =-0.0779-0.0450 0.0000 ( 22880 PWs)   bands (ev):

   -47.8389 -47.7642 -47.7636 -47.7190 -47.7184 -47.6754 -47.6497 -47.6294
   -47.4610 -47.4501 -47.4203 -47.3971 -25.9861 -25.9797 -25.9599 -25.9366
   -25.9025 -25.8723 -25.8618 -25.8237 -25.8203 -25.7721 -25.7576 -25.7507
   -25.7323 -25.7271 -25.7125 -25.6763 -25.6648 -25.6557 -25.6061 -25.6045
   -25.4984 -25.4942 -25.4642 -25.4611 -25.4506 -25.3923 -25.3813 -25.3710
   -25.3598 -25.3449 -25.3131 -25.2965 -25.2882 -25.2737 -25.1566 -25.1457
    -8.7626  -2.8975  -2.0802  -1.9441  -1.1954  -0.9230  -0.4892  -0.4130
    -0.3489  -0.3259  -0.2877  -0.1294  -0.0640   0.3460   0.4491   0.4817
     0.5365   0.5409   0.5656   0.6627   0.9649   0.9871   0.9971   1.0628
     1.0932   1.1893   1.3193   1.4356   1.4928   1.4967   1.5854   1.7483
     1.7644   1.8227   1.9404   2.1578

     the Fermi energy is     1.4677 ev

!    total energy              =   -1209.64644845 Ry
     Harris-Foulkes estimate   =   -1209.64644820 Ry
     estimated scf accuracy    <       0.00000220 Ry

     The total energy is the sum of the following terms:

     one-electron contribution =   -8397.96098214 Ry
     hartree contribution      =    4191.61193448 Ry
     xc contribution           =    -224.82662199 Ry
     ewald contribution        =    3221.64190538 Ry
     electric field correction =       0.00000625 Ry
     smearing contrib. (-TS)   =      -0.11269043 Ry

     convergence has been achieved in  18 iterations
 
 BEEF-vdW xc energy contributions
           1 :   -192.498841164388     
           2 :    174.171422373056     
           3 :   -143.318353078382     
           4 :    108.648721813478     
           5 :   -77.9875180810586     
           6 :    55.5563045688475     
           7 :   -41.3362165886482     
           8 :    32.4125367322325     
           9 :   -25.2575519413601     
          10 :    17.6542887630116     
          11 :   -9.41566863301162     
          12 :    1.83515400544613     
          13 :    3.53910014960366     
          14 :   -5.99742631000584     
          15 :    6.05670980275417     
          16 :   -5.05318623660523     
          17 :    4.30378365242674     
          18 :   -4.39999317549183     
          19 :    5.04279917307306     
          20 :   -5.44402309679234     
          21 :    4.96877260643311     
          22 :   -3.58211416098001     
          23 :    1.84069927116838     
          24 :  -0.493962255833281     
          25 :   1.147895201995652E-003
          26 :  -0.285088992719494     
          27 :   0.850344421901838     
          28 :   -1.14674770932172     
          29 :   0.920764709682970     
          30 :  -0.335929702906782     
          31 :   -22.3806735297005     
          32 :   -16.6791334901457     

     Forces acting on atoms (Ry/au):


     negative rho (up, down):  7.500E-01 0.000E+00
     atom    1 type  1   force =     0.00014920    0.00008724    0.01384447
     atom    2 type  1   force =    -0.00014935    0.00008410    0.01384557
     atom    3 type  1   force =    -0.00000177   -0.00017171    0.01384503
     atom    4 type  1   force =     0.00000241   -0.00000011    0.01544043
     atom    5 type  1   force =    -0.00000039   -0.00048155   -0.00375458
     atom    6 type  1   force =     0.00000107    0.00000040   -0.00700176
     atom    7 type  1   force =     0.00041635    0.00024177   -0.00375404
     atom    8 type  1   force =    -0.00041670    0.00023922   -0.00375569
     atom    9 type  1   force =    -0.00000244   -0.00000157   -0.01333546
     atom   10 type  1   force =     0.00000132    0.04469623    0.02802533
     atom   11 type  1   force =     0.03870966   -0.02234624    0.02802540
     atom   12 type  1   force =    -0.03871006   -0.02234852    0.02802358
     atom   13 type  2   force =     0.00000084    0.00000079   -0.10410460
     atom   14 type  3   force =    -0.00000014   -0.00000005   -0.00534367

     Total force =     0.139262     Total SCF correction =     0.006178


     entering subroutine stress ...


     negative rho (up, down):  7.500E-01 0.000E+00
          total   stress  (Ry/bohr**3)                   (kbar)     P=  -14.85
  -0.00008239  -0.00000000   0.00000000        -12.12     -0.00      0.00
  -0.00000000  -0.00008239  -0.00000000         -0.00    -12.12     -0.00
   0.00000000  -0.00000000  -0.00013809          0.00     -0.00    -20.31


     BFGS Geometry Optimization

     number of scf cycles    =   1
     number of bfgs steps    =   0

     energy   new            =   -1209.6464484537 Ry

     new trust radius        =       0.1041046040 bohr
     new conv_thr            =       0.0000099958 Ry


ATOMIC_POSITIONS (crystal)
Zr1      0.166666667   0.166666667   0.396150897    0   0   0
Zr1      0.666666667   0.166666667   0.396150897    0   0   0
Zr1      0.166666667   0.666666667   0.396150897    0   0   0
Zr1      0.666666667   0.666666667   0.396150897    0   0   0
Zr1      0.833333333   0.333333333   0.500000000    0   0   0
Zr1      0.333333333   0.333333333   0.500000000    0   0   0
Zr1      0.833333333   0.833333333   0.500000000    0   0   0
Zr1      0.333333333   0.833333333   0.500000000    0   0   0
Zr1     -0.000000127  -0.000000150   0.603569546
Zr1      0.497873470   0.004253277   0.604436609
Zr1      0.004253319   0.497873540   0.604436610
Zr1      0.497873217   0.497873323   0.604436572
C1       0.333333365   0.333333409   0.666298735
H1       0.333333324   0.333333329   0.711945699



     Writing output data file calc.save
     Check: negative starting charge=   -0.729045
     NEW-OLD atomic charge density approx. for the potential
     Check: negative starting charge=   -0.729532

     negative rho (up, down):  7.500E-01 0.000E+00
 
     Adding external electric field

     Computed dipole along edir(3) : 
        Dipole               -0.0548 Ry au,         -0.1394 Debye
        Dipole field         -0.0001 Ry au
 
        Potential amp.        0.0105 Ry
        Total length         46.5096 bohr
 

     total cpu time spent up to now is      572.5 secs

     per-process dynamical memory:    92.0 Mb

     Self-consistent Calculation

     iteration #  1     ecut=    36.75 Ry     beta=0.30
     Davidson diagonalization with overlap
     ethr =  1.00E-06,  avg # of iterations = 11.8

     negative rho (up, down):  7.500E-01 0.000E+00
 
     Adding external electric field

     Computed dipole along edir(3) : 
        Dipole                0.1506 Ry au,          0.3828 Debye
        Dipole field          0.0003 Ry au
 
        Potential amp.       -0.0289 Ry
        Total length         46.5096 bohr
 

     total cpu time spent up to now is      608.9 secs

     total energy              =   -1209.65890202 Ry
     Harris-Foulkes estimate   =   -1209.66272998 Ry
     estimated scf accuracy    <       0.00931562 Ry

     iteration #  2     ecut=    36.75 Ry     beta=0.30
     Davidson diagonalization with overlap
     ethr =  6.25E-06,  avg # of iterations =  8.0

     negative rho (up, down):  7.500E-01 0.000E+00
 
     Adding external electric field

     Computed dipole along edir(3) : 
        Dipole               -0.0308 Ry au,         -0.0783 Debye
        Dipole field         -0.0001 Ry au
 
        Potential amp.        0.0059 Ry
        Total length         46.5096 bohr
 

     total cpu time spent up to now is      636.7 secs

     total energy              =   -1209.63815181 Ry
     Harris-Foulkes estimate   =   -1209.68095875 Ry
     estimated scf accuracy    <       1.95288654 Ry

     iteration #  3     ecut=    36.75 Ry     beta=0.30
     Davidson diagonalization with overlap
     ethr =  6.25E-06,  avg # of iterations =  6.8

     negative rho (up, down):  7.500E-01 0.000E+00
 
     Adding external electric field

     Computed dipole along edir(3) : 
        Dipole               -0.0123 Ry au,         -0.0314 Debye
        Dipole field         -0.0000 Ry au
 
        Potential amp.        0.0024 Ry
        Total length         46.5096 bohr
 

     total cpu time spent up to now is      662.5 secs

     total energy              =   -1209.66047202 Ry
     Harris-Foulkes estimate   =   -1209.66175891 Ry
     estimated scf accuracy    <       0.02755908 Ry

     iteration #  4     ecut=    36.75 Ry     beta=0.30
     Davidson diagonalization with overlap
     ethr =  6.25E-06,  avg # of iterations =  3.2

     negative rho (up, down):  7.501E-01 0.000E+00
 
     Adding external electric field

     Computed dipole along edir(3) : 
        Dipole               -0.0116 Ry au,         -0.0294 Debye
        Dipole field         -0.0000 Ry au
 
        Potential amp.        0.0022 Ry
        Total length         46.5096 bohr
 

     total cpu time spent up to now is      684.5 secs

     total energy              =   -1209.66058390 Ry
     Harris-Foulkes estimate   =   -1209.66171056 Ry
     estimated scf accuracy    <       0.00972520 Ry

     iteration #  5     ecut=    36.75 Ry     beta=0.30
     Davidson diagonalization with overlap
     ethr =  6.25E-06,  avg # of iterations =  3.4

     negative rho (up, down):  7.500E-01 0.000E+00
 
     Adding external electric field

     Computed dipole along edir(3) : 
        Dipole               -0.0164 Ry au,         -0.0416 Debye
        Dipole field         -0.0000 Ry au
 
        Potential amp.        0.0031 Ry
        Total length         46.5096 bohr
 

     total cpu time spent up to now is      705.6 secs

     total energy              =   -1209.66112593 Ry
     Harris-Foulkes estimate   =   -1209.66125302 Ry
     estimated scf accuracy    <       0.00075266 Ry

     iteration #  6     ecut=    36.75 Ry     beta=0.30
     Davidson diagonalization with overlap
     ethr =  5.05E-07,  avg # of iterations =  5.0

     negative rho (up, down):  7.500E-01 0.000E+00
 
     Adding external electric field

     Computed dipole along edir(3) : 
        Dipole               -0.0180 Ry au,         -0.0458 Debye
        Dipole field         -0.0000 Ry au
 
        Potential amp.        0.0035 Ry
        Total length         46.5096 bohr
 

     total cpu time spent up to now is      730.0 secs

     total energy              =   -1209.66121996 Ry
     Harris-Foulkes estimate   =   -1209.66124695 Ry
     estimated scf accuracy    <       0.00021568 Ry

     iteration #  7     ecut=    36.75 Ry     beta=0.30
     Davidson diagonalization with overlap
     ethr =  1.45E-07,  avg # of iterations =  3.9

     negative rho (up, down):  7.501E-01 0.000E+00
 
     Adding external electric field

     Computed dipole along edir(3) : 
        Dipole               -0.0187 Ry au,         -0.0475 Debye
        Dipole field         -0.0000 Ry au
 
        Potential amp.        0.0036 Ry
        Total length         46.5096 bohr
 

     total cpu time spent up to now is      752.6 secs

     total energy              =   -1209.66123854 Ry
     Harris-Foulkes estimate   =   -1209.66124882 Ry
     estimated scf accuracy    <       0.00009821 Ry

     iteration #  8     ecut=    36.75 Ry     beta=0.30
     Davidson diagonalization with overlap
     ethr =  6.59E-08,  avg # of iterations =  3.5

     negative rho (up, down):  7.501E-01 0.000E+00
 
     Adding external electric field

     Computed dipole along edir(3) : 
        Dipole               -0.0203 Ry au,         -0.0515 Debye
        Dipole field         -0.0000 Ry au
 
        Potential amp.        0.0039 Ry
        Total length         46.5096 bohr
 

     total cpu time spent up to now is      774.5 secs

     total energy              =   -1209.66125139 Ry
     Harris-Foulkes estimate   =   -1209.66124847 Ry
     estimated scf accuracy    <       0.00001314 Ry

     iteration #  9     ecut=    36.75 Ry     beta=0.30
     Davidson diagonalization with overlap
     ethr =  8.82E-09,  avg # of iterations =  5.0

     negative rho (up, down):  7.501E-01 0.000E+00

     negative rho (up, down):  7.501E-01 0.000E+00

     negative rho (up, down):  7.501E-01 0.000E+00

     negative rho (up, down):  7.501E-01 0.000E+00

     negative rho (up, down):  7.501E-01 0.000E+00

     negative rho (up, down):  7.501E-01 0.000E+00

     negative rho (up, down):  7.501E-01 0.000E+00

     negative rho (up, down):  7.501E-01 0.000E+00

     negative rho (up, down):  7.501E-01 0.000E+00

     negative rho (up, down):  7.501E-01 0.000E+00

     negative rho (up, down):  7.501E-01 0.000E+00

     negative rho (up, down):  7.501E-01 0.000E+00

     negative rho (up, down):  7.501E-01 0.000E+00

     negative rho (up, down):  7.501E-01 0.000E+00

     negative rho (up, down):  7.501E-01 0.000E+00

     negative rho (up, down):  7.501E-01 0.000E+00

     negative rho (up, down):  7.501E-01 0.000E+00

     negative rho (up, down):  7.501E-01 0.000E+00

     negative rho (up, down):  7.501E-01 0.000E+00

     negative rho (up, down):  7.501E-01 0.000E+00

     negative rho (up, down):  7.501E-01 0.000E+00

     negative rho (up, down):  7.501E-01 0.000E+00

     negative rho (up, down):  7.501E-01 0.000E+00

     negative rho (up, down):  7.501E-01 0.000E+00

     negative rho (up, down):  7.501E-01 0.000E+00

     negative rho (up, down):  7.501E-01 0.000E+00

     negative rho (up, down):  7.501E-01 0.000E+00

     negative rho (up, down):  7.501E-01 0.000E+00

     negative rho (up, down):  7.501E-01 0.000E+00

     negative rho (up, down):  7.501E-01 0.000E+00

     negative rho (up, down):  7.501E-01 0.000E+00

     negative rho (up, down):  7.501E-01 0.000E+00

     negative rho (up, down):  7.501E-01 0.000E+00

     negative rho (up, down):  7.501E-01 0.000E+00

     negative rho (up, down):  7.501E-01 0.000E+00
 
     Adding external electric field

     Computed dipole along edir(3) : 
        Dipole               -0.0224 Ry au,         -0.0570 Debye
        Dipole field         -0.0000 Ry au
 
        Potential amp.        0.0043 Ry
        Total length         46.5096 bohr
 

     total cpu time spent up to now is      858.2 secs

     End of self-consistent calculation

          k = 0.0000 0.0000 0.0000 ( 22923 PWs)   bands (ev):

   -47.7918 -47.7793 -47.6900 -47.6896 -47.6896 -47.6430 -47.5843 -47.5843
   -47.4713 -47.3983 -47.3983 -47.3608 -26.0663 -26.0663 -26.0582 -26.0084
   -26.0084 -26.0060 -25.9590 -25.9125 -25.8768 -25.8768 -25.7990 -25.6803
   -25.6444 -25.6443 -25.5594 -25.5278 -25.5278 -25.5160 -25.5129 -25.5129
   -25.4569 -25.4569 -25.4336 -25.3491 -25.3491 -25.3118 -25.3117 -25.3030
   -25.2565 -25.2559 -25.2559 -25.2143 -25.1918 -25.1918 -25.0503 -25.0503
    -8.6091  -3.5683  -2.9714  -2.0403  -1.4030  -1.1010  -1.1010  -1.0596
    -1.0596  -0.9647  -0.8199  -0.6074  -0.6074  -0.3140  -0.3140  -0.3103
    -0.0472   0.2443   0.2443   0.8809   0.9775   0.9775   1.4198   1.7504
     1.7504   1.7953   2.0242   2.0786   2.3362   2.3392   2.3393   2.4532
     2.4658   2.4658   2.6631   2.6631

          k = 0.0000 0.0300 0.0000 ( 22902 PWs)   bands (ev):

   -47.7897 -47.7735 -47.6958 -47.6899 -47.6896 -47.6411 -47.5883 -47.5843
   -47.4662 -47.4021 -47.3983 -47.3622 -26.0418 -26.0367 -26.0208 -25.9920
   -25.9854 -25.9714 -25.9313 -25.8960 -25.8589 -25.8546 -25.7944 -25.6860
   -25.6569 -25.6497 -25.5509 -25.5433 -25.5415 -25.5230 -25.5186 -25.5032
   -25.4821 -25.4723 -25.4373 -25.4025 -25.3603 -25.3294 -25.3082 -25.3020
   -25.2793 -25.2649 -25.2439 -25.2328 -25.2165 -25.1872 -25.0952 -25.0603
    -8.6032  -3.4138  -2.8625  -1.8910  -1.2292  -1.1269  -0.9902  -0.9729
    -0.9216  -0.8831  -0.7161  -0.4604  -0.4360  -0.2131  -0.1946  -0.1928
     0.0629   0.2648   0.2713   0.8527   0.9831   0.9849   1.3912   1.6947
     1.7597   1.7605   1.8947   1.9957   2.1040   2.1773   2.2000   2.2605
     2.3871   2.5050   2.5262   2.5561

          k = 0.0000 0.0599 0.0000 ( 22852 PWs)   bands (ev):

   -47.7855 -47.7574 -47.7124 -47.6899 -47.6896 -47.6359 -47.5978 -47.5843
   -47.4525 -47.4136 -47.3983 -47.3646 -25.9818 -25.9754 -25.9602 -25.9305
   -25.9151 -25.8909 -25.8679 -25.8349 -25.8189 -25.8127 -25.7801 -25.6944
   -25.6807 -25.6700 -25.6090 -25.6031 -25.5774 -25.5357 -25.5318 -25.5078
   -25.4901 -25.4813 -25.4736 -25.4260 -25.4184 -25.3909 -25.3142 -25.3025
   -25.2968 -25.2821 -25.2657 -25.2646 -25.2410 -25.2117 -25.1626 -25.0874
    -8.5917  -3.0665  -2.5466  -1.5344  -1.3752  -0.9168  -0.7079  -0.6568
    -0.6362  -0.5670  -0.4580  -0.1474  -0.1030   0.0676   0.1452   0.1687
     0.3245   0.3643   0.4069   0.8247   0.9616   1.0053   1.1628   1.3687
     1.4639   1.5317   1.5771   1.6321   1.8740   1.9133   1.9488   1.9756
     2.0422   2.0563   2.1248   2.3090

          k = 0.0000-0.0899 0.0000 ( 22880 PWs)   bands (ev):

   -47.7834 -47.7352 -47.7348 -47.6899 -47.6897 -47.6319 -47.6040 -47.5843
   -47.4388 -47.4263 -47.3983 -47.3655 -25.9428 -25.9414 -25.9306 -25.8961
   -25.8734 -25.8392 -25.8286 -25.7931 -25.7886 -25.7347 -25.7243 -25.7067
   -25.6986 -25.6947 -25.6760 -25.6468 -25.6324 -25.6187 -25.5638 -25.5616
   -25.4677 -25.4660 -25.4336 -25.4320 -25.4031 -25.3690 -25.3554 -25.3469
   -25.3216 -25.3163 -25.2875 -25.2692 -25.2630 -25.2414 -25.1327 -25.1179
    -8.5860  -2.8908  -2.0532  -1.9231  -1.1817  -0.9057  -0.4861  -0.3910
    -0.3216  -0.3168  -0.2453  -0.1173  -0.1044   0.3363   0.4802   0.5114
     0.5604   0.5704   0.6057   0.6943   1.0082   1.0205   1.0233   1.0997
     1.1289   1.2275   1.3494   1.4651   1.5261   1.5298   1.5922   1.7707
     1.7889   1.8453   1.9943   2.1960

          k = 0.0260-0.0150 0.0000 ( 22902 PWs)   bands (ev):

   -47.7897 -47.7735 -47.6958 -47.6899 -47.6896 -47.6411 -47.5883 -47.5843
   -47.4662 -47.4021 -47.3983 -47.3622 -26.0418 -26.0367 -26.0208 -25.9920
   -25.9854 -25.9714 -25.9313 -25.8960 -25.8589 -25.8546 -25.7944 -25.6860
   -25.6569 -25.6497 -25.5509 -25.5433 -25.5415 -25.5230 -25.5186 -25.5032
   -25.4821 -25.4723 -25.4373 -25.4025 -25.3603 -25.3294 -25.3082 -25.3020
   -25.2793 -25.2649 -25.2439 -25.2328 -25.2165 -25.1872 -25.0952 -25.0603
    -8.6032  -3.4138  -2.8625  -1.8910  -1.2292  -1.1269  -0.9902  -0.9729
    -0.9216  -0.8831  -0.7161  -0.4604  -0.4360  -0.2131  -0.1946  -0.1928
     0.0629   0.2648   0.2713   0.8527   0.9831   0.9849   1.3912   1.6947
     1.7597   1.7605   1.8947   1.9957   2.1040   2.1773   2.2000   2.2605
     2.3871   2.5050   2.5262   2.5561

          k = 0.0260 0.0150 0.0000 ( 22902 PWs)   bands (ev):

   -47.7897 -47.7735 -47.6958 -47.6899 -47.6896 -47.6411 -47.5883 -47.5843
   -47.4662 -47.4021 -47.3983 -47.3622 -26.0418 -26.0367 -26.0208 -25.9920
   -25.9854 -25.9714 -25.9313 -25.8960 -25.8589 -25.8546 -25.7944 -25.6860
   -25.6569 -25.6497 -25.5509 -25.5433 -25.5415 -25.5230 -25.5186 -25.5032
   -25.4821 -25.4724 -25.4373 -25.4025 -25.3603 -25.3294 -25.3082 -25.3020
   -25.2793 -25.2649 -25.2439 -25.2328 -25.2166 -25.1872 -25.0952 -25.0603
    -8.6032  -3.4138  -2.8625  -1.8910  -1.2292  -1.1269  -0.9902  -0.9729
    -0.9216  -0.8831  -0.7161  -0.4605  -0.4360  -0.2131  -0.1946  -0.1928
     0.0629   0.2648   0.2713   0.8527   0.9831   0.9849   1.3912   1.6947
     1.7597   1.7605   1.8947   1.9957   2.1040   2.1773   2.2000   2.2605
     2.3871   2.5050   2.5262   2.5561

          k = 0.0260 0.0450 0.0000 ( 22896 PWs)   bands (ev):

   -47.7866 -47.7625 -47.7013 -47.7010 -47.6845 -47.6373 -47.5957 -47.5839
   -47.4568 -47.4085 -47.3998 -47.3638 -26.0062 -25.9741 -25.9642 -25.9621
   -25.9430 -25.9043 -25.8877 -25.8628 -25.8287 -25.8230 -25.7861 -25.6928
   -25.6785 -25.6601 -25.6237 -25.5757 -25.5317 -25.5189 -25.5143 -25.4953
   -25.4937 -25.4895 -25.4670 -25.4547 -25.3895 -25.3844 -25.3132 -25.3044
   -25.2991 -25.2752 -25.2695 -25.2406 -25.2095 -25.1959 -25.1714 -25.0821
    -8.5946  -3.1585  -2.6512  -1.6180  -1.1314  -1.0598  -0.9042  -0.8351
    -0.7094  -0.6030  -0.5154  -0.2162  -0.1461  -0.0180  -0.0010   0.0617
     0.2923   0.2977   0.3280   0.8028   0.9470   1.0799   1.2783   1.4620
     1.5493   1.6106   1.6547   1.7300   1.8579   1.9644   2.0299   2.0844
     2.1380   2.1963   2.3257   2.3594

          k = 0.0260-0.1049 0.0000 ( 22856 PWs)   bands (ev):

   -47.7835 -47.7432 -47.7207 -47.7042 -47.6815 -47.6308 -47.6061 -47.5833
   -47.4414 -47.4207 -47.4022 -47.3647 -25.9458 -25.9388 -25.9075 -25.8863
   -25.8693 -25.8416 -25.8231 -25.7937 -25.7908 -25.7846 -25.7565 -25.7332
   -25.7069 -25.6873 -25.6649 -25.6474 -25.6288 -25.5687 -25.5519 -25.5074
   -25.4833 -25.4725 -25.4415 -25.4378 -25.4281 -25.4031 -25.3801 -25.3369
   -25.3015 -25.2959 -25.2766 -25.2646 -25.2426 -25.2303 -25.1655 -25.1205
    -8.5860  -2.8988  -2.1933  -1.5648  -1.1806  -0.9664  -0.7817  -0.5113
    -0.3384  -0.2498  -0.1907   0.0263   0.0794   0.2768   0.3848   0.4144
     0.4747   0.5245   0.6230   0.8154   0.8999   0.9875   1.0939   1.1288
     1.1533   1.2342   1.3052   1.3532   1.5424   1.5735   1.6291   1.7216
     1.7603   1.7878   2.0012   2.1042

          k = 0.0260-0.0749 0.0000 ( 22856 PWs)   bands (ev):

   -47.7835 -47.7432 -47.7207 -47.7042 -47.6815 -47.6308 -47.6061 -47.5833
   -47.4414 -47.4207 -47.4022 -47.3647 -25.9458 -25.9388 -25.9075 -25.8863
   -25.8693 -25.8416 -25.8231 -25.7937 -25.7908 -25.7846 -25.7565 -25.7333
   -25.7069 -25.6873 -25.6648 -25.6474 -25.6288 -25.5687 -25.5519 -25.5074
   -25.4833 -25.4725 -25.4414 -25.4378 -25.4281 -25.4031 -25.3801 -25.3369
   -25.3015 -25.2959 -25.2766 -25.2646 -25.2426 -25.2303 -25.1655 -25.1205
    -8.5860  -2.8988  -2.1933  -1.5648  -1.1806  -0.9664  -0.7817  -0.5113
    -0.3384  -0.2498  -0.1907   0.0263   0.0794   0.2768   0.3848   0.4144
     0.4747   0.5245   0.6230   0.8154   0.8999   0.9875   1.0939   1.1288
     1.1533   1.2342   1.3052   1.3532   1.5424   1.5735   1.6291   1.7216
     1.7603   1.7878   2.0012   2.1042

          k = 0.0260-0.0450 0.0000 ( 22896 PWs)   bands (ev):

   -47.7866 -47.7625 -47.7013 -47.7010 -47.6845 -47.6373 -47.5957 -47.5839
   -47.4568 -47.4085 -47.3999 -47.3638 -26.0062 -25.9740 -25.9642 -25.9621
   -25.9430 -25.9043 -25.8877 -25.8628 -25.8287 -25.8230 -25.7861 -25.6928
   -25.6785 -25.6601 -25.6237 -25.5757 -25.5317 -25.5189 -25.5143 -25.4953
   -25.4937 -25.4895 -25.4670 -25.4547 -25.3896 -25.3844 -25.3132 -25.3044
   -25.2991 -25.2752 -25.2695 -25.2406 -25.2095 -25.1960 -25.1714 -25.0821
    -8.5946  -3.1585  -2.6512  -1.6180  -1.1314  -1.0598  -0.9042  -0.8351
    -0.7094  -0.6030  -0.5154  -0.2162  -0.1461  -0.0180  -0.0010   0.0617
     0.2923   0.2977   0.3280   0.8028   0.9470   1.0799   1.2783   1.4620
     1.5493   1.6106   1.6547   1.7300   1.8579   1.9644   2.0299   2.0844
     2.1380   2.1963   2.3257   2.3594

          k = 0.0519-0.0300 0.0000 ( 22852 PWs)   bands (ev):

   -47.7855 -47.7574 -47.7124 -47.6899 -47.6896 -47.6359 -47.5978 -47.5843
   -47.4525 -47.4135 -47.3983 -47.3645 -25.9818 -25.9754 -25.9602 -25.9305
   -25.9151 -25.8909 -25.8679 -25.8349 -25.8189 -25.8127 -25.7801 -25.6944
   -25.6807 -25.6700 -25.6090 -25.6031 -25.5774 -25.5357 -25.5318 -25.5078
   -25.4901 -25.4813 -25.4736 -25.4260 -25.4184 -25.3909 -25.3142 -25.3025
   -25.2968 -25.2821 -25.2657 -25.2646 -25.2410 -25.2117 -25.1626 -25.0874
    -8.5917  -3.0665  -2.5466  -1.5344  -1.3752  -0.9168  -0.7079  -0.6568
    -0.6362  -0.5670  -0.4580  -0.1474  -0.1030   0.0676   0.1452   0.1687
     0.3245   0.3643   0.4069   0.8247   0.9616   1.0053   1.1628   1.3687
     1.4639   1.5317   1.5771   1.6321   1.8740   1.9133   1.9488   1.9756
     2.0422   2.0563   2.1248   2.3090

          k = 0.0519 0.0000 0.0000 ( 22896 PWs)   bands (ev):

   -47.7866 -47.7625 -47.7013 -47.7010 -47.6845 -47.6373 -47.5957 -47.5839
   -47.4568 -47.4085 -47.3998 -47.3638 -26.0062 -25.9741 -25.9642 -25.9621
   -25.9430 -25.9043 -25.8877 -25.8628 -25.8287 -25.8230 -25.7861 -25.6928
   -25.6785 -25.6601 -25.6237 -25.5757 -25.5317 -25.5189 -25.5143 -25.4953
   -25.4937 -25.4895 -25.4670 -25.4547 -25.3895 -25.3844 -25.3132 -25.3044
   -25.2991 -25.2752 -25.2695 -25.2406 -25.2095 -25.1959 -25.1714 -25.0821
    -8.5946  -3.1585  -2.6512  -1.6180  -1.1314  -1.0598  -0.9042  -0.8351
    -0.7094  -0.6030  -0.5154  -0.2162  -0.1461  -0.0180  -0.0010   0.0617
     0.2923   0.2977   0.3279   0.8028   0.9470   1.0799   1.2783   1.4620
     1.5493   1.6106   1.6547   1.7300   1.8579   1.9644   2.0299   2.0844
     2.1380   2.1963   2.3257   2.3594

          k = 0.0519 0.0300 0.0000 ( 22852 PWs)   bands (ev):

   -47.7855 -47.7574 -47.7124 -47.6899 -47.6897 -47.6359 -47.5978 -47.5843
   -47.4525 -47.4136 -47.3983 -47.3646 -25.9818 -25.9754 -25.9602 -25.9305
   -25.9151 -25.8909 -25.8679 -25.8349 -25.8189 -25.8126 -25.7801 -25.6944
   -25.6807 -25.6701 -25.6090 -25.6032 -25.5774 -25.5357 -25.5318 -25.5078
   -25.4901 -25.4813 -25.4736 -25.4260 -25.4184 -25.3909 -25.3142 -25.3025
   -25.2968 -25.2821 -25.2656 -25.2646 -25.2410 -25.2117 -25.1625 -25.0874
    -8.5917  -3.0665  -2.5466  -1.5344  -1.3752  -0.9168  -0.7079  -0.6568
    -0.6362  -0.5670  -0.4580  -0.1474  -0.1030   0.0676   0.1452   0.1687
     0.3245   0.3643   0.4069   0.8247   0.9616   1.0053   1.1628   1.3687
     1.4639   1.5317   1.5771   1.6321   1.8740   1.9133   1.9488   1.9756
     2.0422   2.0563   2.1248   2.3090

          k = 0.0519-0.1199 0.0000 ( 22856 PWs)   bands (ev):

   -47.7835 -47.7432 -47.7207 -47.7042 -47.6815 -47.6308 -47.6061 -47.5833
   -47.4414 -47.4207 -47.4022 -47.3647 -25.9458 -25.9388 -25.9075 -25.8863
   -25.8693 -25.8416 -25.8231 -25.7937 -25.7908 -25.7846 -25.7565 -25.7333
   -25.7069 -25.6873 -25.6649 -25.6474 -25.6288 -25.5687 -25.5519 -25.5074
   -25.4833 -25.4725 -25.4415 -25.4378 -25.4281 -25.4031 -25.3801 -25.3369
   -25.3015 -25.2959 -25.2766 -25.2646 -25.2426 -25.2303 -25.1655 -25.1205
    -8.5860  -2.8988  -2.1933  -1.5648  -1.1806  -0.9664  -0.7817  -0.5113
    -0.3384  -0.2498  -0.1907   0.0263   0.0794   0.2768   0.3848   0.4144
     0.4747   0.5245   0.6230   0.8154   0.8999   0.9875   1.0939   1.1288
     1.1533   1.2342   1.3052   1.3532   1.5424   1.5735   1.6291   1.7216
     1.7603   1.7878   2.0012   2.1042

          k = 0.0519-0.0899 0.0000 ( 22914 PWs)   bands (ev):

   -47.7825 -47.7241 -47.7236 -47.7235 -47.6784 -47.6245 -47.6144 -47.5824
   -47.4291 -47.4284 -47.4074 -47.3642 -25.9340 -25.8737 -25.8600 -25.8565
   -25.8414 -25.8207 -25.8111 -25.8041 -25.7683 -25.7578 -25.7525 -25.7441
   -25.7439 -25.7054 -25.6867 -25.6658 -25.6541 -25.6467 -25.4989 -25.4934
   -25.4908 -25.4581 -25.4556 -25.4528 -25.4487 -25.3862 -25.3802 -25.3654
   -25.3624 -25.3032 -25.2679 -25.2629 -25.2438 -25.1813 -25.1763 -25.1749
    -8.5832  -2.8271  -1.6549  -1.6052  -1.5164  -0.8570  -0.7708  -0.5361
    -0.1353  -0.0267   0.1686   0.2439   0.2551   0.2812   0.3927   0.5181
     0.7042   0.7181   0.7543   0.8085   0.8240   0.8307   0.8342   0.8593
     0.9635   1.1065   1.1487   1.2986   1.3622   1.4029   1.4701   1.4719
     1.5759   1.6584   1.7755   2.0545

          k = 0.0519-0.0599 0.0000 ( 22856 PWs)   bands (ev):

   -47.7835 -47.7432 -47.7207 -47.7042 -47.6815 -47.6308 -47.6061 -47.5833
   -47.4414 -47.4207 -47.4022 -47.3647 -25.9458 -25.9388 -25.9075 -25.8863
   -25.8693 -25.8416 -25.8231 -25.7937 -25.7908 -25.7846 -25.7565 -25.7333
   -25.7069 -25.6873 -25.6648 -25.6474 -25.6288 -25.5687 -25.5519 -25.5074
   -25.4833 -25.4724 -25.4414 -25.4378 -25.4281 -25.4031 -25.3801 -25.3369
   -25.3015 -25.2959 -25.2766 -25.2646 -25.2426 -25.2303 -25.1655 -25.1205
    -8.5860  -2.8988  -2.1933  -1.5648  -1.1806  -0.9664  -0.7817  -0.5113
    -0.3384  -0.2498  -0.1907   0.0263   0.0794   0.2768   0.3848   0.4144
     0.4747   0.5245   0.6230   0.8154   0.8999   0.9875   1.0939   1.1288
     1.1533   1.2342   1.3052   1.3532   1.5424   1.5735   1.6291   1.7216
     1.7603   1.7878   2.0012   2.1042

          k =-0.0779 0.0450 0.0000 ( 22880 PWs)   bands (ev):

   -47.7834 -47.7352 -47.7348 -47.6899 -47.6897 -47.6319 -47.6040 -47.5843
   -47.4388 -47.4263 -47.3983 -47.3655 -25.9428 -25.9414 -25.9306 -25.8961
   -25.8734 -25.8392 -25.8286 -25.7931 -25.7886 -25.7347 -25.7243 -25.7067
   -25.6986 -25.6947 -25.6760 -25.6468 -25.6324 -25.6187 -25.5638 -25.5616
   -25.4677 -25.4660 -25.4336 -25.4320 -25.4032 -25.3690 -25.3554 -25.3469
   -25.3216 -25.3163 -25.2875 -25.2692 -25.2630 -25.2414 -25.1327 -25.1179
    -8.5860  -2.8908  -2.0532  -1.9231  -1.1817  -0.9057  -0.4861  -0.3910
    -0.3216  -0.3168  -0.2453  -0.1173  -0.1044   0.3363   0.4802   0.5114
     0.5604   0.5704   0.6057   0.6943   1.0082   1.0205   1.0233   1.0997
     1.1289   1.2275   1.3494   1.4651   1.5261   1.5298   1.5922   1.7707
     1.7889   1.8453   1.9943   2.1960

          k =-0.0779 0.0749 0.0000 ( 22856 PWs)   bands (ev):

   -47.7835 -47.7432 -47.7207 -47.7042 -47.6815 -47.6308 -47.6061 -47.5833
   -47.4414 -47.4207 -47.4022 -47.3647 -25.9458 -25.9388 -25.9075 -25.8863
   -25.8693 -25.8416 -25.8231 -25.7937 -25.7908 -25.7846 -25.7565 -25.7332
   -25.7069 -25.6873 -25.6649 -25.6474 -25.6288 -25.5687 -25.5519 -25.5074
   -25.4833 -25.4725 -25.4415 -25.4378 -25.4281 -25.4031 -25.3801 -25.3369
   -25.3015 -25.2959 -25.2766 -25.2646 -25.2426 -25.2303 -25.1655 -25.1205
    -8.5860  -2.8988  -2.1933  -1.5648  -1.1806  -0.9664  -0.7817  -0.5113
    -0.3384  -0.2498  -0.1907   0.0263   0.0794   0.2768   0.3848   0.4144
     0.4747   0.5245   0.6230   0.8154   0.8999   0.9875   1.0939   1.1288
     1.1533   1.2342   1.3052   1.3532   1.5424   1.5735   1.6291   1.7216
     1.7603   1.7878   2.0012   2.1042

          k =-0.0779 0.1049 0.0000 ( 22856 PWs)   bands (ev):

   -47.7835 -47.7432 -47.7207 -47.7042 -47.6815 -47.6308 -47.6061 -47.5833
   -47.4414 -47.4207 -47.4022 -47.3647 -25.9458 -25.9388 -25.9075 -25.8863
   -25.8693 -25.8416 -25.8231 -25.7937 -25.7908 -25.7846 -25.7565 -25.7333
   -25.7069 -25.6873 -25.6649 -25.6474 -25.6288 -25.5687 -25.5519 -25.5074
   -25.4833 -25.4725 -25.4414 -25.4378 -25.4281 -25.4031 -25.3801 -25.3369
   -25.3015 -25.2959 -25.2766 -25.2646 -25.2426 -25.2303 -25.1655 -25.1205
    -8.5860  -2.8988  -2.1933  -1.5648  -1.1806  -0.9664  -0.7817  -0.5113
    -0.3384  -0.2498  -0.1907   0.0263   0.0794   0.2768   0.3848   0.4144
     0.4747   0.5245   0.6230   0.8154   0.8999   0.9875   1.0939   1.1288
     1.1533   1.2342   1.3052   1.3532   1.5424   1.5735   1.6291   1.7216
     1.7603   1.7878   2.0012   2.1042

          k =-0.0779-0.0450 0.0000 ( 22880 PWs)   bands (ev):

   -47.7834 -47.7352 -47.7348 -47.6899 -47.6897 -47.6319 -47.6040 -47.5844
   -47.4388 -47.4264 -47.3983 -47.3656 -25.9428 -25.9414 -25.9306 -25.8961
   -25.8734 -25.8392 -25.8286 -25.7931 -25.7886 -25.7347 -25.7243 -25.7067
   -25.6986 -25.6947 -25.6761 -25.6468 -25.6324 -25.6187 -25.5638 -25.5616
   -25.4677 -25.4661 -25.4336 -25.4321 -25.4031 -25.3690 -25.3554 -25.3469
   -25.3216 -25.3163 -25.2875 -25.2691 -25.2629 -25.2414 -25.1327 -25.1179
    -8.5860  -2.8908  -2.0532  -1.9231  -1.1817  -0.9057  -0.4861  -0.3910
    -0.3216  -0.3168  -0.2453  -0.1173  -0.1044   0.3363   0.4802   0.5114
     0.5604   0.5705   0.6057   0.6943   1.0082   1.0206   1.0233   1.0997
     1.1289   1.2275   1.3494   1.4651   1.5261   1.5298   1.5922   1.7707
     1.7889   1.8453   1.9943   2.1960

     the Fermi energy is     1.4967 ev

!    total energy              =   -1209.66124979 Ry
     Harris-Foulkes estimate   =   -1209.66125343 Ry
     estimated scf accuracy    <       0.00000885 Ry

     The total energy is the sum of the following terms:

     one-electron contribution =   -8396.32330556 Ry
     hartree contribution      =    4191.00155666 Ry
     xc contribution           =    -224.83365159 Ry
     ewald contribution        =    3220.60694780 Ry
     electric field correction =       0.00000104 Ry
     smearing contrib. (-TS)   =      -0.11279814 Ry

     convergence has been achieved in   9 iterations
 
 BEEF-vdW xc energy contributions
           1 :   -192.508772324914     
           2 :    174.193215019160     
           3 :   -143.356782403885     
           4 :    108.699715438019     
           5 :   -78.0399870085706     
           6 :    55.5962482307313     
           7 :   -41.3531487885147     
           8 :    32.4050530861953     
           9 :   -25.2334556751490     
          10 :    17.6247984778228     
          11 :   -9.38871976995026     
          12 :    1.81295351222488     
          13 :    3.55797228986071     
          14 :   -6.01386193547214     
          15 :    6.06795548366631     
          16 :   -5.05380077683699     
          17 :    4.28913027784290     
          18 :   -4.36821452189679     
          19 :    4.99573731986624     
          20 :   -5.38812691876041     
          21 :    4.91452875783457     
          22 :   -3.54085542266117     
          23 :    1.81943378254914     
          24 :  -0.491571048858958     
          25 :   9.061414748174457E-003
          26 :  -0.291989393663357     
          27 :   0.847616611499717     
          28 :   -1.13152980590073     
          29 :   0.895871189881717     
          30 :  -0.307501419623151     
          31 :   -22.3815453184738     
          32 :   -16.6828459058345     

     Forces acting on atoms (Ry/au):


     negative rho (up, down):  7.501E-01 0.000E+00
     atom    1 type  1   force =    -0.00010245   -0.00005909    0.01488517
     atom    2 type  1   force =     0.00010305   -0.00006222    0.01488784
     atom    3 type  1   force =    -0.00000244    0.00012031    0.01488734
     atom    4 type  1   force =     0.00000243    0.00000119    0.01631318
     atom    5 type  1   force =    -0.00000125   -0.00022033   -0.00319512
     atom    6 type  1   force =     0.00000143    0.00000051   -0.00797621
     atom    7 type  1   force =     0.00019162    0.00011048   -0.00319671
     atom    8 type  1   force =    -0.00019151    0.00010903   -0.00319537
     atom    9 type  1   force =    -0.00000236   -0.00000073   -0.01456745
     atom   10 type  1   force =     0.00000236    0.03470319    0.02119430
     atom   11 type  1   force =     0.03005461   -0.01734949    0.02119362
     atom   12 type  1   force =    -0.03005522   -0.01735296    0.02119685
     atom   13 type  2   force =    -0.00000030    0.00000015   -0.03333740
     atom   14 type  3   force =     0.00000003   -0.00000005   -0.05909005

     Total force =     0.098873     Total SCF correction =     0.004801


     entering subroutine stress ...


     negative rho (up, down):  7.501E-01 0.000E+00
          total   stress  (Ry/bohr**3)                   (kbar)     P=  -14.83
  -0.00007642   0.00000000  -0.00000000        -11.24      0.00     -0.00
   0.00000000  -0.00007642  -0.00000000          0.00    -11.24     -0.00
  -0.00000000  -0.00000000  -0.00014952         -0.00     -0.00    -21.99


     number of scf cycles    =   2
     number of bfgs steps    =   1

     energy   old            =   -1209.6464484537 Ry
     energy   new            =   -1209.6612497894 Ry

     CASE: energy  _new < energy  _old

     new trust radius        =       0.1561569060 bohr
     new conv_thr            =       0.0000001000 Ry


ATOMIC_POSITIONS (crystal)
Zr1      0.166666667   0.166666667   0.396150897    0   0   0
Zr1      0.666666667   0.166666667   0.396150897    0   0   0
Zr1      0.166666667   0.666666667   0.396150897    0   0   0
Zr1      0.666666667   0.666666667   0.396150897    0   0   0
Zr1      0.833333333   0.333333333   0.500000000    0   0   0
Zr1      0.333333333   0.333333333   0.500000000    0   0   0
Zr1      0.833333333   0.833333333   0.500000000    0   0   0
Zr1      0.333333333   0.833333333   0.500000000    0   0   0
Zr1     -0.000000544  -0.000000415   0.602738271
Zr1      0.492832568   0.014336017   0.605806729
Zr1      0.014336025   0.492832710   0.605806704
Zr1      0.492831625   0.492831671   0.605806761
C1       0.333333332   0.333333504   0.663025155
H1       0.333333325   0.333333315   0.709482184



     Writing output data file calc.save
     Check: negative starting charge=   -0.729532
     NEW-OLD atomic charge density approx. for the potential
     Check: negative starting charge=   -0.731219

     negative rho (up, down):  7.516E-01 0.000E+00
 
     Adding external electric field

     Computed dipole along edir(3) : 
        Dipole               -0.0221 Ry au,         -0.0561 Debye
        Dipole field         -0.0000 Ry au
 
        Potential amp.        0.0042 Ry
        Total length         46.5096 bohr
 

     total cpu time spent up to now is      935.1 secs

     per-process dynamical memory:    92.0 Mb

     Self-consistent Calculation

     iteration #  1     ecut=    36.75 Ry     beta=0.30
     Davidson diagonalization with overlap
     c_bands:  1 eigenvalues not converged
     ethr =  1.00E-06,  avg # of iterations = 15.6

     negative rho (up, down):  7.517E-01 0.000E+00
 
     Adding external electric field

     Computed dipole along edir(3) : 
        Dipole               -0.1494 Ry au,         -0.3798 Debye
        Dipole field         -0.0003 Ry au
 
        Potential amp.        0.0287 Ry
        Total length         46.5096 bohr
 

     total cpu time spent up to now is      978.3 secs

     total energy              =   -1209.66547152 Ry
     Harris-Foulkes estimate   =   -1209.68826217 Ry
     estimated scf accuracy    <       0.05277969 Ry

     iteration #  2     ecut=    36.75 Ry     beta=0.30
     Davidson diagonalization with overlap
     ethr =  3.54E-05,  avg # of iterations =  6.8

     negative rho (up, down):  7.518E-01 0.000E+00
 
     Adding external electric field

     Computed dipole along edir(3) : 
        Dipole                0.2144 Ry au,          0.5450 Debye
        Dipole field          0.0004 Ry au
 
        Potential amp.       -0.0412 Ry
        Total length         46.5096 bohr
 

     total cpu time spent up to now is     1005.8 secs

     total energy              =   -1209.61930819 Ry
     Harris-Foulkes estimate   =   -1209.71356575 Ry
     estimated scf accuracy    <       2.20183927 Ry

     iteration #  3     ecut=    36.75 Ry     beta=0.30
     Davidson diagonalization with overlap
     ethr =  3.54E-05,  avg # of iterations =  7.3

     negative rho (up, down):  7.518E-01 0.000E+00
 
     Adding external electric field

[...]
   -25.5740 -25.5470 -25.5315 -25.5270 -25.4839 -25.4592 -25.3924 -25.3872
   -25.3448 -25.3396 -25.3155 -25.2793 -25.2530 -25.2240 -25.2112 -25.1718
   -25.1426 -25.1314 -25.1118 -25.0941 -25.0771 -25.0722 -25.0122 -24.9693
    -8.9550  -3.1508  -2.1337  -1.5281  -1.1657  -0.9347  -0.7521  -0.5715
    -0.3743  -0.2326  -0.1794   0.0549   0.1677   0.2870   0.4568   0.4804
     0.5291   0.5835   0.7246   0.8973   0.9984   1.0856   1.1632   1.2149
     1.2432   1.3401   1.3581   1.4266   1.5782   1.6423   1.7168   1.8234
     1.8620   1.8902   2.0871   2.2301

          k = 0.0260-0.0450 0.0000 ( 22896 PWs)   bands (ev):

   -47.6755 -47.6156 -47.6129 -47.5975 -47.5314 -47.4352 -47.3916 -47.3793
   -47.3025 -47.2566 -47.2484 -47.2099 -25.9128 -25.8715 -25.8683 -25.8464
   -25.7743 -25.7610 -25.7376 -25.7297 -25.7140 -25.7106 -25.6516 -25.5723
   -25.5537 -25.5487 -25.5192 -25.4296 -25.4289 -25.4012 -25.3988 -25.3540
   -25.3358 -25.3316 -25.2970 -25.2854 -25.2521 -25.2152 -25.1549 -25.1445
   -25.1365 -25.1071 -25.0901 -25.0719 -25.0555 -25.0401 -25.0188 -24.9315
    -8.9676  -3.3366  -2.6580  -1.5553  -1.1969  -1.0218  -0.8396  -0.8235
    -0.7149  -0.5821  -0.4986  -0.1729  -0.1339   0.0555   0.0772   0.1400
     0.2932   0.3275   0.4949   0.8955   1.0458   1.1488   1.4155   1.5361
     1.6087   1.6578   1.7375   1.8130   1.9680   2.0160   2.1427   2.1538
     2.2771   2.3418   2.4522   2.4743

          k = 0.0519-0.0300 0.0000 ( 22852 PWs)   bands (ev):

   -47.6703 -47.6256 -47.6040 -47.6016 -47.5294 -47.4352 -47.3930 -47.3800
   -47.2984 -47.2614 -47.2471 -47.2107 -25.8860 -25.8827 -25.8357 -25.8159
   -25.7518 -25.7499 -25.7419 -25.7144 -25.7065 -25.6837 -25.6419 -25.5720
   -25.5543 -25.5534 -25.5099 -25.5028 -25.4425 -25.4067 -25.3863 -25.3602
   -25.3298 -25.3266 -25.3131 -25.3036 -25.2570 -25.2191 -25.1576 -25.1401
   -25.1357 -25.1172 -25.0982 -25.0896 -25.0777 -25.0582 -25.0085 -24.9361
    -8.9634  -3.2745  -2.5256  -1.5017  -1.3161  -0.9338  -0.7890  -0.6595
    -0.5765  -0.5293  -0.3895  -0.1523  -0.0659   0.1079   0.2171   0.2519
     0.3326   0.4008   0.5798   0.9133   1.0409   1.1060   1.2841   1.4237
     1.5486   1.5970   1.6351   1.7111   1.9179   1.9831   2.0386   2.0756
     2.1539   2.1672   2.2577   2.3959

          k = 0.0519 0.0000 0.0000 ( 22896 PWs)   bands (ev):

   -47.6755 -47.6156 -47.6129 -47.5975 -47.5314 -47.4352 -47.3916 -47.3793
   -47.3025 -47.2566 -47.2484 -47.2099 -25.9128 -25.8715 -25.8683 -25.8464
   -25.7743 -25.7610 -25.7376 -25.7297 -25.7140 -25.7106 -25.6516 -25.5723
   -25.5537 -25.5487 -25.5192 -25.4296 -25.4289 -25.4012 -25.3988 -25.3540
   -25.3358 -25.3316 -25.2970 -25.2854 -25.2521 -25.2152 -25.1549 -25.1445
   -25.1365 -25.1071 -25.0901 -25.0719 -25.0555 -25.0401 -25.0188 -24.9315
    -8.9676  -3.3366  -2.6580  -1.5553  -1.1969  -1.0218  -0.8396  -0.8235
    -0.7149  -0.5821  -0.4986  -0.1729  -0.1339   0.0555   0.0772   0.1400
     0.2932   0.3275   0.4949   0.8955   1.0458   1.1488   1.4155   1.5361
     1.6087   1.6578   1.7375   1.8130   1.9680   2.0160   2.1427   2.1538
     2.2771   2.3418   2.4522   2.4743

          k = 0.0519 0.0300 0.0000 ( 22852 PWs)   bands (ev):

   -47.6703 -47.6256 -47.6040 -47.6016 -47.5294 -47.4352 -47.3930 -47.3800
   -47.2984 -47.2614 -47.2471 -47.2107 -25.8860 -25.8827 -25.8357 -25.8159
   -25.7518 -25.7499 -25.7419 -25.7144 -25.7065 -25.6837 -25.6419 -25.5720
   -25.5543 -25.5534 -25.5099 -25.5028 -25.4425 -25.4067 -25.3863 -25.3602
   -25.3298 -25.3266 -25.3131 -25.3036 -25.2570 -25.2191 -25.1576 -25.1401
   -25.1357 -25.1172 -25.0982 -25.0896 -25.0777 -25.0582 -25.0085 -24.9361
    -8.9634  -3.2745  -2.5256  -1.5017  -1.3161  -0.9338  -0.7890  -0.6595
    -0.5765  -0.5293  -0.3894  -0.1523  -0.0659   0.1079   0.2171   0.2519
     0.3326   0.4008   0.5798   0.9133   1.0409   1.1060   1.2841   1.4237
     1.5486   1.5970   1.6351   1.7111   1.9179   1.9831   2.0386   2.0756
     2.1539   2.1672   2.2577   2.3959

          k = 0.0519-0.1199 0.0000 ( 22856 PWs)   bands (ev):

   -47.6562 -47.6337 -47.6171 -47.5945 -47.5255 -47.4330 -47.4011 -47.3784
   -47.2877 -47.2681 -47.2505 -47.2110 -25.8479 -25.8117 -25.8028 -25.7699
   -25.7227 -25.7154 -25.6974 -25.6925 -25.6819 -25.6632 -25.6379 -25.6000
   -25.5740 -25.5470 -25.5315 -25.5270 -25.4839 -25.4592 -25.3924 -25.3872
   -25.3448 -25.3396 -25.3155 -25.2793 -25.2530 -25.2240 -25.2112 -25.1718
   -25.1426 -25.1314 -25.1118 -25.0941 -25.0771 -25.0722 -25.0122 -24.9693
    -8.9550  -3.1508  -2.1337  -1.5281  -1.1657  -0.9347  -0.7521  -0.5715
    -0.3743  -0.2326  -0.1794   0.0549   0.1677   0.2870   0.4568   0.4804
     0.5291   0.5835   0.7246   0.8973   0.9984   1.0856   1.1632   1.2149
     1.2432   1.3401   1.3581   1.4266   1.5782   1.6423   1.7168   1.8234
     1.8620   1.8902   2.0871   2.2301

          k = 0.0519-0.0899 0.0000 ( 22914 PWs)   bands (ev):

   -47.6394 -47.6354 -47.6353 -47.5915 -47.5235 -47.4297 -47.4079 -47.3770
   -47.2759 -47.2756 -47.2552 -47.2108 -25.7856 -25.7776 -25.7569 -25.7554
   -25.7503 -25.6994 -25.6744 -25.6690 -25.6679 -25.6611 -25.6481 -25.6136
   -25.6064 -25.5428 -25.5381 -25.5214 -25.5038 -25.4774 -25.4025 -25.4009
   -25.3969 -25.3142 -25.2898 -25.2807 -25.2802 -25.2346 -25.2095 -25.1787
   -25.1751 -25.1479 -25.0983 -25.0938 -25.0825 -25.0270 -25.0261 -25.0218
    -8.9508  -3.0887  -1.6643  -1.5190  -1.4265  -0.9292  -0.7644  -0.4505
    -0.3081  -0.0795   0.2607   0.3045   0.3222   0.3486   0.5022   0.5171
     0.7454   0.8006   0.8326   0.8467   0.9193   0.9375   0.9386   0.9415
     1.0075   1.1623   1.2060   1.3990   1.4642   1.4832   1.5511   1.6138
     1.6799   1.7454   1.8783   2.1686

          k = 0.0519-0.0599 0.0000 ( 22856 PWs)   bands (ev):

   -47.6562 -47.6337 -47.6171 -47.5945 -47.5255 -47.4330 -47.4011 -47.3784
   -47.2877 -47.2681 -47.2505 -47.2110 -25.8479 -25.8117 -25.8028 -25.7699
   -25.7227 -25.7154 -25.6974 -25.6925 -25.6819 -25.6632 -25.6379 -25.6000
   -25.5740 -25.5470 -25.5315 -25.5270 -25.4839 -25.4592 -25.3924 -25.3872
   -25.3448 -25.3396 -25.3155 -25.2793 -25.2530 -25.2240 -25.2112 -25.1718
   -25.1426 -25.1314 -25.1118 -25.0941 -25.0771 -25.0722 -25.0122 -24.9693
    -8.9550  -3.1508  -2.1337  -1.5281  -1.1657  -0.9347  -0.7521  -0.5715
    -0.3743  -0.2326  -0.1794   0.0549   0.1677   0.2870   0.4568   0.4804
     0.5291   0.5835   0.7246   0.8973   0.9984   1.0856   1.1632   1.2149
     1.2432   1.3401   1.3581   1.4266   1.5782   1.6423   1.7168   1.8234
     1.8620   1.8902   2.0871   2.2301

          k =-0.0779 0.0450 0.0000 ( 22880 PWs)   bands (ev):

   -47.6494 -47.6466 -47.6041 -47.6016 -47.5253 -47.4345 -47.3980 -47.3801
   -47.2853 -47.2734 -47.2470 -47.2117 -25.8446 -25.8406 -25.8003 -25.7704
   -25.7171 -25.7160 -25.7026 -25.6845 -25.6754 -25.6334 -25.6208 -25.5879
   -25.5848 -25.5663 -25.5318 -25.5168 -25.4903 -25.4857 -25.3999 -25.3871
   -25.3464 -25.3441 -25.3050 -25.2828 -25.2165 -25.2069 -25.1989 -25.1893
   -25.1661 -25.1471 -25.1190 -25.1005 -25.0923 -25.0788 -24.9786 -24.9666
    -8.9550  -3.1496  -1.9971  -1.8494  -1.1904  -0.8477  -0.5669  -0.5161
    -0.2753  -0.2445  -0.1640  -0.1545  -0.0067   0.3086   0.5433   0.5653
     0.6316   0.6472   0.6857   0.8108   1.0594   1.1088   1.1218   1.1645
     1.2469   1.3172   1.4578   1.5275   1.6163   1.6174   1.6656   1.8375
     1.8625   1.8911   2.0672   2.3037

          k =-0.0779 0.0749 0.0000 ( 22856 PWs)   bands (ev):

   -47.6562 -47.6337 -47.6171 -47.5945 -47.5255 -47.4330 -47.4011 -47.3784
   -47.2877 -47.2681 -47.2505 -47.2110 -25.8479 -25.8117 -25.8028 -25.7699
   -25.7227 -25.7154 -25.6974 -25.6925 -25.6819 -25.6632 -25.6379 -25.6000
   -25.5740 -25.5470 -25.5315 -25.5270 -25.4839 -25.4592 -25.3924 -25.3872
   -25.3448 -25.3396 -25.3155 -25.2793 -25.2530 -25.2240 -25.2112 -25.1718
   -25.1426 -25.1314 -25.1118 -25.0941 -25.0771 -25.0722 -25.0122 -24.9693
    -8.9550  -3.1508  -2.1337  -1.5281  -1.1657  -0.9347  -0.7521  -0.5715
    -0.3743  -0.2326  -0.1794   0.0549   0.1677   0.2870   0.4568   0.4804
     0.5291   0.5835   0.7246   0.8973   0.9984   1.0856   1.1632   1.2149
     1.2432   1.3401   1.3581   1.4266   1.5782   1.6423   1.7168   1.8234
     1.8620   1.8902   2.0871   2.2301

          k =-0.0779 0.1049 0.0000 ( 22856 PWs)   bands (ev):

   -47.6562 -47.6337 -47.6171 -47.5945 -47.5255 -47.4330 -47.4011 -47.3784
   -47.2877 -47.2681 -47.2505 -47.2110 -25.8479 -25.8117 -25.8028 -25.7699
   -25.7227 -25.7154 -25.6974 -25.6925 -25.6819 -25.6632 -25.6379 -25.6000
   -25.5740 -25.5470 -25.5315 -25.5270 -25.4839 -25.4592 -25.3924 -25.3872
   -25.3448 -25.3396 -25.3155 -25.2793 -25.2530 -25.2240 -25.2112 -25.1718
   -25.1426 -25.1314 -25.1118 -25.0941 -25.0771 -25.0722 -25.0122 -24.9693
    -8.9550  -3.1508  -2.1337  -1.5281  -1.1657  -0.9347  -0.7521  -0.5715
    -0.3743  -0.2326  -0.1794   0.0549   0.1677   0.2870   0.4568   0.4804
     0.5291   0.5835   0.7246   0.8973   0.9984   1.0856   1.1632   1.2149
     1.2432   1.3401   1.3581   1.4266   1.5782   1.6423   1.7168   1.8234
     1.8620   1.8902   2.0871   2.2301

          k =-0.0779-0.0450 0.0000 ( 22880 PWs)   bands (ev):

   -47.6494 -47.6466 -47.6041 -47.6016 -47.5253 -47.4345 -47.3980 -47.3801
   -47.2853 -47.2734 -47.2471 -47.2117 -25.8446 -25.8406 -25.8003 -25.7704
   -25.7171 -25.7160 -25.7026 -25.6845 -25.6754 -25.6334 -25.6208 -25.5879
   -25.5848 -25.5663 -25.5318 -25.5168 -25.4903 -25.4857 -25.3999 -25.3871
   -25.3464 -25.3441 -25.3050 -25.2828 -25.2165 -25.2069 -25.1989 -25.1893
   -25.1661 -25.1471 -25.1190 -25.1005 -25.0923 -25.0788 -24.9786 -24.9666
    -8.9550  -3.1496  -1.9971  -1.8494  -1.1904  -0.8477  -0.5669  -0.5161
    -0.2753  -0.2445  -0.1640  -0.1545  -0.0067   0.3086   0.5433   0.5653
     0.6316   0.6472   0.6857   0.8109   1.0594   1.1088   1.1218   1.1645
     1.2469   1.3172   1.4577   1.5275   1.6163   1.6174   1.6656   1.8376
     1.8625   1.8911   2.0672   2.3037

     the Fermi energy is     1.5791 ev

!    total energy              =   -1209.69604140 Ry
     Harris-Foulkes estimate   =   -1209.69604160 Ry
     estimated scf accuracy    <       0.00000005 Ry

     The total energy is the sum of the following terms:

     one-electron contribution =   -8540.48485460 Ry
     hartree contribution      =    4263.75143215 Ry
     xc contribution           =    -225.17509506 Ry
     ewald contribution        =    3292.32450447 Ry
     electric field correction =       0.00001152 Ry
     smearing contrib. (-TS)   =      -0.11203987 Ry

     convergence has been achieved in  10 iterations
 
 BEEF-vdW xc energy contributions
           1 :   -192.843304657281     
           2 :    174.599627740397     
           3 :   -143.838077420222     
           4 :    109.179752693304     
           5 :   -78.4074309553673     
           6 :    55.7691300962534     
           7 :   -41.3264794038517     
           8 :    32.2526500176355     
           9 :   -25.0644641559476     
          10 :    17.5220160735447     
          11 :   -9.36607858676996     
          12 :    1.81742632246414     
          13 :    3.60279070299521     
          14 :   -6.15156933964658     
          15 :    6.27680372656187     
          16 :   -5.25812571735270     
          17 :    4.40642698473468     
          18 :   -4.35984379749823     
          19 :    4.88819894284404     
          20 :   -5.25349124144833     
          21 :    4.82515188123091     
          22 :   -3.52895987486386     
          23 :    1.86650716794983     
          24 :  -0.550820368251379     
          25 :   4.258935047522527E-002
          26 :  -0.296448447658463     
          27 :   0.852028604421093     
          28 :   -1.17096771921348     
          29 :   0.981061469083585     
          30 :  -0.412572822303446     
          31 :   -22.4052169216650     
          32 :   -16.7211449076887     

     Forces acting on atoms (Ry/au):


     negative rho (up, down):  7.502E-01 0.000E+00
     atom    1 type  1   force =    -0.00028478   -0.00016443    0.01235753
     atom    2 type  1   force =     0.00028480   -0.00016437    0.01235748
     atom    3 type  1   force =     0.00000007    0.00032884    0.01235748
     atom    4 type  1   force =    -0.00000006   -0.00000001    0.01299842
     atom    5 type  1   force =    -0.00000002    0.00326007   -0.01153026
     atom    6 type  1   force =    -0.00000017   -0.00000012   -0.01561790
     atom    7 type  1   force =    -0.00282333   -0.00163008   -0.01153108
     atom    8 type  1   force =     0.00282320   -0.00163002   -0.01153010
     atom    9 type  1   force =     0.00000110    0.00000022   -0.00022772
     atom   10 type  1   force =    -0.00000134   -0.00013333    0.00000142
     atom   11 type  1   force =    -0.00011603    0.00006575    0.00000132
     atom   12 type  1   force =     0.00011802    0.00006845    0.00000008
     atom   13 type  2   force =    -0.00000125   -0.00000084    0.00112311
     atom   14 type  3   force =    -0.00000021   -0.00000011   -0.00075979

     Total force =     0.001395     Total SCF correction =     0.000675
     SCF correction compared to forces is large: reduce conv_thr to get better values


     entering subroutine stress ...


     negative rho (up, down):  7.502E-01 0.000E+00
          total   stress  (Ry/bohr**3)                   (kbar)     P=   -4.85
  -0.00002863   0.00000000  -0.00000000         -4.21      0.00     -0.00
   0.00000000  -0.00002863  -0.00000000          0.00     -4.21     -0.00
  -0.00000000  -0.00000000  -0.00004163         -0.00     -0.00     -6.12


     bfgs converged in  16 scf cycles and  15 bfgs steps
     (criteria: energy <  1.0E+00, force <  1.9E-03)

     End of BFGS Geometry Optimization

     Final energy   =   -1209.6960413953 Ry
Begin final coordinates

ATOMIC_POSITIONS (crystal)
Zr1      0.166666667   0.166666667   0.396150897    0   0   0
Zr1      0.666666667   0.166666667   0.396150897    0   0   0
Zr1      0.166666667   0.666666667   0.396150897    0   0   0
Zr1      0.666666667   0.666666667   0.396150897    0   0   0
Zr1      0.833333333   0.333333333   0.500000000    0   0   0
Zr1      0.333333333   0.333333333   0.500000000    0   0   0
Zr1      0.833333333   0.833333333   0.500000000    0   0   0
Zr1      0.333333333   0.833333333   0.500000000    0   0   0
Zr1     -0.000000768  -0.000000276   0.597515035
Zr1      0.495812956   0.008375604   0.602401575
Zr1      0.008375572   0.495812823   0.602401593
Zr1      0.495811627   0.495811326   0.602401676
C1       0.333333610   0.333333670   0.653517474
H1       0.333333675   0.333333566   0.697254807
End final coordinates



     Writing output data file calc.save
 
     init_run     :     14.76s CPU     15.22s WALL (       1 calls)
     electrons    :   5603.92s CPU   6018.82s WALL (      16 calls)
     update_pot   :     54.46s CPU     56.94s WALL (      15 calls)
     forces       :    304.29s CPU    324.31s WALL (      16 calls)
     stress       :    911.61s CPU    964.84s WALL (      16 calls)

     Called by init_run:
     wfcinit      :      5.99s CPU      6.08s WALL (       1 calls)
     potinit      :      2.36s CPU      2.49s WALL (       1 calls)

     Called by electrons:
     c_bands      :   2121.68s CPU   2245.09s WALL (     187 calls)
     sum_band     :   1121.50s CPU   1206.49s WALL (     187 calls)
     v_of_rho     :    391.09s CPU    438.64s WALL (     202 calls)
     newd         :    992.09s CPU   1006.91s WALL (     202 calls)
     mix_rho      :     13.63s CPU     13.99s WALL (     187 calls)
     vdW_energy   :    204.48s CPU    224.97s WALL (     778 calls)
     vdW_ffts     :    517.14s CPU    535.35s WALL (    1588 calls)
     vdW_v        :    211.44s CPU    216.69s WALL (     778 calls)

     Called by c_bands:
     init_us_2    :     14.62s CPU     14.71s WALL (    2035 calls)
     cegterg      :   1913.39s CPU   1962.99s WALL (     935 calls)

     Called by *egterg:
     h_psi        :   1295.76s CPU   1324.24s WALL (    5269 calls)
     s_psi        :    117.95s CPU    118.23s WALL (    5269 calls)
     g_psi        :      7.71s CPU      7.76s WALL (    4329 calls)
     cdiaghg      :    151.94s CPU    152.97s WALL (    5184 calls)

     Called by h_psi:
     add_vuspsi   :    121.52s CPU    121.79s WALL (    5269 calls)

     General routines
     calbec       :    183.37s CPU    186.82s WALL (    6364 calls)
     fft          :    820.79s CPU    880.73s WALL (   46999 calls)
     ffts         :      0.86s CPU      0.90s WALL (     389 calls)
     fftw         :    778.56s CPU    808.06s WALL (  494886 calls)
     interpolate  :      8.49s CPU      8.76s WALL (     389 calls)
     davcio       :      0.00s CPU      0.03s WALL (       5 calls)
 
     Parallel routines
     fft_scatter  :    971.84s CPU   1056.89s WALL (  542274 calls)
 
     PWSCF        :     1h56m CPU        2h 4m WALL

 
   This run was terminated on:   9: 1:23  25Apr2018            

=------------------------------------------------------------------------------=
   JOB DONE.
=------------------------------------------------------------------------------=
Job  /afs/slac/g/suncat/bin/suncat-tsmpirun -x LD_LIBRARY_PATH -wdir /scratch/qe384155_GIQTE pw.x -npool 4 -in pw.inp

TID   HOST_NAME   COMMAND_LINE            STATUS            TERMINATION_TIME
===== ========== ================  =======================  ===================
00000 suncat0246 pw.x -npool 4 -i  Done                     04/25/2018 09:01:23
00001 suncat0246 pw.x -npool 4 -i  Done                     04/25/2018 09:01:23
00002 suncat0246 pw.x -npool 4 -i  Done                     04/25/2018 09:01:23
00003 suncat0246 pw.x -npool 4 -i  Done                     04/25/2018 09:01:23
00004 suncat0246 pw.x -npool 4 -i  Done                     04/25/2018 09:01:23
00005 suncat0246 pw.x -npool 4 -i  Done                     04/25/2018 09:01:23
00006 suncat0246 pw.x -npool 4 -i  Done                     04/25/2018 09:01:23
00007 suncat0246 pw.x -npool 4 -i  Done                     04/25/2018 09:01:23
00008 suncat0223 pw.x -npool 4 -i  Done                     04/25/2018 09:01:23
00009 suncat0223 pw.x -npool 4 -i  Done                     04/25/2018 09:01:23
00010 suncat0223 pw.x -npool 4 -i  Done                     04/25/2018 09:01:23
00011 suncat0223 pw.x -npool 4 -i  Done                     04/25/2018 09:01:23
00012 suncat0223 pw.x -npool 4 -i  Done                     04/25/2018 09:01:23
00013 suncat0223 pw.x -npool 4 -i  Done                     04/25/2018 09:01:23
00014 suncat0223 pw.x -npool 4 -i  Done                     04/25/2018 09:01:23
00015 suncat0223 pw.x -npool 4 -i  Done                     04/25/2018 09:01:23
00016 suncat0221 pw.x -npool 4 -i  Done                     04/25/2018 09:01:23
00017 suncat0221 pw.x -npool 4 -i  Done                     04/25/2018 09:01:23
00018 suncat0221 pw.x -npool 4 -i  Done                     04/25/2018 09:01:23
00019 suncat0221 pw.x -npool 4 -i  Done                     04/25/2018 09:01:23
00020 suncat0221 pw.x -npool 4 -i  Done                     04/25/2018 09:01:23
00021 suncat0221 pw.x -npool 4 -i  Done                     04/25/2018 09:01:23
00022 suncat0221 pw.x -npool 4 -i  Done                     04/25/2018 09:01:23
00023 suncat0221 pw.x -npool 4 -i  Done                     04/25/2018 09:01:23
00024 suncat0212 pw.x -npool 4 -i  Done                     04/25/2018 09:01:23
00025 suncat0212 pw.x -npool 4 -i  Done                     04/25/2018 09:01:23
00026 suncat0212 pw.x -npool 4 -i  Done                     04/25/2018 09:01:23
00027 suncat0212 pw.x -npool 4 -i  Done                     04/25/2018 09:01:23
00028 suncat0212 pw.x -npool 4 -i  Done                     04/25/2018 09:01:23
00029 suncat0212 pw.x -npool 4 -i  Done                     04/25/2018 09:01:23
00030 suncat0212 pw.x -npool 4 -i  Done                     04/25/2018 09:01:23
00031 suncat0212 pw.x -npool 4 -i  Done                     04/25/2018 09:01:23
