  python dir          : /nfs/slac/g/suncatfs/sw/espv20/lib/python2.7/site-packages/espresso
  espresso dir        : /nfs/slac/g/suncatfs/sw/espv18/espresso-dynpy-beef/bin
  pseudo dir          : /afs/slac.stanford.edu/u/if/mamunm/psp/gbrv1.5pbe
  ase-espresso py git : ffa2778-git



     Program PWSCF v.5.1rc2 (svn rev. 11289) starts on 19Jan2018 at 10: 6:41 

     This program is part of the open-source Quantum ESPRESSO suite
     for quantum simulation of materials; please cite
         "P. Giannozzi et al., J. Phys.:Condens. Matter 21 395502 (2009);
          URL http://www.quantum-espresso.org", 
     in publications or presentations arising from this work. More details at
     http://www.quantum-espresso.org/quote

     Parallel version (MPI), running on    32 processors
     R & G space division:  proc/nbgrp/npool/nimage =      32
     Reading input from pw.inp
     Message from routine read_cards :
     DEPRECATED: no units specified in CELL_PARAMETERS card

     Current dimensions of program PWSCF are:
     Max number of different atomic species (ntypx) = 10
     Max number of k-points (npk) =  40000
     Max angular momentum in pseudopotentials (lmaxx) =  3
     Presently stress not available with electric field


     **************************************************************************
     Initializing libbeef V0.1.1 with the BEEF-vdW functional.
     Citation: Wellendorff et al., PRB 85, 235149 (2012).
     **************************************************************************


     IMPORTANT: XC functional enforced from input :
     Exchange-correlation      = BEEF-VDW ( 1  4 27 13 2)
     Any further DFT definition will be discarded
     Please, verify this is what you really want


     Subspace diagonalization in iterative solution of the eigenvalue problem:
     a serial algorithm will be used

 
     Parallelization info
     --------------------
     sticks:   dense  smooth     PW     G-vecs:    dense   smooth      PW
     Min          89      35     10                16921     4265     672
     Max          90      36     12                16938     4304     683
     Sum        2869    1147    337               541807   137189   21637
 


     bravais-lattice index     =            0
     lattice parameter (alat)  =       1.8897  a.u.
     unit-cell volume          =    4552.2840 (a.u.)^3
     number of atoms/cell      =           13
     number of atomic types    =            2
     number of electrons       =       172.00
     number of Kohn-Sham states=           96
     kinetic-energy cutoff     =      36.7493  Ry
     charge density cutoff     =     367.4932  Ry
     convergence threshold     =      1.0E-05
     mixing beta               =       0.3000
     number of iterations used =           10  plain     mixing
     Exchange-correlation      = BEEF-VDW ( 1  4 27 13 2)
     nstep                     =           50


     celldm(1)=   1.889726  celldm(2)=   0.000000  celldm(3)=   0.000000
     celldm(4)=   0.000000  celldm(5)=   0.000000  celldm(6)=   0.000000

     crystal axes: (cart. coord. in units of alat)
               a(1) = (   5.627661   0.000000   0.000000 )  
               a(2) = (   2.813831   4.873698   0.000000 )  
               a(3) = (   0.000000   0.000000  24.594966 )  

     reciprocal axes: (cart. coord. in units 2 pi/alat)
               b(1) = (  0.177694 -0.102592  0.000000 )  
               b(2) = (  0.000000  0.205183  0.000000 )  
               b(3) = (  0.000000  0.000000  0.040659 )  


     PseudoPot. # 1 for Mo read from file:
     /afs/slac.stanford.edu/u/if/mamunm/psp/gbrv1.5pbe/Mo.UPF
     MD5 check sum: 30c4dcd161f5d35cd49bb5239c51a633
     Pseudo is Ultrasoft + core correction, Zval = 14.0
     Generated by new atomic code, or converted to UPF format
     Using radial grid of  889 points,  6 beta functions with: 
                l(1) =   0
                l(2) =   0
                l(3) =   1
                l(4) =   1
                l(5) =   2
                l(6) =   2
     Q(r) pseudized with  6 coefficients,  rinner =    1.000   1.000   1.000
                                                       1.000   1.000

     PseudoPot. # 2 for C  read from file:
     /afs/slac.stanford.edu/u/if/mamunm/psp/gbrv1.5pbe/C.UPF
     MD5 check sum: d1aef80898a10debaa0f26306b886e00
     Pseudo is Ultrasoft + core correction, Zval =  4.0
     Generated by new atomic code, or converted to UPF format
     Using radial grid of  721 points,  4 beta functions with: 
                l(1) =   0
                l(2) =   0
                l(3) =   1
                l(4) =   1
     Q(r) pseudized with  8 coefficients,  rinner =    1.100   1.100   1.100


     vdW kernel table read from file vdW_kernel_table
     MD5 check sum: 095c7af220d748ca6e76c0b4c6cfb241

     atomic species   valence    mass     pseudopotential
        Mo1           14.00    95.95000     Mo( 1.00)
        C1             4.00    12.01100     C ( 1.00)

     No symmetry found



   Cartesian axes

     site n.     atom                  positions (alat units)
         1           Mo1 tau(   1) = (   1.4069153   0.8122829  10.0000000  )
         2           Mo1 tau(   2) = (   4.2207459   0.8122829  10.0000000  )
         3           Mo1 tau(   3) = (   2.8138306   3.2491317  10.0000000  )
         4           Mo1 tau(   4) = (   5.6276612   3.2491317  10.0000000  )
         5           Mo1 tau(   5) = (   5.6276612   1.6245658  12.2974831  )
         6           Mo1 tau(   6) = (   2.8138306   1.6245658  12.2974831  )
         7           Mo1 tau(   7) = (   7.0345765   4.0614146  12.2974831  )
         8           Mo1 tau(   8) = (   4.2207459   4.0614146  12.2974831  )
         9           Mo1 tau(   9) = (   0.0000061   0.0000002  14.6593005  )
        10           Mo1 tau(  10) = (   2.8138446   0.0079641  14.5741056  )
        11           Mo1 tau(  11) = (   1.4138363   2.4328720  14.5739934  )
        12           Mo1 tau(  12) = (   4.2138151   2.4328338  14.5738115  )
        13           C1  tau(  13) = (   2.8138291   4.8736850  16.4547414  )

     number of k points=    20  Fermi-Dirac smearing, width (Ry)=  0.0110
                       cart. coord. in units 2pi/alat
        k(    1) = (   0.0000000   0.0000000   0.0000000), wk =   0.0555556
        k(    2) = (   0.0000000   0.0341972   0.0000000), wk =   0.1111111
        k(    3) = (   0.0000000   0.0683943   0.0000000), wk =   0.1111111
        k(    4) = (   0.0000000  -0.1025915   0.0000000), wk =   0.0555556
        k(    5) = (   0.0296156  -0.0170986   0.0000000), wk =   0.1111111
        k(    6) = (   0.0296156   0.0170986   0.0000000), wk =   0.1111111
        k(    7) = (   0.0296156   0.0512958   0.0000000), wk =   0.1111111
        k(    8) = (   0.0296156  -0.1196901   0.0000000), wk =   0.1111111
        k(    9) = (   0.0296156  -0.0854929   0.0000000), wk =   0.1111111
        k(   10) = (   0.0296156  -0.0512958   0.0000000), wk =   0.1111111
        k(   11) = (   0.0592312  -0.0341972   0.0000000), wk =   0.1111111
        k(   12) = (   0.0592312   0.0000000   0.0000000), wk =   0.1111111
        k(   13) = (   0.0592312   0.0341972   0.0000000), wk =   0.1111111
        k(   14) = (   0.0592312  -0.1367887   0.0000000), wk =   0.1111111
        k(   15) = (   0.0592312  -0.1025915   0.0000000), wk =   0.1111111
        k(   16) = (   0.0592312  -0.0683943   0.0000000), wk =   0.1111111
        k(   17) = (  -0.0888469   0.0512958   0.0000000), wk =   0.0555556
        k(   18) = (  -0.0888469   0.0854929   0.0000000), wk =   0.1111111
        k(   19) = (  -0.0888469   0.1196901   0.0000000), wk =   0.1111111
        k(   20) = (  -0.0888469  -0.0512958   0.0000000), wk =   0.0555556

     Dense  grid:   541807 G-vectors     FFT dimensions: (  72,  72, 288)

     Smooth grid:   137189 G-vectors     FFT dimensions: (  45,  45, 180)

     Largest allocated arrays     est. size (Mb)     dimensions
        Kohn-Sham Wavefunctions         0.83 Mb     (     564,   96)
        NL pseudopotentials             1.93 Mb     (     564,  224)
        Each V/rho on FFT grid          0.71 Mb     (   46656)
        Each G-vector array             0.13 Mb     (   16923)
        G-vector shells                 0.06 Mb     (    7559)
     Largest temporary arrays     est. size (Mb)     dimensions
        Auxiliary wavefunctions         3.30 Mb     (     564,  384)
        Each subspace H/S matrix        2.25 Mb     (     384,  384)
        Each <psi_i|beta_j> matrix      0.33 Mb     (     224,   96)
        Arrays for rho mixing           7.12 Mb     (   46656,   10)

     Initial potential from superposition of free atoms
     Check: negative starting charge=   -0.004803

     starting charge  171.98720, renormalised to  172.00000

     negative rho (up, down):  4.804E-03 0.000E+00


     ************************************************************************
     *
     * You are using vdW-DF for exchange-correlation in this calculation.
     * Please cite the following three references that made this development
     * possible:
     *
     *   M. Dion, H. Rydberg, E. Schroder, D. C. Langreth, and
     *   B. I. Lundqvist, Phys. Rev. Lett. 92, 246401 (2004).
     *
     *   T. Thonhauser, V. R. Cooper, S. Li, A. Puzder, P. Hyldgaard, and
     *   D. C. Langreth, Phys. Rev. B 76, 125112 (2007).
     *
     *   G. Roman-Perez and J. M. Soler, Phys. Rev. Lett. 103, 096102 (2009).
     *
     *
     * If you are using vdW-DF2, please also cite:
     *
     *   K. Lee, E. D. Murray, L. Kong, B. I. Lundqvist, and
     *   D. C. Langreth, Phys. Rev. B 82, 081101(R) (2010).
     *
     *
     * If you are calculating the stress with vdW-DF, please also cite:
     *
     *   R. Sabatini, E. Kucukbenli, B. Kolb, T. Thonhauser, and
     *   S. de Gironcoli, J. Phys.: Condens. Matter 24, 424209 (2012).
     *
     ************************************************************************

     Carrying out vdW-DF run using the following parameters:

     Nqs =      20    Nr_points =    1024   r_max =   100.000
     q_mesh =
               0.00001000     0.04494208     0.09755937     0.15916263
               0.23128650     0.31572767     0.41458969     0.53033537
               0.66584808     0.82450364     1.01025438     1.22772762
               1.48234092     1.78043706     2.12944203     2.53805004
               3.01644009     3.57652955     4.23227104     5.00000000

     Gradients computed in reciprocal space

     ************************************************************************


 
     Adding external electric field

     Computed dipole along edir(3) : 
        Dipole               -0.0020 Ry au,         -0.0051 Debye
        Dipole field         -0.0000 Ry au
 
        Potential amp.        0.0005 Ry
        Total length         45.3158 bohr
 
     Starting wfc are  160 randomized atomic wfcs

     total cpu time spent up to now is       23.2 secs

     per-process dynamical memory:    48.9 Mb

     Self-consistent Calculation

     iteration #  1     ecut=    36.75 Ry     beta=0.30
     Davidson diagonalization with overlap
     ethr =  1.00E-02,  avg # of iterations =  2.0

     negative rho (up, down):  4.768E-03 0.000E+00
 
     Adding external electric field

     Computed dipole along edir(3) : 
        Dipole               -1.7275 Ry au,         -4.3909 Debye
        Dipole field         -0.0048 Ry au
 
        Potential amp.        0.4322 Ry
        Total length         45.3158 bohr
 

     total cpu time spent up to now is       60.2 secs

     total energy              =   -1687.91630595 Ry
     Harris-Foulkes estimate   =   -1691.21706020 Ry
     estimated scf accuracy    <       6.88421826 Ry

     iteration #  2     ecut=    36.75 Ry     beta=0.30
     Davidson diagonalization with overlap
     ethr =  4.00E-03,  avg # of iterations =  9.5

     negative rho (up, down):  3.054E-03 0.000E+00
 
     Adding external electric field

     Computed dipole along edir(3) : 
        Dipole                3.0201 Ry au,          7.6763 Debye
        Dipole field          0.0083 Ry au
 
        Potential amp.       -0.7556 Ry
        Total length         45.3158 bohr
 

     total cpu time spent up to now is      128.0 secs

     total energy              =   -1680.17725540 Ry
     Harris-Foulkes estimate   =   -1699.54163980 Ry
     estimated scf accuracy    <     318.05117644 Ry

     iteration #  3     ecut=    36.75 Ry     beta=0.30
     Davidson diagonalization with overlap
     ethr =  4.00E-03,  avg # of iterations =  8.8

     negative rho (up, down):  5.813E-04 0.000E+00
 
     Adding external electric field

     Computed dipole along edir(3) : 
        Dipole                0.3907 Ry au,          0.9930 Debye
        Dipole field          0.0011 Ry au
 
        Potential amp.       -0.0977 Ry
        Total length         45.3158 bohr
 

     total cpu time spent up to now is      196.4 secs

     total energy              =   -1684.30463484 Ry
     Harris-Foulkes estimate   =   -1697.71037259 Ry
     estimated scf accuracy    <     457.96128291 Ry

     iteration #  4     ecut=    36.75 Ry     beta=0.30
     Davidson diagonalization with overlap
     ethr =  4.00E-03,  avg # of iterations =  7.0

     negative rho (up, down):  4.925E-04 0.000E+00
 
     Adding external electric field

     Computed dipole along edir(3) : 
        Dipole                0.4318 Ry au,          1.0974 Debye
        Dipole field          0.0012 Ry au
 
        Potential amp.       -0.1080 Ry
        Total length         45.3158 bohr
 

     total cpu time spent up to now is      250.0 secs

     total energy              =   -1690.54251528 Ry
     Harris-Foulkes estimate   =   -1690.72325344 Ry
     estimated scf accuracy    <       1.04988796 Ry

     iteration #  5     ecut=    36.75 Ry     beta=0.30
     Davidson diagonalization with overlap
     ethr =  6.10E-04,  avg # of iterations =  4.9

     negative rho (up, down):  4.654E-04 0.000E+00
 
     Adding external electric field

     Computed dipole along edir(3) : 
        Dipole                0.0445 Ry au,          0.1130 Debye
        Dipole field          0.0001 Ry au
 
        Potential amp.       -0.0111 Ry
        Total length         45.3158 bohr
 

     total cpu time spent up to now is      289.6 secs

     total energy              =   -1690.57888286 Ry
     Harris-Foulkes estimate   =   -1690.65211218 Ry
     estimated scf accuracy    <       0.37172419 Ry

     iteration #  6     ecut=    36.75 Ry     beta=0.30
     Davidson diagonalization with overlap
     ethr =  2.16E-04,  avg # of iterations =  4.4

     negative rho (up, down):  4.780E-04 0.000E+00
 
     Adding external electric field

     Computed dipole along edir(3) : 
        Dipole                0.1362 Ry au,          0.3462 Debye
        Dipole field          0.0004 Ry au
 
        Potential amp.       -0.0341 Ry
        Total length         45.3158 bohr
 

     total cpu time spent up to now is      329.4 secs

     total energy              =   -1690.59578018 Ry
     Harris-Foulkes estimate   =   -1690.62933943 Ry
     estimated scf accuracy    <       0.23542277 Ry

     iteration #  7     ecut=    36.75 Ry     beta=0.30
     Davidson diagonalization with overlap
     ethr =  1.37E-04,  avg # of iterations =  3.1

     negative rho (up, down):  6.905E-04 0.000E+00
 
     Adding external electric field

     Computed dipole along edir(3) : 
        Dipole                0.0554 Ry au,          0.1409 Debye
        Dipole field          0.0002 Ry au
 
        Potential amp.       -0.0139 Ry
        Total length         45.3158 bohr
 

     total cpu time spent up to now is      365.3 secs

     total energy              =   -1690.60461617 Ry
     Harris-Foulkes estimate   =   -1690.61454821 Ry
     estimated scf accuracy    <       0.06728526 Ry

     iteration #  8     ecut=    36.75 Ry     beta=0.30
     Davidson diagonalization with overlap
     ethr =  3.91E-05,  avg # of iterations =  4.4

     negative rho (up, down):  1.142E-03 0.000E+00
 
     Adding external electric field

     Computed dipole along edir(3) : 
        Dipole               -0.0785 Ry au,         -0.1995 Debye
        Dipole field         -0.0002 Ry au
 
        Potential amp.        0.0196 Ry
        Total length         45.3158 bohr
 

     total cpu time spent up to now is      406.8 secs

     total energy              =   -1690.60553835 Ry
     Harris-Foulkes estimate   =   -1690.61261392 Ry
     estimated scf accuracy    <       0.03825674 Ry

     iteration #  9     ecut=    36.75 Ry     beta=0.30
     Davidson diagonalization with overlap
     ethr =  2.22E-05,  avg # of iterations =  3.5

     negative rho (up, down):  1.570E-03 0.000E+00
 
     Adding external electric field

     Computed dipole along edir(3) : 
        Dipole               -0.1632 Ry au,         -0.4148 Debye
        Dipole field         -0.0005 Ry au
 
        Potential amp.        0.0408 Ry
        Total length         45.3158 bohr
 

     total cpu time spent up to now is      443.3 secs

     total energy              =   -1690.60642960 Ry
     Harris-Foulkes estimate   =   -1690.60808380 Ry
     estimated scf accuracy    <       0.01461255 Ry

     iteration # 10     ecut=    36.75 Ry     beta=0.30
     Davidson diagonalization with overlap
     ethr =  8.50E-06,  avg # of iterations =  5.2

     negative rho (up, down):  2.374E-03 0.000E+00
 
     Adding external electric field

     Computed dipole along edir(3) : 
        Dipole               -0.2230 Ry au,         -0.5668 Debye
        Dipole field         -0.0006 Ry au
 
        Potential amp.        0.0558 Ry
        Total length         45.3158 bohr
 

     total cpu time spent up to now is      482.6 secs

     total energy              =   -1690.60693042 Ry
     Harris-Foulkes estimate   =   -1690.60724634 Ry
     estimated scf accuracy    <       0.00550497 Ry

     iteration # 11     ecut=    36.75 Ry     beta=0.30
     Davidson diagonalization with overlap
     ethr =  3.20E-06,  avg # of iterations =  5.9

     negative rho (up, down):  2.805E-03 0.000E+00
 
     Adding external electric field

     Computed dipole along edir(3) : 
        Dipole               -0.2387 Ry au,         -0.6068 Debye
        Dipole field         -0.0007 Ry au
 
        Potential amp.        0.0597 Ry
        Total length         45.3158 bohr
 

     total cpu time spent up to now is      525.8 secs

     total energy              =   -1690.60741905 Ry
     Harris-Foulkes estimate   =   -1690.60744540 Ry
     estimated scf accuracy    <       0.00092582 Ry

     iteration # 12     ecut=    36.75 Ry     beta=0.30
     Davidson diagonalization with overlap
     ethr =  5.38E-07,  avg # of iterations =  4.2

     negative rho (up, down):  3.644E-03 0.000E+00
 
     Adding external electric field

     Computed dipole along edir(3) : 
        Dipole               -0.2563 Ry au,         -0.6515 Debye
        Dipole field         -0.0007 Ry au
 
        Potential amp.        0.0641 Ry
        Total length         45.3158 bohr
 

     total cpu time spent up to now is      568.0 secs

     total energy              =   -1690.60752721 Ry
     Harris-Foulkes estimate   =   -1690.60754812 Ry
     estimated scf accuracy    <       0.00074308 Ry

     iteration # 13     ecut=    36.75 Ry     beta=0.30
     Davidson diagonalization with overlap
     ethr =  4.32E-07,  avg # of iterations =  3.2

     negative rho (up, down):  4.347E-03 0.000E+00
 
     Adding external electric field

     Computed dipole along edir(3) : 
        Dipole               -0.2729 Ry au,         -0.6936 Debye
        Dipole field         -0.0008 Ry au
 
        Potential amp.        0.0683 Ry
        Total length         45.3158 bohr
 

     total cpu time spent up to now is      604.4 secs

     total energy              =   -1690.60759039 Ry
     Harris-Foulkes estimate   =   -1690.60757089 Ry
     estimated scf accuracy    <       0.00007697 Ry

     iteration # 14     ecut=    36.75 Ry     beta=0.30
     Davidson diagonalization with overlap
     ethr =  4.47E-08,  avg # of iterations =  4.8

     negative rho (up, down):  4.562E-03 0.000E+00
 
     Adding external electric field

     Computed dipole along edir(3) : 
        Dipole               -0.2786 Ry au,         -0.7081 Debye
        Dipole field         -0.0008 Ry au
 
        Potential amp.        0.0697 Ry
        Total length         45.3158 bohr
 

     total cpu time spent up to now is      651.5 secs

     total energy              =   -1690.60760429 Ry
     Harris-Foulkes estimate   =   -1690.60760214 Ry
     estimated scf accuracy    <       0.00006623 Ry

     iteration # 15     ecut=    36.75 Ry     beta=0.30
     Davidson diagonalization with overlap
     ethr =  3.85E-08,  avg # of iterations =  3.9

     negative rho (up, down):  4.609E-03 0.000E+00
 
     Adding external electric field

     Computed dipole along edir(3) : 
        Dipole               -0.2776 Ry au,         -0.7057 Debye
        Dipole field         -0.0008 Ry au
 
        Potential amp.        0.0695 Ry
        Total length         45.3158 bohr
 

     total cpu time spent up to now is      688.3 secs

     total energy              =   -1690.60729907 Ry
     Harris-Foulkes estimate   =   -1690.60761354 Ry
     estimated scf accuracy    <       0.00027343 Ry

     iteration # 16     ecut=    36.75 Ry     beta=0.30
     Davidson diagonalization with overlap
     ethr =  3.85E-08,  avg # of iterations =  3.1

     negative rho (up, down):  4.662E-03 0.000E+00
 
     Adding external electric field

     Computed dipole along edir(3) : 
        Dipole               -0.2790 Ry au,         -0.7090 Debye
        Dipole field         -0.0008 Ry au
 
        Potential amp.        0.0698 Ry
        Total length         45.3158 bohr
 

     total cpu time spent up to now is      723.0 secs

     total energy              =   -1690.60730306 Ry
     Harris-Foulkes estimate   =   -1690.60730329 Ry
     estimated scf accuracy    <       0.00003586 Ry

     iteration # 17     ecut=    36.75 Ry     beta=0.30
     Davidson diagonalization with overlap
     ethr =  2.08E-08,  avg # of iterations =  3.3

     negative rho (up, down):  4.731E-03 0.000E+00
 
     Adding external electric field

     Computed dipole along edir(3) : 
        Dipole               -0.2793 Ry au,         -0.7099 Debye
        Dipole field         -0.0008 Ry au
 
        Potential amp.        0.0699 Ry
        Total length         45.3158 bohr
 

     total cpu time spent up to now is      759.7 secs

     total energy              =   -1690.60760771 Ry
     Harris-Foulkes estimate   =   -1690.60730534 Ry
     estimated scf accuracy    <       0.00001375 Ry

     iteration # 18     ecut=    36.75 Ry     beta=0.30
     Davidson diagonalization with overlap
     ethr =  8.00E-09,  avg # of iterations =  2.5

     negative rho (up, down):  4.801E-03 0.000E+00

     negative rho (up, down):  4.801E-03 0.000E+00

     negative rho (up, down):  4.801E-03 0.000E+00

     negative rho (up, down):  4.801E-03 0.000E+00

     negative rho (up, down):  4.801E-03 0.000E+00

     negative rho (up, down):  4.801E-03 0.000E+00

     negative rho (up, down):  4.801E-03 0.000E+00

     negative rho (up, down):  4.801E-03 0.000E+00

     negative rho (up, down):  4.801E-03 0.000E+00

     negative rho (up, down):  4.801E-03 0.000E+00

     negative rho (up, down):  4.801E-03 0.000E+00

     negative rho (up, down):  4.801E-03 0.000E+00

     negative rho (up, down):  4.801E-03 0.000E+00

     negative rho (up, down):  4.801E-03 0.000E+00

     negative rho (up, down):  4.801E-03 0.000E+00

     negative rho (up, down):  4.801E-03 0.000E+00

     negative rho (up, down):  4.801E-03 0.000E+00

     negative rho (up, down):  4.801E-03 0.000E+00

     negative rho (up, down):  4.801E-03 0.000E+00

     negative rho (up, down):  4.801E-03 0.000E+00

     negative rho (up, down):  4.801E-03 0.000E+00

     negative rho (up, down):  4.801E-03 0.000E+00

     negative rho (up, down):  4.801E-03 0.000E+00

     negative rho (up, down):  4.801E-03 0.000E+00

     negative rho (up, down):  4.801E-03 0.000E+00

     negative rho (up, down):  4.801E-03 0.000E+00

     negative rho (up, down):  4.801E-03 0.000E+00

     negative rho (up, down):  4.801E-03 0.000E+00

     negative rho (up, down):  4.801E-03 0.000E+00

     negative rho (up, down):  4.801E-03 0.000E+00

     negative rho (up, down):  4.801E-03 0.000E+00

     negative rho (up, down):  4.801E-03 0.000E+00

     negative rho (up, down):  4.801E-03 0.000E+00

     negative rho (up, down):  4.801E-03 0.000E+00

     negative rho (up, down):  4.801E-03 0.000E+00
 
     Adding external electric field

     Computed dipole along edir(3) : 
        Dipole               -0.2769 Ry au,         -0.7039 Debye
        Dipole field         -0.0008 Ry au
 
        Potential amp.        0.0693 Ry
        Total length         45.3158 bohr
 

     total cpu time spent up to now is      856.1 secs

     End of self-consistent calculation

          k = 0.0000 0.0000 0.0000 ( 17111 PWs)   bands (ev):

   -58.9826 -58.8972 -58.8092 -58.8086 -58.8085 -58.7602 -58.7394 -58.7393
   -58.7055 -58.6996 -58.6995 -58.3898 -33.5219 -33.5064 -33.5063 -33.4508
   -33.4139 -33.3878 -33.3877 -33.3199 -33.2944 -33.2944 -33.0073 -32.8929
   -32.8927 -32.8164 -32.8076 -32.8075 -32.7601 -32.7054 -32.6823 -32.6822
   -32.5838 -32.5744 -32.5716 -32.5715 -32.5184 -32.5183 -32.4863 -32.4643
   -32.4606 -32.4606 -32.3844 -32.3843 -32.2780 -32.2780 -32.1904 -32.1904
    -6.4774  -3.8252  -2.5226  -2.4562  -2.4561  -2.4380  -2.4076  -1.9602
    -1.9602  -1.9601  -1.8093  -1.8092  -1.7878  -1.5056  -1.4857  -1.4857
    -0.6837  -0.6837  -0.3284   0.3933   0.5172   0.5172   0.8453   0.9189
     1.3394   1.3395   1.3686   1.5117   1.5118   1.6322   1.6323   1.7097
     1.8435   1.8435   1.9503   1.9504   2.2041   2.2041   2.3324   3.0222
     3.2684   3.2684   3.3220   3.4720   3.7130   3.7707   3.7708   4.0333

          k = 0.0000 0.0342 0.0000 ( 17130 PWs)   bands (ev):

   -58.9711 -58.8881 -58.8184 -58.8086 -58.8016 -58.7650 -58.7468 -58.7395
   -58.7086 -58.7021 -58.6995 -58.3911 -33.4817 -33.4708 -33.4490 -33.4261
   -33.3822 -33.3548 -33.3477 -33.2809 -33.2574 -33.2386 -33.0068 -32.9349
   -32.9131 -32.8479 -32.8000 -32.7951 -32.7474 -32.7245 -32.6948 -32.6779
   -32.6323 -32.6108 -32.5580 -32.5514 -32.5282 -32.5142 -32.5141 -32.4964
   -32.4947 -32.4541 -32.4360 -32.4001 -32.3384 -32.2919 -32.2433 -32.2025
    -6.4652  -3.5900  -2.3281  -2.2810  -2.2611  -2.2390  -2.1677  -1.8945
    -1.7717  -1.7700  -1.6738  -1.6505  -1.6371  -1.3695  -1.2454  -1.2304
    -0.6335  -0.5960  -0.2668   0.3744   0.5656   0.5769   0.7315   0.9010
     1.0959   1.1934   1.3296   1.3615   1.5377   1.6159   1.6179   1.6974
     1.7596   1.7781   1.8854   1.9668   2.0556   2.1855   2.2074   2.7270
     2.9006   3.0118   3.1010   3.2844   3.3417   3.5626   3.7064   3.7251

          k = 0.0000 0.0684 0.0000 ( 17142 PWs)   bands (ev):

   -58.9404 -58.8648 -58.8444 -58.8087 -58.7906 -58.7801 -58.7527 -58.7396
   -58.7249 -58.7033 -58.6993 -58.3936 -33.3898 -33.3823 -33.3665 -33.3166
   -33.2877 -33.2772 -33.2649 -33.1985 -33.1652 -33.0731 -33.0185 -32.9777
   -32.9731 -32.9217 -32.8005 -32.7683 -32.7597 -32.7524 -32.7357 -32.7151
   -32.7026 -32.6447 -32.6339 -32.6122 -32.5904 -32.5586 -32.5280 -32.5250
   -32.5144 -32.5034 -32.4565 -32.4510 -32.4126 -32.3516 -32.3289 -32.2292
    -6.4423  -2.9679  -2.0731  -1.8006  -1.7803  -1.7599  -1.6915  -1.5327
    -1.3349  -1.3295  -1.2984  -1.1701  -1.1619  -1.0438  -0.6526  -0.6219
    -0.4093  -0.3678  -0.1460   0.1046   0.2924   0.5315   0.5406   0.6381
     0.8769   0.9518   0.9830   1.1809   1.2641   1.3082   1.4189   1.5198
     1.6246   1.7840   1.8471   1.9831   2.0003   2.0987   2.1683   2.2383
     2.3960   2.4337   2.5683   2.6707   2.6907   2.7921   3.0817   3.1532

          k = 0.0000-0.1026 0.0000 ( 17160 PWs)   bands (ev):

   -58.9110 -58.8768 -58.8295 -58.8222 -58.8088 -58.7602 -58.7521 -58.7458
   -58.7397 -58.7034 -58.6992 -58.3948 -33.3246 -33.3195 -33.3072 -33.2848
   -33.2672 -33.2312 -33.1379 -33.1093 -33.0918 -33.0867 -33.0376 -33.0068
   -32.9048 -32.8575 -32.8339 -32.8337 -32.8251 -32.7897 -32.7501 -32.7180
   -32.7174 -32.7165 -32.6991 -32.6934 -32.6663 -32.5729 -32.5635 -32.5392
   -32.5132 -32.5053 -32.4726 -32.4533 -32.4045 -32.3865 -32.3660 -32.2447
    -6.4316  -2.2928  -2.2627  -1.5430  -1.4736  -1.4280  -1.4001  -1.2502
    -1.1626  -1.0182  -0.9546  -0.7029  -0.6706  -0.6282  -0.5038  -0.3864
    -0.3370  -0.1785   0.0122   0.1758   0.1879   0.2706   0.3407   0.3696
     0.6158   0.7461   0.9427   1.0762   1.1804   1.1920   1.3149   1.3689
     1.3849   1.4211   1.4241   1.5267   1.7214   1.7321   1.7964   2.1001
     2.1083   2.1778   2.6863   2.7420   2.8608   2.9428   2.9562   3.0813

          k = 0.0296-0.0171 0.0000 ( 17130 PWs)   bands (ev):

   -58.9711 -58.8881 -58.8183 -58.8086 -58.8016 -58.7649 -58.7470 -58.7394
   -58.7086 -58.7021 -58.6995 -58.3911 -33.4816 -33.4709 -33.4490 -33.4261
   -33.3823 -33.3547 -33.3478 -33.2809 -33.2574 -33.2387 -33.0068 -32.9348
   -32.9131 -32.8479 -32.8000 -32.7951 -32.7474 -32.7245 -32.6949 -32.6778
   -32.6322 -32.6108 -32.5580 -32.5514 -32.5283 -32.5142 -32.5141 -32.4965
   -32.4947 -32.4540 -32.4360 -32.4001 -32.3384 -32.2920 -32.2433 -32.2025
    -6.4652  -3.5900  -2.3281  -2.2810  -2.2612  -2.2389  -2.1677  -1.8945
    -1.7717  -1.7700  -1.6738  -1.6505  -1.6372  -1.3695  -1.2454  -1.2304
    -0.6334  -0.5960  -0.2668   0.3744   0.5656   0.5769   0.7315   0.9010
     1.0959   1.1934   1.3296   1.3614   1.5376   1.6159   1.6179   1.6974
     1.7596   1.7781   1.8854   1.9668   2.0556   2.1855   2.2074   2.7269
     2.9006   3.0118   3.1011   3.2844   3.3417   3.5626   3.7064   3.7251

          k = 0.0296 0.0171 0.0000 ( 17130 PWs)   bands (ev):

   -58.9711 -58.8881 -58.8183 -58.8086 -58.8016 -58.7650 -58.7469 -58.7394
   -58.7086 -58.7022 -58.6994 -58.3911 -33.4817 -33.4708 -33.4490 -33.4261
   -33.3822 -33.3548 -33.3477 -33.2809 -33.2574 -33.2387 -33.0068 -32.9348
   -32.9131 -32.8479 -32.7999 -32.7950 -32.7475 -32.7245 -32.6949 -32.6778
   -32.6322 -32.6108 -32.5580 -32.5514 -32.5282 -32.5142 -32.5141 -32.4965
   -32.4947 -32.4541 -32.4360 -32.4001 -32.3384 -32.2920 -32.2433 -32.2025
    -6.4652  -3.5900  -2.3281  -2.2810  -2.2612  -2.2389  -2.1677  -1.8945
    -1.7718  -1.7700  -1.6738  -1.6504  -1.6372  -1.3695  -1.2453  -1.2304
    -0.6334  -0.5960  -0.2668   0.3745   0.5656   0.5769   0.7315   0.9009
     1.0959   1.1934   1.3297   1.3614   1.5376   1.6160   1.6179   1.6974
     1.7595   1.7782   1.8853   1.9668   2.0556   2.1855   2.2074   2.7269
     2.9006   3.0119   3.1011   3.2844   3.3417   3.5626   3.7064   3.7250

          k = 0.0296 0.0513 0.0000 ( 17106 PWs)   bands (ev):

   -58.9500 -58.8713 -58.8350 -58.8112 -58.7882 -58.7740 -58.7637 -58.7339
   -58.7142 -58.7108 -58.6966 -58.3929 -33.4295 -33.3848 -33.3695 -33.3629
   -33.3274 -33.2915 -33.2911 -33.2276 -33.1575 -33.1538 -33.0121 -32.9752
   -32.9554 -32.9084 -32.8076 -32.7750 -32.7699 -32.7517 -32.7113 -32.6772
   -32.6725 -32.6195 -32.6112 -32.5810 -32.5742 -32.5540 -32.5344 -32.5121
   -32.4978 -32.4773 -32.4707 -32.4411 -32.4130 -32.3263 -32.3104 -32.2302
    -6.4479  -3.1547  -2.0283  -2.0119  -1.8993  -1.8470  -1.7386  -1.6694
    -1.6512  -1.4192  -1.3975  -1.3348  -1.2635  -1.0073  -0.9986  -0.7431
    -0.4957  -0.4591  -0.1766   0.2465   0.3414   0.5486   0.6979   0.7425
     0.8737   0.8916   1.1384   1.1887   1.3118   1.4511   1.5244   1.5550
     1.6291   1.7872   1.8792   1.9431   2.0267   2.1611   2.2273   2.3975
     2.5176   2.6140   2.6566   2.8262   2.8861   2.9940   3.0688   3.2560

          k = 0.0296-0.1197 0.0000 ( 17122 PWs)   bands (ev):

   -58.9156 -58.8654 -58.8416 -58.8169 -58.8003 -58.7750 -58.7619 -58.7365
   -58.7259 -58.7150 -58.6945 -58.3948 -33.3348 -33.3202 -33.2816 -33.2615
   -33.2489 -33.2247 -33.1877 -33.1460 -33.0729 -33.0528 -33.0364 -32.9883
   -32.9696 -32.9332 -32.8958 -32.8478 -32.7763 -32.7577 -32.7491 -32.7361
   -32.7067 -32.6835 -32.6678 -32.6538 -32.6138 -32.5842 -32.5669 -32.5471
   -32.5146 -32.4970 -32.4741 -32.4595 -32.4282 -32.3811 -32.3657 -32.2664
    -6.4317  -2.4478  -1.9142  -1.5262  -1.4602  -1.4443  -1.3301  -1.3038
    -1.0487  -1.0016  -0.9853  -0.8815  -0.6787  -0.6165  -0.5718  -0.4227
    -0.2960  -0.1674  -0.1049   0.0657   0.1859   0.2349   0.2997   0.4666
     0.6244   0.6675   0.7968   1.0015   1.0716   1.1056   1.1848   1.2423
     1.3506   1.4219   1.5229   1.5472   1.7683   1.8556   1.9615   2.0740
     2.1896   2.3130   2.4400   2.6837   2.8156   2.8828   3.0055   3.0825

          k = 0.0296-0.0855 0.0000 ( 17122 PWs)   bands (ev):

   -58.9156 -58.8654 -58.8416 -58.8169 -58.8003 -58.7751 -58.7619 -58.7365
   -58.7258 -58.7150 -58.6945 -58.3948 -33.3348 -33.3202 -33.2816 -33.2615
   -33.2489 -33.2247 -33.1878 -33.1460 -33.0728 -33.0528 -33.0365 -32.9883
   -32.9696 -32.9332 -32.8958 -32.8477 -32.7763 -32.7577 -32.7492 -32.7361
   -32.7067 -32.6835 -32.6678 -32.6538 -32.6138 -32.5842 -32.5669 -32.5471
   -32.5146 -32.4969 -32.4742 -32.4595 -32.4282 -32.3811 -32.3657 -32.2664
    -6.4317  -2.4478  -1.9142  -1.5262  -1.4603  -1.4443  -1.3300  -1.3038
    -1.0487  -1.0015  -0.9853  -0.8815  -0.6787  -0.6165  -0.5719  -0.4227
    -0.2960  -0.1674  -0.1048   0.0657   0.1859   0.2350   0.2996   0.4666
     0.6244   0.6675   0.7969   1.0014   1.0716   1.1056   1.1848   1.2423
     1.3505   1.4220   1.5229   1.5471   1.7684   1.8556   1.9616   2.0740
     2.1896   2.3130   2.4400   2.6838   2.8155   2.8829   3.0055   3.0825

          k = 0.0296-0.0513 0.0000 ( 17106 PWs)   bands (ev):

   -58.9500 -58.8713 -58.8350 -58.8112 -58.7882 -58.7740 -58.7638 -58.7339
   -58.7141 -58.7109 -58.6967 -58.3929 -33.4295 -33.3848 -33.3695 -33.3629
   -33.3274 -33.2915 -33.2911 -33.2277 -33.1575 -33.1537 -33.0121 -32.9751
   -32.9554 -32.9084 -32.8076 -32.7750 -32.7699 -32.7517 -32.7113 -32.6771
   -32.6725 -32.6196 -32.6112 -32.5811 -32.5742 -32.5540 -32.5343 -32.5121
   -32.4978 -32.4774 -32.4707 -32.4411 -32.4130 -32.3263 -32.3104 -32.2302
    -6.4479  -3.1547  -2.0283  -2.0119  -1.8994  -1.8470  -1.7386  -1.6694
    -1.6512  -1.4191  -1.3976  -1.3348  -1.2635  -1.0073  -0.9986  -0.7431
    -0.4957  -0.4591  -0.1767   0.2464   0.3414   0.5486   0.6980   0.7425
     0.8737   0.8915   1.1384   1.1887   1.3117   1.4512   1.5245   1.5550
     1.6291   1.7873   1.8792   1.9430   2.0267   2.1611   2.2273   2.3975
     2.5176   2.6140   2.6567   2.8260   2.8861   2.9941   3.0689   3.2561

          k = 0.0592-0.0342 0.0000 ( 17142 PWs)   bands (ev):

   -58.9405 -58.8648 -58.8443 -58.8088 -58.7906 -58.7801 -58.7529 -58.7395
   -58.7249 -58.7033 -58.6993 -58.3936 -33.3897 -33.3824 -33.3665 -33.3166
   -33.2877 -33.2771 -33.2649 -33.1986 -33.1652 -33.0731 -33.0185 -32.9777
   -32.9731 -32.9218 -32.8005 -32.7683 -32.7598 -32.7525 -32.7357 -32.7150
   -32.7026 -32.6447 -32.6338 -32.6122 -32.5904 -32.5586 -32.5279 -32.5249
   -32.5145 -32.5034 -32.4565 -32.4509 -32.4127 -32.3516 -32.3290 -32.2292
    -6.4423  -2.9679  -2.0731  -1.8006  -1.7803  -1.7598  -1.6915  -1.5327
    -1.3349  -1.3296  -1.2984  -1.1702  -1.1619  -1.0438  -0.6526  -0.6219
    -0.4092  -0.3679  -0.1460   0.1046   0.2924   0.5316   0.5406   0.6381
     0.8770   0.9517   0.9831   1.1808   1.2642   1.3081   1.4188   1.5198
     1.6246   1.7840   1.8471   1.9831   2.0002   2.0987   2.1683   2.2383
     2.3961   2.4337   2.5684   2.6707   2.6907   2.7921   3.0816   3.1532

          k = 0.0592 0.0000 0.0000 ( 17106 PWs)   bands (ev):

   -58.9500 -58.8713 -58.8350 -58.8113 -58.7882 -58.7739 -58.7638 -58.7340
   -58.7141 -58.7109 -58.6966 -58.3929 -33.4295 -33.3848 -33.3695 -33.3629
   -33.3274 -33.2914 -33.2911 -33.2276 -33.1575 -33.1537 -33.0121 -32.9751
   -32.9554 -32.9085 -32.8076 -32.7750 -32.7699 -32.7517 -32.7112 -32.6772
   -32.6725 -32.6196 -32.6112 -32.5811 -32.5741 -32.5540 -32.5342 -32.5121
   -32.4978 -32.4773 -32.4707 -32.4411 -32.4130 -32.3263 -32.3104 -32.2302
    -6.4479  -3.1547  -2.0282  -2.0120  -1.8993  -1.8470  -1.7386  -1.6694
    -1.6512  -1.4192  -1.3975  -1.3348  -1.2635  -1.0073  -0.9986  -0.7431
    -0.4957  -0.4591  -0.1766   0.2465   0.3414   0.5486   0.6979   0.7424
     0.8737   0.8916   1.1384   1.1887   1.3118   1.4511   1.5244   1.5550
     1.6291   1.7872   1.8793   1.9431   2.0267   2.1612   2.2273   2.3975
     2.5176   2.6141   2.6566   2.8262   2.8861   2.9940   3.0688   3.2560

          k = 0.0592 0.0342 0.0000 ( 17142 PWs)   bands (ev):

   -58.9405 -58.8648 -58.8443 -58.8088 -58.7906 -58.7801 -58.7528 -58.7396
   -58.7249 -58.7034 -58.6992 -58.3936 -33.3897 -33.3823 -33.3665 -33.3166
   -33.2877 -33.2772 -33.2649 -33.1985 -33.1652 -33.0731 -33.0185 -32.9777
   -32.9730 -32.9217 -32.8005 -32.7683 -32.7597 -32.7525 -32.7356 -32.7151
   -32.7026 -32.6447 -32.6339 -32.6122 -32.5904 -32.5586 -32.5280 -32.5250
   -32.5145 -32.5034 -32.4565 -32.4509 -32.4127 -32.3516 -32.3289 -32.2292
    -6.4423  -2.9679  -2.0731  -1.8007  -1.7803  -1.7597  -1.6916  -1.5327
    -1.3349  -1.3295  -1.2984  -1.1702  -1.1618  -1.0438  -0.6527  -0.6218
    -0.4093  -0.3678  -0.1460   0.1046   0.2924   0.5316   0.5406   0.6380
     0.8770   0.9516   0.9832   1.1808   1.2642   1.3081   1.4188   1.5199
     1.6246   1.7840   1.8472   1.9832   2.0001   2.0987   2.1683   2.2383
     2.3961   2.4337   2.5686   2.6707   2.6907   2.7921   3.0816   3.1530

          k = 0.0592-0.1368 0.0000 ( 17122 PWs)   bands (ev):

   -58.9156 -58.8654 -58.8415 -58.8170 -58.8002 -58.7751 -58.7619 -58.7365
   -58.7259 -58.7150 -58.6945 -58.3948 -33.3348 -33.3202 -33.2816 -33.2615
   -33.2489 -33.2247 -33.1878 -33.1460 -33.0729 -33.0528 -33.0364 -32.9884
   -32.9696 -32.9332 -32.8959 -32.8478 -32.7763 -32.7577 -32.7491 -32.7361
   -32.7067 -32.6835 -32.6678 -32.6538 -32.6138 -32.5842 -32.5669 -32.5471
   -32.5145 -32.4970 -32.4741 -32.4595 -32.4283 -32.3811 -32.3658 -32.2664
    -6.4317  -2.4478  -1.9142  -1.5263  -1.4603  -1.4442  -1.3301  -1.3038
    -1.0487  -1.0015  -0.9853  -0.8815  -0.6787  -0.6165  -0.5718  -0.4227
    -0.2959  -0.1674  -0.1048   0.0657   0.1859   0.2349   0.2996   0.4666
     0.6245   0.6676   0.7967   1.0015   1.0716   1.1056   1.1848   1.2424
     1.3505   1.4219   1.5228   1.5472   1.7684   1.8556   1.9616   2.0740
     2.1895   2.3130   2.4400   2.6837   2.8155   2.8828   3.0055   3.0825

          k = 0.0592-0.1026 0.0000 ( 17100 PWs)   bands (ev):

   -58.8913 -58.8804 -58.8346 -58.8135 -58.8048 -58.7963 -58.7441 -58.7382
   -58.7353 -58.7173 -58.6929 -58.3954 -33.2843 -33.2527 -33.2453 -33.2190
   -33.2161 -33.1858 -33.1581 -33.1357 -33.1187 -33.0265 -32.9999 -32.9854
   -32.9621 -32.9178 -32.9100 -32.8897 -32.8667 -32.8600 -32.7481 -32.7474
   -32.7338 -32.6937 -32.6817 -32.6161 -32.6015 -32.5744 -32.5624 -32.5264
   -32.5218 -32.5192 -32.5031 -32.4528 -32.4454 -32.4302 -32.3377 -32.3243
    -6.4266  -1.7921  -1.7913  -1.7833  -1.1048  -1.0777  -1.0638  -1.0624
    -0.9872  -0.8098  -0.5874  -0.5830  -0.5600  -0.5351  -0.5209  -0.4468
    -0.2423  -0.2038  -0.0913   0.0402   0.2004   0.2218   0.2582   0.3172
     0.4679   0.4836   0.5674   0.5917   0.6596   0.7290   0.8646   1.0126
     1.1199   1.3018   1.3172   1.5396   1.6444   1.7559   1.9189   2.0397
     2.0643   2.3112   2.3648   2.5870   2.6894   2.8072   3.0758   3.2335

          k = 0.0592-0.0684 0.0000 ( 17122 PWs)   bands (ev):

   -58.9157 -58.8653 -58.8415 -58.8170 -58.8002 -58.7751 -58.7619 -58.7364
   -58.7260 -58.7149 -58.6945 -58.3948 -33.3348 -33.3202 -33.2816 -33.2615
   -33.2489 -33.2246 -33.1877 -33.1460 -33.0729 -33.0528 -33.0365 -32.9884
   -32.9696 -32.9332 -32.8958 -32.8478 -32.7762 -32.7578 -32.7491 -32.7360
   -32.7067 -32.6834 -32.6678 -32.6538 -32.6138 -32.5843 -32.5669 -32.5471
   -32.5145 -32.4969 -32.4741 -32.4596 -32.4282 -32.3811 -32.3658 -32.2663
    -6.4317  -2.4478  -1.9142  -1.5263  -1.4603  -1.4443  -1.3300  -1.3038
    -1.0487  -1.0015  -0.9853  -0.8815  -0.6787  -0.6165  -0.5718  -0.4227
    -0.2960  -0.1674  -0.1048   0.0657   0.1858   0.2350   0.2996   0.4666
     0.6244   0.6675   0.7968   1.0014   1.0716   1.1056   1.1848   1.2424
     1.3505   1.4220   1.5229   1.5471   1.7684   1.8556   1.9616   2.0740
     2.1896   2.3130   2.4400   2.6838   2.8155   2.8828   3.0056   3.0825

          k =-0.0888 0.0513 0.0000 ( 17160 PWs)   bands (ev):

   -58.9111 -58.8767 -58.8296 -58.8221 -58.8089 -58.7602 -58.7521 -58.7459
   -58.7396 -58.7034 -58.6992 -58.3948 -33.3245 -33.3196 -33.3072 -33.2849
   -33.2671 -33.2311 -33.1380 -33.1093 -33.0918 -33.0866 -33.0376 -33.0069
   -32.9049 -32.8574 -32.8340 -32.8337 -32.8251 -32.7898 -32.7500 -32.7180
   -32.7172 -32.7166 -32.6991 -32.6933 -32.6663 -32.5729 -32.5636 -32.5391
   -32.5131 -32.5053 -32.4726 -32.4534 -32.4045 -32.3864 -32.3661 -32.2446
    -6.4316  -2.2928  -2.2626  -1.5430  -1.4736  -1.4281  -1.4000  -1.2501
    -1.1627  -1.0183  -0.9545  -0.7028  -0.6706  -0.6282  -0.5037  -0.3864
    -0.3370  -0.1784   0.0122   0.1757   0.1878   0.2706   0.3408   0.3696
     0.6159   0.7462   0.9426   1.0763   1.1803   1.1921   1.3150   1.3689
     1.3849   1.4212   1.4240   1.5266   1.7214   1.7321   1.7965   2.1000
     2.1083   2.1778   2.6862   2.7419   2.8609   2.9427   2.9562   3.0814

          k =-0.0888 0.0855 0.0000 ( 17122 PWs)   bands (ev):

   -58.9157 -58.8653 -58.8416 -58.8170 -58.8003 -58.7751 -58.7619 -58.7365
   -58.7260 -58.7149 -58.6945 -58.3948 -33.3348 -33.3202 -33.2816 -33.2616
   -33.2489 -33.2246 -33.1877 -33.1460 -33.0728 -33.0528 -33.0365 -32.9884
   -32.9696 -32.9332 -32.8958 -32.8477 -32.7762 -32.7577 -32.7492 -32.7361
   -32.7067 -32.6834 -32.6678 -32.6538 -32.6138 -32.5843 -32.5669 -32.5471
   -32.5145 -32.4969 -32.4741 -32.4596 -32.4282 -32.3811 -32.3658 -32.2663
    -6.4317  -2.4478  -1.9142  -1.5262  -1.4602  -1.4443  -1.3301  -1.3038
    -1.0487  -1.0016  -0.9853  -0.8815  -0.6787  -0.6165  -0.5718  -0.4227
    -0.2960  -0.1674  -0.1049   0.0657   0.1858   0.2349   0.2996   0.4666
     0.6244   0.6675   0.7968   1.0015   1.0716   1.1056   1.1848   1.2423
     1.3505   1.4219   1.5228   1.5472   1.7683   1.8556   1.9615   2.0740
     2.1896   2.3129   2.4400   2.6837   2.8156   2.8828   3.0055   3.0826

          k =-0.0888 0.1197 0.0000 ( 17122 PWs)   bands (ev):

   -58.9156 -58.8653 -58.8416 -58.8170 -58.8003 -58.7751 -58.7619 -58.7365
   -58.7259 -58.7150 -58.6945 -58.3948 -33.3348 -33.3202 -33.2816 -33.2615
   -33.2489 -33.2247 -33.1878 -33.1460 -33.0728 -33.0528 -33.0365 -32.9883
   -32.9696 -32.9332 -32.8958 -32.8477 -32.7763 -32.7577 -32.7492 -32.7361
   -32.7067 -32.6835 -32.6678 -32.6538 -32.6138 -32.5842 -32.5669 -32.5471
   -32.5145 -32.4969 -32.4742 -32.4595 -32.4282 -32.3811 -32.3658 -32.2663
    -6.4317  -2.4478  -1.9142  -1.5263  -1.4603  -1.4442  -1.3301  -1.3038
    -1.0487  -1.0016  -0.9853  -0.8815  -0.6787  -0.6165  -0.5718  -0.4227
    -0.2959  -0.1674  -0.1048   0.0657   0.1858   0.2349   0.2996   0.4666
     0.6245   0.6676   0.7967   1.0015   1.0716   1.1056   1.1849   1.2424
     1.3505   1.4219   1.5228   1.5472   1.7683   1.8556   1.9616   2.0740
     2.1895   2.3130   2.4400   2.6837   2.8155   2.8828   3.0055   3.0826

          k =-0.0888-0.0513 0.0000 ( 17160 PWs)   bands (ev):

   -58.9110 -58.8768 -58.8296 -58.8221 -58.8089 -58.7602 -58.7520 -58.7459
   -58.7396 -58.7035 -58.6991 -58.3948 -33.3246 -33.3195 -33.3072 -33.2848
   -33.2672 -33.2312 -33.1379 -33.1093 -33.0918 -33.0867 -33.0376 -33.0069
   -32.9049 -32.8574 -32.8339 -32.8337 -32.8251 -32.7898 -32.7500 -32.7180
   -32.7173 -32.7166 -32.6990 -32.6935 -32.6663 -32.5729 -32.5635 -32.5392
   -32.5131 -32.5053 -32.4726 -32.4533 -32.4045 -32.3865 -32.3661 -32.2446
    -6.4316  -2.2928  -2.2626  -1.5429  -1.4737  -1.4281  -1.4000  -1.2502
    -1.1626  -1.0183  -0.9545  -0.7029  -0.6705  -0.6284  -0.5037  -0.3862
    -0.3372  -0.1784   0.0122   0.1757   0.1877   0.2705   0.3408   0.3697
     0.6161   0.7463   0.9424   1.0764   1.1802   1.1923   1.3151   1.3688
     1.3848   1.4213   1.4238   1.5266   1.7214   1.7322   1.7964   2.0997
     2.1083   2.1779   2.6861   2.7417   2.8610   2.9429   2.9562   3.0815

     the Fermi energy is     2.0748 ev

!    total energy              =   -1690.60760566 Ry
     Harris-Foulkes estimate   =   -1690.60761208 Ry
     estimated scf accuracy    <       0.00000326 Ry

     The total energy is the sum of the following terms:

     one-electron contribution =  -15442.78488869 Ry
     hartree contribution      =    7716.21598268 Ry
     xc contribution           =    -243.70982150 Ry
     ewald contribution        =    6279.77178296 Ry
     electric field correction =       0.00021170 Ry
     smearing contrib. (-TS)   =      -0.10087282 Ry

     convergence has been achieved in  18 iterations
 
 BEEF-vdW xc energy contributions
           1 :   -209.268230524412     
           2 :    191.164246397570     
           3 :   -160.190482843285     
           4 :    124.543474211403     
           5 :   -92.3618237159970     
           6 :    69.1759465437825     
           7 :   -56.6811380179594     
           8 :    53.0116951035785     
           9 :   -54.1876780987017     
          10 :    55.9878476887094     
          11 :   -55.5045419455816     
          12 :    51.8550431614472     
          13 :   -45.9625837716692     
          14 :    39.6687454635436     
          15 :   -34.6699675222467     
          16 :    31.7338796216843     
          17 :   -30.4858768315565     
          18 :    29.7663706141870     
          19 :   -28.3209246860868     
          20 :    25.4454927690948     
          21 :   -21.2837233377251     
          22 :    16.6698180239053     
          23 :   -12.6489193337119     
          24 :    9.93859783212469     
          25 :   -8.60394993807591     
          26 :    8.07942661823012     
          27 :   -7.49663440141296     
          28 :    6.12874343468280     
          29 :   -3.73024963149172     
          30 :   0.614783613085081     
          31 :   -23.9356939434805     
          32 :   -18.3589396045137     

     Forces acting on atoms (Ry/au):


     negative rho (up, down):  4.801E-03 0.000E+00
     atom    1 type  1   force =     0.00142372    0.00083265   -0.00450064
     atom    2 type  1   force =    -0.00141522    0.00081733   -0.00452605
     atom    3 type  1   force =    -0.00000866   -0.00164179   -0.00451939
     atom    4 type  1   force =     0.00000435   -0.00000299   -0.00781718
     atom    5 type  1   force =     0.00000770    0.00571312    0.00046577
     atom    6 type  1   force =    -0.00000973   -0.00000931    0.01769900
     atom    7 type  1   force =    -0.00495745   -0.00285780    0.00049796
     atom    8 type  1   force =     0.00496262   -0.00285170    0.00047489
     atom    9 type  1   force =     0.00000064    0.00000944    0.00427350
     atom   10 type  1   force =    -0.00000102   -0.00098113    0.00062918
     atom   11 type  1   force =    -0.00085177    0.00048731    0.00063684
     atom   12 type  1   force =     0.00084472    0.00048335    0.00064977
     atom   13 type  2   force =     0.00000009    0.00000150   -0.00396367

     Total force =     0.024094     Total SCF correction =     0.005328
     SCF correction compared to forces is large: reduce conv_thr to get better values


     entering subroutine stress ...


     negative rho (up, down):  4.801E-03 0.000E+00
          total   stress  (Ry/bohr**3)                   (kbar)     P=  -13.24
  -0.00014574  -0.00000001   0.00000000        -21.44     -0.00      0.00
  -0.00000001  -0.00014573   0.00000001         -0.00    -21.44      0.00
   0.00000000   0.00000001   0.00002155          0.00      0.00      3.17

 !ASE

     Writing output data file calc.save
 
     init_run     :     12.90s CPU     22.46s WALL (       1 calls)
     electrons    :    500.88s CPU    833.11s WALL (       1 calls)
     forces       :      3.69s CPU      4.79s WALL (       1 calls)
     stress       :      9.74s CPU     11.83s WALL (       1 calls)

     Called by init_run:
     wfcinit      :     10.55s CPU     18.87s WALL (       1 calls)
     potinit      :      1.18s CPU      2.11s WALL (       1 calls)

     Called by electrons:
     c_bands      :    385.09s CPU    623.44s WALL (      18 calls)
     sum_band     :     57.20s CPU    102.57s WALL (      18 calls)
     v_of_rho     :     18.62s CPU     35.75s WALL (      19 calls)
     newd         :      8.69s CPU      9.09s WALL (      19 calls)
     mix_rho      :      0.71s CPU      1.34s WALL (      18 calls)
     vdW_energy   :      3.11s CPU      3.42s WALL (      55 calls)
     vdW_ffts     :     30.55s CPU     65.50s WALL (     112 calls)
     vdW_v        :      6.22s CPU     11.39s WALL (      55 calls)

     Called by c_bands:
     init_us_2    :      1.17s CPU      1.25s WALL (     780 calls)
     cegterg      :    377.64s CPU    614.82s WALL (     360 calls)

     Called by *egterg:
     h_psi        :    234.90s CPU    459.71s WALL (    2053 calls)
     s_psi        :     10.93s CPU     11.08s WALL (    2053 calls)
     g_psi        :      0.62s CPU      0.61s WALL (    1673 calls)
     cdiaghg      :     92.90s CPU     96.73s WALL (    2033 calls)

     Called by h_psi:
     add_vuspsi   :     11.27s CPU     11.32s WALL (    2053 calls)

     General routines
     calbec       :     20.79s CPU     26.78s WALL (    2453 calls)
     fft          :     45.74s CPU     97.92s WALL (    3357 calls)
     ffts         :      0.13s CPU      0.30s WALL (      37 calls)
     fftw         :    231.83s CPU    492.63s WALL (  208982 calls)
     interpolate  :      0.65s CPU      1.34s WALL (      37 calls)
     davcio       :      0.01s CPU      0.08s WALL (      20 calls)
 
     Parallel routines
     fft_scatter  :    238.09s CPU    548.02s WALL (  212376 calls)
 
     PWSCF        :  8m48.07s CPU    14m33.85s WALL

 
   This run was terminated on:  10:21:15  19Jan2018            

=------------------------------------------------------------------------------=
   JOB DONE.
=------------------------------------------------------------------------------=
Job  /afs/slac/g/suncat/bin/suncat-tsmpirun -x LD_LIBRARY_PATH -wdir /scratch/qe891410_83T8q pw.x -in pw.inp

TID   HOST_NAME   COMMAND_LINE            STATUS            TERMINATION_TIME
===== ========== ================  =======================  ===================
00000 suncat1009 pw.x -in pw.inp   Done                     01/19/2018 10:21:15
00001 suncat1009 pw.x -in pw.inp   Done                     01/19/2018 10:21:15
00002 suncat1009 pw.x -in pw.inp   Done                     01/19/2018 10:21:15
00003 suncat1009 pw.x -in pw.inp   Done                     01/19/2018 10:21:15
00004 suncat1009 pw.x -in pw.inp   Done                     01/19/2018 10:21:15
00005 suncat1009 pw.x -in pw.inp   Done                     01/19/2018 10:21:15
00006 suncat1009 pw.x -in pw.inp   Done                     01/19/2018 10:21:15
00007 suncat1009 pw.x -in pw.inp   Done                     01/19/2018 10:21:15
00008 suncat1059 pw.x -in pw.inp   Done                     01/19/2018 10:21:15
00009 suncat1059 pw.x -in pw.inp   Done                     01/19/2018 10:21:15
00010 suncat1059 pw.x -in pw.inp   Done                     01/19/2018 10:21:15
00011 suncat1059 pw.x -in pw.inp   Done                     01/19/2018 10:21:15
00012 suncat1059 pw.x -in pw.inp   Done                     01/19/2018 10:21:15
00013 suncat1059 pw.x -in pw.inp   Done                     01/19/2018 10:21:15
00014 suncat1059 pw.x -in pw.inp   Done                     01/19/2018 10:21:15
00015 suncat1059 pw.x -in pw.inp   Done                     01/19/2018 10:21:15
00016 suncat1059 pw.x -in pw.inp   Done                     01/19/2018 10:21:15
00017 suncat1059 pw.x -in pw.inp   Done                     01/19/2018 10:21:15
00018 suncat1059 pw.x -in pw.inp   Done                     01/19/2018 10:21:15
00019 suncat1059 pw.x -in pw.inp   Done                     01/19/2018 10:21:15
00020 suncat1056 pw.x -in pw.inp   Done                     01/19/2018 10:21:15
00021 suncat1056 pw.x -in pw.inp   Done                     01/19/2018 10:21:15
00022 suncat1056 pw.x -in pw.inp   Done                     01/19/2018 10:21:15
00023 suncat1056 pw.x -in pw.inp   Done                     01/19/2018 10:21:15
00024 suncat1056 pw.x -in pw.inp   Done                     01/19/2018 10:21:15
00025 suncat1056 pw.x -in pw.inp   Done                     01/19/2018 10:21:15
00026 suncat1056 pw.x -in pw.inp   Done                     01/19/2018 10:21:15
00027 suncat1056 pw.x -in pw.inp   Done                     01/19/2018 10:21:15
00028 suncat1056 pw.x -in pw.inp   Done                     01/19/2018 10:21:15
00029 suncat1056 pw.x -in pw.inp   Done                     01/19/2018 10:21:15
00030 suncat1056 pw.x -in pw.inp   Done                     01/19/2018 10:21:15
00031 suncat1056 pw.x -in pw.inp   Done                     01/19/2018 10:21:15

     Program PWSCF v.5.1rc2 (svn rev. 11289) starts on 19Jan2018 at 10:21:22 

     This program is part of the open-source Quantum ESPRESSO suite
     for quantum simulation of materials; please cite
         "P. Giannozzi et al., J. Phys.:Condens. Matter 21 395502 (2009);
          URL http://www.quantum-espresso.org", 
     in publications or presentations arising from this work. More details at
     http://www.quantum-espresso.org/quote

     Parallel version (MPI), running on    32 processors
     R & G space division:  proc/nbgrp/npool/nimage =      32
     Reading input from pw.inp
     Message from routine read_cards :
     DEPRECATED: no units specified in CELL_PARAMETERS card

     Current dimensions of program PWSCF are:
     Max number of different atomic species (ntypx) = 10
     Max number of k-points (npk) =  40000
     Max angular momentum in pseudopotentials (lmaxx) =  3
     Presently stress not available with electric field


     **************************************************************************
     Initializing libbeef V0.1.1 with the BEEF-vdW functional.
     Citation: Wellendorff et al., PRB 85, 235149 (2012).
     **************************************************************************


     IMPORTANT: XC functional enforced from input :
     Exchange-correlation      = BEEF-VDW ( 1  4 27 13 2)
     Any further DFT definition will be discarded
     Please, verify this is what you really want


     Subspace diagonalization in iterative solution of the eigenvalue problem:
     a serial algorithm will be used

 
     Parallelization info
     --------------------
     sticks:   dense  smooth     PW     G-vecs:    dense   smooth      PW
     Min          89      35     10                16921     4265     672
     Max          90      36     12                16938     4304     683
     Sum        2869    1147    337               541807   137189   21637
 


     bravais-lattice index     =            0
     lattice parameter (alat)  =       1.8897  a.u.
     unit-cell volume          =    4552.2840 (a.u.)^3
     number of atoms/cell      =           13
     number of atomic types    =            2
     number of electrons       =       172.00
     number of Kohn-Sham states=           96
     kinetic-energy cutoff     =      36.7493  Ry
     charge density cutoff     =     367.4932  Ry
     convergence threshold     =      1.0E-05
     mixing beta               =       0.3000
     number of iterations used =           10  plain     mixing
     Exchange-correlation      = BEEF-VDW ( 1  4 27 13 2)
     nstep                     =           50


     celldm(1)=   1.889726  celldm(2)=   0.000000  celldm(3)=   0.000000
     celldm(4)=   0.000000  celldm(5)=   0.000000  celldm(6)=   0.000000

     crystal axes: (cart. coord. in units of alat)
               a(1) = (   5.627661   0.000000   0.000000 )  
               a(2) = (   2.813831   4.873698   0.000000 )  
               a(3) = (   0.000000   0.000000  24.594966 )  

     reciprocal axes: (cart. coord. in units 2 pi/alat)
               b(1) = (  0.177694 -0.102592  0.000000 )  
               b(2) = (  0.000000  0.205183  0.000000 )  
               b(3) = (  0.000000  0.000000  0.040659 )  


     PseudoPot. # 1 for Mo read from file:
     /afs/slac.stanford.edu/u/if/mamunm/psp/gbrv1.5pbe/Mo.UPF
     MD5 check sum: 30c4dcd161f5d35cd49bb5239c51a633
     Pseudo is Ultrasoft + core correction, Zval = 14.0
     Generated by new atomic code, or converted to UPF format
     Using radial grid of  889 points,  6 beta functions with: 
                l(1) =   0
                l(2) =   0
                l(3) =   1
                l(4) =   1
                l(5) =   2
                l(6) =   2
     Q(r) pseudized with  6 coefficients,  rinner =    1.000   1.000   1.000
                                                       1.000   1.000

     PseudoPot. # 2 for C  read from file:
     /afs/slac.stanford.edu/u/if/mamunm/psp/gbrv1.5pbe/C.UPF
     MD5 check sum: d1aef80898a10debaa0f26306b886e00
     Pseudo is Ultrasoft + core correction, Zval =  4.0
     Generated by new atomic code, or converted to UPF format
     Using radial grid of  721 points,  4 beta functions with: 
                l(1) =   0
                l(2) =   0
                l(3) =   1
                l(4) =   1
     Q(r) pseudized with  8 coefficients,  rinner =    1.100   1.100   1.100


     vdW kernel table read from file vdW_kernel_table
     MD5 check sum: 095c7af220d748ca6e76c0b4c6cfb241

     atomic species   valence    mass     pseudopotential
        Mo1           14.00    95.95000     Mo( 1.00)
        C1             4.00    12.01100     C ( 1.00)

     No symmetry found



   Cartesian axes

     site n.     atom                  positions (alat units)
         1           Mo1 tau(   1) = (   1.4069153   0.8122829  10.0000000  )
         2           Mo1 tau(   2) = (   4.2207459   0.8122829  10.0000000  )
         3           Mo1 tau(   3) = (   2.8138306   3.2491317  10.0000000  )
         4           Mo1 tau(   4) = (   5.6276612   3.2491317  10.0000000  )
         5           Mo1 tau(   5) = (   5.6276612   1.6245658  12.2974831  )
         6           Mo1 tau(   6) = (   2.8138306   1.6245658  12.2974831  )
         7           Mo1 tau(   7) = (   7.0345765   4.0614146  12.2974831  )
         8           Mo1 tau(   8) = (   4.2207459   4.0614146  12.2974831  )
         9           Mo1 tau(   9) = (   5.6276690   0.0000244  14.6702881  )
        10           Mo1 tau(  10) = (   2.8138420   0.0054416  14.5757233  )
        11           Mo1 tau(  11) = (   1.4116463   2.4341249  14.5756308  )
        12           Mo1 tau(  12) = (   4.2159870   2.4340765  14.5754821  )
        13           C1  tau(  13) = (   2.8138293   4.8736889  16.4445504  )

     number of k points=    20  Fermi-Dirac smearing, width (Ry)=  0.0110
                       cart. coord. in units 2pi/alat
        k(    1) = (   0.0000000   0.0000000   0.0000000), wk =   0.0555556
        k(    2) = (   0.0000000   0.0341972   0.0000000), wk =   0.1111111
        k(    3) = (   0.0000000   0.0683943   0.0000000), wk =   0.1111111
        k(    4) = (   0.0000000  -0.1025915   0.0000000), wk =   0.0555556
        k(    5) = (   0.0296156  -0.0170986   0.0000000), wk =   0.1111111
        k(    6) = (   0.0296156   0.0170986   0.0000000), wk =   0.1111111
        k(    7) = (   0.0296156   0.0512958   0.0000000), wk =   0.1111111
        k(    8) = (   0.0296156  -0.1196901   0.0000000), wk =   0.1111111
        k(    9) = (   0.0296156  -0.0854929   0.0000000), wk =   0.1111111
        k(   10) = (   0.0296156  -0.0512958   0.0000000), wk =   0.1111111
        k(   11) = (   0.0592312  -0.0341972   0.0000000), wk =   0.1111111
        k(   12) = (   0.0592312   0.0000000   0.0000000), wk =   0.1111111
        k(   13) = (   0.0592312   0.0341972   0.0000000), wk =   0.1111111
        k(   14) = (   0.0592312  -0.1367887   0.0000000), wk =   0.1111111
        k(   15) = (   0.0592312  -0.1025915   0.0000000), wk =   0.1111111
        k(   16) = (   0.0592312  -0.0683943   0.0000000), wk =   0.1111111
        k(   17) = (  -0.0888469   0.0512958   0.0000000), wk =   0.0555556
        k(   18) = (  -0.0888469   0.0854929   0.0000000), wk =   0.1111111
        k(   19) = (  -0.0888469   0.1196901   0.0000000), wk =   0.1111111
        k(   20) = (  -0.0888469  -0.0512958   0.0000000), wk =   0.0555556

     Dense  grid:   541807 G-vectors     FFT dimensions: (  72,  72, 288)

     Smooth grid:   137189 G-vectors     FFT dimensions: (  45,  45, 180)

     Largest allocated arrays     est. size (Mb)     dimensions
        Kohn-Sham Wavefunctions         0.83 Mb     (     564,   96)
        NL pseudopotentials             1.93 Mb     (     564,  224)
        Each V/rho on FFT grid          0.71 Mb     (   46656)
        Each G-vector array             0.13 Mb     (   16923)
        G-vector shells                 0.06 Mb     (    7559)
     Largest temporary arrays     est. size (Mb)     dimensions
        Auxiliary wavefunctions         3.30 Mb     (     564,  384)
        Each subspace H/S matrix        2.25 Mb     (     384,  384)
        Each <psi_i|beta_j> matrix      0.33 Mb     (     224,   96)
        Arrays for rho mixing           7.12 Mb     (   46656,   10)

     Initial potential from superposition of free atoms
     Check: negative starting charge=   -0.004802

     starting charge  171.98720, renormalised to  172.00000

     negative rho (up, down):  4.803E-03 0.000E+00


     ************************************************************************
     *
     * You are using vdW-DF for exchange-correlation in this calculation.
     * Please cite the following three references that made this development
     * possible:
     *
     *   M. Dion, H. Rydberg, E. Schroder, D. C. Langreth, and
     *   B. I. Lundqvist, Phys. Rev. Lett. 92, 246401 (2004).
     *
     *   T. Thonhauser, V. R. Cooper, S. Li, A. Puzder, P. Hyldgaard, and
     *   D. C. Langreth, Phys. Rev. B 76, 125112 (2007).
     *
     *   G. Roman-Perez and J. M. Soler, Phys. Rev. Lett. 103, 096102 (2009).
     *
     *
     * If you are using vdW-DF2, please also cite:
     *
     *   K. Lee, E. D. Murray, L. Kong, B. I. Lundqvist, and
     *   D. C. Langreth, Phys. Rev. B 82, 081101(R) (2010).
     *
     *
     * If you are calculating the stress with vdW-DF, please also cite:
     *
     *   R. Sabatini, E. Kucukbenli, B. Kolb, T. Thonhauser, and
     *   S. de Gironcoli, J. Phys.: Condens. Matter 24, 424209 (2012).
     *
     ************************************************************************

     Carrying out vdW-DF run using the following parameters:

     Nqs =      20    Nr_points =    1024   r_max =   100.000
     q_mesh =
               0.00001000     0.04494208     0.09755937     0.15916263
               0.23128650     0.31572767     0.41458969     0.53033537
               0.66584808     0.82450364     1.01025438     1.22772762
               1.48234092     1.78043706     2.12944203     2.53805004
               3.01644009     3.57652955     4.23227104     5.00000000

     Gradients computed in reciprocal space

     ************************************************************************


 
     Adding external electric field

     Computed dipole along edir(3) : 
        Dipole               -0.0020 Ry au,         -0.0051 Debye
        Dipole field         -0.0000 Ry au
 
        Potential amp.        0.0005 Ry
        Total length         45.3158 bohr
 
     Starting wfc are  160 randomized atomic wfcs

     total cpu time spent up to now is       23.0 secs

     per-process dynamical memory:    49.0 Mb

     Self-consistent Calculation

     iteration #  1     ecut=    36.75 Ry     beta=0.30
     Davidson diagonalization with overlap
     ethr =  1.00E-02,  avg # of iterations =  2.0

     negative rho (up, down):  4.767E-03 0.000E+00
 
     Adding external electric field

     Computed dipole along edir(3) : 
        Dipole               -1.8489 Ry au,         -4.6995 Debye
        Dipole field         -0.0051 Ry au
 
        Potential amp.        0.4626 Ry
        Total length         45.3158 bohr
 

     total cpu time spent up to now is       59.6 secs

     total energy              =   -1687.95812155 Ry
     Harris-Foulkes estimate   =   -1691.21832696 Ry
     estimated scf accuracy    <       6.80814699 Ry

     iteration #  2     ecut=    36.75 Ry     beta=0.30
     Davidson diagonalization with overlap
     ethr =  3.96E-03,  avg # of iterations =  9.1

     negative rho (up, down):  3.065E-03 0.000E+00
 
     Adding external electric field

     Computed dipole along edir(3) : 
        Dipole                2.9715 Ry au,          7.5527 Debye
        Dipole field          0.0082 Ry au
 
        Potential amp.       -0.7434 Ry
        Total length         45.3158 bohr
 

     total cpu time spent up to now is      127.3 secs

     total energy              =   -1679.96401627 Ry
     Harris-Foulkes estimate   =   -1699.58013643 Ry
     estimated scf accuracy    <     333.60804734 Ry

     iteration #  3     ecut=    36.75 Ry     beta=0.30
     Davidson diagonalization with overlap
     ethr =  3.96E-03,  avg # of iterations =  9.1

     negative rho (up, down):  8.305E-04 0.000E+00
 
     Adding external electric field

     Computed dipole along edir(3) : 
        Dipole                0.4506 Ry au,          1.1452 Debye
        Dipole field          0.0012 Ry au
 
        Potential amp.       -0.1127 Ry
        Total length         45.3158 bohr
 

     total cpu time spent up to now is      196.6 secs

     total energy              =   -1684.52622260 Ry
     Harris-Foulkes estimate   =   -1697.50707631 Ry
     estimated scf accuracy    <     436.36229965 Ry

     iteration #  4     ecut=    36.75 Ry     beta=0.30
     Davidson diagonalization with overlap
     ethr =  3.96E-03,  avg # of iterations =  7.0

     negative rho (up, down):  7.029E-04 0.000E+00
 
     Adding external electric field

     Computed dipole along edir(3) : 
        Dipole                0.5077 Ry au,          1.2904 Debye
        Dipole field          0.0014 Ry au
 
        Potential amp.       -0.1270 Ry
        Total length         45.3158 bohr
 

     total cpu time spent up to now is      249.8 secs

     total energy              =   -1690.53828930 Ry
     Harris-Foulkes estimate   =   -1690.73447399 Ry
     estimated scf accuracy    <       1.13883959 Ry

     iteration #  5     ecut=    36.75 Ry     beta=0.30
     Davidson diagonalization with overlap
     ethr =  6.62E-04,  avg # of iterations =  5.0

     negative rho (up, down):  6.680E-04 0.000E+00
 
     Adding external electric field

     Computed dipole along edir(3) : 
        Dipole                0.1136 Ry au,          0.2886 Debye
        Dipole field          0.0003 Ry au
 
        Potential amp.       -0.0284 Ry
        Total length         45.3158 bohr
 

     total cpu time spent up to now is      289.1 secs

     total energy              =   -1690.57914977 Ry
     Harris-Foulkes estimate   =   -1690.65281520 Ry
     estimated scf accuracy    <       0.35946804 Ry

     iteration #  6     ecut=    36.75 Ry     beta=0.30
     Davidson diagonalization with overlap
     ethr =  2.09E-04,  avg # of iterations =  4.5

     negative rho (up, down):  6.929E-04 0.000E+00
 
     Adding external electric field

     Computed dipole along edir(3) : 
        Dipole                0.2044 Ry au,          0.5196 Debye
        Dipole field          0.0006 Ry au
 
        Potential amp.       -0.0511 Ry
        Total length         45.3158 bohr
 

     total cpu time spent up to now is      329.4 secs

     total energy              =   -1690.59716204 Ry
     Harris-Foulkes estimate   =   -1690.62987805 Ry
     estimated scf accuracy    <       0.22515031 Ry

     iteration #  7     ecut=    36.75 Ry     beta=0.30
     Davidson diagonalization with overlap
     ethr =  1.31E-04,  avg # of iterations =  3.1

     negative rho (up, down):  9.294E-04 0.000E+00
 
     Adding external electric field

     Computed dipole along edir(3) : 
        Dipole                0.1104 Ry au,          0.2806 Debye
        Dipole field          0.0003 Ry au
 
        Potential amp.       -0.0276 Ry
        Total length         45.3158 bohr
 

     total cpu time spent up to now is      365.3 secs

     total energy              =   -1690.60451955 Ry
     Harris-Foulkes estimate   =   -1690.61482977 Ry
     estimated scf accuracy    <       0.06969582 Ry

     iteration #  8     ecut=    36.75 Ry     beta=0.30
     Davidson diagonalization with overlap
     ethr =  4.05E-05,  avg # of iterations =  4.2

     negative rho (up, down):  1.382E-03 0.000E+00
 
     Adding external electric field

     Computed dipole along edir(3) : 
        Dipole               -0.0401 Ry au,         -0.1019 Debye
        Dipole field         -0.0001 Ry au
 
        Potential amp.        0.0100 Ry
        Total length         45.3158 bohr
 

     total cpu time spent up to now is      405.6 secs

     total energy              =   -1690.60554014 Ry
     Harris-Foulkes estimate   =   -1690.61289692 Ry
     estimated scf accuracy    <       0.03941795 Ry

     iteration #  9     ecut=    36.75 Ry     beta=0.30
     Davidson diagonalization with overlap
     ethr =  2.29E-05,  avg # of iterations =  3.1

     negative rho (up, down):  1.775E-03 0.000E+00
 
     Adding external electric field

     Computed dipole along edir(3) : 
        Dipole               -0.1307 Ry au,         -0.3323 Debye
        Dipole field         -0.0004 Ry au
 
        Potential amp.        0.0327 Ry
        Total length         45.3158 bohr
 

     total cpu time spent up to now is      441.8 secs

     total energy              =   -1690.60622483 Ry
     Harris-Foulkes estimate   =   -1690.60799586 Ry
     estimated scf accuracy    <       0.01447662 Ry

     iteration # 10     ecut=    36.75 Ry     beta=0.30
     Davidson diagonalization with overlap
     ethr =  8.42E-06,  avg # of iterations =  6.2

     negative rho (up, down):  2.465E-03 0.000E+00
 
     Adding external electric field

     Computed dipole along edir(3) : 
        Dipole               -0.2015 Ry au,         -0.5123 Debye
        Dipole field         -0.0006 Ry au
 
        Potential amp.        0.0504 Ry
        Total length         45.3158 bohr
 

     total cpu time spent up to now is      482.4 secs

     total energy              =   -1690.60628785 Ry
     Harris-Foulkes estimate   =   -1690.60705327 Ry
     estimated scf accuracy    <       0.00563435 Ry

     iteration # 11     ecut=    36.75 Ry     beta=0.30
     Davidson diagonalization with overlap
     ethr =  3.28E-06,  avg # of iterations =  5.8

     negative rho (up, down):  2.800E-03 0.000E+00
 
     Adding external electric field

     Computed dipole along edir(3) : 
        Dipole               -0.2205 Ry au,         -0.5603 Debye
        Dipole field         -0.0006 Ry au
 
        Potential amp.        0.0552 Ry
        Total length         45.3158 bohr
 

     total cpu time spent up to now is      526.1 secs

     total energy              =   -1690.60683601 Ry
     Harris-Foulkes estimate   =   -1690.60685528 Ry
     estimated scf accuracy    <       0.00097194 Ry

     iteration # 12     ecut=    36.75 Ry     beta=0.30
     Davidson diagonalization with overlap
     ethr =  5.65E-07,  avg # of iterations =  4.0

     negative rho (up, down):  3.540E-03 0.000E+00
 
     Adding external electric field

     Computed dipole along edir(3) : 
        Dipole               -0.2434 Ry au,         -0.6186 Debye
        Dipole field         -0.0007 Ry au
 
        Potential amp.        0.0609 Ry
        Total length         45.3158 bohr
 

     total cpu time spent up to now is      567.4 secs

     total energy              =   -1690.60726539 Ry
     Harris-Foulkes estimate   =   -1690.60695684 Ry
     estimated scf accuracy    <       0.00073511 Ry

     iteration # 13     ecut=    36.75 Ry     beta=0.30
     Davidson diagonalization with overlap
     ethr =  4.27E-07,  avg # of iterations =  3.4

     negative rho (up, down):  4.361E-03 0.000E+00
 
     Adding external electric field

     Computed dipole along edir(3) : 
        Dipole               -0.2650 Ry au,         -0.6736 Debye
        Dipole field         -0.0007 Ry au
 
        Potential amp.        0.0663 Ry
        Total length         45.3158 bohr
 

     total cpu time spent up to now is      603.8 secs

     total energy              =   -1690.60732657 Ry
     Harris-Foulkes estimate   =   -1690.60730356 Ry
     estimated scf accuracy    <       0.00011016 Ry

     iteration # 14     ecut=    36.75 Ry     beta=0.30
     Davidson diagonalization with overlap
     ethr =  6.40E-08,  avg # of iterations =  4.0

     negative rho (up, down):  4.631E-03 0.000E+00
 
     Adding external electric field

     Computed dipole along edir(3) : 
        Dipole               -0.2723 Ry au,         -0.6921 Debye
        Dipole field         -0.0008 Ry au
 
        Potential amp.        0.0681 Ry
        Total length         45.3158 bohr
 

     total cpu time spent up to now is      647.7 secs

     total energy              =   -1690.60733875 Ry
     Harris-Foulkes estimate   =   -1690.60733817 Ry
     estimated scf accuracy    <       0.00004925 Ry

     iteration # 15     ecut=    36.75 Ry     beta=0.30
     Davidson diagonalization with overlap
     ethr =  2.86E-08,  avg # of iterations =  4.0

     negative rho (up, down):  4.576E-03 0.000E+00
 
     Adding external electric field

     Computed dipole along edir(3) : 
        Dipole               -0.2685 Ry au,         -0.6825 Debye
        Dipole field         -0.0007 Ry au
 
        Potential amp.        0.0672 Ry
        Total length         45.3158 bohr
 

     total cpu time spent up to now is      692.0 secs

     total energy              =   -1690.60734106 Ry
     Harris-Foulkes estimate   =   -1690.60735598 Ry
     estimated scf accuracy    <       0.00018274 Ry

     iteration # 16     ecut=    36.75 Ry     beta=0.30
     Davidson diagonalization with overlap
     ethr =  2.86E-08,  avg # of iterations =  3.9

     negative rho (up, down):  4.664E-03 0.000E+00
 
     Adding external electric field

     Computed dipole along edir(3) : 
        Dipole               -0.2710 Ry au,         -0.6887 Debye
        Dipole field         -0.0007 Ry au
 
        Potential amp.        0.0678 Ry
        Total length         45.3158 bohr
 

     total cpu time spent up to now is      728.5 secs

     total energy              =   -1690.60734442 Ry
     Harris-Foulkes estimate   =   -1690.60734345 Ry
     estimated scf accuracy    <       0.00008935 Ry

     iteration # 17     ecut=    36.75 Ry     beta=0.30
     Davidson diagonalization with overlap
     ethr =  2.86E-08,  avg # of iterations =  1.4

     negative rho (up, down):  4.800E-03 0.000E+00

     negative rho (up, down):  4.800E-03 0.000E+00

     negative rho (up, down):  4.800E-03 0.000E+00

     negative rho (up, down):  4.800E-03 0.000E+00

     negative rho (up, down):  4.800E-03 0.000E+00

     negative rho (up, down):  4.800E-03 0.000E+00

     negative rho (up, down):  4.800E-03 0.000E+00

     negative rho (up, down):  4.800E-03 0.000E+00

     negative rho (up, down):  4.800E-03 0.000E+00

     negative rho (up, down):  4.800E-03 0.000E+00

     negative rho (up, down):  4.800E-03 0.000E+00

     negative rho (up, down):  4.800E-03 0.000E+00

     negative rho (up, down):  4.800E-03 0.000E+00

     negative rho (up, down):  4.800E-03 0.000E+00

     negative rho (up, down):  4.800E-03 0.000E+00

     negative rho (up, down):  4.800E-03 0.000E+00

     negative rho (up, down):  4.800E-03 0.000E+00

     negative rho (up, down):  4.800E-03 0.000E+00

     negative rho (up, down):  4.800E-03 0.000E+00

     negative rho (up, down):  4.800E-03 0.000E+00

     negative rho (up, down):  4.800E-03 0.000E+00

     negative rho (up, down):  4.800E-03 0.000E+00

     negative rho (up, down):  4.800E-03 0.000E+00

     negative rho (up, down):  4.800E-03 0.000E+00

     negative rho (up, down):  4.800E-03 0.000E+00

     negative rho (up, down):  4.800E-03 0.000E+00

     negative rho (up, down):  4.800E-03 0.000E+00

     negative rho (up, down):  4.800E-03 0.000E+00

     negative rho (up, down):  4.800E-03 0.000E+00

     negative rho (up, down):  4.800E-03 0.000E+00

     negative rho (up, down):  4.800E-03 0.000E+00

     negative rho (up, down):  4.800E-03 0.000E+00

     negative rho (up, down):  4.800E-03 0.000E+00

     negative rho (up, down):  4.800E-03 0.000E+00

     negative rho (up, down):  4.800E-03 0.000E+00
 
     Adding external electric field

     Computed dipole along edir(3) : 
        Dipole               -0.2646 Ry au,         -0.6726 Debye
        Dipole field         -0.0007 Ry au
 
        Potential amp.        0.0662 Ry
        Total length         45.3158 bohr
 

     total cpu time spent up to now is      823.1 secs

     End of self-consistent calculation

          k = 0.0000 0.0000 0.0000 ( 17111 PWs)   bands (ev):

   -58.9755 -58.8895 -58.8027 -58.8013 -58.8005 -58.7558 -58.7329 -58.7329
   -58.6984 -58.6919 -58.6914 -58.3647 -33.5151 -33.4992 -33.4990 -33.4425
   -33.4059 -33.3786 -33.3783 -33.3114 -33.2843 -33.2838 -32.9997 -32.8859
   -32.8853 -32.8100 -32.8002 -32.7999 -32.7608 -32.6979 -32.6759 -32.6758
   -32.5760 -32.5741 -32.5650 -32.5649 -32.5095 -32.5090 -32.4837 -32.4569
   -32.4537 -32.4534 -32.3777 -32.3776 -32.2696 -32.2695 -32.1712 -32.1710
    -6.4595  -3.8153  -2.5163  -2.4455  -2.4454  -2.4293  -2.3986  -1.9507
    -1.9507  -1.9495  -1.8027  -1.8027  -1.7773  -1.4975  -1.4756  -1.4754
    -0.6977  -0.6975  -0.3212   0.3795   0.5163   0.5164   0.8499   0.9250
     1.3475   1.3476   1.3739   1.5094   1.5094   1.6429   1.6431   1.7198
     1.8535   1.8535   1.9591   1.9593   2.2091   2.2092   2.3464   3.0298
     3.2721   3.2721   3.3300   3.4972   3.7204   3.7765   3.7765   4.0444

          k = 0.0000 0.0342 0.0000 ( 17130 PWs)   bands (ev):

   -58.9641 -58.8805 -58.8111 -58.8008 -58.7951 -58.7601 -58.7406 -58.7330
   -58.7013 -58.6948 -58.6914 -58.3659 -33.4749 -33.4635 -33.4419 -33.4178
   -33.3742 -33.3457 -33.3386 -33.2722 -33.2472 -33.2289 -32.9990 -32.9278
   -32.9056 -32.8418 -32.7925 -32.7889 -32.7449 -32.7169 -32.6901 -32.6714
   -32.6243 -32.6058 -32.5530 -32.5445 -32.5231 -32.5082 -32.5058 -32.4902
   -32.4888 -32.4470 -32.4292 -32.3933 -32.3306 -32.2835 -32.2232 -32.1832
    -6.4472  -3.5802  -2.3185  -2.2742  -2.2510  -2.2304  -2.1585  -1.8844
    -1.7613  -1.7607  -1.6673  -1.6439  -1.6268  -1.3605  -1.2367  -1.2201
    -0.6469  -0.6107  -0.2602   0.3574   0.5670   0.5748   0.7378   0.9050
     1.1063   1.2021   1.3328   1.3606   1.5439   1.6209   1.6281   1.7074
     1.7667   1.7894   1.8956   1.9763   2.0651   2.1946   2.2149   2.7324
     2.9147   3.0149   3.1101   3.2894   3.3543   3.5718   3.7157   3.7323

          k = 0.0000 0.0684 0.0000 ( 17142 PWs)   bands (ev):

   -58.9334 -58.8575 -58.8373 -58.8010 -58.7845 -58.7732 -58.7473 -58.7331
   -58.7177 -58.6961 -58.6912 -58.3683 -33.3829 -33.3752 -33.3582 -33.3085
   -33.2806 -33.2682 -33.2565 -33.1899 -33.1548 -33.0643 -33.0107 -32.9703
   -32.9653 -32.9151 -32.7928 -32.7620 -32.7523 -32.7462 -32.7281 -32.7080
   -32.7017 -32.6383 -32.6273 -32.6069 -32.5828 -32.5518 -32.5232 -32.5182
   -32.5099 -32.4962 -32.4501 -32.4431 -32.4058 -32.3314 -32.3205 -32.2094
    -6.4242  -2.9582  -2.0643  -1.7929  -1.7724  -1.7507  -1.6815  -1.5245
    -1.3279  -1.3199  -1.2909  -1.1602  -1.1543  -1.0368  -0.6492  -0.6162
[...]
   -32.5133 -32.4961 -32.4737 -32.4581 -32.4273 -32.3790 -32.3631 -32.2630
    -6.4273  -2.4463  -1.9129  -1.5257  -1.4587  -1.4427  -1.3284  -1.3019
    -1.0474  -1.0010  -0.9845  -0.8799  -0.6795  -0.6158  -0.5702  -0.4232
    -0.2972  -0.1682  -0.1055   0.0655   0.1870   0.2354   0.3002   0.4679
     0.6246   0.6680   0.7975   1.0018   1.0728   1.1067   1.1857   1.2436
     1.3513   1.4233   1.5242   1.5481   1.7700   1.8568   1.9621   2.0768
     2.1910   2.3144   2.4415   2.6841   2.8163   2.8832   3.0071   3.0841

          k = 0.0296-0.0513 0.0000 ( 17106 PWs)   bands (ev):

   -58.9491 -58.8699 -58.8338 -58.8098 -58.7881 -58.7734 -58.7625 -58.7330
   -58.7132 -58.7093 -58.6948 -58.3887 -33.4286 -33.3837 -33.3686 -33.3622
   -33.3261 -33.2900 -33.2894 -33.2255 -33.1558 -33.1517 -33.0104 -32.9737
   -32.9539 -32.9078 -32.8062 -32.7744 -32.7687 -32.7500 -32.7114 -32.6767
   -32.6717 -32.6185 -32.6102 -32.5796 -32.5736 -32.5537 -32.5334 -32.5114
   -32.4964 -32.4760 -32.4693 -32.4405 -32.4120 -32.3242 -32.3075 -32.2269
    -6.4435  -3.1531  -2.0271  -2.0105  -1.8980  -1.8460  -1.7369  -1.6674
    -1.6495  -1.4182  -1.3963  -1.3334  -1.2620  -1.0057  -0.9971  -0.7422
    -0.4979  -0.4634  -0.1757   0.2430   0.3414   0.5473   0.7000   0.7417
     0.8748   0.8936   1.1395   1.1892   1.3118   1.4525   1.5260   1.5562
     1.6303   1.7886   1.8802   1.9443   2.0285   2.1632   2.2285   2.4015
     2.5193   2.6147   2.6578   2.8282   2.8860   2.9934   3.0713   3.2571

          k = 0.0592-0.0342 0.0000 ( 17142 PWs)   bands (ev):

   -58.9396 -58.8635 -58.8430 -58.8074 -58.7904 -58.7788 -58.7529 -58.7380
   -58.7234 -58.7024 -58.6971 -58.3894 -33.3884 -33.3820 -33.3655 -33.3152
   -33.2868 -33.2755 -33.2634 -33.1965 -33.1632 -33.0712 -33.0168 -32.9762
   -32.9715 -32.9210 -32.7991 -32.7677 -32.7582 -32.7521 -32.7338 -32.7136
   -32.7030 -32.6444 -32.6329 -32.6113 -32.5890 -32.5580 -32.5279 -32.5234
   -32.5139 -32.5022 -32.4556 -32.4494 -32.4119 -32.3483 -32.3273 -32.2258
    -6.4379  -2.9663  -2.0718  -1.7996  -1.7789  -1.7582  -1.6897  -1.5313
    -1.3339  -1.3278  -1.2974  -1.1684  -1.1609  -1.0426  -0.6523  -0.6209
    -0.4101  -0.3718  -0.1457   0.1038   0.2908   0.5303   0.5427   0.6379
     0.8781   0.9530   0.9834   1.1815   1.2650   1.3089   1.4205   1.5213
     1.6257   1.7846   1.8487   1.9851   2.0012   2.1003   2.1703   2.2416
     2.3968   2.4354   2.5698   2.6717   2.6926   2.7917   3.0840   3.1527

          k = 0.0592 0.0000 0.0000 ( 17106 PWs)   bands (ev):

   -58.9491 -58.8699 -58.8337 -58.8098 -58.7881 -58.7734 -58.7625 -58.7330
   -58.7131 -58.7093 -58.6948 -58.3887 -33.4286 -33.3837 -33.3686 -33.3622
   -33.3261 -33.2899 -33.2894 -33.2256 -33.1558 -33.1516 -33.0104 -32.9737
   -32.9539 -32.9078 -32.8063 -32.7744 -32.7687 -32.7501 -32.7114 -32.6767
   -32.6717 -32.6185 -32.6102 -32.5796 -32.5736 -32.5537 -32.5333 -32.5114
   -32.4964 -32.4761 -32.4694 -32.4405 -32.4120 -32.3242 -32.3075 -32.2268
    -6.4435  -3.1531  -2.0270  -2.0105  -1.8979  -1.8460  -1.7369  -1.6674
    -1.6494  -1.4183  -1.3962  -1.3334  -1.2620  -1.0057  -0.9971  -0.7421
    -0.4979  -0.4634  -0.1757   0.2430   0.3414   0.5473   0.7000   0.7417
     0.8747   0.8937   1.1394   1.1892   1.3118   1.4524   1.5260   1.5562
     1.6303   1.7886   1.8803   1.9445   2.0285   2.1632   2.2285   2.4015
     2.5194   2.6148   2.6578   2.8283   2.8860   2.9933   3.0712   3.2570

          k = 0.0592 0.0342 0.0000 ( 17142 PWs)   bands (ev):

   -58.9396 -58.8634 -58.8432 -58.8072 -58.7905 -58.7788 -58.7529 -58.7379
   -58.7234 -58.7026 -58.6969 -58.3894 -33.3885 -33.3819 -33.3654 -33.3152
   -33.2868 -33.2756 -33.2634 -33.1963 -33.1634 -33.0712 -33.0168 -32.9763
   -32.9714 -32.9210 -32.7990 -32.7677 -32.7581 -32.7522 -32.7338 -32.7138
   -32.7030 -32.6444 -32.6329 -32.6113 -32.5890 -32.5580 -32.5279 -32.5234
   -32.5139 -32.5021 -32.4556 -32.4493 -32.4119 -32.3483 -32.3273 -32.2258
    -6.4379  -2.9663  -2.0718  -1.7997  -1.7788  -1.7581  -1.6898  -1.5313
    -1.3339  -1.3278  -1.2974  -1.1685  -1.1608  -1.0426  -0.6524  -0.6208
    -0.4102  -0.3718  -0.1456   0.1038   0.2909   0.5304   0.5427   0.6377
     0.8781   0.9529   0.9835   1.1814   1.2650   1.3089   1.4205   1.5213
     1.6257   1.7846   1.8487   1.9852   2.0010   2.1003   2.1703   2.2416
     2.3968   2.4354   2.5699   2.6716   2.6926   2.7917   3.0839   3.1525

          k = 0.0592-0.1368 0.0000 ( 17122 PWs)   bands (ev):

   -58.9147 -58.8643 -58.8403 -58.8158 -58.7993 -58.7748 -58.7603 -58.7355
   -58.7249 -58.7137 -58.6927 -58.3906 -33.3339 -33.3192 -33.2806 -33.2603
   -33.2475 -33.2232 -33.1869 -33.1441 -33.0711 -33.0514 -33.0350 -32.9870
   -32.9678 -32.9314 -32.8943 -32.8462 -32.7747 -32.7568 -32.7482 -32.7346
   -32.7063 -32.6835 -32.6670 -32.6534 -32.6127 -32.5835 -32.5660 -32.5462
   -32.5134 -32.4961 -32.4736 -32.4582 -32.4273 -32.3790 -32.3632 -32.2629
    -6.4273  -2.4463  -1.9129  -1.5257  -1.4587  -1.4427  -1.3284  -1.3020
    -1.0474  -1.0010  -0.9845  -0.8800  -0.6795  -0.6158  -0.5702  -0.4232
    -0.2972  -0.1682  -0.1056   0.0655   0.1870   0.2354   0.3002   0.4679
     0.6247   0.6681   0.7973   1.0018   1.0728   1.1067   1.1858   1.2437
     1.3513   1.4233   1.5241   1.5482   1.7699   1.8568   1.9621   2.0768
     2.1909   2.3144   2.4415   2.6840   2.8162   2.8832   3.0071   3.0841

          k = 0.0592-0.1026 0.0000 ( 17100 PWs)   bands (ev):

   -58.8906 -58.8791 -58.8330 -58.8132 -58.8042 -58.7945 -58.7433 -58.7361
   -58.7347 -58.7165 -58.6910 -58.3912 -33.2835 -33.2514 -33.2440 -33.2182
   -33.2153 -33.1840 -33.1579 -33.1340 -33.1178 -33.0245 -32.9986 -32.9837
   -32.9601 -32.9157 -32.9083 -32.8885 -32.8643 -32.8582 -32.7475 -32.7474
   -32.7323 -32.6925 -32.6828 -32.6152 -32.6011 -32.5738 -32.5610 -32.5261
   -32.5214 -32.5184 -32.5017 -32.4506 -32.4442 -32.4298 -32.3341 -32.3210
    -6.4221  -1.7911  -1.7899  -1.7816  -1.1044  -1.0764  -1.0620  -1.0609
    -0.9861  -0.8111  -0.5858  -0.5811  -0.5604  -0.5339  -0.5196  -0.4457
    -0.2442  -0.2062  -0.0923   0.0413   0.2009   0.2245   0.2591   0.3168
     0.4686   0.4844   0.5693   0.5939   0.6600   0.7303   0.8652   1.0115
     1.1215   1.3036   1.3190   1.5381   1.6484   1.7574   1.9188   2.0395
     2.0650   2.3144   2.3649   2.5900   2.6897   2.8090   3.0747   3.2360

          k = 0.0592-0.0684 0.0000 ( 17122 PWs)   bands (ev):

   -58.9148 -58.8641 -58.8403 -58.8159 -58.7993 -58.7749 -58.7604 -58.7354
   -58.7249 -58.7137 -58.6927 -58.3906 -33.3339 -33.3192 -33.2806 -33.2603
   -33.2476 -33.2230 -33.1869 -33.1442 -33.0711 -33.0513 -33.0351 -32.9870
   -32.9677 -32.9314 -32.8943 -32.8462 -32.7746 -32.7569 -32.7483 -32.7345
   -32.7063 -32.6835 -32.6670 -32.6534 -32.6128 -32.5835 -32.5659 -32.5462
   -32.5134 -32.4961 -32.4736 -32.4583 -32.4273 -32.3790 -32.3632 -32.2629
    -6.4273  -2.4463  -1.9129  -1.5257  -1.4588  -1.4427  -1.3284  -1.3019
    -1.0474  -1.0010  -0.9845  -0.8800  -0.6795  -0.6157  -0.5702  -0.4232
    -0.2972  -0.1683  -0.1055   0.0655   0.1870   0.2354   0.3003   0.4679
     0.6247   0.6680   0.7974   1.0018   1.0729   1.1067   1.1857   1.2437
     1.3513   1.4233   1.5241   1.5481   1.7700   1.8568   1.9621   2.0768
     2.1910   2.3144   2.4415   2.6841   2.8162   2.8832   3.0071   3.0841

          k =-0.0888 0.0513 0.0000 ( 17160 PWs)   bands (ev):

   -58.9103 -58.8754 -58.8289 -58.8205 -58.8075 -58.7614 -58.7505 -58.7442
   -58.7381 -58.7026 -58.6970 -58.3906 -33.3234 -33.3193 -33.3062 -33.2832
   -33.2659 -33.2295 -33.1359 -33.1084 -33.0906 -33.0846 -33.0360 -33.0061
   -32.9029 -32.8556 -32.8324 -32.8322 -32.8233 -32.7880 -32.7500 -32.7178
   -32.7165 -32.7162 -32.6972 -32.6920 -32.6673 -32.5716 -32.5628 -32.5378
   -32.5118 -32.5050 -32.4726 -32.4520 -32.4015 -32.3850 -32.3648 -32.2411
    -6.4272  -2.2916  -2.2609  -1.5415  -1.4713  -1.4277  -1.3987  -1.2499
    -1.1609  -1.0170  -0.9534  -0.7039  -0.6700  -0.6282  -0.5022  -0.3854
    -0.3352  -0.1816   0.0106   0.1754   0.1896   0.2716   0.3423   0.3701
     0.6156   0.7449   0.9436   1.0772   1.1815   1.1930   1.3153   1.3710
     1.3869   1.4221   1.4249   1.5285   1.7224   1.7329   1.7981   2.0998
     2.1121   2.1799   2.6874   2.7410   2.8610   2.9448   2.9579   3.0818

          k =-0.0888 0.0855 0.0000 ( 17122 PWs)   bands (ev):

   -58.9148 -58.8641 -58.8403 -58.8158 -58.7993 -58.7749 -58.7604 -58.7355
   -58.7249 -58.7137 -58.6927 -58.3906 -33.3339 -33.3192 -33.2806 -33.2603
   -33.2476 -33.2230 -33.1869 -33.1442 -33.0711 -33.0513 -33.0351 -32.9870
   -32.9677 -32.9315 -32.8942 -32.8461 -32.7747 -32.7568 -32.7484 -32.7346
   -32.7063 -32.6835 -32.6669 -32.6534 -32.6128 -32.5835 -32.5659 -32.5463
   -32.5133 -32.4961 -32.4737 -32.4583 -32.4273 -32.3790 -32.3632 -32.2629
    -6.4273  -2.4463  -1.9129  -1.5257  -1.4587  -1.4428  -1.3284  -1.3019
    -1.0474  -1.0011  -0.9845  -0.8799  -0.6795  -0.6158  -0.5702  -0.4232
    -0.2972  -0.1682  -0.1056   0.0655   0.1870   0.2354   0.3003   0.4679
     0.6247   0.6680   0.7974   1.0018   1.0728   1.1067   1.1858   1.2437
     1.3513   1.4233   1.5241   1.5483   1.7699   1.8569   1.9621   2.0768
     2.1910   2.3143   2.4415   2.6840   2.8164   2.8832   3.0070   3.0842

          k =-0.0888 0.1197 0.0000 ( 17122 PWs)   bands (ev):

   -58.9148 -58.8641 -58.8404 -58.8157 -58.7994 -58.7748 -58.7604 -58.7354
   -58.7249 -58.7137 -58.6927 -58.3906 -33.3339 -33.3192 -33.2806 -33.2603
   -33.2476 -33.2232 -33.1869 -33.1441 -33.0711 -33.0514 -33.0352 -32.9869
   -32.9678 -32.9315 -32.8941 -32.8461 -32.7747 -32.7568 -32.7484 -32.7346
   -32.7063 -32.6835 -32.6669 -32.6534 -32.6127 -32.5835 -32.5660 -32.5463
   -32.5133 -32.4961 -32.4737 -32.4582 -32.4273 -32.3790 -32.3632 -32.2629
    -6.4273  -2.4463  -1.9129  -1.5257  -1.4587  -1.4427  -1.3284  -1.3020
    -1.0474  -1.0010  -0.9845  -0.8799  -0.6795  -0.6158  -0.5702  -0.4232
    -0.2972  -0.1682  -0.1056   0.0655   0.1870   0.2354   0.3002   0.4679
     0.6247   0.6681   0.7973   1.0018   1.0728   1.1067   1.1858   1.2437
     1.3513   1.4233   1.5241   1.5482   1.7700   1.8568   1.9621   2.0768
     2.1910   2.3144   2.4415   2.6840   2.8163   2.8831   3.0070   3.0841

          k =-0.0888-0.0513 0.0000 ( 17160 PWs)   bands (ev):

   -58.9101 -58.8756 -58.8289 -58.8206 -58.8073 -58.7614 -58.7505 -58.7443
   -58.7380 -58.7028 -58.6969 -58.3906 -33.3234 -33.3193 -33.3061 -33.2831
   -33.2660 -33.2296 -33.1358 -33.1084 -33.0907 -33.0849 -33.0358 -33.0062
   -32.9028 -32.8557 -32.8323 -32.8322 -32.8235 -32.7879 -32.7501 -32.7178
   -32.7166 -32.7162 -32.6971 -32.6921 -32.6673 -32.5716 -32.5627 -32.5378
   -32.5118 -32.5050 -32.4726 -32.4519 -32.4015 -32.3851 -32.3647 -32.2412
    -6.4272  -2.2916  -2.2609  -1.5414  -1.4714  -1.4277  -1.3987  -1.2500
    -1.1608  -1.0170  -0.9534  -0.7039  -0.6699  -0.6283  -0.5021  -0.3853
    -0.3354  -0.1816   0.0105   0.1754   0.1895   0.2715   0.3423   0.3702
     0.6157   0.7450   0.9434   1.0773   1.1814   1.1931   1.3153   1.3709
     1.3869   1.4222   1.4247   1.5284   1.7224   1.7330   1.7981   2.0996
     2.1121   2.1800   2.6873   2.7408   2.8610   2.9448   2.9578   3.0818

     the Fermi energy is     2.0763 ev

!    total energy              =   -1690.60762072 Ry
     Harris-Foulkes estimate   =   -1690.60733576 Ry
     estimated scf accuracy    <       0.00000794 Ry

     The total energy is the sum of the following terms:

     one-electron contribution =  -15441.40524444 Ry
     hartree contribution      =    7715.55257855 Ry
     xc contribution           =    -243.71351709 Ry
     ewald contribution        =    6279.05918881 Ry
     electric field correction =       0.00019990 Ry
     smearing contrib. (-TS)   =      -0.10082645 Ry

     convergence has been achieved in  17 iterations
 
 BEEF-vdW xc energy contributions
           1 :   -209.271671801978     
           2 :    191.167541719185     
           3 :   -160.193489798038     
           4 :    124.546183859850     
           5 :   -92.3644040338582     
           6 :    69.1785738895857     
           7 :   -56.6837409825228     
           8 :    53.0138408406814     
           9 :   -54.1887366520290     
          10 :    55.9873515441992     
          11 :   -55.5025570015870     
          12 :    51.8522878512932     
          13 :   -45.9601723716885     
          14 :    39.6676675768545     
          15 :   -34.6705837923100     
          16 :    31.7357169489268     
          17 :   -30.4878548989678     
          18 :    29.7673619289547     
          19 :   -28.3202937292180     
          20 :    25.4433893432219     
          21 :   -21.2810056642072     
          22 :    16.6675794390601     
          23 :   -12.6479200112327     
          24 :    9.93889867642187     
          25 :   -8.60490561890447     
          26 :    8.08005729585278     
          27 :   -7.49614242926697     
          28 :    6.12692781928769     
          29 :   -3.72759058273380     
          30 :   0.612076974426685     
          31 :   -23.9358777182889     
          32 :   -18.3590632812868     

     Forces acting on atoms (Ry/au):


     negative rho (up, down):  4.799E-03 0.000E+00
     atom    1 type  1   force =     0.00136282    0.00080581   -0.00461267
     atom    2 type  1   force =    -0.00136367    0.00078526   -0.00460732
     atom    3 type  1   force =    -0.00002134   -0.00157655   -0.00462402
     atom    4 type  1   force =     0.00003199   -0.00001786   -0.00788906
     atom    5 type  1   force =     0.00000458    0.00558197    0.00075009
     atom    6 type  1   force =    -0.00001827   -0.00001988    0.01791431
     atom    7 type  1   force =    -0.00485272   -0.00277887    0.00080148
     atom    8 type  1   force =     0.00485217   -0.00277831    0.00074298
     atom    9 type  1   force =    -0.00000786    0.00000884   -0.00077363
     atom   10 type  1   force =     0.00000830   -0.00080920    0.00042556
     atom   11 type  1   force =    -0.00070899    0.00040586    0.00042286
     atom   12 type  1   force =     0.00071152    0.00039279    0.00045924
     atom   13 type  2   force =     0.00000149    0.00000013    0.00099017

     Total force =     0.023539     Total SCF correction =     0.010856
     SCF correction compared to forces is large: reduce conv_thr to get better values


     entering subroutine stress ...


     negative rho (up, down):  4.799E-03 0.000E+00
          total   stress  (Ry/bohr**3)                   (kbar)     P=  -12.54
  -0.00014199   0.00000000   0.00000001        -20.89      0.00      0.00
   0.00000000  -0.00014196   0.00000000          0.00    -20.88      0.00
   0.00000001   0.00000000   0.00002825          0.00      0.00      4.16

 !ASE

     Writing output data file calc.save
 
     init_run     :     12.49s CPU     22.27s WALL (       1 calls)
     electrons    :    481.09s CPU    795.08s WALL (       1 calls)
     forces       :      3.65s CPU      4.77s WALL (       1 calls)
     stress       :      9.59s CPU     11.77s WALL (       1 calls)

     Called by init_run:
     wfcinit      :     10.31s CPU     18.86s WALL (       1 calls)
     potinit      :      1.09s CPU      2.11s WALL (       1 calls)

     Called by electrons:
     c_bands      :    369.05s CPU    593.40s WALL (      17 calls)
     sum_band     :     54.96s CPU     97.47s WALL (      17 calls)
     v_of_rho     :     17.49s CPU     33.86s WALL (      18 calls)
     newd         :      8.26s CPU      8.62s WALL (      18 calls)
     mix_rho      :      0.66s CPU      1.25s WALL (      17 calls)
     vdW_energy   :      3.10s CPU      3.45s WALL (      54 calls)
     vdW_ffts     :     29.60s CPU     63.60s WALL (     110 calls)
     vdW_v        :      6.13s CPU     11.21s WALL (      54 calls)

     Called by c_bands:
     init_us_2    :      1.03s CPU      1.08s WALL (     740 calls)
     cegterg      :    362.00s CPU    585.23s WALL (     340 calls)

     Called by *egterg:
     h_psi        :    226.06s CPU    438.26s WALL (    1936 calls)
     s_psi        :     10.23s CPU     10.34s WALL (    1936 calls)
     g_psi        :      0.57s CPU      0.58s WALL (    1576 calls)
     cdiaghg      :     88.87s CPU     92.12s WALL (    1916 calls)

     Called by h_psi:
     add_vuspsi   :     10.54s CPU     10.57s WALL (    1936 calls)

     General routines
     calbec       :     19.66s CPU     25.33s WALL (    2316 calls)
     fft          :     44.47s CPU     95.35s WALL (    3291 calls)
     ffts         :      0.11s CPU      0.28s WALL (      35 calls)
     fftw         :    222.74s CPU    468.71s WALL (  198730 calls)
     interpolate  :      0.58s CPU      1.27s WALL (      35 calls)
     davcio       :      0.00s CPU      0.04s WALL (      20 calls)
 
     Parallel routines
     fft_scatter  :    229.71s CPU    524.21s WALL (  202056 calls)
 
     PWSCF        :  8m27.54s CPU    13m55.17s WALL

 
   This run was terminated on:  11: 3:28  19Jan2018            

=------------------------------------------------------------------------------=
   JOB DONE.
=------------------------------------------------------------------------------=
Job  /afs/slac/g/suncat/bin/suncat-tsmpirun -x LD_LIBRARY_PATH -wdir /scratch/qe891410_83T8q pw.x -in pw.inp

TID   HOST_NAME   COMMAND_LINE            STATUS            TERMINATION_TIME
===== ========== ================  =======================  ===================
00000 suncat1009 pw.x -in pw.inp   Done                     01/19/2018 11:03:28
00001 suncat1009 pw.x -in pw.inp   Done                     01/19/2018 11:03:28
00002 suncat1009 pw.x -in pw.inp   Done                     01/19/2018 11:03:28
00003 suncat1009 pw.x -in pw.inp   Done                     01/19/2018 11:03:28
00004 suncat1009 pw.x -in pw.inp   Done                     01/19/2018 11:03:28
00005 suncat1009 pw.x -in pw.inp   Done                     01/19/2018 11:03:28
00006 suncat1009 pw.x -in pw.inp   Done                     01/19/2018 11:03:28
00007 suncat1009 pw.x -in pw.inp   Done                     01/19/2018 11:03:28
00008 suncat1059 pw.x -in pw.inp   Done                     01/19/2018 11:03:28
00009 suncat1059 pw.x -in pw.inp   Done                     01/19/2018 11:03:28
00010 suncat1059 pw.x -in pw.inp   Done                     01/19/2018 11:03:28
00011 suncat1059 pw.x -in pw.inp   Done                     01/19/2018 11:03:28
00012 suncat1059 pw.x -in pw.inp   Done                     01/19/2018 11:03:28
00013 suncat1059 pw.x -in pw.inp   Done                     01/19/2018 11:03:28
00014 suncat1059 pw.x -in pw.inp   Done                     01/19/2018 11:03:28
00015 suncat1059 pw.x -in pw.inp   Done                     01/19/2018 11:03:28
00016 suncat1059 pw.x -in pw.inp   Done                     01/19/2018 11:03:28
00017 suncat1059 pw.x -in pw.inp   Done                     01/19/2018 11:03:28
00018 suncat1059 pw.x -in pw.inp   Done                     01/19/2018 11:03:28
00019 suncat1059 pw.x -in pw.inp   Done                     01/19/2018 11:03:28
00020 suncat1056 pw.x -in pw.inp   Done                     01/19/2018 11:03:28
00021 suncat1056 pw.x -in pw.inp   Done                     01/19/2018 11:03:28
00022 suncat1056 pw.x -in pw.inp   Done                     01/19/2018 11:03:28
00023 suncat1056 pw.x -in pw.inp   Done                     01/19/2018 11:03:28
00024 suncat1056 pw.x -in pw.inp   Done                     01/19/2018 11:03:28
00025 suncat1056 pw.x -in pw.inp   Done                     01/19/2018 11:03:28
00026 suncat1056 pw.x -in pw.inp   Done                     01/19/2018 11:03:28
00027 suncat1056 pw.x -in pw.inp   Done                     01/19/2018 11:03:28
00028 suncat1056 pw.x -in pw.inp   Done                     01/19/2018 11:03:28
00029 suncat1056 pw.x -in pw.inp   Done                     01/19/2018 11:03:28
00030 suncat1056 pw.x -in pw.inp   Done                     01/19/2018 11:03:28
00031 suncat1056 pw.x -in pw.inp   Done                     01/19/2018 11:03:28
