  python dir    : /nfs/slac/g/suncatfs/mamunm/src/decaf-espresso/decaf
espresso dir  : /nfs/slac/g/suncatfs/sw/espv18/espresso-dynpy-beef/bin/pw.x
executable    : pam -g /afs/slac/g/suncat/bin/suncat-tsmpirun -x LD_LIBRARY_PATH -wdir /tmp/qe_6936711c8vmb4f_scratch pw.x -npool 2 -in pw.pwi

     Program PWSCF v.5.1rc2 (svn rev. 11289) starts on 17Jan2019 at 13: 0:17 

     This program is part of the open-source Quantum ESPRESSO suite
     for quantum simulation of materials; please cite
         "P. Giannozzi et al., J. Phys.:Condens. Matter 21 395502 (2009);
          URL http://www.quantum-espresso.org", 
     in publications or presentations arising from this work. More details at
     http://www.quantum-espresso.org/quote

     Parallel version (MPI), running on    32 processors
     K-points division:     npool     =       2
     R & G space division:  proc/nbgrp/npool/nimage =      16
     Reading input from pw.pwi
Warning: card &CELL ignored
Warning: card / ignored

     Current dimensions of program PWSCF are:
     Max number of different atomic species (ntypx) = 10
     Max number of k-points (npk) =  40000
     Max angular momentum in pseudopotentials (lmaxx) =  3

     **************************************************************************
     Initializing libbeef V0.1.1 with the BEEF-vdW functional.
     Citation: Wellendorff et al., PRB 85, 235149 (2012).
     **************************************************************************


     IMPORTANT: XC functional enforced from input :
     Exchange-correlation      = BEEF-VDW ( 1  4 27 13 2)
     Any further DFT definition will be discarded
     Please, verify this is what you really want


     Subspace diagonalization in iterative solution of the eigenvalue problem:
     a serial algorithm will be used

 
     Parallelization info
     --------------------
     sticks:   dense  smooth     PW     G-vecs:    dense   smooth      PW
     Min         141      57     16                26287     6655    1072
     Max         142      58     17                26300     6683    1085
     Sum        2263     913    265               420703   106687   17243
 
     Generating pointlists ...
     new r_m :   0.1608 (alat units)  1.5231 (a.u.) for type    1
     new r_m :   0.0898 (alat units)  0.8506 (a.u.) for type    2
     new r_m :   0.0898 (alat units)  0.8506 (a.u.) for type    3


     bravais-lattice index     =            0
     lattice parameter (alat)  =       9.4723  a.u.
     unit-cell volume          =    3537.7769 (a.u.)^3
     number of atoms/cell      =           15
     number of atomic types    =            3
     number of electrons       =       210.00
     number of Kohn-Sham states=          115
     kinetic-energy cutoff     =      36.7493  Ry
     charge density cutoff     =     367.4933  Ry
     convergence threshold     =      1.0E-04
     mixing beta               =       0.1000
     number of iterations used =            8  plain     mixing
     Exchange-correlation      = BEEF-VDW ( 1  4 27 13 2)
     nstep                     =           50


     celldm(1)=   9.472344  celldm(2)=   0.000000  celldm(3)=   0.000000
     celldm(4)=   0.000000  celldm(5)=   0.000000  celldm(6)=   0.000000

     crystal axes: (cart. coord. in units of alat)
               a(1) = (   1.000000   0.000000   0.000000 )  
               a(2) = (   0.500000   0.866025   0.000000 )  
               a(3) = (   0.000000   0.000000   4.806483 )  

     reciprocal axes: (cart. coord. in units 2 pi/alat)
               b(1) = (  1.000000 -0.577350  0.000000 )  
               b(2) = (  0.000000  1.154701  0.000000 )  
               b(3) = (  0.000000  0.000000  0.208052 )  


     PseudoPot. # 1 for Co read from file:
     /nfs/slac/g/suncatfs/mamunm/src/decaf-espresso/gbrv15pbe/Co.UPF
     MD5 check sum: 5f91765df6ddd3222702df6e7b74a16d
     Pseudo is Ultrasoft + core correction, Zval = 17.0
     Generated by new atomic code, or converted to UPF format
     Using radial grid of  863 points,  6 beta functions with: 
                l(1) =   0
                l(2) =   0
                l(3) =   1
                l(4) =   1
                l(5) =   2
                l(6) =   2
     Q(r) pseudized with  8 coefficients,  rinner =    1.200   1.200   1.200
                                                       1.200   1.200

     PseudoPot. # 2 for C  read from file:
     /nfs/slac/g/suncatfs/mamunm/src/decaf-espresso/gbrv15pbe/C.UPF
     MD5 check sum: d1aef80898a10debaa0f26306b886e00
     Pseudo is Ultrasoft + core correction, Zval =  4.0
     Generated by new atomic code, or converted to UPF format
     Using radial grid of  721 points,  4 beta functions with: 
                l(1) =   0
                l(2) =   0
                l(3) =   1
                l(4) =   1
     Q(r) pseudized with  8 coefficients,  rinner =    1.100   1.100   1.100


     PseudoPot. # 3 for H  read from file:
     /nfs/slac/g/suncatfs/mamunm/src/decaf-espresso/gbrv15pbe/H.UPF
     MD5 check sum: 761ae9a214b05c3daf00ab9f6b793d6f
     Pseudo is Ultrasoft, Zval =  1.0
     Generated by new atomic code, or converted to UPF format
     Using radial grid of  615 points,  2 beta functions with: 
                l(1) =   0
                l(2) =   0
     Q(r) pseudized with  8 coefficients,  rinner =    0.700

     vdW kernel table read from file vdW_kernel_table
     MD5 check sum: 095c7af220d748ca6e76c0b4c6cfb241

     atomic species   valence    mass     pseudopotential
        Co            17.00    58.93319     Co( 1.00)
        C              4.00    12.01100     C ( 1.00)
        H              1.00     1.00800     H ( 1.00)

     Starting magnetic structure 
     atomic species   magnetization
        Co           0.118
        C            0.000
        H            0.000

     No symmetry found



   Cartesian axes

     site n.     atom                  positions (alat units)
         1           Co  tau(   1) = (   0.2500000   0.1443376   1.9949931  )
         2           Co  tau(   2) = (   0.7500000   0.1443376   1.9949931  )
         3           Co  tau(   3) = (   0.5000000   0.5773503   1.9949931  )
         4           Co  tau(   4) = (   1.0000000   0.5773503   1.9949931  )
         5           Co  tau(   5) = (   1.0000000   0.2886751   2.4032414  )
         6           Co  tau(   6) = (   0.5000000   0.2886751   2.4032414  )
         7           Co  tau(   7) = (   1.2500000   0.7216878   2.4032414  )
         8           Co  tau(   8) = (   0.7500000   0.7216878   2.4032414  )
         9           Co  tau(   9) = (   0.0000000   0.0000000   2.8114897  )
        10           Co  tau(  10) = (   0.5000000   0.0000000   2.8114897  )
        11           Co  tau(  11) = (   0.2500000   0.4330127   2.8114897  )
        12           Co  tau(  12) = (   0.7500000   0.4330127   2.8114897  )
        13           C   tau(  13) = (   0.2500000   0.1443376   3.0734323  )
        14           H   tau(  14) = (   0.3756846   0.2700221   3.1991168  )
        15           H   tau(  15) = (   0.1243154   0.0186530   3.1991168  )

     number of k points=    40  Fermi-Dirac smearing, width (Ry)=  0.0110
                       cart. coord. in units 2pi/alat
        k(    1) = (   0.0000000   0.0000000   0.0000000), wk =   0.0277778
        k(    2) = (   0.0000000   0.1924501   0.0000000), wk =   0.0555556
        k(    3) = (   0.0000000   0.3849002   0.0000000), wk =   0.0555556
        k(    4) = (   0.0000000  -0.5773503   0.0000000), wk =   0.0277778
        k(    5) = (   0.1666667  -0.0962250   0.0000000), wk =   0.0555556
        k(    6) = (   0.1666667   0.0962250   0.0000000), wk =   0.0555556
        k(    7) = (   0.1666667   0.2886751   0.0000000), wk =   0.0555556
        k(    8) = (   0.1666667  -0.6735753   0.0000000), wk =   0.0555556
        k(    9) = (   0.1666667  -0.4811252   0.0000000), wk =   0.0555556
        k(   10) = (   0.1666667  -0.2886751   0.0000000), wk =   0.0555556
        k(   11) = (   0.3333333  -0.1924501   0.0000000), wk =   0.0555556
        k(   12) = (   0.3333333  -0.0000000   0.0000000), wk =   0.0555556
        k(   13) = (   0.3333333   0.1924501   0.0000000), wk =   0.0555556
        k(   14) = (   0.3333333  -0.7698004   0.0000000), wk =   0.0555556
        k(   15) = (   0.3333333  -0.5773503   0.0000000), wk =   0.0555556
        k(   16) = (   0.3333333  -0.3849002   0.0000000), wk =   0.0555556
        k(   17) = (  -0.5000000   0.2886751   0.0000000), wk =   0.0277778
        k(   18) = (  -0.5000000   0.4811252   0.0000000), wk =   0.0555556
        k(   19) = (  -0.5000000   0.6735753   0.0000000), wk =   0.0555556
        k(   20) = (  -0.5000000  -0.2886751   0.0000000), wk =   0.0277778
        k(   21) = (   0.0000000   0.0000000   0.0000000), wk =   0.0277778
        k(   22) = (   0.0000000   0.1924501   0.0000000), wk =   0.0555556
        k(   23) = (   0.0000000   0.3849002   0.0000000), wk =   0.0555556
        k(   24) = (   0.0000000  -0.5773503   0.0000000), wk =   0.0277778
        k(   25) = (   0.1666667  -0.0962250   0.0000000), wk =   0.0555556
        k(   26) = (   0.1666667   0.0962250   0.0000000), wk =   0.0555556
        k(   27) = (   0.1666667   0.2886751   0.0000000), wk =   0.0555556
        k(   28) = (   0.1666667  -0.6735753   0.0000000), wk =   0.0555556
        k(   29) = (   0.1666667  -0.4811252   0.0000000), wk =   0.0555556
        k(   30) = (   0.1666667  -0.2886751   0.0000000), wk =   0.0555556
        k(   31) = (   0.3333333  -0.1924501   0.0000000), wk =   0.0555556
        k(   32) = (   0.3333333  -0.0000000   0.0000000), wk =   0.0555556
        k(   33) = (   0.3333333   0.1924501   0.0000000), wk =   0.0555556
        k(   34) = (   0.3333333  -0.7698004   0.0000000), wk =   0.0555556
        k(   35) = (   0.3333333  -0.5773503   0.0000000), wk =   0.0555556
        k(   36) = (   0.3333333  -0.3849002   0.0000000), wk =   0.0555556
        k(   37) = (  -0.5000000   0.2886751   0.0000000), wk =   0.0277778
        k(   38) = (  -0.5000000   0.4811252   0.0000000), wk =   0.0555556
        k(   39) = (  -0.5000000   0.6735753   0.0000000), wk =   0.0555556
        k(   40) = (  -0.5000000  -0.2886751   0.0000000), wk =   0.0277778

     Dense  grid:   420703 G-vectors     FFT dimensions: (  60,  60, 288)

     Smooth grid:   106687 G-vectors     FFT dimensions: (  40,  40, 180)

     Largest allocated arrays     est. size (Mb)     dimensions
        Kohn-Sham Wavefunctions         1.63 Mb     (     930,  115)
        NL pseudopotentials             3.24 Mb     (     930,  228)
        Each V/rho on FFT grid          1.98 Mb     (   64800,   2)
        Each G-vector array             0.20 Mb     (   26295)
        G-vector shells                 0.08 Mb     (   10522)
     Largest temporary arrays     est. size (Mb)     dimensions
        Auxiliary wavefunctions         6.53 Mb     (     930,  460)
        Each subspace H/S matrix        3.23 Mb     (     460,  460)
        Each <psi_i|beta_j> matrix      0.40 Mb     (     228,  115)
        Arrays for rho mixing           7.91 Mb     (   64800,    8)

     Check: negative/imaginary core charge=   -0.000007    0.000000

     Initial potential from superposition of free atoms
     Check: negative starting charge=(component1):   -0.000188
     Check: negative starting charge=(component2):   -0.000151

     starting charge  197.99986, renormalised to  210.00000

     negative rho (up, down):  1.998E-04 1.599E-04


     ************************************************************************
     *
     * You are using vdW-DF for exchange-correlation in this calculation.
     * Please cite the following three references that made this development
     * possible:
     *
     *   M. Dion, H. Rydberg, E. Schroder, D. C. Langreth, and
     *   B. I. Lundqvist, Phys. Rev. Lett. 92, 246401 (2004).
     *
     *   T. Thonhauser, V. R. Cooper, S. Li, A. Puzder, P. Hyldgaard, and
     *   D. C. Langreth, Phys. Rev. B 76, 125112 (2007).
     *
     *   G. Roman-Perez and J. M. Soler, Phys. Rev. Lett. 103, 096102 (2009).
     *
     *
     * If you are using vdW-DF2, please also cite:
     *
     *   K. Lee, E. D. Murray, L. Kong, B. I. Lundqvist, and
     *   D. C. Langreth, Phys. Rev. B 82, 081101(R) (2010).
     *
     *
     * If you are calculating the stress with vdW-DF, please also cite:
     *
     *   R. Sabatini, E. Kucukbenli, B. Kolb, T. Thonhauser, and
     *   S. de Gironcoli, J. Phys.: Condens. Matter 24, 424209 (2012).
     *
     ************************************************************************

     Carrying out vdW-DF run using the following parameters:

     Nqs =      20    Nr_points =    1024   r_max =   100.000
     q_mesh =
               0.00001000     0.04494208     0.09755937     0.15916263
               0.23128650     0.31572767     0.41458969     0.53033537
               0.66584808     0.82450364     1.01025438     1.22772762
               1.48234092     1.78043706     2.12944203     2.53805004
               3.01644009     3.57652955     4.23227104     5.00000000

     Gradients computed in reciprocal space

     ************************************************************************


 
     Adding external electric field

     Computed dipole along edir(3) : 
        Dipole               -2.4524 Ry au,         -6.2333 Debye
        Dipole field         -0.0087 Ry au
 
        Potential amp.        0.7139 Ry
        Total length         40.9758 bohr
 
 
     Adding external electric field

     Computed dipole along edir(3) : 
        Dipole               -2.4524 Ry au,         -6.2333 Debye
        Dipole field         -0.0087 Ry au
 
        Potential amp.        0.7139 Ry
        Total length         40.9758 bohr
 
     Starting wfc are  162 randomized atomic wfcs

     total cpu time spent up to now is        8.5 secs

     Self-consistent Calculation

     iteration #  1     ecut=    36.75 Ry     beta=0.10
     Davidson diagonalization with overlap
     ethr =  1.00E-02,  avg # of iterations =  7.3

     negative rho (up, down):  2.034E-05 1.201E-05
 
     Adding external electric field

     Computed dipole along edir(3) : 
        Dipole               25.9167 Ry au,         65.8736 Debye
        Dipole field          0.0921 Ry au
 
        Potential amp.       -7.5443 Ry
        Total length         40.9758 bohr
 
 
     Adding external electric field

     Computed dipole along edir(3) : 
        Dipole               25.9167 Ry au,         65.8736 Debye
        Dipole field          0.0921 Ry au
 
        Potential amp.       -7.5443 Ry
        Total length         40.9758 bohr
 
 
     Magnetic moment per site:
     atom:    1    charge:   14.8080    magn:    1.6755    constr:    0.0000
     atom:    2    charge:   14.8079    magn:    1.6754    constr:    0.0000
     atom:    3    charge:   14.8080    magn:    1.6753    constr:    0.0000
     atom:    4    charge:   14.8077    magn:    1.6756    constr:    0.0000
     atom:    5    charge:   14.6490    magn:    1.6798    constr:    0.0000
     atom:    6    charge:   14.6491    magn:    1.6804    constr:    0.0000
     atom:    7    charge:   14.6481    magn:    1.6789    constr:    0.0000
     atom:    8    charge:   14.6490    magn:    1.6802    constr:    0.0000
     atom:    9    charge:   14.4172    magn:    1.6176    constr:    0.0000
     atom:   10    charge:   14.4186    magn:    1.6214    constr:    0.0000
     atom:   11    charge:   14.4179    magn:    1.6196    constr:    0.0000
     atom:   12    charge:   14.3709    magn:    1.6194    constr:    0.0000
     atom:   13    charge:    0.8432    magn:    0.0012    constr:    0.0000
     atom:   14    charge:    0.4018    magn:    0.0007    constr:    0.0000
     atom:   15    charge:    0.4041    magn:    0.0013    constr:    0.0000

     total cpu time spent up to now is       46.0 secs

     total energy              =   -3456.04017467 Ry
     Harris-Foulkes estimate   =   -3633.83473874 Ry
     estimated scf accuracy    <     979.08430444 Ry

     total magnetization       =    10.44 Bohr mag/cell
     absolute magnetization    =    11.02 Bohr mag/cell

     iteration #  2     ecut=    36.75 Ry     beta=0.10
     Davidson diagonalization with overlap
     ethr =  1.00E-02,  avg # of iterations = 13.2
 
     Adding external electric field

     Computed dipole along edir(3) : 
        Dipole                5.9418 Ry au,         15.1025 Debye
        Dipole field          0.0211 Ry au
 
        Potential amp.       -1.7296 Ry
        Total length         40.9758 bohr
 
 
     Adding external electric field

     Computed dipole along edir(3) : 
        Dipole                5.9418 Ry au,         15.1025 Debye
        Dipole field          0.0211 Ry au
 
        Potential amp.       -1.7296 Ry
        Total length         40.9758 bohr
 
 
     Magnetic moment per site:
     atom:    1    charge:   14.6431    magn:    1.6363    constr:    0.0000
     atom:    2    charge:   14.6429    magn:    1.6363    constr:    0.0000
     atom:    3    charge:   14.6430    magn:    1.6361    constr:    0.0000
     atom:    4    charge:   14.6428    magn:    1.6364    constr:    0.0000
     atom:    5    charge:   14.4915    magn:    1.6407    constr:    0.0000
     atom:    6    charge:   14.4916    magn:    1.6414    constr:    0.0000
     atom:    7    charge:   14.4907    magn:    1.6400    constr:    0.0000
     atom:    8    charge:   14.4915    magn:    1.6412    constr:    0.0000
     atom:    9    charge:   14.4861    magn:    1.5826    constr:    0.0000
     atom:   10    charge:   14.4870    magn:    1.5863    constr:    0.0000
     atom:   11    charge:   14.4864    magn:    1.5846    constr:    0.0000
     atom:   12    charge:   14.4416    magn:    1.5843    constr:    0.0000
     atom:   13    charge:    0.8705    magn:    0.0011    constr:    0.0000
     atom:   14    charge:    0.4141    magn:    0.0007    constr:    0.0000
     atom:   15    charge:    0.4169    magn:    0.0013    constr:    0.0000

     total cpu time spent up to now is      101.7 secs

     total energy              =   -3526.44017065 Ry
     Harris-Foulkes estimate   =   -3807.94603998 Ry
     estimated scf accuracy    <    6119.22094467 Ry

     total magnetization       =     1.44 Bohr mag/cell
     absolute magnetization    =     1.81 Bohr mag/cell

     iteration #  3     ecut=    36.75 Ry     beta=0.10
     Davidson diagonalization with overlap
     ethr =  1.00E-02,  avg # of iterations =  6.4
 
     Adding external electric field

     Computed dipole along edir(3) : 
        Dipole                5.6328 Ry au,         14.3171 Debye
        Dipole field          0.0200 Ry au
 
        Potential amp.       -1.6397 Ry
        Total length         40.9758 bohr
 
 
     Adding external electric field

     Computed dipole along edir(3) : 
        Dipole                5.6328 Ry au,         14.3171 Debye
        Dipole field          0.0200 Ry au
 
        Potential amp.       -1.6397 Ry
        Total length         40.9758 bohr
 
 
     Magnetic moment per site:
     atom:    1    charge:   14.3827    magn:    1.5733    constr:    0.0000
     atom:    2    charge:   14.3825    magn:    1.5734    constr:    0.0000
     atom:    3    charge:   14.3826    magn:    1.5733    constr:    0.0000
     atom:    4    charge:   14.3824    magn:    1.5736    constr:    0.0000
     atom:    5    charge:   14.6832    magn:    1.5860    constr:    0.0000
     atom:    6    charge:   14.6834    magn:    1.5865    constr:    0.0000
     atom:    7    charge:   14.6825    magn:    1.5851    constr:    0.0000
     atom:    8    charge:   14.6833    magn:    1.5864    constr:    0.0000
     atom:    9    charge:   14.5635    magn:    1.5280    constr:    0.0000
     atom:   10    charge:   14.5628    magn:    1.5318    constr:    0.0000
     atom:   11    charge:   14.5630    magn:    1.5300    constr:    0.0000
     atom:   12    charge:   14.5221    magn:    1.5289    constr:    0.0000
     atom:   13    charge:    0.8651    magn:    0.0010    constr:    0.0000
     atom:   14    charge:    0.4070    magn:    0.0006    constr:    0.0000
     atom:   15    charge:    0.4095    magn:    0.0011    constr:    0.0000

     total cpu time spent up to now is      132.6 secs

     total energy              =   -3600.44265042 Ry
     Harris-Foulkes estimate   =   -3657.73554432 Ry
     estimated scf accuracy    <     939.00095658 Ry

     total magnetization       =     1.68 Bohr mag/cell
     absolute magnetization    =     1.99 Bohr mag/cell

     iteration #  4     ecut=    36.75 Ry     beta=0.10
     Davidson diagonalization with overlap
     ethr =  1.00E-02,  avg # of iterations =  6.2
 
     Adding external electric field

     Computed dipole along edir(3) : 
        Dipole                4.6121 Ry au,         11.7227 Debye
        Dipole field          0.0164 Ry au
 
        Potential amp.       -1.3426 Ry
        Total length         40.9758 bohr
 
 
     Adding external electric field

     Computed dipole along edir(3) : 
        Dipole                4.6121 Ry au,         11.7227 Debye
        Dipole field          0.0164 Ry au
 
        Potential amp.       -1.3426 Ry
        Total length         40.9758 bohr
 
 
     Magnetic moment per site:
     atom:    1    charge:   14.3682    magn:    1.5780    constr:    0.0000
     atom:    2    charge:   14.3674    magn:    1.5777    constr:    0.0000
     atom:    3    charge:   14.3670    magn:    1.5782    constr:    0.0000
     atom:    4    charge:   14.3675    magn:    1.5770    constr:    0.0000
     atom:    5    charge:   14.5978    magn:    1.5601    constr:    0.0000
     atom:    6    charge:   14.5973    magn:    1.5603    constr:    0.0000
     atom:    7    charge:   14.5965    magn:    1.5574    constr:    0.0000
     atom:    8    charge:   14.5976    magn:    1.5604    constr:    0.0000
     atom:    9    charge:   14.4273    magn:    1.5285    constr:    0.0000
     atom:   10    charge:   14.4302    magn:    1.5362    constr:    0.0000
     atom:   11    charge:   14.4278    magn:    1.5329    constr:    0.0000
     atom:   12    charge:   14.4407    magn:    1.5381    constr:    0.0000
     atom:   13    charge:    0.8625    magn:   -0.0005    constr:    0.0000
     atom:   14    charge:    0.4087    magn:    0.0008    constr:    0.0000
     atom:   15    charge:    0.4116    magn:    0.0012    constr:    0.0000

     total cpu time spent up to now is      165.9 secs

     total energy              =   -3611.26397673 Ry
     Harris-Foulkes estimate   =   -3614.63821840 Ry
     estimated scf accuracy    <      25.07038669 Ry

     total magnetization       =    18.42 Bohr mag/cell
     absolute magnetization    =    19.19 Bohr mag/cell

     iteration #  5     ecut=    36.75 Ry     beta=0.10
     Davidson diagonalization with overlap
     ethr =  1.00E-02,  avg # of iterations =  1.0
 
     Adding external electric field

     Computed dipole along edir(3) : 
        Dipole                4.0891 Ry au,         10.3936 Debye
        Dipole field          0.0145 Ry au
 
        Potential amp.       -1.1903 Ry
        Total length         40.9758 bohr
 
 
     Adding external electric field

     Computed dipole along edir(3) : 
        Dipole                4.0891 Ry au,         10.3936 Debye
        Dipole field          0.0145 Ry au
 
        Potential amp.       -1.1903 Ry
        Total length         40.9758 bohr
 
 
     Magnetic moment per site:
     atom:    1    charge:   14.3263    magn:    1.6631    constr:    0.0000
     atom:    2    charge:   14.3272    magn:    1.6611    constr:    0.0000
     atom:    3    charge:   14.3272    magn:    1.6607    constr:    0.0000
     atom:    4    charge:   14.3270    magn:    1.6604    constr:    0.0000
     atom:    5    charge:   14.4934    magn:    1.5739    constr:    0.0000
     atom:    6    charge:   14.4951    magn:    1.5714    constr:    0.0000
     atom:    7    charge:   14.5071    magn:    1.5517    constr:    0.0000
     atom:    8    charge:   14.4940    magn:    1.5729    constr:    0.0000
     atom:    9    charge:   14.4246    magn:    1.4374    constr:    0.0000
     atom:   10    charge:   14.4329    magn:    1.4424    constr:    0.0000
     atom:   11    charge:   14.4284    magn:    1.4397    constr:    0.0000
     atom:   12    charge:   14.4636    magn:    1.4597    constr:    0.0000
     atom:   13    charge:    0.8561    magn:   -0.0046    constr:    0.0000
     atom:   14    charge:    0.4097    magn:    0.0002    constr:    0.0000
     atom:   15    charge:    0.4127    magn:    0.0005    constr:    0.0000

     total cpu time spent up to now is      179.3 secs

     total energy              =   -3609.03708847 Ry
     Harris-Foulkes estimate   =   -3612.32783349 Ry
     estimated scf accuracy    <      39.83156260 Ry

     total magnetization       =    17.28 Bohr mag/cell
     absolute magnetization    =    18.74 Bohr mag/cell

     iteration #  6     ecut=    36.75 Ry     beta=0.10
     Davidson diagonalization with overlap
     ethr =  1.00E-02,  avg # of iterations =  1.0
 
     Adding external electric field

     Computed dipole along edir(3) : 
        Dipole                3.4218 Ry au,          8.6974 Debye
        Dipole field          0.0122 Ry au
 
        Potential amp.       -0.9961 Ry
        Total length         40.9758 bohr
 
 
     Adding external electric field

     Computed dipole along edir(3) : 
        Dipole                3.4218 Ry au,          8.6974 Debye
        Dipole field          0.0122 Ry au
 
        Potential amp.       -0.9961 Ry
        Total length         40.9758 bohr
 
 
     Magnetic moment per site:
     atom:    1    charge:   14.3725    magn:    1.5865    constr:    0.0000
     atom:    2    charge:   14.3751    magn:    1.5834    constr:    0.0000
     atom:    3    charge:   14.3756    magn:    1.5831    constr:    0.0000
     atom:    4    charge:   14.3748    magn:    1.5825    constr:    0.0000
     atom:    5    charge:   14.3831    magn:    1.5927    constr:    0.0000
     atom:    6    charge:   14.3824    magn:    1.5908    constr:    0.0000
     atom:    7    charge:   14.3729    magn:    1.5844    constr:    0.0000
     atom:    8    charge:   14.3832    magn:    1.5916    constr:    0.0000
     atom:    9    charge:   14.4131    magn:    1.3840    constr:    0.0000
     atom:   10    charge:   14.4054    magn:    1.3969    constr:    0.0000
     atom:   11    charge:   14.4095    magn:    1.3897    constr:    0.0000
     atom:   12    charge:   14.3009    magn:    1.4995    constr:    0.0000
     atom:   13    charge:    0.8572    magn:   -0.0076    constr:    0.0000
     atom:   14    charge:    0.4145    magn:    0.0003    constr:    0.0000
     atom:   15    charge:    0.4178    magn:    0.0005    constr:    0.0000

     total cpu time spent up to now is      192.8 secs

     total energy              =   -3608.37245501 Ry
     Harris-Foulkes estimate   =   -3610.51092552 Ry
     estimated scf accuracy    <      23.53044132 Ry

     total magnetization       =    16.80 Bohr mag/cell
     absolute magnetization    =    18.02 Bohr mag/cell

     iteration #  7     ecut=    36.75 Ry     beta=0.10
     Davidson diagonalization with overlap
     ethr =  1.00E-02,  avg # of iterations =  1.0
 
     Adding external electric field

     Computed dipole along edir(3) : 
        Dipole                2.3563 Ry au,          5.9892 Debye
        Dipole field          0.0084 Ry au
 
        Potential amp.       -0.6859 Ry
        Total length         40.9758 bohr
 
 
     Adding external electric field

     Computed dipole along edir(3) : 
        Dipole                2.3563 Ry au,          5.9892 Debye
        Dipole field          0.0084 Ry au
 
        Potential amp.       -0.6859 Ry
        Total length         40.9758 bohr
 
 
     Magnetic moment per site:
     atom:    1    charge:   14.3476    magn:    1.6580    constr:    0.0000
     atom:    2    charge:   14.3451    magn:    1.6548    constr:    0.0000
     atom:    3    charge:   14.3441    magn:    1.6540    constr:    0.0000
     atom:    4    charge:   14.3452    magn:    1.6535    constr:    0.0000
     atom:    5    charge:   14.3148    magn:    1.5686    constr:    0.0000
     atom:    6    charge:   14.3141    magn:    1.5632    constr:    0.0000
     atom:    7    charge:   14.3034    magn:    1.5512    constr:    0.0000
     atom:    8    charge:   14.3146    magn:    1.5659    constr:    0.0000
     atom:    9    charge:   14.3478    magn:    1.3192    constr:    0.0000
     atom:   10    charge:   14.3490    magn:    1.3231    constr:    0.0000
     atom:   11    charge:   14.3481    magn:    1.3206    constr:    0.0000
     atom:   12    charge:   14.2940    magn:    1.4158    constr:    0.0000
     atom:   13    charge:    0.8529    magn:   -0.0129    constr:    0.0000
     atom:   14    charge:    0.4207    magn:    0.0001    constr:    0.0000
     atom:   15    charge:    0.4243    magn:    0.0002    constr:    0.0000

     total cpu time spent up to now is      206.3 secs

     total energy              =   -3607.84384092 Ry
     Harris-Foulkes estimate   =   -3609.89844375 Ry
     estimated scf accuracy    <      29.23286524 Ry

     total magnetization       =    17.43 Bohr mag/cell
     absolute magnetization    =    18.92 Bohr mag/cell

     iteration #  8     ecut=    36.75 Ry     beta=0.10
     Davidson diagonalization with overlap
     ethr =  1.00E-02,  avg # of iterations =  1.5
 
     Adding external electric field

     Computed dipole along edir(3) : 
        Dipole                2.3420 Ry au,          5.9529 Debye
        Dipole field          0.0083 Ry au
 
        Potential amp.       -0.6818 Ry
        Total length         40.9758 bohr
 
 
     Adding external electric field

     Computed dipole along edir(3) : 
        Dipole                2.3420 Ry au,          5.9529 Debye
        Dipole field          0.0083 Ry au
 
        Potential amp.       -0.6818 Ry
        Total length         40.9758 bohr
 
 
     Magnetic moment per site:
     atom:    1    charge:   14.3532    magn:    1.6468    constr:    0.0000
     atom:    2    charge:   14.3522    magn:    1.6426    constr:    0.0000
     atom:    3    charge:   14.3517    magn:    1.6415    constr:    0.0000
     atom:    4    charge:   14.3522    magn:    1.6413    constr:    0.0000
     atom:    5    charge:   14.3084    magn:    1.5775    constr:    0.0000
     atom:    6    charge:   14.3082    magn:    1.5718    constr:    0.0000
     atom:    7    charge:   14.3011    magn:    1.5567    constr:    0.0000
     atom:    8    charge:   14.3084    magn:    1.5747    constr:    0.0000
     atom:    9    charge:   14.3468    magn:    1.3211    constr:    0.0000
     atom:   10    charge:   14.3465    magn:    1.3253    constr:    0.0000
     atom:   11    charge:   14.3464    magn:    1.3226    constr:    0.0000
     atom:   12    charge:   14.3026    magn:    1.4124    constr:    0.0000
     atom:   13    charge:    0.8536    magn:   -0.0131    constr:    0.0000
     atom:   14    charge:    0.4218    magn:    0.0002    constr:    0.0000
     atom:   15    charge:    0.4255    magn:    0.0002    constr:    0.0000

     total cpu time spent up to now is      220.7 secs

     total energy              =   -3608.69093922 Ry
     Harris-Foulkes estimate   =   -3608.76236744 Ry
     estimated scf accuracy    <       2.41075846 Ry

     total magnetization       =    18.50 Bohr mag/cell
     absolute magnetization    =    19.80 Bohr mag/cell

     iteration #  9     ecut=    36.75 Ry     beta=0.10
     Davidson diagonalization with overlap
     ethr =  1.15E-03,  avg # of iterations =  2.7
 
     Adding external electric field

     Computed dipole along edir(3) : 
        Dipole                2.3651 Ry au,          6.0115 Debye
        Dipole field          0.0084 Ry au
 
        Potential amp.       -0.6885 Ry
        Total length         40.9758 bohr
 
 
     Adding external electric field

     Computed dipole along edir(3) : 
        Dipole                2.3651 Ry au,          6.0115 Debye
        Dipole field          0.0084 Ry au
 
        Potential amp.       -0.6885 Ry
        Total length         40.9758 bohr
 
 
     Magnetic moment per site:
     atom:    1    charge:   14.3546    magn:    1.6443    constr:    0.0000
     atom:    2    charge:   14.3532    magn:    1.6403    constr:    0.0000
     atom:    3    charge:   14.3525    magn:    1.6391    constr:    0.0000
     atom:    4    charge:   14.3533    magn:    1.6389    constr:    0.0000
     atom:    5    charge:   14.3069    magn:    1.5757    constr:    0.0000
     atom:    6    charge:   14.3067    magn:    1.5702    constr:    0.0000
     atom:    7    charge:   14.2980    magn:    1.5563    constr:    0.0000
     atom:    8    charge:   14.3069    magn:    1.5729    constr:    0.0000
     atom:    9    charge:   14.3472    magn:    1.3202    constr:    0.0000
     atom:   10    charge:   14.3472    magn:    1.3251    constr:    0.0000
     atom:   11    charge:   14.3468    magn:    1.3221    constr:    0.0000
     atom:   12    charge:   14.2980    magn:    1.4121    constr:    0.0000
     atom:   13    charge:    0.8530    magn:   -0.0131    constr:    0.0000
     atom:   14    charge:    0.4208    magn:    0.0001    constr:    0.0000
     atom:   15    charge:    0.4245    magn:    0.0002    constr:    0.0000

     total cpu time spent up to now is      236.5 secs

     total energy              =   -3608.81630636 Ry
     Harris-Foulkes estimate   =   -3608.79195442 Ry
     estimated scf accuracy    <       1.53596010 Ry

     total magnetization       =    18.80 Bohr mag/cell
     absolute magnetization    =    20.11 Bohr mag/cell

     iteration # 10     ecut=    36.75 Ry     beta=0.10
     Davidson diagonalization with overlap
     ethr =  7.31E-04,  avg # of iterations =  1.0
 
     Adding external electric field

     Computed dipole along edir(3) : 
        Dipole                0.7438 Ry au,          1.8907 Debye
        Dipole field          0.0026 Ry au
 
        Potential amp.       -0.2165 Ry
        Total length         40.9758 bohr
 
 
     Adding external electric field

     Computed dipole along edir(3) : 
        Dipole                0.7438 Ry au,          1.8907 Debye
        Dipole field          0.0026 Ry au
 
        Potential amp.       -0.2165 Ry
        Total length         40.9758 bohr
 
 
     Magnetic moment per site:
     atom:    1    charge:   14.3519    magn:    1.6853    constr:    0.0000
     atom:    2    charge:   14.3488    magn:    1.6802    constr:    0.0000
     atom:    3    charge:   14.3465    magn:    1.6844    constr:    0.0000
     atom:    4    charge:   14.3500    magn:    1.6782    constr:    0.0000
     atom:    5    charge:   14.2268    magn:    1.6364    constr:    0.0000
     atom:    6    charge:   14.2297    magn:    1.6213    constr:    0.0000
     atom:    7    charge:   14.2155    magn:    1.6082    constr:    0.0000
     atom:    8    charge:   14.2283    magn:    1.6286    constr:    0.0000
     atom:    9    charge:   14.2790    magn:    1.2793    constr:    0.0000
     atom:   10    charge:   14.2936    magn:    1.2472    constr:    0.0000
     atom:   11    charge:   14.2856    magn:    1.2639    constr:    0.0000
     atom:   12    charge:   14.2993    magn:    1.4392    constr:    0.0000
     atom:   13    charge:    0.8565    magn:   -0.0183    constr:    0.0000
     atom:   14    charge:    0.4477    magn:    0.0014    constr:    0.0000
     atom:   15    charge:    0.4527    magn:    0.0010    constr:    0.0000

     total cpu time spent up to now is      250.1 secs

     total energy              =   -3608.28979916 Ry
     Harris-Foulkes estimate   =   -3608.84802854 Ry
     estimated scf accuracy    <       1.83565893 Ry

     total magnetization       =    18.81 Bohr mag/cell
     absolute magnetization    =    20.10 Bohr mag/cell

     iteration # 11     ecut=    36.75 Ry     beta=0.10
     Davidson diagonalization with overlap
     ethr =  7.31E-04,  avg # of iterations =  4.3
 
     Adding external electric field

     Computed dipole along edir(3) : 
        Dipole                0.7048 Ry au,          1.7914 Debye
        Dipole field          0.0025 Ry au
 
        Potential amp.       -0.2052 Ry
        Total length         40.9758 bohr
 
 
     Adding external electric field

     Computed dipole along edir(3) : 
        Dipole                0.7048 Ry au,          1.7914 Debye
        Dipole field          0.0025 Ry au
 
        Potential amp.       -0.2052 Ry
        Total length         40.9758 bohr
 
 
     Magnetic moment per site:
     atom:    1    charge:   14.3370    magn:    1.6948    constr:    0.0000
     atom:    2    charge:   14.3401    magn:    1.6842    constr:    0.0000
     atom:    3    charge:   14.3400    magn:    1.6871    constr:    0.0000
     atom:    4    charge:   14.3405    magn:    1.6826    constr:    0.0000
     atom:    5    charge:   14.2353    magn:    1.6457    constr:    0.0000
     atom:    6    charge:   14.2374    magn:    1.6302    constr:    0.0000
     atom:    7    charge:   14.2361    magn:    1.6068    constr:    0.0000
     atom:    8    charge:   14.2365    magn:    1.6374    constr:    0.0000
     atom:    9    charge:   14.2942    magn:    1.2675    constr:    0.0000
     atom:   10    charge:   14.2958    magn:    1.2391    constr:    0.0000
     atom:   11    charge:   14.2950    magn:    1.2535    constr:    0.0000
     atom:   12    charge:   14.2735    magn:    1.4817    constr:    0.0000
     atom:   13    charge:    0.8541    magn:   -0.0191    constr:    0.0000
     atom:   14    charge:    0.4518    magn:    0.0016    constr:    0.0000
     atom:   15    charge:    0.4570    magn:    0.0011    constr:    0.0000

     total cpu time spent up to now is      271.3 secs

     total energy              =   -3608.50626338 Ry
     Harris-Foulkes estimate   =   -3608.64130213 Ry
     estimated scf accuracy    <       2.74435466 Ry

     total magnetization       =    19.07 Bohr mag/cell
     absolute magnetization    =    20.78 Bohr mag/cell

     iteration # 12     ecut=    36.75 Ry     beta=0.10
     Davidson diagonalization with overlap
     ethr =  7.31E-04,  avg # of iterations =  1.0
 
     Adding external electric field

     Computed dipole along edir(3) : 
        Dipole                0.9796 Ry au,          2.4899 Debye
        Dipole field          0.0035 Ry au
 
        Potential amp.       -0.2852 Ry
        Total length         40.9758 bohr
 
 
     Adding external electric field

     Computed dipole along edir(3) : 
        Dipole                0.9796 Ry au,          2.4899 Debye
        Dipole field          0.0035 Ry au
 
        Potential amp.       -0.2852 Ry
        Total length         40.9758 bohr
 
 
     Magnetic moment per site:
     atom:    1    charge:   14.3315    magn:    1.6758    constr:    0.0000
     atom:    2    charge:   14.3322    magn:    1.6685    constr:    0.0000
     atom:    3    charge:   14.3323    magn:    1.6722    constr:    0.0000
     atom:    4    charge:   14.3318    magn:    1.6670    constr:    0.0000
     atom:    5    charge:   14.2786    magn:    1.6565    constr:    0.0000
     atom:    6    charge:   14.2783    magn:    1.6418    constr:    0.0000
     atom:    7    charge:   14.2671    magn:    1.6311    constr:    0.0000
     atom:    8    charge:   14.2787    magn:    1.6485    constr:    0.0000
     atom:    9    charge:   14.3225    magn:    1.2887    constr:    0.0000
     atom:   10    charge:   14.3147    magn:    1.2572    constr:    0.0000
     atom:   11    charge:   14.3187    magn:    1.2733    constr:    0.0000
     atom:   12    charge:   14.2724    magn:    1.5266    constr:    0.0000
     atom:   13    charge:    0.8529    magn:   -0.0180    constr:    0.0000
     atom:   14    charge:    0.4552    magn:    0.0019    constr:    0.0000
     atom:   15    charge:    0.4604    magn:    0.0014    constr:    0.0000

     total cpu time spent up to now is      284.8 secs

     total energy              =   -3608.29146433 Ry
     Harris-Foulkes estimate   =   -3608.54603690 Ry
     estimated scf accuracy    <       1.41036573 Ry

     total magnetization       =    19.12 Bohr mag/cell
     absolute magnetization    =    20.88 Bohr mag/cell

     iteration # 13     ecut=    36.75 Ry     beta=0.10
     Davidson diagonalization with overlap
     ethr =  6.72E-04,  avg # of iterations =  2.2
 
     Adding external electric field

     Computed dipole along edir(3) : 
        Dipole                0.7237 Ry au,          1.8395 Debye
        Dipole field          0.0026 Ry au
 
        Potential amp.       -0.2107 Ry
        Total length         40.9758 bohr
 
 
     Adding external electric field

     Computed dipole along edir(3) : 
        Dipole                0.7237 Ry au,          1.8395 Debye
        Dipole field          0.0026 Ry au
 
        Potential amp.       -0.2107 Ry
        Total length         40.9758 bohr
 
 
     Magnetic moment per site:
     atom:    1    charge:   14.3220    magn:    1.6815    constr:    0.0000
     atom:    2    charge:   14.3257    magn:    1.6726    constr:    0.0000
     atom:    3    charge:   14.3254    magn:    1.6787    constr:    0.0000
     atom:    4    charge:   14.3259    magn:    1.6702    constr:    0.0000
     atom:    5    charge:   14.2886    magn:    1.6821    constr:    0.0000
     atom:    6    charge:   14.2895    magn:    1.6630    constr:    0.0000
     atom:    7    charge:   14.2866    magn:    1.6470    constr:    0.0000
     atom:    8    charge:   14.2893    magn:    1.6718    constr:    0.0000
     atom:    9    charge:   14.3149    magn:    1.3078    constr:    0.0000
     atom:   10    charge:   14.3197    magn:    1.2526    constr:    0.0000
     atom:   11    charge:   14.3181    magn:    1.2807    constr:    0.0000
     atom:   12    charge:   14.2835    magn:    1.5612    constr:    0.0000
     atom:   13    charge:    0.8526    magn:   -0.0181    constr:    0.0000
     atom:   14    charge:    0.4655    magn:    0.0026    constr:    0.0000
     atom:   15    charge:    0.4709    magn:    0.0019    constr:    0.0000

     total cpu time spent up to now is      300.1 secs

     total energy              =   -3608.28764632 Ry
     Harris-Foulkes estimate   =   -3608.37179671 Ry
     estimated scf accuracy    <       0.71702718 Ry

     total magnetization       =    19.04 Bohr mag/cell
     absolute magnetization    =    20.82 Bohr mag/cell

     iteration # 14     ecut=    36.75 Ry     beta=0.10
     Davidson diagonalization with overlap
     ethr =  3.41E-04,  avg # of iterations =  1.8

     negative rho (up, down):  3.616E-08 1.543E-08
 
     Adding external electric field

     Computed dipole along edir(3) : 
        Dipole                0.4301 Ry au,          1.0932 Debye
        Dipole field          0.0015 Ry au
 
        Potential amp.       -0.1252 Ry
        Total length         40.9758 bohr
 
 
     Adding external electric field

     Computed dipole along edir(3) : 
        Dipole                0.4301 Ry au,          1.0932 Debye
        Dipole field          0.0015 Ry au
 
        Potential amp.       -0.1252 Ry
        Total length         40.9758 bohr
 
 
     Magnetic moment per site:
     atom:    1    charge:   14.3224    magn:    1.6877    constr:    0.0000
     atom:    2    charge:   14.3243    magn:    1.6793    constr:    0.0000
     atom:    3    charge:   14.3249    magn:    1.6870    constr:    0.0000
     atom:    4    charge:   14.3252    magn:    1.6773    constr:    0.0000
     atom:    5    charge:   14.2825    magn:    1.6946    constr:    0.0000
     atom:    6    charge:   14.2839    magn:    1.6729    constr:    0.0000
     atom:    7    charge:   14.2819    magn:    1.6558    constr:    0.0000
     atom:    8    charge:   14.2833    magn:    1.6830    constr:    0.0000
     atom:    9    charge:   14.3080    magn:    1.3110    constr:    0.0000
     atom:   10    charge:   14.3047    magn:    1.2547    constr:    0.0000
     atom:   11    charge:   14.3068    magn:    1.2841    constr:    0.0000
     atom:   12    charge:   14.2969    magn:    1.5731    constr:    0.0000
     atom:   13    charge:    0.8526    magn:   -0.0185    constr:    0.0000
     atom:   14    charge:    0.4723    magn:    0.0032    constr:    0.0000
     atom:   15    charge:    0.4780    magn:    0.0023    constr:    0.0000

     total cpu time spent up to now is      315.3 secs

     total energy              =   -3608.30362857 Ry
     Harris-Foulkes estimate   =   -3608.31432308 Ry
     estimated scf accuracy    <       0.18595973 Ry

     total magnetization       =    19.09 Bohr mag/cell
     absolute magnetization    =    20.98 Bohr mag/cell

     iteration # 15     ecut=    36.75 Ry     beta=0.10
     Davidson diagonalization with overlap
     ethr =  8.86E-05,  avg # of iterations =  3.4

     negative rho (up, down):  2.685E-08 3.987E-09
 
     Adding external electric field

     Computed dipole along edir(3) : 
        Dipole                0.5904 Ry au,          1.5007 Debye
        Dipole field          0.0021 Ry au
 
        Potential amp.       -0.1719 Ry
        Total length         40.9758 bohr
 
 
     Adding external electric field

     Computed dipole along edir(3) : 
        Dipole                0.5904 Ry au,          1.5007 Debye
        Dipole field          0.0021 Ry au
 
        Potential amp.       -0.1719 Ry
        Total length         40.9758 bohr
 
 
     Magnetic moment per site:
     atom:    1    charge:   14.3188    magn:    1.6796    constr:    0.0000
     atom:    2    charge:   14.3214    magn:    1.6696    constr:    0.0000
     atom:    3    charge:   14.3214    magn:    1.6793    constr:    0.0000
     atom:    4    charge:   14.3211    magn:    1.6696    constr:    0.0000
     atom:    5    charge:   14.3089    magn:    1.6981    constr:    0.0000
     atom:    6    charge:   14.3094    magn:    1.6763    constr:    0.0000
     atom:    7    charge:   14.3053    magn:    1.6622    constr:    0.0000
     atom:    8    charge:   14.3091    magn:    1.6865    constr:    0.0000
     atom:    9    charge:   14.3235    magn:    1.3326    constr:    0.0000
     atom:   10    charge:   14.3211    magn:    1.2704    constr:    0.0000
     atom:   11    charge:   14.3223    magn:    1.3029    constr:    0.0000
     atom:   12    charge:   14.2978    magn:    1.6093    constr:    0.0000
     atom:   13    charge:    0.8499    magn:   -0.0178    constr:    0.0000
     atom:   14    charge:    0.4746    magn:    0.0035    constr:    0.0000
     atom:   15    charge:    0.4801    magn:    0.0026    constr:    0.0000

     total cpu time spent up to now is      333.1 secs

     total energy              =   -3608.26203351 Ry
     Harris-Foulkes estimate   =   -3608.32064265 Ry
     estimated scf accuracy    <       0.38199714 Ry

     total magnetization       =    19.20 Bohr mag/cell
     absolute magnetization    =    21.21 Bohr mag/cell

     iteration # 16     ecut=    36.75 Ry     beta=0.10
     Davidson diagonalization with overlap
     ethr =  8.86E-05,  avg # of iterations =  4.0

     negative rho (up, down):  2.312E-07 7.308E-08
 
     Adding external electric field

     Computed dipole along edir(3) : 
        Dipole                0.3870 Ry au,          0.9835 Debye
        Dipole field          0.0014 Ry au
 
        Potential amp.       -0.1126 Ry
        Total length         40.9758 bohr
 
 
     Adding external electric field

     Computed dipole along edir(3) : 
        Dipole                0.3870 Ry au,          0.9835 Debye
        Dipole field          0.0014 Ry au
 
        Potential amp.       -0.1126 Ry
        Total length         40.9758 bohr
 
 
     Magnetic moment per site:
     atom:    1    charge:   14.3158    magn:    1.6893    constr:    0.0000
     atom:    2    charge:   14.3181    magn:    1.6785    constr:    0.0000
     atom:    3    charge:   14.3170    magn:    1.6898    constr:    0.0000
     atom:    4    charge:   14.3184    magn:    1.6781    constr:    0.0000
     atom:    5    charge:   14.3075    magn:    1.7125    constr:    0.0000
     atom:    6    charge:   14.3076    magn:    1.6883    constr:    0.0000
     atom:    7    charge:   14.3062    magn:    1.6715    constr:    0.0000
     atom:    8    charge:   14.3081    magn:    1.6991    constr:    0.0000
     atom:    9    charge:   14.3242    magn:    1.3512    constr:    0.0000
     atom:   10    charge:   14.3200    magn:    1.2780    constr:    0.0000
     atom:   11    charge:   14.3237    magn:    1.3144    constr:    0.0000
     atom:   12    charge:   14.3001    magn:    1.6510    constr:    0.0000
     atom:   13    charge:    0.8444    magn:   -0.0186    constr:    0.0000
     atom:   14    charge:    0.4822    magn:    0.0042    constr:    0.0000
     atom:   15    charge:    0.4877    magn:    0.0031    constr:    0.0000

     total cpu time spent up to now is      354.0 secs

     total energy              =   -3608.28129769 Ry
     Harris-Foulkes estimate   =   -3608.29551641 Ry
     estimated scf accuracy    <       0.04069952 Ry

     total magnetization       =    19.25 Bohr mag/cell
     absolute magnetization    =    21.29 Bohr mag/cell

     iteration # 17     ecut=    36.75 Ry     beta=0.10
     Davidson diagonalization with overlap
     ethr =  1.94E-05,  avg # of iterations =  2.7

     negative rho (up, down):  9.344E-07 3.797E-07
 
     Adding external electric field

     Computed dipole along edir(3) : 
        Dipole                0.3120 Ry au,          0.7929 Debye
        Dipole field          0.0011 Ry au
 
        Potential amp.       -0.0908 Ry
        Total length         40.9758 bohr
 
 
     Adding external electric field

     Computed dipole along edir(3) : 
        Dipole                0.3120 Ry au,          0.7929 Debye
        Dipole field          0.0011 Ry au
 
        Potential amp.       -0.0908 Ry
        Total length         40.9758 bohr
 
 
     Magnetic moment per site:
     atom:    1    charge:   14.3122    magn:    1.6959    constr:    0.0000
     atom:    2    charge:   14.3149    magn:    1.6847    constr:    0.0000
     atom:    3    charge:   14.3159    magn:    1.6942    constr:    0.0000
     atom:    4    charge:   14.3147    magn:    1.6844    constr:    0.0000
     atom:    5    charge:   14.3047    magn:    1.7185    constr:    0.0000
     atom:    6    charge:   14.3052    magn:    1.6930    constr:    0.0000
     atom:    7    charge:   14.3042    magn:    1.6756    constr:    0.0000
     atom:    8    charge:   14.3048    magn:    1.7051    constr:    0.0000
     atom:    9    charge:   14.3250    magn:    1.3571    constr:    0.0000
     atom:   10    charge:   14.3201    magn:    1.2802    constr:    0.0000
     atom:   11    charge:   14.3219    magn:    1.3199    constr:    0.0000
     atom:   12    charge:   14.3018    magn:    1.6642    constr:    0.0000
     atom:   13    charge:    0.8428    magn:   -0.0189    constr:    0.0000
     atom:   14    charge:    0.4845    magn:    0.0045    constr:    0.0000
     atom:   15    charge:    0.4900    magn:    0.0033    constr:    0.0000

     total cpu time spent up to now is      370.5 secs

     total energy              =   -3608.28255253 Ry
     Harris-Foulkes estimate   =   -3608.28456790 Ry
     estimated scf accuracy    <       0.02617986 Ry

     total magnetization       =    19.32 Bohr mag/cell
     absolute magnetization    =    21.51 Bohr mag/cell

     iteration # 18     ecut=    36.75 Ry     beta=0.10
     Davidson diagonalization with overlap
     ethr =  1.25E-05,  avg # of iterations =  1.7

     negative rho (up, down):  1.168E-06 3.584E-07
 
     Adding external electric field

     Computed dipole along edir(3) : 
        Dipole                0.3143 Ry au,          0.7988 Debye
        Dipole field          0.0011 Ry au
 
        Potential amp.       -0.0915 Ry
        Total length         40.9758 bohr
 
 
     Adding external electric field

     Computed dipole along edir(3) : 
        Dipole                0.3143 Ry au,          0.7988 Debye
        Dipole field          0.0011 Ry au
 
        Potential amp.       -0.0915 Ry
        Total length         40.9758 bohr
 
 
     Magnetic moment per site:
     atom:    1    charge:   14.3103    magn:    1.6987    constr:    0.0000
     atom:    2    charge:   14.3125    magn:    1.6877    constr:    0.0000
     atom:    3    charge:   14.3125    magn:    1.6979    constr:    0.0000
     atom:    4    charge:   14.3124    magn:    1.6872    constr:    0.0000
     atom:    5    charge:   14.3050    magn:    1.7198    constr:    0.0000
     atom:    6    charge:   14.3055    magn:    1.6941    constr:    0.0000
     atom:    7    charge:   14.3037    magn:    1.6769    constr:    0.0000
     atom:    8    charge:   14.3051    magn:    1.7063    constr:    0.0000
     atom:    9    charge:   14.3225    magn:    1.3636    constr:    0.0000
     atom:   10    charge:   14.3196    magn:    1.2836    constr:    0.0000
     atom:   11    charge:   14.3210    magn:    1.3242    constr:    0.0000
     atom:   12    charge:   14.3032    magn:    1.6708    constr:    0.0000
     atom:   13    charge:    0.8422    magn:   -0.0191    constr:    0.0000
     atom:   14    charge:    0.4850    magn:    0.0046    constr:    0.0000
     atom:   15    charge:    0.4905    magn:    0.0035    constr:    0.0000

     total cpu time spent up to now is      385.2 secs

     total energy              =   -3608.28257678 Ry
     Harris-Foulkes estimate   =   -3608.28345493 Ry
     estimated scf accuracy    <       0.01573982 Ry

     total magnetization       =    19.32 Bohr mag/cell
     absolute magnetization    =    21.55 Bohr mag/cell

     iteration # 19     ecut=    36.75 Ry     beta=0.10
     Davidson diagonalization with overlap
     ethr =  7.50E-06,  avg # of iterations =  1.6

     negative rho (up, down):  1.003E-05 3.685E-06
 
     Adding external electric field

     Computed dipole along edir(3) : 
        Dipole                0.2660 Ry au,          0.6762 Debye
        Dipole field          0.0009 Ry au
 
        Potential amp.       -0.0774 Ry
        Total length         40.9758 bohr
 
 
     Adding external electric field

     Computed dipole along edir(3) : 
        Dipole                0.2660 Ry au,          0.6762 Debye
        Dipole field          0.0009 Ry au
 
        Potential amp.       -0.0774 Ry
        Total length         40.9758 bohr
 
 
     Magnetic moment per site:
     atom:    1    charge:   14.3047    magn:    1.7058    constr:    0.0000
     atom:    2    charge:   14.3069    magn:    1.6945    constr:    0.0000
     atom:    3    charge:   14.3059    magn:    1.7052    constr:    0.0000
     atom:    4    charge:   14.3075    magn:    1.6930    constr:    0.0000
     atom:    5    charge:   14.3034    magn:    1.7291    constr:    0.0000
     atom:    6    charge:   14.3039    magn:    1.7024    constr:    0.0000
     atom:    7    charge:   14.3038    magn:    1.6827    constr:    0.0000
     atom:    8    charge:   14.3041    magn:    1.7146    constr:    0.0000
     atom:    9    charge:   14.3216    magn:    1.3747    constr:    0.0000
     atom:   10    charge:   14.3185    magn:    1.2900    constr:    0.0000
     atom:   11    charge:   14.3216    magn:    1.3317    constr:    0.0000
     atom:   12    charge:   14.3044    magn:    1.6930    constr:    0.0000
     atom:   13    charge:    0.8410    magn:   -0.0194    constr:    0.0000
     atom:   14    charge:    0.4873    magn:    0.0050    constr:    0.0000
     atom:   15    charge:    0.4928    magn:    0.0038    constr:    0.0000

     total cpu time spent up to now is      399.8 secs

     total energy              =   -3608.28260483 Ry
     Harris-Foulkes estimate   =   -3608.28310107 Ry
     estimated scf accuracy    <       0.00804729 Ry

     total magnetization       =    19.33 Bohr mag/cell
     absolute magnetization    =    21.57 Bohr mag/cell

     iteration # 20     ecut=    36.75 Ry     beta=0.10
     Davidson diagonalization with overlap
     ethr =  3.83E-06,  avg # of iterations =  3.0

     negative rho (up, down):  8.343E-05 4.374E-05
 
     Adding external electric field

     Computed dipole along edir(3) : 
        Dipole                0.2351 Ry au,          0.5976 Debye
        Dipole field          0.0008 Ry au
 
        Potential amp.       -0.0684 Ry
        Total length         40.9758 bohr
 
 
     Adding external electric field

     Computed dipole along edir(3) : 
        Dipole                0.2351 Ry au,          0.5976 Debye
        Dipole field          0.0008 Ry au
 
        Potential amp.       -0.0684 Ry
        Total length         40.9758 bohr
 
 
     Magnetic moment per site:
     atom:    1    charge:   14.2985    magn:    1.7151    constr:    0.0000
     atom:    2    charge:   14.3006    magn:    1.7036    constr:    0.0000
     atom:    3    charge:   14.3009    magn:    1.7124    constr:    0.0000
     atom:    4    charge:   14.3004    magn:    1.7019    constr:    0.0000
     atom:    5    charge:   14.3014    magn:    1.7374    constr:    0.0000
     atom:    6    charge:   14.3021    magn:    1.7095    constr:    0.0000
     atom:    7    charge:   14.3016    magn:    1.6885    constr:    0.0000
     atom:    8    charge:   14.3017    magn:    1.7226    constr:    0.0000
     atom:    9    charge:   14.3202    magn:    1.3877    constr:    0.0000
     atom:   10    charge:   14.3185    magn:    1.2973    constr:    0.0000
     atom:   11    charge:   14.3189    magn:    1.3428    constr:    0.0000
     atom:   12    charge:   14.3055    magn:    1.7165    constr:    0.0000
     atom:   13    charge:    0.8396    magn:   -0.0198    constr:    0.0000
     atom:   14    charge:    0.4889    magn:    0.0054    constr:    0.0000
     atom:   15    charge:    0.4944    magn:    0.0041    constr:    0.0000

     total cpu time spent up to now is      417.1 secs

     total energy              =   -3608.28324797 Ry
     Harris-Foulkes estimate   =   -3608.28315674 Ry
     estimated scf accuracy    <       0.00556544 Ry

     total magnetization       =    19.32 Bohr mag/cell
     absolute magnetization    =    21.62 Bohr mag/cell

     iteration # 21     ecut=    36.75 Ry     beta=0.10
     Davidson diagonalization with overlap
     ethr =  2.65E-06,  avg # of iterations =  3.0

     negative rho (up, down):  6.281E-05 2.583E-05
 
     Adding external electric field

     Computed dipole along edir(3) : 
        Dipole                0.2320 Ry au,          0.5898 Debye
        Dipole field          0.0008 Ry au
 
        Potential amp.       -0.0675 Ry
        Total length         40.9758 bohr
 
 
     Adding external electric field

     Computed dipole along edir(3) : 
        Dipole                0.2320 Ry au,          0.5898 Debye
        Dipole field          0.0008 Ry au
 
        Potential amp.       -0.0675 Ry
        Total length         40.9758 bohr
 
 
     Magnetic moment per site:
     atom:    1    charge:   14.2987    magn:    1.7166    constr:    0.0000
     atom:    2    charge:   14.3004    magn:    1.7053    constr:    0.0000
     atom:    3    charge:   14.3000    magn:    1.7145    constr:    0.0000
     atom:    4    charge:   14.3005    magn:    1.7033    constr:    0.0000
     atom:    5    charge:   14.3009    magn:    1.7379    constr:    0.0000
     atom:    6    charge:   14.3014    magn:    1.7100    constr:    0.0000
     atom:    7    charge:   14.3001    magn:    1.6891    constr:    0.0000
     atom:    8    charge:   14.3010    magn:    1.7232    constr:    0.0000
     atom:    9    charge:   14.3204    magn:    1.3895    constr:    0.0000
     atom:   10    charge:   14.3182    magn:    1.2990    constr:    0.0000
     atom:   11    charge:   14.3193    magn:    1.3440    constr:    0.0000
     atom:   12    charge:   14.3056    magn:    1.7191    constr:    0.0000
     atom:   13    charge:    0.8395    magn:   -0.0199    constr:    0.0000
     atom:   14    charge:    0.4887    magn:    0.0054    constr:    0.0000
     atom:   15    charge:    0.4941    magn:    0.0041    constr:    0.0000

     total cpu time spent up to now is      434.6 secs

     total energy              =   -3608.28347088 Ry
     Harris-Foulkes estimate   =   -3608.28367769 Ry
     estimated scf accuracy    <       0.00307321 Ry

     total magnetization       =    19.33 Bohr mag/cell
     absolute magnetization    =    21.70 Bohr mag/cell

     iteration # 22     ecut=    36.75 Ry     beta=0.10
     Davidson diagonalization with overlap
     ethr =  1.46E-06,  avg # of iterations =  1.6

     negative rho (up, down):  1.299E-04 6.133E-05
 
     Adding external electric field

     Computed dipole along edir(3) : 
        Dipole                0.2189 Ry au,          0.5563 Debye
        Dipole field          0.0008 Ry au
 
        Potential amp.       -0.0637 Ry
        Total length         40.9758 bohr
 
 
     Adding external electric field

     Computed dipole along edir(3) : 
        Dipole                0.2189 Ry au,          0.5563 Debye
        Dipole field          0.0008 Ry au
 
        Potential amp.       -0.0637 Ry
        Total length         40.9758 bohr
 
 
     Magnetic moment per site:
     atom:    1    charge:   14.2982    magn:    1.7192    constr:    0.0000
     atom:    2    charge:   14.3000    magn:    1.7075    constr:    0.0000
     atom:    3    charge:   14.2998    magn:    1.7164    constr:    0.0000
     atom:    4    charge:   14.3002    magn:    1.7053    constr:    0.0000
     atom:    5    charge:   14.3001    magn:    1.7410    constr:    0.0000
     atom:    6    charge:   14.3007    magn:    1.7128    constr:    0.0000
     atom:    7    charge:   14.2997    magn:    1.6910    constr:    0.0000
     atom:    8    charge:   14.3004    magn:    1.7260    constr:    0.0000
     atom:    9    charge:   14.3202    magn:    1.3927    constr:    0.0000
     atom:   10    charge:   14.3182    magn:    1.3004    constr:    0.0000
     atom:   11    charge:   14.3193    magn:    1.3462    constr:    0.0000
     atom:   12    charge:   14.3059    magn:    1.7253    constr:    0.0000
     atom:   13    charge:    0.8395    magn:   -0.0201    constr:    0.0000
     atom:   14    charge:    0.4888    magn:    0.0055    constr:    0.0000
     atom:   15    charge:    0.4943    magn:    0.0042    constr:    0.0000

     total cpu time spent up to now is      449.3 secs

     total energy              =   -3608.28372079 Ry
     Harris-Foulkes estimate   =   -3608.28361836 Ry
     estimated scf accuracy    <       0.00142887 Ry

     total magnetization       =    19.33 Bohr mag/cell
     absolute magnetization    =    21.71 Bohr mag/cell

     iteration # 23     ecut=    36.75 Ry     beta=0.10
     Davidson diagonalization with overlap
     ethr =  6.80E-07,  avg # of iterations =  2.4

     negative rho (up, down):  2.154E-04 1.168E-04
 
     Adding external electric field

     Computed dipole along edir(3) : 
        Dipole                0.2163 Ry au,          0.5498 Debye
        Dipole field          0.0008 Ry au
 
        Potential amp.       -0.0630 Ry
        Total length         40.9758 bohr
 
 
     Adding external electric field

     Computed dipole along edir(3) : 
        Dipole                0.2163 Ry au,          0.5498 Debye
        Dipole field          0.0008 Ry au
 
        Potential amp.       -0.0630 Ry
        Total length         40.9758 bohr
 
 
     Magnetic moment per site:
     atom:    1    charge:   14.2971    magn:    1.7246    constr:    0.0000
     atom:    2    charge:   14.2985    magn:    1.7128    constr:    0.0000
     atom:    3    charge:   14.2980    magn:    1.7213    constr:    0.0000
     atom:    4    charge:   14.2984    magn:    1.7103    constr:    0.0000
     atom:    5    charge:   14.2993    magn:    1.7470    constr:    0.0000
     atom:    6    charge:   14.3000    magn:    1.7184    constr:    0.0000
     atom:    7    charge:   14.2993    magn:    1.6947    constr:    0.0000
     atom:    8    charge:   14.2996    magn:    1.7318    constr:    0.0000
     atom:    9    charge:   14.3203    magn:    1.3999    constr:    0.0000
     atom:   10    charge:   14.3179    magn:    1.3053    constr:    0.0000
     atom:   11    charge:   14.3189    magn:    1.3522    constr:    0.0000
     atom:   12    charge:   14.3065    magn:    1.7383    constr:    0.0000
     atom:   13    charge:    0.8398    magn:   -0.0203    constr:    0.0000
     atom:   14    charge:    0.4884    magn:    0.0057    constr:    0.0000
     atom:   15    charge:    0.4939    magn:    0.0044    constr:    0.0000

     total cpu time spent up to now is      464.5 secs

     total energy              =   -3608.28399775 Ry
     Harris-Foulkes estimate   =   -3608.28377098 Ry
     estimated scf accuracy    <       0.00087202 Ry

     total magnetization       =    19.34 Bohr mag/cell
     absolute magnetization    =    21.74 Bohr mag/cell

     iteration # 24     ecut=    36.75 Ry     beta=0.10
     Davidson diagonalization with overlap
     ethr =  4.15E-07,  avg # of iterations =  2.4

     negative rho (up, down):  2.715E-04 1.528E-04
 
     Adding external electric field

     Computed dipole along edir(3) : 
        Dipole                0.2155 Ry au,          0.5479 Debye
        Dipole field          0.0008 Ry au
 
        Potential amp.       -0.0627 Ry
        Total length         40.9758 bohr
 
 
     Adding external electric field

     Computed dipole along edir(3) : 
        Dipole                0.2155 Ry au,          0.5479 Debye
        Dipole field          0.0008 Ry au
 
        Potential amp.       -0.0627 Ry
        Total length         40.9758 bohr
 
 
     Magnetic moment per site:
     atom:    1    charge:   14.2956    magn:    1.7297    constr:    0.0000
     atom:    2    charge:   14.2972    magn:    1.7175    constr:    0.0000
     atom:    3    charge:   14.2970    magn:    1.7253    constr:    0.0000
     atom:    4    charge:   14.2974    magn:    1.7142    constr:    0.0000
     atom:    5    charge:   14.2987    magn:    1.7519    constr:    0.0000
     atom:    6    charge:   14.2994    magn:    1.7228    constr:    0.0000
     atom:    7    charge:   14.2985    magn:    1.6979    constr:    0.0000
     atom:    8    charge:   14.2990    magn:    1.7364    constr:    0.0000
     atom:    9    charge:   14.3196    magn:    1.4063    constr:    0.0000
     atom:   10    charge:   14.3181    magn:    1.3090    constr:    0.0000
     atom:   11    charge:   14.3189    magn:    1.3569    constr:    0.0000
     atom:   12    charge:   14.3064    magn:    1.7490    constr:    0.0000
     atom:   13    charge:    0.8401    magn:   -0.0205    constr:    0.0000
     atom:   14    charge:    0.4880    magn:    0.0059    constr:    0.0000
     atom:   15    charge:    0.4935    magn:    0.0045    constr:    0.0000

     total cpu time spent up to now is      480.3 secs

     total energy              =   -3608.28416631 Ry
     Harris-Foulkes estimate   =   -3608.28403787 Ry
     estimated scf accuracy    <       0.00069803 Ry

     total magnetization       =    19.35 Bohr mag/cell
     absolute magnetization    =    21.79 Bohr mag/cell

     iteration # 25     ecut=    36.75 Ry     beta=0.10
     Davidson diagonalization with overlap
     ethr =  3.32E-07,  avg # of iterations =  2.2

     negative rho (up, down):  4.606E-04 2.735E-04
 
     Adding external electric field

     Computed dipole along edir(3) : 
        Dipole                0.2138 Ry au,          0.5435 Debye
        Dipole field          0.0008 Ry au
 
        Potential amp.       -0.0622 Ry
        Total length         40.9758 bohr
 
 
     Adding external electric field

     Computed dipole along edir(3) : 
        Dipole                0.2138 Ry au,          0.5435 Debye
        Dipole field          0.0008 Ry au
 
        Potential amp.       -0.0622 Ry
        Total length         40.9758 bohr
 
 
     Magnetic moment per site:
     atom:    1    charge:   14.2947    magn:    1.7342    constr:    0.0000
     atom:    2    charge:   14.2961    magn:    1.7219    constr:    0.0000
     atom:    3    charge:   14.2958    magn:    1.7294    constr:    0.0000
     atom:    4    charge:   14.2964    magn:    1.7182    constr:    0.0000
     atom:    5    charge:   14.2985    magn:    1.7569    constr:    0.0000
     atom:    6    charge:   14.2993    magn:    1.7274    constr:    0.0000
     atom:    7    charge:   14.2980    magn:    1.7017    constr:    0.0000
     atom:    8    charge:   14.2988    magn:    1.7412    constr:    0.0000
     atom:    9    charge:   14.3194    magn:    1.4130    constr:    0.0000
     atom:   10    charge:   14.3179    magn:    1.3135    constr:    0.0000
     atom:   11    charge:   14.3186    magn:    1.3622    constr:    0.0000
     atom:   12    charge:   14.3068    magn:    1.7602    constr:    0.0000
     atom:   13    charge:    0.8404    magn:   -0.0207    constr:    0.0000
     atom:   14    charge:    0.4878    magn:    0.0060    constr:    0.0000
     atom:   15    charge:    0.4933    magn:    0.0047    constr:    0.0000

     total cpu time spent up to now is      495.6 secs

     total energy              =   -3608.28431254 Ry
     Harris-Foulkes estimate   =   -3608.28421096 Ry
     estimated scf accuracy    <       0.00053401 Ry

     total magnetization       =    19.35 Bohr mag/cell
     absolute magnetization    =    21.83 Bohr mag/cell

     iteration # 26     ecut=    36.75 Ry     beta=0.10
     Davidson diagonalization with overlap
     ethr =  2.54E-07,  avg # of iterations =  2.9

     negative rho (up, down):  6.455E-04 4.098E-04
 
     Adding external electric field

     Computed dipole along edir(3) : 
        Dipole                0.2133 Ry au,          0.5422 Debye
        Dipole field          0.0008 Ry au
 
        Potential amp.       -0.0621 Ry
        Total length         40.9758 bohr
 
 
     Adding external electric field

     Computed dipole along edir(3) : 
        Dipole                0.2133 Ry au,          0.5422 Debye
        Dipole field          0.0008 Ry au
 
        Potential amp.       -0.0621 Ry
        Total length         40.9758 bohr
 
 
     Magnetic moment per site:
     atom:    1    charge:   14.2942    magn:    1.7375    constr:    0.0000
     atom:    2    charge:   14.2956    magn:    1.7251    constr:    0.0000
     atom:    3    charge:   14.2953    magn:    1.7323    constr:    0.0000
     atom:    4    charge:   14.2957    magn:    1.7210    constr:    0.0000
     atom:    5    charge:   14.2983    magn:    1.7602    constr:    0.0000
     atom:    6    charge:   14.2991    magn:    1.7305    constr:    0.0000
     atom:    7    charge:   14.2982    magn:    1.7035    constr:    0.0000
     atom:    8    charge:   14.2986    magn:    1.7443    constr:    0.0000
     atom:    9    charge:   14.3192    magn:    1.4174    constr:    0.0000
     atom:   10    charge:   14.3178    magn:    1.3165    constr:    0.0000
     atom:   11    charge:   14.3184    magn:    1.3657    constr:    0.0000
     atom:   12    charge:   14.3067    magn:    1.7676    constr:    0.0000
     atom:   13    charge:    0.8406    magn:   -0.0208    constr:    0.0000
     atom:   14    charge:    0.4876    magn:    0.0061    constr:    0.0000
     atom:   15    charge:    0.4930    magn:    0.0048    constr:    0.0000

     total cpu time spent up to now is      512.7 secs

     total energy              =   -3608.28440854 Ry
     Harris-Foulkes estimate   =   -3608.28435663 Ry
     estimated scf accuracy    <       0.00040578 Ry

     total magnetization       =    19.36 Bohr mag/cell
     absolute magnetization    =    21.87 Bohr mag/cell

     iteration # 27     ecut=    36.75 Ry     beta=0.10
     Davidson diagonalization with overlap
     ethr =  1.93E-07,  avg # of iterations =  1.1

     negative rho (up, down):  1.168E-03 8.855E-04
 
     Adding external electric field

     Computed dipole along edir(3) : 
        Dipole                0.2070 Ry au,          0.5261 Debye
        Dipole field          0.0007 Ry au
 
        Potential amp.       -0.0603 Ry
        Total length         40.9758 bohr
 
 
     Adding external electric field

     Computed dipole along edir(3) : 
        Dipole                0.2070 Ry au,          0.5261 Debye
        Dipole field          0.0007 Ry au
 
        Potential amp.       -0.0603 Ry
        Total length         40.9758 bohr
 
 
     Magnetic moment per site:
     atom:    1    charge:   14.2941    magn:    1.7420    constr:    0.0000
     atom:    2    charge:   14.2954    magn:    1.7295    constr:    0.0000
     atom:    3    charge:   14.2951    magn:    1.7364    constr:    0.0000
     atom:    4    charge:   14.2956    magn:    1.7249    constr:    0.0000
     atom:    5    charge:   14.2982    magn:    1.7645    constr:    0.0000
     atom:    6    charge:   14.2990    magn:    1.7344    constr:    0.0000
     atom:    7    charge:   14.2982    magn:    1.7067    constr:    0.0000
     atom:    8    charge:   14.2986    magn:    1.7484    constr:    0.0000
     atom:    9    charge:   14.3191    magn:    1.4243    constr:    0.0000
     atom:   10    charge:   14.3177    magn:    1.3212    constr:    0.0000
     atom:   11    charge:   14.3184    magn:    1.3710    constr:    0.0000
     atom:   12    charge:   14.3065    magn:    1.7779    constr:    0.0000
     atom:   13    charge:    0.8406    magn:   -0.0209    constr:    0.0000
     atom:   14    charge:    0.4876    magn:    0.0062    constr:    0.0000
     atom:   15    charge:    0.4930    magn:    0.0049    constr:    0.0000

     total cpu time spent up to now is      526.3 secs

     total energy              =   -3608.28448246 Ry
     Harris-Foulkes estimate   =   -3608.28443407 Ry
     estimated scf accuracy    <       0.00013081 Ry

     total magnetization       =    19.36 Bohr mag/cell
     absolute magnetization    =    21.89 Bohr mag/cell

     iteration # 28     ecut=    36.75 Ry     beta=0.10
     Davidson diagonalization with overlap
     ethr =  6.23E-08,  avg # of iterations =  4.0

     negative rho (up, down):  1.215E-03 9.222E-04
 
     Adding external electric field

     Computed dipole along edir(3) : 
        Dipole                0.2052 Ry au,          0.5215 Debye
        Dipole field          0.0007 Ry au
 
        Potential amp.       -0.0597 Ry
        Total length         40.9758 bohr
 
 
     Adding external electric field

     Computed dipole along edir(3) : 
        Dipole                0.2052 Ry au,          0.5215 Debye
        Dipole field          0.0007 Ry au
 
        Potential amp.       -0.0597 Ry
        Total length         40.9758 bohr
 
 
     Magnetic moment per site:
     atom:    1    charge:   14.2940    magn:    1.7426    constr:    0.0000
     atom:    2    charge:   14.2954    magn:    1.7301    constr:    0.0000
     atom:    3    charge:   14.2951    magn:    1.7370    constr:    0.0000
     atom:    4    charge:   14.2955    magn:    1.7255    constr:    0.0000
     atom:    5    charge:   14.2982    magn:    1.7650    constr:    0.0000
     atom:    6    charge:   14.2990    magn:    1.7348    constr:    0.0000
     atom:    7    charge:   14.2982    magn:    1.7071    constr:    0.0000
     atom:    8    charge:   14.2986    magn:    1.7489    constr:    0.0000
     atom:    9    charge:   14.3190    magn:    1.4256    constr:    0.0000
     atom:   10    charge:   14.3177    magn:    1.3220    constr:    0.0000
     atom:   11    charge:   14.3183    magn:    1.3720    constr:    0.0000
     atom:   12    charge:   14.3066    magn:    1.7793    constr:    0.0000
     atom:   13    charge:    0.8405    magn:   -0.0209    constr:    0.0000
     atom:   14    charge:    0.4877    magn:    0.0063    constr:    0.0000
     atom:   15    charge:    0.4931    magn:    0.0049    constr:    0.0000

     total cpu time spent up to now is      547.1 secs

     total energy              =   -3608.28451056 Ry
     Harris-Foulkes estimate   =   -3608.28450945 Ry
     estimated scf accuracy    <       0.00013270 Ry

     total magnetization       =    19.37 Bohr mag/cell
     absolute magnetization    =    21.94 Bohr mag/cell

     iteration # 29     ecut=    36.75 Ry     beta=0.10
     Davidson diagonalization with overlap
     ethr =  6.23E-08,  avg # of iterations =  1.0

     negative rho (up, down):  1.210E-03 9.109E-04
 
     Adding external electric field

     Computed dipole along edir(3) : 
        Dipole                0.2062 Ry au,          0.5241 Debye
        Dipole field          0.0007 Ry au
 
        Potential amp.       -0.0600 Ry
        Total length         40.9758 bohr
 
 
     Adding external electric field

     Computed dipole along edir(3) : 
        Dipole                0.2062 Ry au,          0.5241 Debye
        Dipole field          0.0007 Ry au
 
        Potential amp.       -0.0600 Ry
        Total length         40.9758 bohr
 
 
     Magnetic moment per site:
     atom:    1    charge:   14.2939    magn:    1.7457    constr:    0.0000
     atom:    2    charge:   14.2953    magn:    1.7331    constr:    0.0000
     atom:    3    charge:   14.2949    magn:    1.7399    constr:    0.0000
     atom:    4    charge:   14.2954    magn:    1.7281    constr:    0.0000
     atom:    5    charge:   14.2983    magn:    1.7677    constr:    0.0000
     atom:    6    charge:   14.2991    magn:    1.7372    constr:    0.0000
     atom:    7    charge:   14.2982    magn:    1.7090    constr:    0.0000
     atom:    8    charge:   14.2986    magn:    1.7514    constr:    0.0000
     atom:    9    charge:   14.3189    magn:    1.4306    constr:    0.0000
     atom:   10    charge:   14.3176    magn:    1.3257    constr:    0.0000
     atom:   11    charge:   14.3182    magn:    1.3759    constr:    0.0000
     atom:   12    charge:   14.3064    magn:    1.7860    constr:    0.0000
     atom:   13    charge:    0.8405    magn:   -0.0210    constr:    0.0000
     atom:   14    charge:    0.4877    magn:    0.0063    constr:    0.0000
     atom:   15    charge:    0.4931    magn:    0.0049    constr:    0.0000

     total cpu time spent up to now is      560.7 secs

     total energy              =   -3608.28454107 Ry
     Harris-Foulkes estimate   =   -3608.28451252 Ry
     estimated scf accuracy    <       0.00012328 Ry

     total magnetization       =    19.37 Bohr mag/cell
     absolute magnetization    =    21.95 Bohr mag/cell

     iteration # 30     ecut=    36.75 Ry     beta=0.10
     Davidson diagonalization with overlap
     ethr =  5.87E-08,  avg # of iterations =  2.1

     negative rho (up, down):  6.224E-04 3.264E-04
 
     Adding external electric field

     Computed dipole along edir(3) : 
        Dipole                0.2232 Ry au,          0.5674 Debye
        Dipole field          0.0008 Ry au
 
        Potential amp.       -0.0650 Ry
        Total length         40.9758 bohr
 
 
     Adding external electric field

     Computed dipole along edir(3) : 
        Dipole                0.2232 Ry au,          0.5674 Debye
        Dipole field          0.0008 Ry au
 
        Potential amp.       -0.0650 Ry
        Total length         40.9758 bohr
 
 
     Magnetic moment per site:
     atom:    1    charge:   14.2951    magn:    1.7500    constr:    0.0000
     atom:    2    charge:   14.2949    magn:    1.7386    constr:    0.0000
     atom:    3    charge:   14.2963    magn:    1.7440    constr:    0.0000
[...]
     2.5185   2.6081   2.7576

          k = 0.3333-0.1925 0.0000 ( 13322 PWs)   bands (ev):

   -92.7727 -92.7576 -92.7485 -92.6820 -92.6613 -92.6466 -92.6443 -92.4822
   -92.4755 -92.4596 -92.4486 -92.4475 -56.3379 -56.2705 -56.2442 -56.1224
   -56.1151 -56.1087 -56.1032 -56.0963 -56.0867 -56.0443 -56.0386 -56.0263
   -56.0049 -55.9992 -55.9867 -55.9782 -55.9527 -55.9490 -55.9449 -55.9197
   -55.9063 -55.9018 -55.8978 -55.8809 -55.8255 -55.8214 -55.8011 -55.7970
   -55.7939 -55.7822 -55.7780 -55.7703 -55.7672 -55.7646 -55.7490 -55.7203
   -11.5461  -5.9425  -5.4338  -4.4843  -3.7513  -3.3508  -2.6347  -2.3180
    -2.2737  -2.1622  -1.8907  -1.7981  -1.6072  -1.3723  -1.3120  -1.2406
    -1.1397  -1.0551  -0.9507  -0.7055  -0.6441  -0.5550  -0.3916  -0.2232
    -0.1516  -0.1140  -0.0119   0.0952   0.2317   0.2701   0.3199   0.3496
     0.4325   0.4514   0.5292   0.6081   0.6477   0.6791   0.7293   0.7530
     0.7754   0.8113   0.8515   0.9656   1.0872   1.1464   1.3416   1.3909
     1.5029   1.5538   1.6853   1.8307   1.8371   1.8665   1.9158   1.9402
     2.0159   2.0689   2.1174   2.2242   2.2586   2.3367   2.3682   2.4471
     2.4850   2.5333   2.6181

          k = 0.3333-0.0000 0.0000 ( 13291 PWs)   bands (ev):

   -92.7737 -92.7572 -92.7478 -92.6834 -92.6597 -92.6489 -92.6423 -92.4822
   -92.4775 -92.4558 -92.4527 -92.4452 -56.3457 -56.2670 -56.2449 -56.1302
   -56.1240 -56.1152 -56.1094 -56.1037 -56.0938 -56.0405 -56.0256 -56.0210
   -56.0061 -55.9974 -55.9867 -55.9614 -55.9537 -55.9480 -55.9393 -55.9227
   -55.9100 -55.9055 -55.8980 -55.8941 -55.8269 -55.8181 -55.8020 -55.7979
   -55.7818 -55.7771 -55.7712 -55.7676 -55.7669 -55.7624 -55.7501 -55.7198
   -11.5499  -6.1566  -5.4861  -4.6049  -3.4921  -3.0560  -2.9353  -2.4820
    -2.2694  -2.0485  -2.0228  -1.8554  -1.6079  -1.4422  -1.3848  -1.3259
    -1.2286  -1.0787  -0.9569  -0.7171  -0.6925  -0.5211  -0.2982  -0.1360
    -0.1097   0.0014   0.0313   0.1224   0.2182   0.2909   0.3503   0.3946
     0.4376   0.4991   0.5372   0.5817   0.7001   0.7190   0.7514   0.8168
     0.8758   0.9102   0.9570   1.0533   1.0823   1.1580   1.3866   1.4120
     1.4887   1.6333   1.7219   1.8620   1.9013   1.9925   2.0365   2.0690
     2.1182   2.1952   2.2391   2.2575   2.3054   2.4045   2.4283   2.4685
     2.5750   2.6032   2.7382

          k = 0.3333 0.1925 0.0000 ( 13322 PWs)   bands (ev):

   -92.7723 -92.7584 -92.7480 -92.6824 -92.6593 -92.6508 -92.6419 -92.4822
   -92.4758 -92.4569 -92.4535 -92.4451 -56.3415 -56.2678 -56.2444 -56.1288
   -56.1174 -56.1167 -56.1101 -56.0928 -56.0814 -56.0401 -56.0216 -56.0178
   -56.0039 -56.0010 -55.9853 -55.9839 -55.9570 -55.9405 -55.9392 -55.9303
   -55.9104 -55.9035 -55.9008 -55.8776 -55.8313 -55.8211 -55.7995 -55.7960
   -55.7898 -55.7823 -55.7769 -55.7723 -55.7656 -55.7618 -55.7529 -55.7237
   -11.5350  -6.0194  -5.5026  -4.5575  -3.6197  -3.2309  -2.4381  -2.3398
    -2.2741  -2.1558  -2.0320  -1.8242  -1.6035  -1.4487  -1.3114  -1.2822
    -1.1316  -0.9823  -0.9145  -0.7094  -0.6610  -0.5542  -0.4015  -0.2283
    -0.1715  -0.0968  -0.0553   0.0848   0.2182   0.2677   0.2862   0.3818
     0.4160   0.4317   0.5151   0.6064   0.6709   0.6834   0.7225   0.7422
     0.7876   0.8460   0.8690   1.0306   1.0661   1.1568   1.3562   1.3990
     1.5021   1.6421   1.6599   1.8184   1.8415   1.8667   1.9259   1.9753
     1.9916   2.0917   2.1298   2.2111   2.2266   2.3212   2.3593   2.4503
     2.5301   2.5573   2.8350

          k = 0.3333-0.7698 0.0000 ( 13313 PWs)   bands (ev):

   -92.7689 -92.7608 -92.7489 -92.6798 -92.6588 -92.6541 -92.6416 -92.4823
   -92.4712 -92.4592 -92.4564 -92.4444 -56.3261 -56.2775 -56.2419 -56.1194
   -56.1082 -56.1008 -56.0893 -56.0802 -56.0594 -56.0423 -56.0348 -56.0289
   -56.0172 -56.0115 -55.9957 -55.9780 -55.9680 -55.9434 -55.9398 -55.9310
   -55.9212 -55.8943 -55.8797 -55.8543 -55.8352 -55.8314 -55.8189 -55.8051
   -55.7990 -55.7796 -55.7783 -55.7747 -55.7704 -55.7652 -55.7527 -55.7355
   -11.5164  -5.7843  -5.1876  -4.4353  -3.8910  -3.2074  -2.9180  -2.4307
    -2.1830  -1.8040  -1.7035  -1.6671  -1.4579  -1.3180  -1.1655  -1.1253
    -1.0483  -0.8794  -0.8031  -0.6450  -0.6149  -0.5737  -0.5176  -0.4525
    -0.3669  -0.2812  -0.1566  -0.0690   0.0207   0.0511   0.0939   0.1585
     0.2129   0.2835   0.3805   0.4199   0.4938   0.5290   0.6567   0.7684
     0.8375   0.8943   0.9969   1.0782   1.1822   1.3079   1.3545   1.3711
     1.4546   1.4821   1.5287   1.6624   1.7024   1.7628   1.8563   1.8980
     2.0117   2.0619   2.1088   2.1867   2.2271   2.2583   2.3099   2.3882
     2.4226   2.5116   2.6750

          k = 0.3333-0.5774 0.0000 ( 13323 PWs)   bands (ev):

   -92.7667 -92.7622 -92.7495 -92.6783 -92.6593 -92.6552 -92.6417 -92.4824
   -92.4664 -92.4629 -92.4578 -92.4440 -56.3064 -56.2948 -56.2400 -56.1038
   -56.0981 -56.0796 -56.0781 -56.0713 -56.0572 -56.0494 -56.0475 -56.0413
   -56.0328 -56.0259 -55.9964 -55.9835 -55.9524 -55.9466 -55.9417 -55.9368
   -55.9268 -55.8747 -55.8627 -55.8457 -55.8439 -55.8389 -55.8253 -55.8174
   -55.8144 -55.7799 -55.7779 -55.7699 -55.7665 -55.7562 -55.7548 -55.7519
   -11.5128  -5.6541  -4.6673  -4.3075  -4.1314  -3.8108  -2.8551  -2.5003
    -2.2120  -1.7734  -1.3601  -1.3282  -1.2583  -1.2371  -1.1595  -1.1393
    -0.9315  -0.8617  -0.7558  -0.7402  -0.7138  -0.5589  -0.5427  -0.5181
    -0.4936  -0.2889  -0.2298  -0.2134  -0.1313  -0.1140  -0.0240   0.0118
     0.0246   0.0755   0.2837   0.3729   0.4382   0.7242   0.7439   0.8021
     0.8170   0.8349   0.9505   1.1146   1.2110   1.2811   1.3938   1.4197
     1.4755   1.5508   1.5930   1.6348   1.6520   1.7064   1.9764   2.0458
     2.0727   2.1277   2.1526   2.1887   2.2241   2.2419   2.2476   2.2668
     2.2788   2.2882   2.3145

          k = 0.3333-0.3849 0.0000 ( 13313 PWs)   bands (ev):

   -92.7697 -92.7596 -92.7493 -92.6794 -92.6619 -92.6500 -92.6431 -92.4823
   -92.4702 -92.4630 -92.4526 -92.4454 -56.3206 -56.2822 -56.2416 -56.1054
   -56.1012 -56.0941 -56.0862 -56.0829 -56.0720 -56.0566 -56.0404 -56.0332
   -56.0231 -56.0099 -55.9955 -55.9786 -55.9640 -55.9477 -55.9429 -55.9270
   -55.9144 -55.8906 -55.8775 -55.8565 -55.8360 -55.8243 -55.8207 -55.8085
   -55.8028 -55.7806 -55.7775 -55.7768 -55.7689 -55.7669 -55.7498 -55.7315
   -11.5276  -5.5875  -5.2259  -4.4026  -3.9710  -3.3170  -3.0314  -2.4879
    -2.1083  -1.8588  -1.7136  -1.5163  -1.4440  -1.2704  -1.1654  -1.1173
    -1.0862  -0.9051  -0.8204  -0.6604  -0.6221  -0.5777  -0.5370  -0.4192
    -0.3577  -0.2350  -0.1669  -0.0649   0.0315   0.0735   0.1083   0.1705
     0.2232   0.2568   0.4120   0.4491   0.4943   0.5638   0.6071   0.7660
     0.7836   0.8954   0.9485   1.0471   1.1798   1.3091   1.3183   1.3643
     1.4365   1.5060   1.5340   1.6033   1.7116   1.7608   1.8141   1.9317
     2.0250   2.0607   2.0866   2.1919   2.2408   2.2701   2.3314   2.3810
     2.4175   2.4288   2.6725

          k =-0.5000 0.2887 0.0000 ( 13378 PWs)   bands (ev):

   -92.7689 -92.7610 -92.7486 -92.6791 -92.6630 -92.6477 -92.6445 -92.4823
   -92.4679 -92.4667 -92.4484 -92.4482 -56.3207 -56.2824 -56.2416 -56.1082
   -56.1023 -56.0965 -56.0895 -56.0794 -56.0651 -56.0497 -56.0419 -56.0306
   -56.0180 -56.0082 -56.0015 -55.9903 -55.9716 -55.9533 -55.9358 -55.9237
   -55.9078 -55.8894 -55.8882 -55.8351 -55.8330 -55.8241 -55.8181 -55.8096
   -55.8091 -55.8017 -55.7800 -55.7777 -55.7688 -55.7670 -55.7349 -55.7345
   -11.5284  -5.5703  -4.9683  -4.7921  -4.1348  -3.2447  -2.6629  -2.2955
    -2.1888  -1.9398  -1.7037  -1.6950  -1.5584  -1.3213  -1.1457  -1.0729
    -0.9970  -0.9807  -0.7718  -0.7325  -0.4962  -0.4747  -0.4487  -0.4390
    -0.3948  -0.3334  -0.1334  -0.0228   0.0164   0.1239   0.1265   0.1606
     0.2209   0.2635   0.3480   0.4863   0.5768   0.5807   0.6107   0.6639
     0.7474   0.8341   0.9509   1.1246   1.2430   1.2525   1.2962   1.3310
     1.4476   1.5169   1.5711   1.5823   1.6467   1.6748   1.7140   1.7607
     1.9146   1.9338   1.9746   2.0033   2.2348   2.3375   2.3641   2.4379
     2.4864   2.5398   2.7093

          k =-0.5000 0.4811 0.0000 ( 13313 PWs)   bands (ev):

   -92.7687 -92.7612 -92.7486 -92.6795 -92.6613 -92.6510 -92.6426 -92.4823
   -92.4706 -92.4620 -92.4536 -92.4451 -56.3216 -56.2826 -56.2408 -56.1099
   -56.1061 -56.0977 -56.0843 -56.0790 -56.0658 -56.0503 -56.0425 -56.0347
   -56.0235 -56.0046 -55.9967 -55.9796 -55.9625 -55.9529 -55.9428 -55.9261
   -55.9134 -55.8927 -55.8764 -55.8577 -55.8342 -55.8281 -55.8209 -55.8063
   -55.8011 -55.7805 -55.7784 -55.7771 -55.7694 -55.7666 -55.7485 -55.7335
   -11.5248  -5.6569  -5.1888  -4.3845  -4.0299  -3.1354  -3.0806  -2.5655
    -1.9869  -1.9322  -1.7180  -1.5739  -1.4425  -1.2545  -1.1695  -1.1201
    -1.0880  -0.8897  -0.8005  -0.6495  -0.6119  -0.5768  -0.5240  -0.4305
    -0.3715  -0.2460  -0.1601  -0.0824   0.0297   0.0679   0.0763   0.1762
     0.1916   0.3056   0.3992   0.4239   0.4945   0.5371   0.6736   0.7660
     0.7903   0.9014   0.9542   1.0661   1.1710   1.2977   1.3399   1.3766
     1.4352   1.4821   1.5414   1.6624   1.7088   1.7586   1.8316   1.9230
     2.0163   2.0428   2.0802   2.1959   2.2356   2.2538   2.3251   2.3825
     2.4070   2.4270   2.7074

          k =-0.5000 0.6736 0.0000 ( 13313 PWs)   bands (ev):

   -92.7681 -92.7622 -92.7483 -92.6798 -92.6592 -92.6537 -92.6417 -92.4823
   -92.4712 -92.4592 -92.4564 -92.4444 -56.3252 -56.2797 -56.2407 -56.1188
   -56.1085 -56.1006 -56.0893 -56.0799 -56.0594 -56.0421 -56.0350 -56.0290
   -56.0174 -56.0084 -55.9981 -55.9787 -55.9683 -55.9465 -55.9405 -55.9273
   -55.9212 -55.8941 -55.8799 -55.8541 -55.8352 -55.8316 -55.8186 -55.8052
   -55.7994 -55.7796 -55.7782 -55.7745 -55.7704 -55.7652 -55.7529 -55.7351
   -11.5173  -5.7637  -5.2012  -4.4327  -3.8847  -3.2270  -2.9342  -2.3966
    -2.2163  -1.7994  -1.7041  -1.6413  -1.4639  -1.3212  -1.1651  -1.1240
    -1.0532  -0.8808  -0.8031  -0.6477  -0.6149  -0.5745  -0.5209  -0.4485
    -0.3613  -0.2784  -0.1565  -0.0646   0.0190   0.0519   0.0998   0.1538
     0.2123   0.2827   0.3874   0.4193   0.4943   0.5333   0.6610   0.7642
     0.8304   0.8933   0.9904   1.0868   1.1825   1.3139   1.3480   1.3683
     1.4460   1.4827   1.5264   1.6544   1.7019   1.7664   1.8550   1.9005
     2.0147   2.0625   2.1119   2.1867   2.2282   2.2597   2.3090   2.3891
     2.4236   2.5195   2.6601

          k =-0.5000-0.2887 0.0000 ( 13378 PWs)   bands (ev):

   -92.7674 -92.7630 -92.7481 -92.6798 -92.6597 -92.6530 -92.6419 -92.4823
   -92.4706 -92.4621 -92.4535 -92.4451 -56.3277 -56.2767 -56.2414 -56.1222
   -56.1108 -56.1031 -56.0974 -56.0792 -56.0422 -56.0377 -56.0277 -56.0231
   -56.0193 -56.0022 -56.0004 -55.9971 -55.9780 -55.9450 -55.9333 -55.9268
   -55.9209 -55.8926 -55.8910 -55.8420 -55.8324 -55.8188 -55.8176 -55.8079
   -55.8044 -55.7998 -55.7803 -55.7769 -55.7710 -55.7653 -55.7408 -55.7360
   -11.5134  -5.7992  -5.0530  -4.6749  -4.1275  -2.9085  -2.5279  -2.3724
    -2.2175  -1.9504  -1.7253  -1.6595  -1.6363  -1.4706  -1.1564  -1.0340
    -0.9849  -0.9585  -0.7802  -0.7397  -0.5001  -0.4788  -0.4575  -0.4437
    -0.4129  -0.2793  -0.2010   0.0039   0.0416   0.0884   0.1309   0.1635
     0.1810   0.2755   0.3000   0.4640   0.5728   0.5809   0.5899   0.7330
     0.7616   0.8075   1.0689   1.1909   1.2215   1.2662   1.3054   1.3453
     1.4319   1.4739   1.5752   1.5929   1.6596   1.6859   1.7159   1.8049
     1.9000   1.9283   1.9991   2.0791   2.1321   2.3174   2.3527   2.4383
     2.5417   2.5737   2.9317

     the Fermi energy is     1.4151 ev

!    total energy              =   -3608.29498452 Ry
     Harris-Foulkes estimate   =   -3608.29498435 Ry
     estimated scf accuracy    <       0.00000071 Ry

     The total energy is the sum of the following terms:

     one-electron contribution =  -32053.80472049 Ry
     hartree contribution      =   16038.18280758 Ry
     xc contribution           =    -410.55320237 Ry
     ewald contribution        =   12817.95838033 Ry
     electric field correction =       0.00015067 Ry
     smearing contrib. (-TS)   =      -0.07840024 Ry

     total magnetization       =    19.39 Bohr mag/cell
     absolute magnetization    =    22.05 Bohr mag/cell

     convergence has been achieved in  11 iterations

     Forces acting on atoms (Ry/au):


     negative rho (up, down):  6.095E-04 3.226E-04
     atom    1 type  1   force =    -0.00029342   -0.00015838    0.00875272
     atom    2 type  1   force =    -0.00067619   -0.00223572    0.01089666
     atom    3 type  1   force =    -0.00217282    0.00068657    0.01125082
     atom    4 type  1   force =     0.00109494    0.00078912    0.00993946
     atom    5 type  1   force =     0.00196661    0.00033452   -0.00932268
     atom    6 type  1   force =    -0.00277294   -0.00185752   -0.00633797
     atom    7 type  1   force =     0.00033662    0.00048413   -0.01712689
     atom    8 type  1   force =     0.00115371    0.00213165   -0.00894379
     atom    9 type  1   force =     0.00181011    0.00034008    0.00154962
     atom   10 type  1   force =    -0.00039448    0.00182012   -0.00092163
     atom   11 type  1   force =    -0.00008323   -0.00035118   -0.00175446
     atom   12 type  1   force =    -0.00048366   -0.00097894    0.00005557
     atom   13 type  2   force =     0.00028906    0.00051133    0.00056382
     atom   14 type  3   force =     0.00043722   -0.00144674    0.00010850
     atom   15 type  3   force =    -0.00021152   -0.00006903    0.00129024

     Total force =     0.004380     Total SCF correction =     0.003264
     SCF correction compared to forces is large: reduce conv_thr to get better values

     bfgs converged in  37 scf cycles and  36 bfgs steps
     (criteria: energy <  1.0E+12, force <  1.9E-03)

     End of BFGS Geometry Optimization

     Final energy   =   -3608.2949845218 Ry
Begin final coordinates

ATOMIC_POSITIONS (angstrom)
Co       1.253137179   0.723499088  10.000000000    0   0   0
Co       3.759411536   0.723499088  10.000000000    0   0   0
Co       2.506274358   2.893996350  10.000000000    0   0   0
Co       5.012548715   2.893996350  10.000000000    0   0   0
Co       5.012548715   1.446998175  12.046364444    0   0   0
Co       2.506274358   1.446998175  12.046364444    0   0   0
Co       6.265685894   3.617495437  12.046364444    0   0   0
Co       3.759411536   3.617495437  12.046364444    0   0   0
Co      -0.055431433  -0.015524391  14.048012186
Co       2.469517787  -0.015324672  14.115946036
Co       1.214956323   2.157729615  14.099665736
Co       3.743657119   2.169472774  13.997404215
C        1.217765145   0.715703268  15.424102440
H        1.682686410   1.116083950  16.332866199
H        0.325743627   0.131099335  15.829251279
End final coordinates



     Writing output data file calc.save
 
     init_run     :      6.02s CPU      7.70s WALL (       1 calls)
     electrons    :   7020.89s CPU   8856.88s WALL (      37 calls)
     update_pot   :     42.10s CPU     48.11s WALL (      36 calls)
     forces       :    159.57s CPU    169.74s WALL (      37 calls)

     Called by init_run:
     wfcinit      :      3.93s CPU      5.15s WALL (       1 calls)
     potinit      :      0.64s CPU      0.77s WALL (       1 calls)

     Called by electrons:
     c_bands      :   5377.45s CPU   6777.92s WALL (     513 calls)
     sum_band     :   1065.72s CPU   1343.40s WALL (     513 calls)
     v_of_rho     :    220.88s CPU    288.85s WALL (     550 calls)
     newd         :    306.67s CPU    333.29s WALL (     550 calls)
     mix_rho      :      9.64s CPU     12.57s WALL (     513 calls)
     vdW_energy   :     44.82s CPU     51.20s WALL (     587 calls)
     vdW_ffts     :     49.85s CPU     71.24s WALL (    1174 calls)
     vdW_v        :     21.99s CPU     26.02s WALL (     587 calls)

     Called by c_bands:
     init_us_2    :     28.66s CPU     30.31s WALL (   21280 calls)
     cegterg      :   5105.03s CPU   6439.35s WALL (   10260 calls)

     Called by *egterg:
     h_psi        :   2225.25s CPU   3121.76s WALL (   39603 calls)
     s_psi        :    249.78s CPU    255.46s WALL (   39603 calls)
     g_psi        :     21.93s CPU     22.04s WALL (   29323 calls)
     cdiaghg      :   1387.62s CPU   1407.94s WALL (   38863 calls)

     Called by h_psi:
     add_vuspsi   :    259.22s CPU    264.77s WALL (   39603 calls)

     General routines
     calbec       :    416.42s CPU    463.30s WALL (   50603 calls)
     fft          :    116.77s CPU    184.27s WALL (   46733 calls)
     ffts         :      0.99s CPU      1.45s WALL (    2126 calls)
     fftw         :   1674.88s CPU   2737.87s WALL ( 6523072 calls)
     interpolate  :      5.03s CPU      8.96s WALL (    2126 calls)
     davcio       :      0.01s CPU      0.23s WALL (      20 calls)
 
     Parallel routines
     fft_scatter  :    814.80s CPU   1583.18s WALL ( 6571931 calls)
 
     PWSCF        :     2h 1m CPU        2h32m WALL

 
   This run was terminated on:  15:32:28  17Jan2019            

=------------------------------------------------------------------------------=
   JOB DONE.
=------------------------------------------------------------------------------=
Job  /afs/slac/g/suncat/bin/suncat-tsmpirun -x LD_LIBRARY_PATH -wdir /tmp/qe_6936711c8vmb4f_scratch pw.x -npool 2 -in pw.pwi

TID   HOST_NAME   COMMAND_LINE            STATUS            TERMINATION_TIME
===== ========== ================  =======================  ===================
00000 suncat2068 pw.x -npool 2 -i  Done                     01/17/2019 15:32:28
00001 suncat2068 pw.x -npool 2 -i  Done                     01/17/2019 15:32:28
00002 suncat2068 pw.x -npool 2 -i  Done                     01/17/2019 15:32:28
00003 suncat2068 pw.x -npool 2 -i  Done                     01/17/2019 15:32:28
00004 suncat2068 pw.x -npool 2 -i  Done                     01/17/2019 15:32:28
00005 suncat2068 pw.x -npool 2 -i  Done                     01/17/2019 15:32:28
00006 suncat2068 pw.x -npool 2 -i  Done                     01/17/2019 15:32:28
00007 suncat2068 pw.x -npool 2 -i  Done                     01/17/2019 15:32:28
00008 suncat2068 pw.x -npool 2 -i  Done                     01/17/2019 15:32:28
00009 suncat2068 pw.x -npool 2 -i  Done                     01/17/2019 15:32:28
00010 suncat2068 pw.x -npool 2 -i  Done                     01/17/2019 15:32:28
00011 suncat2068 pw.x -npool 2 -i  Done                     01/17/2019 15:32:28
00012 suncat2068 pw.x -npool 2 -i  Done                     01/17/2019 15:32:28
00013 suncat2068 pw.x -npool 2 -i  Done                     01/17/2019 15:32:28
00014 suncat2068 pw.x -npool 2 -i  Done                     01/17/2019 15:32:28
00015 suncat2068 pw.x -npool 2 -i  Done                     01/17/2019 15:32:28
00016 suncat2048 pw.x -npool 2 -i  Done                     01/17/2019 15:32:28
00017 suncat2048 pw.x -npool 2 -i  Done                     01/17/2019 15:32:28
00018 suncat2048 pw.x -npool 2 -i  Done                     01/17/2019 15:32:28
00019 suncat2048 pw.x -npool 2 -i  Done                     01/17/2019 15:32:28
00020 suncat2048 pw.x -npool 2 -i  Done                     01/17/2019 15:32:28
00021 suncat2048 pw.x -npool 2 -i  Done                     01/17/2019 15:32:28
00022 suncat2048 pw.x -npool 2 -i  Done                     01/17/2019 15:32:28
00023 suncat2048 pw.x -npool 2 -i  Done                     01/17/2019 15:32:28
00024 suncat2048 pw.x -npool 2 -i  Done                     01/17/2019 15:32:28
00025 suncat2048 pw.x -npool 2 -i  Done                     01/17/2019 15:32:28
00026 suncat2048 pw.x -npool 2 -i  Done                     01/17/2019 15:32:28
00027 suncat2048 pw.x -npool 2 -i  Done                     01/17/2019 15:32:28
00028 suncat2048 pw.x -npool 2 -i  Done                     01/17/2019 15:32:28
00029 suncat2048 pw.x -npool 2 -i  Done                     01/17/2019 15:32:28
00030 suncat2048 pw.x -npool 2 -i  Done                     01/17/2019 15:32:28
00031 suncat2048 pw.x -npool 2 -i  Done                     01/17/2019 15:32:28
