  python dir          : /u/if/mamunm/src/espresso
  espresso dir        : /nfs/slac/g/suncatfs/sw/espv18/espresso-dynpy-beef/bin
  pseudo dir          : /u/if/mamunm/psp/gbrv1.5pbe
  ase-espresso py git : GITVERSION



     Program PWSCF v.5.1rc2 (svn rev. 11289) starts on 23Apr2018 at  6:52:11 

     This program is part of the open-source Quantum ESPRESSO suite
     for quantum simulation of materials; please cite
         "P. Giannozzi et al., J. Phys.:Condens. Matter 21 395502 (2009);
          URL http://www.quantum-espresso.org", 
     in publications or presentations arising from this work. More details at
     http://www.quantum-espresso.org/quote

     Parallel version (MPI), running on    32 processors
     K-points division:     npool     =       4
     R & G space division:  proc/nbgrp/npool/nimage =       8
     Reading input from pw.inp
     Message from routine read_cards :
     DEPRECATED: no units specified in CELL_PARAMETERS card

     Current dimensions of program PWSCF are:
     Max number of different atomic species (ntypx) = 10
     Max number of k-points (npk) =  40000
     Max angular momentum in pseudopotentials (lmaxx) =  3
     Presently stress not available with electric field


     **************************************************************************
     Initializing libbeef V0.1.1 with the BEEF-vdW functional.
     Citation: Wellendorff et al., PRB 85, 235149 (2012).
     **************************************************************************


     IMPORTANT: XC functional enforced from input :
     Exchange-correlation      = BEEF-VDW ( 1  4 27 13 2)
     Any further DFT definition will be discarded
     Please, verify this is what you really want


     Subspace diagonalization in iterative solution of the eigenvalue problem:
     a serial algorithm will be used

 
     Parallelization info
     --------------------
     sticks:   dense  smooth     PW     G-vecs:    dense   smooth      PW
     Min         403     160     46                77132    19506    3044
     Max         407     161     50                77135    19535    3047
     Sum        3241    1285    379               617075   156145   24367
 


     bravais-lattice index     =            0
     lattice parameter (alat)  =       1.8897  a.u.
     unit-cell volume          =    5185.0501 (a.u.)^3
     number of atoms/cell      =           14
     number of atomic types    =            3
     number of electrons       =       161.00
     number of Kohn-Sham states=           90
     kinetic-energy cutoff     =      36.7493  Ry
     charge density cutoff     =     367.4932  Ry
     convergence threshold     =      1.0E-05
     mixing beta               =       0.3000
     number of iterations used =           10  plain     mixing
     Exchange-correlation      = BEEF-VDW ( 1  4 27 13 2)
     nstep                     =           50


     celldm(1)=   1.889726  celldm(2)=   0.000000  celldm(3)=   0.000000
     celldm(4)=   0.000000  celldm(5)=   0.000000  celldm(6)=   0.000000

     crystal axes: (cart. coord. in units of alat)
               a(1) = (   5.972022   0.000000   0.000000 )  
               a(2) = (   2.986011   5.171923   0.000000 )  
               a(3) = (   0.000000   0.000000  24.876136 )  

     reciprocal axes: (cart. coord. in units 2 pi/alat)
               b(1) = (  0.167447 -0.096676  0.000000 )  
               b(2) = (  0.000000  0.193352  0.000000 )  
               b(3) = (  0.000000  0.000000  0.040199 )  


     PseudoPot. # 1 for Ta read from file:
     /u/if/mamunm/psp/gbrv1.5pbe/Ta.UPF
     MD5 check sum: f8bbe9446314a3b8ea5d9f3e3836c939
     Pseudo is Ultrasoft + core correction, Zval = 13.0
     Generated by new atomic code, or converted to UPF format
     Using radial grid of  921 points,  7 beta functions with: 
                l(1) =   0
                l(2) =   0
                l(3) =   1
                l(4) =   1
                l(5) =   2
                l(6) =   2
                l(7) =   3
     Q(r) pseudized with  6 coefficients,  rinner =    1.300   1.300   1.300
                                                       1.300   1.300   1.300
                                                       1.300

     PseudoPot. # 2 for C  read from file:
     /u/if/mamunm/psp/gbrv1.5pbe/C.UPF
     MD5 check sum: d1aef80898a10debaa0f26306b886e00
     Pseudo is Ultrasoft + core correction, Zval =  4.0
     Generated by new atomic code, or converted to UPF format
     Using radial grid of  721 points,  4 beta functions with: 
                l(1) =   0
                l(2) =   0
                l(3) =   1
                l(4) =   1
     Q(r) pseudized with  8 coefficients,  rinner =    1.100   1.100   1.100


     PseudoPot. # 3 for H  read from file:
     /u/if/mamunm/psp/gbrv1.5pbe/H.UPF
     MD5 check sum: 761ae9a214b05c3daf00ab9f6b793d6f
     Pseudo is Ultrasoft, Zval =  1.0
     Generated by new atomic code, or converted to UPF format
     Using radial grid of  615 points,  2 beta functions with: 
                l(1) =   0
                l(2) =   0
     Q(r) pseudized with  8 coefficients,  rinner =    0.700

     vdW kernel table read from file vdW_kernel_table
     MD5 check sum: 095c7af220d748ca6e76c0b4c6cfb241

     atomic species   valence    mass     pseudopotential
        Ta1           13.00   180.94788     Ta( 1.00)
        C1             4.00    12.01100     C ( 1.00)
        H1             1.00     1.00800     H ( 1.00)

     No symmetry found



   Cartesian axes

     site n.     atom                  positions (alat units)
         1           Ta1 tau(   1) = (   1.4930055   0.8619871  10.0000000  )
         2           Ta1 tau(   2) = (   4.4790165   0.8619871  10.0000000  )
         3           Ta1 tau(   3) = (   2.9860110   3.4479485  10.0000000  )
         4           Ta1 tau(   4) = (   5.9720221   3.4479485  10.0000000  )
         5           Ta1 tau(   5) = (   5.9720221   1.7239743  12.4380678  )
         6           Ta1 tau(   6) = (   2.9860110   1.7239743  12.4380678  )
         7           Ta1 tau(   7) = (   7.4650276   4.3099357  12.4380678  )
         8           Ta1 tau(   8) = (   4.4790165   4.3099357  12.4380678  )
         9           Ta1 tau(   9) = (   0.0000000   0.0000000  14.8761356  )
        10           Ta1 tau(  10) = (   2.9860110   0.0000000  14.8761356  )
        11           Ta1 tau(  11) = (   1.4930055   2.5859614  14.8761356  )
        12           Ta1 tau(  12) = (   4.4790165   2.5859614  14.8761356  )
        13           C1  tau(  13) = (   1.4930055   0.8619871  16.4751356  )
        14           H1  tau(  14) = (   1.4930055   0.8619871  17.5751356  )

     number of k points=    20  Fermi-Dirac smearing, width (Ry)=  0.0110
                       cart. coord. in units 2pi/alat
        k(    1) = (   0.0000000   0.0000000   0.0000000), wk =   0.0555556
        k(    2) = (   0.0000000   0.0322253   0.0000000), wk =   0.1111111
        k(    3) = (   0.0000000   0.0644506   0.0000000), wk =   0.1111111
        k(    4) = (   0.0000000  -0.0966758   0.0000000), wk =   0.0555556
        k(    5) = (   0.0279079  -0.0161126   0.0000000), wk =   0.1111111
        k(    6) = (   0.0279079   0.0161126   0.0000000), wk =   0.1111111
        k(    7) = (   0.0279079   0.0483379   0.0000000), wk =   0.1111111
        k(    8) = (   0.0279079  -0.1127885   0.0000000), wk =   0.1111111
        k(    9) = (   0.0279079  -0.0805632   0.0000000), wk =   0.1111111
        k(   10) = (   0.0279079  -0.0483379   0.0000000), wk =   0.1111111
        k(   11) = (   0.0558158  -0.0322253   0.0000000), wk =   0.1111111
        k(   12) = (   0.0558158   0.0000000   0.0000000), wk =   0.1111111
        k(   13) = (   0.0558158   0.0322253   0.0000000), wk =   0.1111111
        k(   14) = (   0.0558158  -0.1289011   0.0000000), wk =   0.1111111
        k(   15) = (   0.0558158  -0.0966758   0.0000000), wk =   0.1111111
        k(   16) = (   0.0558158  -0.0644506   0.0000000), wk =   0.1111111
        k(   17) = (  -0.0837237   0.0483379   0.0000000), wk =   0.0555556
        k(   18) = (  -0.0837237   0.0805632   0.0000000), wk =   0.1111111
        k(   19) = (  -0.0837237   0.1127885   0.0000000), wk =   0.1111111
        k(   20) = (  -0.0837237  -0.0483379   0.0000000), wk =   0.0555556

     Dense  grid:   617075 G-vectors     FFT dimensions: (  72,  72, 288)

     Smooth grid:   156145 G-vectors     FFT dimensions: (  45,  45, 192)

     Largest allocated arrays     est. size (Mb)     dimensions
        Kohn-Sham Wavefunctions         3.42 Mb     (    2487,   90)
        NL pseudopotentials            11.76 Mb     (    2487,  310)
        Each V/rho on FFT grid          2.85 Mb     (  186624)
        Each G-vector array             0.59 Mb     (   77132)
        G-vector shells                 0.16 Mb     (   21038)
     Largest temporary arrays     est. size (Mb)     dimensions
        Auxiliary wavefunctions        13.66 Mb     (    2487,  360)
        Each subspace H/S matrix        1.98 Mb     (     360,  360)
        Each <psi_i|beta_j> matrix      0.43 Mb     (     310,   90)
        Arrays for rho mixing          28.48 Mb     (  186624,   10)

     Initial potential from superposition of free atoms
     Check: negative starting charge=   -1.121492

     starting charge  160.98661, renormalised to  161.00000

     negative rho (up, down):  1.122E+00 0.000E+00


     ************************************************************************
     *
     * You are using vdW-DF for exchange-correlation in this calculation.
     * Please cite the following three references that made this development
     * possible:
     *
     *   M. Dion, H. Rydberg, E. Schroder, D. C. Langreth, and
     *   B. I. Lundqvist, Phys. Rev. Lett. 92, 246401 (2004).
     *
     *   T. Thonhauser, V. R. Cooper, S. Li, A. Puzder, P. Hyldgaard, and
     *   D. C. Langreth, Phys. Rev. B 76, 125112 (2007).
     *
     *   G. Roman-Perez and J. M. Soler, Phys. Rev. Lett. 103, 096102 (2009).
     *
     *
     * If you are using vdW-DF2, please also cite:
     *
     *   K. Lee, E. D. Murray, L. Kong, B. I. Lundqvist, and
     *   D. C. Langreth, Phys. Rev. B 82, 081101(R) (2010).
     *
     *
     * If you are calculating the stress with vdW-DF, please also cite:
     *
     *   R. Sabatini, E. Kucukbenli, B. Kolb, T. Thonhauser, and
     *   S. de Gironcoli, J. Phys.: Condens. Matter 24, 424209 (2012).
     *
     ************************************************************************

     Carrying out vdW-DF run using the following parameters:

     Nqs =      20    Nr_points =    1024   r_max =   100.000
     q_mesh =
               0.00001000     0.04494208     0.09755937     0.15916263
               0.23128650     0.31572767     0.41458969     0.53033537
               0.66584808     0.82450364     1.01025438     1.22772762
               1.48234092     1.78043706     2.12944203     2.53805004
               3.01644009     3.57652955     4.23227104     5.00000000

     Gradients computed in reciprocal space

     ************************************************************************


 
     Adding external electric field

     Computed dipole along edir(3) : 
        Dipole               -0.0029 Ry au,         -0.0075 Debye
        Dipole field         -0.0000 Ry au
 
        Potential amp.        0.0007 Ry
        Total length         45.8339 bohr
 
     Starting wfc are  161 randomized atomic wfcs

     total cpu time spent up to now is       17.3 secs

     per-process dynamical memory:    97.0 Mb

     Self-consistent Calculation

     iteration #  1     ecut=    36.75 Ry     beta=0.30
     Davidson diagonalization with overlap
     ethr =  1.00E-02,  avg # of iterations =  2.0

     negative rho (up, down):  1.136E+00 0.000E+00
 
     Adding external electric field

     Computed dipole along edir(3) : 
        Dipole               -4.1507 Ry au,        -10.5500 Debye
        Dipole field         -0.0101 Ry au
 
        Potential amp.        0.9221 Ry
        Total length         45.8339 bohr
 

     total cpu time spent up to now is       42.2 secs

     total energy              =   -1728.93246220 Ry
     Harris-Foulkes estimate   =   -1731.55457122 Ry
     estimated scf accuracy    <       5.73652793 Ry

     iteration #  2     ecut=    36.75 Ry     beta=0.30
     Davidson diagonalization with overlap
     ethr =  3.56E-03,  avg # of iterations =  8.7

     negative rho (up, down):  1.136E+00 0.000E+00
 
     Adding external electric field

     Computed dipole along edir(3) : 
        Dipole                1.7177 Ry au,          4.3659 Debye
        Dipole field          0.0042 Ry au
 
        Potential amp.       -0.3816 Ry
        Total length         45.8339 bohr
 

     total cpu time spent up to now is       78.2 secs

     total energy              =   -1715.37492469 Ry
     Harris-Foulkes estimate   =   -1743.43923586 Ry
     estimated scf accuracy    <     819.24486613 Ry

     iteration #  3     ecut=    36.75 Ry     beta=0.30
     Davidson diagonalization with overlap
     ethr =  3.56E-03,  avg # of iterations =  6.9

     negative rho (up, down):  1.138E+00 0.000E+00
 
     Adding external electric field

     Computed dipole along edir(3) : 
        Dipole                0.8764 Ry au,          2.2275 Debye
        Dipole field          0.0021 Ry au
 
        Potential amp.       -0.1947 Ry
        Total length         45.8339 bohr
 

     total cpu time spent up to now is      111.6 secs

     total energy              =   -1728.76074092 Ry
     Harris-Foulkes estimate   =   -1733.38384894 Ry
     estimated scf accuracy    <     100.04983499 Ry

     iteration #  4     ecut=    36.75 Ry     beta=0.30
     Davidson diagonalization with overlap
     ethr =  3.56E-03,  avg # of iterations =  4.0

     negative rho (up, down):  1.145E+00 0.000E+00
 
     Adding external electric field

     Computed dipole along edir(3) : 
        Dipole                0.9113 Ry au,          2.3164 Debye
        Dipole field          0.0022 Ry au
 
        Potential amp.       -0.2025 Ry
        Total length         45.8339 bohr
 

     total cpu time spent up to now is      139.6 secs

     total energy              =   -1731.03391035 Ry
     Harris-Foulkes estimate   =   -1731.22216734 Ry
     estimated scf accuracy    <       2.27334779 Ry

     iteration #  5     ecut=    36.75 Ry     beta=0.30
     Davidson diagonalization with overlap
     ethr =  1.41E-03,  avg # of iterations =  2.0

     negative rho (up, down):  1.155E+00 0.000E+00
 
     Adding external electric field

     Computed dipole along edir(3) : 
        Dipole                0.7767 Ry au,          1.9742 Debye
        Dipole field          0.0019 Ry au
 
        Potential amp.       -0.1726 Ry
        Total length         45.8339 bohr
 

     total cpu time spent up to now is      163.8 secs

     total energy              =   -1731.08608730 Ry
     Harris-Foulkes estimate   =   -1731.12135029 Ry
     estimated scf accuracy    <       0.33426819 Ry

     iteration #  6     ecut=    36.75 Ry     beta=0.30
     Davidson diagonalization with overlap
     ethr =  2.08E-04,  avg # of iterations =  5.1

     negative rho (up, down):  1.162E+00 0.000E+00
 
     Adding external electric field

     Computed dipole along edir(3) : 
        Dipole                0.7135 Ry au,          1.8136 Debye
        Dipole field          0.0017 Ry au
 
        Potential amp.       -0.1585 Ry
        Total length         45.8339 bohr
 

     total cpu time spent up to now is      190.4 secs

     total energy              =   -1731.09047934 Ry
     Harris-Foulkes estimate   =   -1731.10391809 Ry
     estimated scf accuracy    <       0.16664873 Ry

     iteration #  7     ecut=    36.75 Ry     beta=0.30
     Davidson diagonalization with overlap
     ethr =  1.04E-04,  avg # of iterations =  2.2

     negative rho (up, down):  1.170E+00 0.000E+00
 
     Adding external electric field

     Computed dipole along edir(3) : 
        Dipole                0.4306 Ry au,          1.0945 Debye
        Dipole field          0.0010 Ry au
 
        Potential amp.       -0.0957 Ry
        Total length         45.8339 bohr
 

     total cpu time spent up to now is      214.9 secs

     total energy              =   -1731.09073248 Ry
     Harris-Foulkes estimate   =   -1731.09824981 Ry
     estimated scf accuracy    <       0.03462726 Ry

     iteration #  8     ecut=    36.75 Ry     beta=0.30
     Davidson diagonalization with overlap
     ethr =  2.15E-05,  avg # of iterations =  8.0

     negative rho (up, down):  1.172E+00 0.000E+00
 
     Adding external electric field

     Computed dipole along edir(3) : 
        Dipole                0.3993 Ry au,          1.0149 Debye
        Dipole field          0.0010 Ry au
 
        Potential amp.       -0.0887 Ry
        Total length         45.8339 bohr
 

     total cpu time spent up to now is      245.8 secs

     total energy              =   -1731.09219474 Ry
     Harris-Foulkes estimate   =   -1731.09539628 Ry
     estimated scf accuracy    <       0.04779094 Ry

     iteration #  9     ecut=    36.75 Ry     beta=0.30
     Davidson diagonalization with overlap
     ethr =  2.15E-05,  avg # of iterations =  2.1

     negative rho (up, down):  1.175E+00 0.000E+00
 
     Adding external electric field

     Computed dipole along edir(3) : 
        Dipole                0.2804 Ry au,          0.7128 Debye
        Dipole field          0.0007 Ry au
 
        Potential amp.       -0.0623 Ry
        Total length         45.8339 bohr
 

     total cpu time spent up to now is      269.9 secs

     total energy              =   -1731.09194717 Ry
     Harris-Foulkes estimate   =   -1731.09415713 Ry
     estimated scf accuracy    <       0.01049243 Ry

     iteration # 10     ecut=    36.75 Ry     beta=0.30
     Davidson diagonalization with overlap
     ethr =  6.52E-06,  avg # of iterations =  5.0

     negative rho (up, down):  1.176E+00 0.000E+00
 
     Adding external electric field

     Computed dipole along edir(3) : 
        Dipole                0.1763 Ry au,          0.4482 Debye
        Dipole field          0.0004 Ry au
 
        Potential amp.       -0.0392 Ry
        Total length         45.8339 bohr
 

     total cpu time spent up to now is      298.2 secs

     total energy              =   -1731.09140586 Ry
     Harris-Foulkes estimate   =   -1731.09266460 Ry
     estimated scf accuracy    <       0.00263799 Ry

     iteration # 11     ecut=    36.75 Ry     beta=0.30
     Davidson diagonalization with overlap
     ethr =  1.64E-06,  avg # of iterations =  5.5

     negative rho (up, down):  1.177E+00 0.000E+00
 
     Adding external electric field

     Computed dipole along edir(3) : 
        Dipole                0.1300 Ry au,          0.3305 Debye
        Dipole field          0.0003 Ry au
 
        Potential amp.       -0.0289 Ry
        Total length         45.8339 bohr
 

     total cpu time spent up to now is      325.6 secs

     total energy              =   -1731.09136831 Ry
     Harris-Foulkes estimate   =   -1731.09160415 Ry
     estimated scf accuracy    <       0.00078577 Ry

     iteration # 12     ecut=    36.75 Ry     beta=0.30
     Davidson diagonalization with overlap
     ethr =  4.88E-07,  avg # of iterations =  3.1

     negative rho (up, down):  1.178E+00 0.000E+00
 
     Adding external electric field

     Computed dipole along edir(3) : 
        Dipole                0.1018 Ry au,          0.2588 Debye
        Dipole field          0.0002 Ry au
 
        Potential amp.       -0.0226 Ry
        Total length         45.8339 bohr
 

     total cpu time spent up to now is      351.4 secs

     total energy              =   -1731.09139306 Ry
     Harris-Foulkes estimate   =   -1731.09144324 Ry
     estimated scf accuracy    <       0.00027175 Ry

     iteration # 13     ecut=    36.75 Ry     beta=0.30
     Davidson diagonalization with overlap
     ethr =  1.69E-07,  avg # of iterations =  3.5

     negative rho (up, down):  1.178E+00 0.000E+00
 
     Adding external electric field

     Computed dipole along edir(3) : 
        Dipole                0.0646 Ry au,          0.1642 Debye
        Dipole field          0.0002 Ry au
 
        Potential amp.       -0.0144 Ry
        Total length         45.8339 bohr
 

     total cpu time spent up to now is      377.2 secs

     total energy              =   -1731.09149146 Ry
     Harris-Foulkes estimate   =   -1731.09142623 Ry
     estimated scf accuracy    <       0.00008344 Ry

     iteration # 14     ecut=    36.75 Ry     beta=0.30
     Davidson diagonalization with overlap
     ethr =  5.18E-08,  avg # of iterations =  4.1

     negative rho (up, down):  1.178E+00 0.000E+00
 
     Adding external electric field

     Computed dipole along edir(3) : 
        Dipole                0.0642 Ry au,          0.1631 Debye
        Dipole field          0.0002 Ry au
 
        Potential amp.       -0.0143 Ry
        Total length         45.8339 bohr
 

     total cpu time spent up to now is      403.9 secs

     total energy              =   -1731.09150411 Ry
     Harris-Foulkes estimate   =   -1731.09150311 Ry
     estimated scf accuracy    <       0.00004994 Ry

     iteration # 15     ecut=    36.75 Ry     beta=0.30
     Davidson diagonalization with overlap
     ethr =  3.10E-08,  avg # of iterations =  2.3

     negative rho (up, down):  1.178E+00 0.000E+00
 
     Adding external electric field

     Computed dipole along edir(3) : 
        Dipole                0.0585 Ry au,          0.1487 Debye
        Dipole field          0.0001 Ry au
 
        Potential amp.       -0.0130 Ry
        Total length         45.8339 bohr
 

     total cpu time spent up to now is      428.9 secs

     total energy              =   -1731.09151531 Ry
     Harris-Foulkes estimate   =   -1731.09151017 Ry
     estimated scf accuracy    <       0.00001346 Ry

     iteration # 16     ecut=    36.75 Ry     beta=0.30
     Davidson diagonalization with overlap
     ethr =  8.36E-09,  avg # of iterations =  4.2

     negative rho (up, down):  1.178E+00 0.000E+00
 
     Adding external electric field

     Computed dipole along edir(3) : 
        Dipole                0.0565 Ry au,          0.1437 Debye
        Dipole field          0.0001 Ry au
 
        Potential amp.       -0.0126 Ry
        Total length         45.8339 bohr
 

     total cpu time spent up to now is      455.2 secs

     total energy              =   -1731.09151645 Ry
     Harris-Foulkes estimate   =   -1731.09151710 Ry
     estimated scf accuracy    <       0.00001023 Ry

     iteration # 17     ecut=    36.75 Ry     beta=0.30
     Davidson diagonalization with overlap
     ethr =  6.36E-09,  avg # of iterations =  1.9

     negative rho (up, down):  1.178E+00 0.000E+00

     negative rho (up, down):  1.178E+00 0.000E+00

     negative rho (up, down):  1.178E+00 0.000E+00

     negative rho (up, down):  1.178E+00 0.000E+00

     negative rho (up, down):  1.178E+00 0.000E+00

     negative rho (up, down):  1.178E+00 0.000E+00

     negative rho (up, down):  1.178E+00 0.000E+00

     negative rho (up, down):  1.178E+00 0.000E+00

     negative rho (up, down):  1.178E+00 0.000E+00

     negative rho (up, down):  1.178E+00 0.000E+00

     negative rho (up, down):  1.178E+00 0.000E+00

     negative rho (up, down):  1.178E+00 0.000E+00

     negative rho (up, down):  1.178E+00 0.000E+00

     negative rho (up, down):  1.178E+00 0.000E+00

     negative rho (up, down):  1.178E+00 0.000E+00

     negative rho (up, down):  1.178E+00 0.000E+00

     negative rho (up, down):  1.178E+00 0.000E+00

     negative rho (up, down):  1.178E+00 0.000E+00

     negative rho (up, down):  1.178E+00 0.000E+00

     negative rho (up, down):  1.178E+00 0.000E+00

     negative rho (up, down):  1.178E+00 0.000E+00

     negative rho (up, down):  1.178E+00 0.000E+00

     negative rho (up, down):  1.178E+00 0.000E+00

     negative rho (up, down):  1.178E+00 0.000E+00

     negative rho (up, down):  1.178E+00 0.000E+00

     negative rho (up, down):  1.178E+00 0.000E+00

     negative rho (up, down):  1.178E+00 0.000E+00

     negative rho (up, down):  1.178E+00 0.000E+00

     negative rho (up, down):  1.178E+00 0.000E+00

     negative rho (up, down):  1.178E+00 0.000E+00

     negative rho (up, down):  1.178E+00 0.000E+00

     negative rho (up, down):  1.178E+00 0.000E+00

     negative rho (up, down):  1.178E+00 0.000E+00

     negative rho (up, down):  1.178E+00 0.000E+00

     negative rho (up, down):  1.178E+00 0.000E+00
 
     Adding external electric field

     Computed dipole along edir(3) : 
        Dipole                0.0744 Ry au,          0.1891 Debye
        Dipole field          0.0002 Ry au
 
        Potential amp.       -0.0165 Ry
        Total length         45.8339 bohr
 

     total cpu time spent up to now is      530.7 secs

     End of self-consistent calculation

          k = 0.0000 0.0000 0.0000 ( 19447 PWs)   bands (ev):

   -66.2766 -66.1867 -66.1282 -66.1280 -66.1280 -66.1213 -66.0788 -66.0787
   -66.0775 -66.0373 -66.0373 -66.0029 -32.9239 -32.9164 -32.9164 -32.8906
   -32.8538 -32.8538 -32.8396 -32.8220 -32.8220 -32.7924 -32.6534 -32.5318
   -32.4930 -32.4930 -32.4619 -32.4143 -32.4143 -32.3217 -32.3217 -32.3120
   -32.2660 -32.2660 -32.2439 -32.2313 -32.2313 -32.2300 -32.1639 -32.1603
   -32.1603 -32.1560 -32.1081 -32.1081 -32.0760 -32.0760 -32.0113 -32.0113
    -8.5456  -5.3024  -3.9365  -2.9828  -2.3634  -1.9506  -1.9506  -1.8613
    -1.8613  -1.8553  -1.5619  -1.1860  -1.1860  -0.9294  -0.8257  -0.8257
    -0.3168   0.1619   0.1619   1.0419   1.0980   1.0980   1.4804   1.7319
     1.8269   1.8269   2.0403   2.0806   2.2355   2.2355   2.3002   2.5149
     2.5149   2.8077   2.8077   2.8294   2.8847   2.9088   2.9088   3.0108
     3.0109   3.3093

          k = 0.0000 0.0322 0.0000 ( 19481 PWs)   bands (ev):

   -66.2759 -66.1828 -66.1320 -66.1281 -66.1280 -66.1192 -66.0816 -66.0788
   -66.0746 -66.0394 -66.0373 -66.0036 -32.9016 -32.8913 -32.8798 -32.8643
   -32.8306 -32.8232 -32.8146 -32.7972 -32.7853 -32.7573 -32.6527 -32.5441
   -32.5124 -32.5052 -32.4558 -32.4091 -32.4069 -32.3471 -32.3361 -32.3106
   -32.3071 -32.2937 -32.2489 -32.2269 -32.2144 -32.2144 -32.1936 -32.1828
   -32.1794 -32.1533 -32.1501 -32.1220 -32.1023 -32.0870 -32.0586 -32.0201
    -8.5304  -5.0780  -3.7545  -2.8132  -2.2203  -2.0311  -1.8092  -1.8027
    -1.6863  -1.6826  -1.4452  -1.0463  -0.9647  -0.7735  -0.6783  -0.6729
    -0.2392   0.2211   0.2360   0.9421   0.9720   1.0365   1.3827   1.7278
     1.8074   1.9144   1.9198   1.9998   2.0192   2.0776   2.1301   2.3079
     2.6214   2.7071   2.7365   2.7435   2.7931   2.8499   2.9268   2.9437
     3.0138   3.1036

          k = 0.0000 0.0645 0.0000 ( 19517 PWs)   bands (ev):

   -66.2744 -66.1721 -66.1428 -66.1281 -66.1280 -66.1137 -66.0884 -66.0788
   -66.0672 -66.0456 -66.0372 -66.0050 -32.8560 -32.8298 -32.8150 -32.7791
   -32.7764 -32.7563 -32.7434 -32.7365 -32.7125 -32.6497 -32.6419 -32.5632
   -32.5433 -32.5422 -32.4401 -32.4201 -32.4053 -32.3867 -32.3766 -32.3726
   -32.3526 -32.3142 -32.2797 -32.2742 -32.2562 -32.2542 -32.2216 -32.2095
   -32.1975 -32.1876 -32.1762 -32.1589 -32.1318 -32.1270 -32.1094 -32.0444
    -8.5012  -4.4508  -3.3371  -2.6733  -2.3511  -1.7685  -1.5387  -1.4485
    -1.3585  -1.2341  -1.1179  -0.7898  -0.4610  -0.3130  -0.2423  -0.2137
     0.0365   0.3583   0.3975   0.7088   0.7743   0.9024   1.0054   1.2834
     1.3839   1.4464   1.5400   1.6556   1.9976   2.0186   2.0597   2.1064
     2.1909   2.2009   2.2628   2.3542   2.5588   2.6505   2.6526   2.8681
     2.9866   3.2046

          k = 0.0000-0.0967 0.0000 ( 19532 PWs)   bands (ev):

   -66.2737 -66.1578 -66.1572 -66.1281 -66.1280 -66.1094 -66.0935 -66.0788
   -66.0601 -66.0521 -66.0372 -66.0056 -32.8265 -32.7878 -32.7622 -32.7587
   -32.7474 -32.7316 -32.6886 -32.6818 -32.6600 -32.6170 -32.5816 -32.5815
   -32.5514 -32.4889 -32.4629 -32.4449 -32.4360 -32.4201 -32.4125 -32.4070
   -32.3774 -32.3344 -32.3335 -32.3233 -32.3213 -32.2891 -32.2390 -32.2058
   -32.1997 -32.1985 -32.1820 -32.1743 -32.1468 -32.1363 -32.0952 -32.0680
    -8.4871  -3.6484  -3.5196  -2.9614  -2.1614  -1.6793  -1.2441  -1.2253
    -1.0328  -0.8912  -0.8788  -0.7409  -0.2656   0.0344   0.2483   0.2954
     0.3166   0.3428   0.3953   0.4446   0.7801   0.8825   0.9124   0.9571
     1.0821   1.0849   1.3570   1.4370   1.5246   1.5518   1.7404   1.7794
     1.7881   1.8356   2.0453   2.3779   2.4004   2.4814   2.5347   2.9415
     3.0866   3.3647

          k = 0.0279-0.0161 0.0000 ( 19481 PWs)   bands (ev):

   -66.2759 -66.1828 -66.1320 -66.1281 -66.1280 -66.1192 -66.0816 -66.0788
   -66.0746 -66.0394 -66.0373 -66.0036 -32.9016 -32.8913 -32.8798 -32.8643
   -32.8306 -32.8232 -32.8146 -32.7972 -32.7853 -32.7573 -32.6527 -32.5441
   -32.5124 -32.5052 -32.4558 -32.4091 -32.4069 -32.3471 -32.3361 -32.3106
   -32.3071 -32.2937 -32.2489 -32.2269 -32.2144 -32.2144 -32.1936 -32.1828
   -32.1794 -32.1533 -32.1501 -32.1220 -32.1023 -32.0870 -32.0586 -32.0201
    -8.5304  -5.0780  -3.7545  -2.8132  -2.2203  -2.0311  -1.8092  -1.8027
    -1.6863  -1.6826  -1.4452  -1.0463  -0.9647  -0.7735  -0.6783  -0.6729
    -0.2392   0.2211   0.2360   0.9421   0.9720   1.0365   1.3827   1.7278
     1.8074   1.9144   1.9198   1.9998   2.0192   2.0776   2.1301   2.3079
     2.6214   2.7071   2.7365   2.7435   2.7931   2.8499   2.9268   2.9437
     3.0138   3.1036

          k = 0.0279 0.0161 0.0000 ( 19481 PWs)   bands (ev):

   -66.2759 -66.1828 -66.1320 -66.1281 -66.1280 -66.1192 -66.0816 -66.0788
   -66.0746 -66.0394 -66.0373 -66.0036 -32.9016 -32.8913 -32.8798 -32.8643
   -32.8306 -32.8232 -32.8146 -32.7972 -32.7853 -32.7573 -32.6527 -32.5441
   -32.5124 -32.5052 -32.4558 -32.4091 -32.4069 -32.3471 -32.3361 -32.3106
   -32.3071 -32.2937 -32.2489 -32.2269 -32.2144 -32.2144 -32.1936 -32.1828
   -32.1794 -32.1533 -32.1501 -32.1220 -32.1023 -32.0870 -32.0586 -32.0201
    -8.5304  -5.0780  -3.7545  -2.8132  -2.2203  -2.0311  -1.8092  -1.8027
    -1.6863  -1.6826  -1.4452  -1.0463  -0.9647  -0.7735  -0.6783  -0.6729
    -0.2392   0.2211   0.2360   0.9421   0.9720   1.0365   1.3827   1.7278
     1.8074   1.9144   1.9198   1.9998   2.0192   2.0776   2.1301   2.3079
     2.6214   2.7071   2.7365   2.7435   2.7930   2.8499   2.9268   2.9437
     3.0138   3.1035

          k = 0.0279 0.0483 0.0000 ( 19485 PWs)   bands (ev):

   -66.2748 -66.1755 -66.1356 -66.1353 -66.1246 -66.1153 -66.0865 -66.0788
   -66.0694 -66.0430 -66.0378 -66.0046 -32.8693 -32.8500 -32.8145 -32.8129
   -32.7856 -32.7764 -32.7707 -32.7539 -32.7154 -32.6944 -32.6511 -32.5603
   -32.5432 -32.5250 -32.4445 -32.4240 -32.4153 -32.3855 -32.3834 -32.3154
   -32.3118 -32.2919 -32.2735 -32.2632 -32.2557 -32.2377 -32.2157 -32.2018
   -32.1919 -32.1727 -32.1639 -32.1515 -32.1440 -32.1164 -32.0985 -32.0437
    -8.5083  -4.6499  -3.4469  -2.5520  -2.1534  -2.0868  -1.7934  -1.5733
    -1.4347  -1.2795  -1.1544  -0.7711  -0.6976  -0.4202  -0.3766  -0.3696
    -0.0743   0.2988   0.3946   0.7350   0.8146   0.9545   1.1636   1.4428
     1.4772   1.5572   1.6927   1.7212   1.9827   2.1012   2.1374   2.2302
     2.2496   2.3037   2.3743   2.4675   2.6620   2.7059   2.7408   2.9444
     3.0440   3.1377

          k = 0.0279-0.1128 0.0000 ( 19521 PWs)   bands (ev):

   -66.2737 -66.1629 -66.1482 -66.1374 -66.1226 -66.1090 -66.0940 -66.0787
   -66.0612 -66.0496 -66.0387 -66.0054 -32.8272 -32.7856 -32.7629 -32.7473
   -32.7302 -32.7216 -32.6962 -32.6852 -32.6450 -32.6277 -32.5913 -32.5803
   -32.5686 -32.5442 -32.5008 -32.4781 -32.4319 -32.4092 -32.3891 -32.3780
   -32.3635 -32.3401 -32.3235 -32.2948 -32.2853 -32.2601 -32.2362 -32.2272
   -32.2155 -32.1931 -32.1781 -32.1709 -32.1507 -32.1337 -32.1194 -32.0797
    -8.4872  -3.8878  -3.1563  -2.8110  -2.1336  -2.0217  -1.5668  -1.2209
    -0.9965  -0.7906  -0.6934  -0.5390  -0.2529  -0.0047   0.1076   0.1295
     0.1773   0.3514   0.4654   0.6403   0.7052   0.7477   0.8472   0.9651
     1.1078   1.1612   1.2237   1.3590   1.5068   1.6400   1.6829   1.7662
     1.8256   2.0006   2.0525   2.2483   2.4686   2.5783   2.7206   2.9293
     3.1045   3.2857

          k = 0.0279-0.0806 0.0000 ( 19521 PWs)   bands (ev):

   -66.2737 -66.1629 -66.1482 -66.1374 -66.1226 -66.1090 -66.0940 -66.0787
   -66.0612 -66.0496 -66.0387 -66.0054 -32.8272 -32.7856 -32.7629 -32.7473
   -32.7302 -32.7216 -32.6962 -32.6852 -32.6450 -32.6277 -32.5913 -32.5803
   -32.5686 -32.5442 -32.5008 -32.4781 -32.4319 -32.4092 -32.3891 -32.3780
   -32.3635 -32.3401 -32.3235 -32.2948 -32.2853 -32.2601 -32.2362 -32.2272
   -32.2155 -32.1931 -32.1781 -32.1709 -32.1507 -32.1337 -32.1194 -32.0797
    -8.4872  -3.8878  -3.1563  -2.8110  -2.1336  -2.0217  -1.5668  -1.2209
    -0.9965  -0.7906  -0.6934  -0.5390  -0.2529  -0.0047   0.1076   0.1295
     0.1773   0.3514   0.4654   0.6403   0.7052   0.7477   0.8472   0.9651
     1.1078   1.1612   1.2237   1.3590   1.5068   1.6400   1.6829   1.7662
     1.8256   2.0006   2.0525   2.2483   2.4686   2.5783   2.7206   2.9293
     3.1045   3.2857

          k = 0.0279-0.0483 0.0000 ( 19485 PWs)   bands (ev):

   -66.2748 -66.1755 -66.1356 -66.1353 -66.1246 -66.1153 -66.0865 -66.0788
   -66.0694 -66.0431 -66.0378 -66.0046 -32.8693 -32.8500 -32.8145 -32.8129
   -32.7856 -32.7764 -32.7707 -32.7539 -32.7154 -32.6944 -32.6511 -32.5603
   -32.5432 -32.5250 -32.4445 -32.4241 -32.4153 -32.3855 -32.3834 -32.3154
   -32.3118 -32.2919 -32.2735 -32.2632 -32.2557 -32.2377 -32.2157 -32.2018
   -32.1919 -32.1727 -32.1639 -32.1515 -32.1440 -32.1164 -32.0984 -32.0437
    -8.5083  -4.6499  -3.4469  -2.5520  -2.1534  -2.0868  -1.7934  -1.5733
    -1.4347  -1.2795  -1.1544  -0.7711  -0.6976  -0.4202  -0.3766  -0.3696
    -0.0743   0.2988   0.3946   0.7350   0.8146   0.9545   1.1636   1.4428
     1.4772   1.5572   1.6927   1.7212   1.9827   2.1012   2.1374   2.2302
     2.2496   2.3037   2.3743   2.4675   2.6620   2.7059   2.7408   2.9444
     3.0440   3.1377

          k = 0.0558-0.0322 0.0000 ( 19517 PWs)   bands (ev):

   -66.2744 -66.1721 -66.1428 -66.1281 -66.1280 -66.1137 -66.0884 -66.0788
   -66.0672 -66.0456 -66.0372 -66.0050 -32.8560 -32.8298 -32.8150 -32.7791
   -32.7764 -32.7563 -32.7434 -32.7365 -32.7125 -32.6497 -32.6419 -32.5632
   -32.5433 -32.5422 -32.4401 -32.4201 -32.4053 -32.3867 -32.3766 -32.3726
   -32.3526 -32.3142 -32.2797 -32.2742 -32.2562 -32.2542 -32.2216 -32.2095
   -32.1975 -32.1876 -32.1762 -32.1589 -32.1318 -32.1270 -32.1094 -32.0444
    -8.5012  -4.4508  -3.3371  -2.6733  -2.3511  -1.7685  -1.5387  -1.4485
    -1.3585  -1.2341  -1.1179  -0.7898  -0.4610  -0.3130  -0.2423  -0.2137
     0.0365   0.3583   0.3975   0.7088   0.7743   0.9024   1.0054   1.2834
     1.3839   1.4464   1.5400   1.6556   1.9976   2.0186   2.0597   2.1064
     2.1909   2.2009   2.2628   2.3542   2.5588   2.6505   2.6526   2.8681
     2.9867   3.2048

          k = 0.0558 0.0000 0.0000 ( 19485 PWs)   bands (ev):

   -66.2748 -66.1755 -66.1356 -66.1353 -66.1246 -66.1153 -66.0865 -66.0788
   -66.0694 -66.0430 -66.0378 -66.0046 -32.8693 -32.8500 -32.8145 -32.8129
   -32.7856 -32.7764 -32.7707 -32.7539 -32.7154 -32.6944 -32.6511 -32.5603
   -32.5432 -32.5250 -32.4445 -32.4241 -32.4153 -32.3855 -32.3834 -32.3154
   -32.3118 -32.2919 -32.2735 -32.2632 -32.2557 -32.2377 -32.2157 -32.2018
   -32.1919 -32.1727 -32.1639 -32.1515 -32.1440 -32.1164 -32.0984 -32.0437
    -8.5083  -4.6499  -3.4469  -2.5520  -2.1534  -2.0868  -1.7934  -1.5733
    -1.4347  -1.2795  -1.1544  -0.7711  -0.6976  -0.4202  -0.3766  -0.3696
    -0.0743   0.2988   0.3946   0.7350   0.8146   0.9545   1.1636   1.4428
     1.4772   1.5572   1.6927   1.7212   1.9827   2.1012   2.1374   2.2302
     2.2496   2.3037   2.3743   2.4675   2.6620   2.7059   2.7408   2.9444
     3.0440   3.1377

          k = 0.0558 0.0322 0.0000 ( 19517 PWs)   bands (ev):

   -66.2744 -66.1721 -66.1428 -66.1281 -66.1280 -66.1137 -66.0884 -66.0788
   -66.0672 -66.0456 -66.0372 -66.0050 -32.8560 -32.8298 -32.8150 -32.7791
   -32.7764 -32.7563 -32.7434 -32.7365 -32.7125 -32.6497 -32.6419 -32.5632
   -32.5433 -32.5422 -32.4401 -32.4201 -32.4053 -32.3867 -32.3766 -32.3726
   -32.3526 -32.3142 -32.2797 -32.2742 -32.2562 -32.2542 -32.2216 -32.2095
   -32.1975 -32.1876 -32.1762 -32.1589 -32.1318 -32.1270 -32.1094 -32.0444
    -8.5012  -4.4508  -3.3371  -2.6733  -2.3511  -1.7685  -1.5387  -1.4485
    -1.3585  -1.2340  -1.1179  -0.7898  -0.4610  -0.3130  -0.2423  -0.2137
     0.0365   0.3583   0.3975   0.7088   0.7743   0.9024   1.0054   1.2834
     1.3839   1.4464   1.5400   1.6556   1.9976   2.0186   2.0597   2.1064
     2.1909   2.2009   2.2628   2.3542   2.5588   2.6505   2.6526   2.8681
     2.9866   3.2047

          k = 0.0558-0.1289 0.0000 ( 19521 PWs)   bands (ev):

   -66.2737 -66.1629 -66.1482 -66.1374 -66.1226 -66.1090 -66.0940 -66.0787
   -66.0612 -66.0496 -66.0387 -66.0054 -32.8272 -32.7856 -32.7629 -32.7473
   -32.7302 -32.7216 -32.6962 -32.6852 -32.6450 -32.6277 -32.5913 -32.5803
   -32.5686 -32.5442 -32.5008 -32.4781 -32.4319 -32.4092 -32.3891 -32.3780
   -32.3635 -32.3401 -32.3234 -32.2948 -32.2853 -32.2601 -32.2362 -32.2272
   -32.2155 -32.1931 -32.1781 -32.1709 -32.1507 -32.1337 -32.1194 -32.0797
    -8.4872  -3.8878  -3.1563  -2.8110  -2.1336  -2.0217  -1.5668  -1.2209
    -0.9965  -0.7906  -0.6934  -0.5390  -0.2529  -0.0047   0.1076   0.1295
     0.1773   0.3514   0.4654   0.6403   0.7052   0.7477   0.8472   0.9651
     1.1078   1.1612   1.2237   1.3590   1.5068   1.6400   1.6829   1.7662
     1.8256   2.0006   2.0525   2.2483   2.4686   2.5783   2.7206   2.9293
     3.1045   3.2856

          k = 0.0558-0.0967 0.0000 ( 19521 PWs)   bands (ev):

   -66.2734 -66.1506 -66.1501 -66.1497 -66.1207 -66.1027 -66.1008 -66.0786
   -66.0553 -66.0535 -66.0406 -66.0055 -32.8080 -32.7469 -32.7337 -32.7078
   -32.7078 -32.6974 -32.6679 -32.6421 -32.6403 -32.6120 -32.6077 -32.5642
   -32.5380 -32.5342 -32.5162 -32.5105 -32.5073 -32.5001 -32.4097 -32.3834
   -32.3621 -32.3537 -32.3419 -32.2755 -32.2684 -32.2494 -32.2348 -32.2272
   -32.2183 -32.1900 -32.1858 -32.1835 -32.1776 -32.1345 -32.1305 -32.1185
    -8.4803  -3.2912  -2.9785  -2.9611  -2.6697  -1.6880  -1.6557  -1.2289
    -0.4820  -0.3892  -0.2948  -0.2329  -0.2283  -0.1066   0.0409   0.2801
     0.4066   0.4071   0.4496   0.5555   0.5727   0.6265   0.6596   0.7002
     0.7831   1.0513   1.0591   1.3688   1.3754   1.3967   1.4597   1.5197
     1.6337   1.8275   1.9113   1.9709   2.6736   2.7564   2.9984   3.0368
     3.1489   3.2049

          k = 0.0558-0.0645 0.0000 ( 19521 PWs)   bands (ev):

   -66.2737 -66.1629 -66.1482 -66.1374 -66.1226 -66.1090 -66.0940 -66.0787
   -66.0612 -66.0496 -66.0387 -66.0054 -32.8272 -32.7856 -32.7629 -32.7473
   -32.7302 -32.7216 -32.6962 -32.6852 -32.6450 -32.6277 -32.5913 -32.5803
   -32.5686 -32.5442 -32.5008 -32.4781 -32.4319 -32.4092 -32.3891 -32.3780
   -32.3635 -32.3401 -32.3235 -32.2948 -32.2853 -32.2601 -32.2362 -32.2272
   -32.2155 -32.1931 -32.1781 -32.1709 -32.1507 -32.1337 -32.1194 -32.0797
    -8.4872  -3.8878  -3.1563  -2.8110  -2.1336  -2.0217  -1.5668  -1.2209
    -0.9965  -0.7906  -0.6934  -0.5390  -0.2529  -0.0047   0.1076   0.1295
     0.1773   0.3514   0.4654   0.6403   0.7052   0.7477   0.8472   0.9651
     1.1078   1.1612   1.2237   1.3590   1.5068   1.6400   1.6829   1.7662
     1.8256   2.0006   2.0525   2.2483   2.4686   2.5783   2.7206   2.9293
     3.1045   3.2856

          k =-0.0837 0.0483 0.0000 ( 19532 PWs)   bands (ev):

   -66.2737 -66.1578 -66.1572 -66.1281 -66.1280 -66.1094 -66.0935 -66.0788
   -66.0601 -66.0521 -66.0372 -66.0056 -32.8265 -32.7878 -32.7622 -32.7587
   -32.7474 -32.7316 -32.6886 -32.6818 -32.6600 -32.6169 -32.5816 -32.5815
   -32.5514 -32.4889 -32.4629 -32.4449 -32.4360 -32.4201 -32.4125 -32.4070
   -32.3774 -32.3344 -32.3335 -32.3233 -32.3213 -32.2891 -32.2390 -32.2058
   -32.1997 -32.1985 -32.1820 -32.1743 -32.1468 -32.1363 -32.0952 -32.0680
    -8.4871  -3.6484  -3.5196  -2.9614  -2.1614  -1.6793  -1.2441  -1.2253
    -1.0328  -0.8912  -0.8788  -0.7409  -0.2656   0.0344   0.2483   0.2954
     0.3166   0.3428   0.3953   0.4446   0.7801   0.8825   0.9124   0.9571
     1.0821   1.0849   1.3570   1.4370   1.5246   1.5518   1.7404   1.7794
     1.7881   1.8356   2.0453   2.3779   2.4004   2.4814   2.5347   2.9415
     3.0866   3.3647

          k =-0.0837 0.0806 0.0000 ( 19521 PWs)   bands (ev):

   -66.2737 -66.1629 -66.1482 -66.1374 -66.1226 -66.1090 -66.0940 -66.0787
   -66.0612 -66.0496 -66.0387 -66.0054 -32.8272 -32.7856 -32.7629 -32.7473
   -32.7302 -32.7216 -32.6962 -32.6852 -32.6450 -32.6277 -32.5913 -32.5803
   -32.5686 -32.5442 -32.5008 -32.4781 -32.4319 -32.4092 -32.3891 -32.3780
   -32.3635 -32.3401 -32.3235 -32.2948 -32.2853 -32.2601 -32.2362 -32.2272
   -32.2155 -32.1931 -32.1781 -32.1709 -32.1507 -32.1337 -32.1194 -32.0797
    -8.4872  -3.8878  -3.1563  -2.8110  -2.1336  -2.0217  -1.5668  -1.2209
    -0.9965  -0.7906  -0.6934  -0.5390  -0.2529  -0.0047   0.1076   0.1295
     0.1773   0.3514   0.4654   0.6403   0.7052   0.7477   0.8472   0.9651
     1.1078   1.1612   1.2237   1.3590   1.5068   1.6400   1.6829   1.7662
     1.8256   2.0006   2.0525   2.2483   2.4686   2.5783   2.7206   2.9293
     3.1045   3.2857

          k =-0.0837 0.1128 0.0000 ( 19521 PWs)   bands (ev):

   -66.2737 -66.1629 -66.1482 -66.1374 -66.1226 -66.1090 -66.0940 -66.0787
   -66.0612 -66.0496 -66.0387 -66.0054 -32.8272 -32.7856 -32.7629 -32.7473
   -32.7302 -32.7216 -32.6962 -32.6852 -32.6450 -32.6277 -32.5913 -32.5803
   -32.5686 -32.5442 -32.5008 -32.4781 -32.4319 -32.4092 -32.3891 -32.3780
   -32.3635 -32.3401 -32.3234 -32.2948 -32.2853 -32.2601 -32.2362 -32.2272
   -32.2155 -32.1931 -32.1781 -32.1709 -32.1507 -32.1337 -32.1194 -32.0797
    -8.4872  -3.8878  -3.1563  -2.8110  -2.1336  -2.0217  -1.5668  -1.2209
    -0.9965  -0.7906  -0.6934  -0.5390  -0.2529  -0.0047   0.1076   0.1295
     0.1773   0.3514   0.4654   0.6403   0.7052   0.7477   0.8472   0.9651
     1.1078   1.1612   1.2237   1.3590   1.5068   1.6400   1.6829   1.7662
     1.8256   2.0006   2.0525   2.2483   2.4686   2.5783   2.7206   2.9293
     3.1045   3.2856

          k =-0.0837-0.0483 0.0000 ( 19532 PWs)   bands (ev):

   -66.2737 -66.1578 -66.1572 -66.1281 -66.1280 -66.1094 -66.0935 -66.0788
   -66.0601 -66.0521 -66.0372 -66.0056 -32.8265 -32.7878 -32.7622 -32.7587
   -32.7474 -32.7316 -32.6886 -32.6818 -32.6600 -32.6169 -32.5816 -32.5815
   -32.5514 -32.4889 -32.4629 -32.4449 -32.4360 -32.4201 -32.4125 -32.4070
   -32.3774 -32.3344 -32.3335 -32.3233 -32.3213 -32.2891 -32.2390 -32.2058
   -32.1997 -32.1985 -32.1820 -32.1743 -32.1468 -32.1363 -32.0952 -32.0680
    -8.4871  -3.6484  -3.5196  -2.9614  -2.1614  -1.6793  -1.2441  -1.2253
    -1.0328  -0.8912  -0.8788  -0.7409  -0.2656   0.0344   0.2483   0.2954
     0.3166   0.3428   0.3953   0.4446   0.7801   0.8825   0.9124   0.9571
     1.0821   1.0849   1.3570   1.4370   1.5246   1.5518   1.7404   1.7794
     1.7881   1.8356   2.0453   2.3779   2.4004   2.4814   2.5347   2.9415
     3.0866   3.3647

     the Fermi energy is     2.1347 ev

!    total energy              =   -1731.09151290 Ry
     Harris-Foulkes estimate   =   -1731.09151123 Ry
     estimated scf accuracy    <       0.00000445 Ry

     The total energy is the sum of the following terms:

     one-electron contribution =  -11650.97303795 Ry
     hartree contribution      =    5810.22411254 Ry
     xc contribution           =    -527.08871670 Ry
     ewald contribution        =    4636.84765308 Ry
     electric field correction =       0.00001341 Ry
     smearing contrib. (-TS)   =      -0.10153729 Ry

     convergence has been achieved in  17 iterations
 
 BEEF-vdW xc energy contributions
           1 :   -463.939381818919     
           2 :    428.220058128847     
           3 :   -365.890100356682     
           4 :    291.381306452885     
           5 :   -219.141097992444     
           6 :    159.203043414050     
           7 :   -115.190843426079     
           8 :    85.1382974480794     
           9 :   -64.2192450270924     
          10 :    47.7816430628396     
          11 :   -33.2609790545059     
          12 :    20.3994379665963     
          13 :   -10.1734035755583     
          14 :    3.38126278059713     
          15 :   0.226811802813984     
          16 :   -1.90691555374121     
          17 :    3.19269632424766     
          18 :   -5.05191154978934     
          19 :    7.46095288031324     
          20 :   -9.60941056451202     
          21 :    10.5543245722118     
          22 :   -9.89555185979532     
          23 :    8.06590262646671     
          24 :   -6.08710923643633     
          25 :    4.97329531049229     
          26 :   -5.16397123080532     
          27 :    6.32363194861881     
          28 :   -7.60150644557734     
          29 :    8.16358687328011     
          30 :   -7.66293759964037     
          31 :   -41.5656390938748     
          32 :   -30.8585308178239     

     Forces acting on atoms (Ry/au):


     negative rho (up, down):  1.178E+00 0.000E+00
     atom    1 type  1   force =     0.00000016   -0.00000122    0.00327066
     atom    2 type  1   force =     0.00000074    0.00109948    0.00530815
     atom    3 type  1   force =     0.00095412   -0.00054957    0.00530882
     atom    4 type  1   force =    -0.00095364   -0.00054878    0.00530956
     atom    5 type  1   force =    -0.00109004    0.00062973    0.00263639
     atom    6 type  1   force =     0.00108926    0.00062789    0.00263711
     atom    7 type  1   force =    -0.00000232    0.00000014   -0.00193571
     atom    8 type  1   force =     0.00000125   -0.00125787    0.00263562
     atom    9 type  1   force =    -0.00081536   -0.00047005    0.04866246
     atom   10 type  1   force =     0.00081572   -0.00047028    0.04865908
     atom   11 type  1   force =     0.00000048    0.00094123    0.04865942
     atom   12 type  1   force =    -0.00000061   -0.00000149   -0.01982267
     atom   13 type  2   force =     0.00000011    0.00000067   -0.14072617
     atom   14 type  3   force =     0.00000012    0.00000012   -0.01060272

     Total force =     0.165576     Total SCF correction =     0.007623


     entering subroutine stress ...


     negative rho (up, down):  1.178E+00 0.000E+00
          total   stress  (Ry/bohr**3)                   (kbar)     P=  -35.24
  -0.00026762   0.00000000   0.00000000        -39.37      0.00      0.00
   0.00000000  -0.00026762   0.00000000          0.00    -39.37      0.00
   0.00000000   0.00000000  -0.00018348          0.00      0.00    -26.99


     BFGS Geometry Optimization

     number of scf cycles    =   1
     number of bfgs steps    =   0

     energy   new            =   -1731.0915129019 Ry

     new trust radius        =       0.1407261724 bohr
     new conv_thr            =       0.0000099958 Ry


ATOMIC_POSITIONS (crystal)
Ta1      0.166666667   0.166666667   0.401991699    0   0   0
Ta1      0.666666667   0.166666667   0.401991699    0   0   0
Ta1      0.166666667   0.666666667   0.401991699    0   0   0
Ta1      0.666666667   0.666666667   0.401991699    0   0   0
Ta1      0.833333333   0.333333333   0.500000000    0   0   0
Ta1      0.333333333   0.333333333   0.500000000    0   0   0
Ta1      0.833333333   0.833333333   0.500000000    0   0   0
Ta1      0.333333333   0.833333333   0.500000000    0   0   0
Ta1     -0.000048201  -0.000048094   0.599043473
Ta1      0.500096340  -0.000048118   0.599043401
Ta1     -0.000048110   0.500096305   0.599043408
Ta1      0.500000022   0.499999847   0.597586624
C1       0.166666642   0.166666735   0.659293179
H1       0.166666671   0.166666679   0.706280315



     Writing output data file calc.save
     Check: negative starting charge=   -1.121492
     NEW-OLD atomic charge density approx. for the potential
     Check: negative starting charge=   -1.119554

     negative rho (up, down):  1.175E+00 0.000E+00
 
     Adding external electric field

     Computed dipole along edir(3) : 
        Dipole                0.0745 Ry au,          0.1894 Debye
        Dipole field          0.0002 Ry au
 
        Potential amp.       -0.0166 Ry
        Total length         45.8339 bohr
 

     total cpu time spent up to now is      643.5 secs

     per-process dynamical memory:    93.6 Mb

     Self-consistent Calculation

     iteration #  1     ecut=    36.75 Ry     beta=0.30
     Davidson diagonalization with overlap
     ethr =  1.00E-06,  avg # of iterations =  9.9

     negative rho (up, down):  1.175E+00 0.000E+00
 
     Adding external electric field

     Computed dipole along edir(3) : 
        Dipole               -0.7041 Ry au,         -1.7896 Debye
        Dipole field         -0.0017 Ry au
 
        Potential amp.        0.1564 Ry
        Total length         45.8339 bohr
 

     total cpu time spent up to now is      684.9 secs

     total energy              =   -1731.07618319 Ry
     Harris-Foulkes estimate   =   -1731.11208864 Ry
     estimated scf accuracy    <       0.07495946 Ry

     iteration #  2     ecut=    36.75 Ry     beta=0.30
     Davidson diagonalization with overlap
     ethr =  4.66E-05,  avg # of iterations =  7.5

     negative rho (up, down):  1.175E+00 0.000E+00
 
     Adding external electric field

     Computed dipole along edir(3) : 
        Dipole                0.0837 Ry au,          0.2127 Debye
        Dipole field          0.0002 Ry au
 
        Potential amp.       -0.0186 Ry
        Total length         45.8339 bohr
 

     total cpu time spent up to now is      721.7 secs

     total energy              =   -1730.67947354 Ry
     Harris-Foulkes estimate   =   -1731.61679165 Ry
     estimated scf accuracy    <      39.10284256 Ry

     iteration #  3     ecut=    36.75 Ry     beta=0.30
     Davidson diagonalization with overlap
     ethr =  4.66E-05,  avg # of iterations =  6.2

     negative rho (up, down):  1.175E+00 0.000E+00
 
     Adding external electric field

     Computed dipole along edir(3) : 
        Dipole                0.0788 Ry au,          0.2004 Debye
        Dipole field          0.0002 Ry au
 
        Potential amp.       -0.0175 Ry
        Total length         45.8339 bohr
 

     total cpu time spent up to now is      756.5 secs

     total energy              =   -1731.10935576 Ry
     Harris-Foulkes estimate   =   -1731.11218251 Ry
     estimated scf accuracy    <       0.02015197 Ry

     iteration #  4     ecut=    36.75 Ry     beta=0.30
     Davidson diagonalization with overlap
     ethr =  1.25E-05,  avg # of iterations =  3.0

     negative rho (up, down):  1.175E+00 0.000E+00
 
     Adding external electric field

     Computed dipole along edir(3) : 
        Dipole                0.0854 Ry au,          0.2171 Debye
        Dipole field          0.0002 Ry au
 
        Potential amp.       -0.0190 Ry
        Total length         45.8339 bohr
 

     total cpu time spent up to now is      785.6 secs

     total energy              =   -1731.11077009 Ry
     Harris-Foulkes estimate   =   -1731.11139501 Ry
     estimated scf accuracy    <       0.00696127 Ry

     iteration #  5     ecut=    36.75 Ry     beta=0.30
     Davidson diagonalization with overlap
     ethr =  4.32E-06,  avg # of iterations =  2.2

     negative rho (up, down):  1.175E+00 0.000E+00
 
     Adding external electric field

     Computed dipole along edir(3) : 
        Dipole                0.0812 Ry au,          0.2063 Debye
        Dipole field          0.0002 Ry au
 
        Potential amp.       -0.0180 Ry
        Total length         45.8339 bohr
 

     total cpu time spent up to now is      814.5 secs

     total energy              =   -1731.11110697 Ry
     Harris-Foulkes estimate   =   -1731.11114928 Ry
     estimated scf accuracy    <       0.00054948 Ry

     iteration #  6     ecut=    36.75 Ry     beta=0.30
     Davidson diagonalization with overlap
     ethr =  3.41E-07,  avg # of iterations =  5.7

     negative rho (up, down):  1.175E+00 0.000E+00
 
     Adding external electric field

     Computed dipole along edir(3) : 
        Dipole                0.0780 Ry au,          0.1981 Debye
        Dipole field          0.0002 Ry au
 
        Potential amp.       -0.0173 Ry
        Total length         45.8339 bohr
 

     total cpu time spent up to now is      848.9 secs

     total energy              =   -1731.11116229 Ry
     Harris-Foulkes estimate   =   -1731.11116565 Ry
     estimated scf accuracy    <       0.00013489 Ry

     iteration #  7     ecut=    36.75 Ry     beta=0.30
     Davidson diagonalization with overlap
     ethr =  8.38E-08,  avg # of iterations =  3.3

     negative rho (up, down):  1.175E+00 0.000E+00
 
     Adding external electric field

     Computed dipole along edir(3) : 
        Dipole                0.0743 Ry au,          0.1890 Debye
        Dipole field          0.0002 Ry au
 
        Potential amp.       -0.0165 Ry
        Total length         45.8339 bohr
 

     total cpu time spent up to now is      882.5 secs

     total energy              =   -1731.11117334 Ry
     Harris-Foulkes estimate   =   -1731.11117566 Ry
     estimated scf accuracy    <       0.00003771 Ry

     iteration #  8     ecut=    36.75 Ry     beta=0.30
     Davidson diagonalization with overlap
     ethr =  2.34E-08,  avg # of iterations =  3.4

     negative rho (up, down):  1.175E+00 0.000E+00
 
     Adding external electric field

     Computed dipole along edir(3) : 
        Dipole                0.0725 Ry au,          0.1842 Debye
        Dipole field          0.0002 Ry au
 
        Potential amp.       -0.0161 Ry
        Total length         45.8339 bohr
 

     total cpu time spent up to now is      916.8 secs

     total energy              =   -1731.11117892 Ry
     Harris-Foulkes estimate   =   -1731.11117832 Ry
     estimated scf accuracy    <       0.00002164 Ry

     iteration #  9     ecut=    36.75 Ry     beta=0.30
     Davidson diagonalization with overlap
     ethr =  1.34E-08,  avg # of iterations =  2.6

     negative rho (up, down):  1.175E+00 0.000E+00

     negative rho (up, down):  1.175E+00 0.000E+00

     negative rho (up, down):  1.175E+00 0.000E+00

     negative rho (up, down):  1.175E+00 0.000E+00

     negative rho (up, down):  1.175E+00 0.000E+00

     negative rho (up, down):  1.175E+00 0.000E+00

     negative rho (up, down):  1.175E+00 0.000E+00

     negative rho (up, down):  1.175E+00 0.000E+00

     negative rho (up, down):  1.175E+00 0.000E+00

     negative rho (up, down):  1.175E+00 0.000E+00

     negative rho (up, down):  1.175E+00 0.000E+00

     negative rho (up, down):  1.175E+00 0.000E+00

     negative rho (up, down):  1.175E+00 0.000E+00

     negative rho (up, down):  1.175E+00 0.000E+00

     negative rho (up, down):  1.175E+00 0.000E+00

     negative rho (up, down):  1.175E+00 0.000E+00

     negative rho (up, down):  1.175E+00 0.000E+00

     negative rho (up, down):  1.175E+00 0.000E+00

     negative rho (up, down):  1.175E+00 0.000E+00

     negative rho (up, down):  1.175E+00 0.000E+00

     negative rho (up, down):  1.175E+00 0.000E+00

     negative rho (up, down):  1.175E+00 0.000E+00

     negative rho (up, down):  1.175E+00 0.000E+00

     negative rho (up, down):  1.175E+00 0.000E+00

     negative rho (up, down):  1.175E+00 0.000E+00

     negative rho (up, down):  1.175E+00 0.000E+00

     negative rho (up, down):  1.175E+00 0.000E+00

     negative rho (up, down):  1.175E+00 0.000E+00

     negative rho (up, down):  1.175E+00 0.000E+00

     negative rho (up, down):  1.175E+00 0.000E+00

     negative rho (up, down):  1.175E+00 0.000E+00

     negative rho (up, down):  1.175E+00 0.000E+00

     negative rho (up, down):  1.175E+00 0.000E+00

     negative rho (up, down):  1.175E+00 0.000E+00

     negative rho (up, down):  1.175E+00 0.000E+00
 
     Adding external electric field

     Computed dipole along edir(3) : 
        Dipole                0.0828 Ry au,          0.2105 Debye
        Dipole field          0.0002 Ry au
 
        Potential amp.       -0.0184 Ry
        Total length         45.8339 bohr
 

     total cpu time spent up to now is      998.8 secs

     End of self-consistent calculation

          k = 0.0000 0.0000 0.0000 ( 19447 PWs)   bands (ev):

   -66.2214 -66.1670 -66.1085 -66.1085 -66.1084 -66.0822 -66.0544 -66.0375
   -66.0375 -66.0165 -66.0165 -65.9862 -32.8966 -32.8826 -32.8826 -32.8578
   -32.8220 -32.8220 -32.8142 -32.7958 -32.7958 -32.7560 -32.6126 -32.4983
   -32.4700 -32.4700 -32.4383 -32.3857 -32.3857 -32.2911 -32.2911 -32.2854
   -32.2347 -32.2347 -32.2134 -32.2110 -32.2110 -32.2077 -32.1492 -32.1374
   -32.1374 -32.1330 -32.0835 -32.0835 -32.0407 -32.0407 -31.9869 -31.9869
    -8.4206  -5.2381  -3.8613  -2.9693  -2.3362  -1.9150  -1.9150  -1.8500
    -1.8500  -1.8178  -1.5358  -1.1892  -1.1892  -0.8932  -0.7825  -0.7825
    -0.2165   0.1387   0.1387   1.0462   1.0462   1.1696   1.5081   1.7336
     1.8390   1.8390   2.0457   2.1082   2.2559   2.2559   2.3039   2.5558
     2.5558   2.8422   2.8422   2.8608   2.9431   2.9457   2.9457   3.0470
     3.0470   3.3580

          k = 0.0000 0.0322 0.0000 ( 19481 PWs)   bands (ev):

   -66.2206 -66.1631 -66.1124 -66.1085 -66.1085 -66.0799 -66.0520 -66.0403
   -66.0376 -66.0185 -66.0165 -65.9869 -32.8726 -32.8571 -32.8462 -32.8323
   -32.7992 -32.7937 -32.7877 -32.7709 -32.7573 -32.7218 -32.6127 -32.5128
   -32.4867 -32.4802 -32.4302 -32.3818 -32.3800 -32.3149 -32.3094 -32.2823
   -32.2771 -32.2645 -32.2178 -32.2048 -32.1922 -32.1918 -32.1715 -32.1607
   -32.1601 -32.1269 -32.1269 -32.0973 -32.0735 -32.0519 -32.0343 -31.9957
    -8.3993  -5.0159  -3.6833  -2.8010  -2.1888  -2.0002  -1.7955  -1.7666
    -1.6734  -1.6561  -1.4113  -1.0439  -0.9714  -0.7386  -0.6377  -0.6304
    -0.1488   0.1975   0.2189   0.9289   0.9316   1.1193   1.4093   1.7356
     1.8220   1.9312   1.9344   2.0223   2.0382   2.0899   2.1548   2.3354
     2.6562   2.7455   2.7683   2.7706   2.8191   2.8727   2.9645   2.9814
     3.0633   3.1312

          k = 0.0000 0.0645 0.0000 ( 19517 PWs)   bands (ev):

   -66.2190 -66.1525 -66.1232 -66.1085 -66.1085 -66.0739 -66.0494 -66.0433
   -66.0376 -66.0245 -66.0164 -65.9882 -32.8222 -32.7942 -32.7849 -32.7480
   -32.7469 -32.7294 -32.7136 -32.7098 -32.6786 -32.6164 -32.6072 -32.5314
   -32.5147 -32.5138 -32.4117 -32.3792 -32.3781 -32.3653 -32.3545 -32.3500
   -32.3208 -32.2891 -32.2479 -32.2426 -32.2332 -32.2307 -32.1920 -32.1876
   -32.1774 -32.1663 -32.1569 -32.1338 -32.1075 -32.1061 -32.0776 -32.0197
    -8.3581  -4.3939  -3.2724  -2.6479  -2.3315  -1.7539  -1.5087  -1.4131
    -1.3300  -1.2266  -1.0827  -0.7688  -0.4798  -0.2827  -0.2078  -0.1831
     0.0978   0.3294   0.4007   0.6901   0.7885   0.9367   1.0422   1.3256
     1.4210   1.4674   1.5382   1.6852   2.0135   2.0410   2.0844   2.1310
     2.2127   2.2182   2.2778   2.3782   2.5784   2.6604   2.6696   2.9009
     3.0246   3.2438

          k = 0.0000-0.0967 0.0000 ( 19532 PWs)   bands (ev):

   -66.2182 -66.1381 -66.1377 -66.1085 -66.1085 -66.0690 -66.0542 -66.0376
   -66.0370 -66.0312 -66.0164 -65.9888 -32.7885 -32.7492 -32.7351 -32.7296
   -32.7217 -32.7039 -32.6614 -32.6504 -32.6274 -32.5833 -32.5514 -32.5511
   -32.5052 -32.4624 -32.4413 -32.4112 -32.4059 -32.3887 -32.3850 -32.3786
   -32.3489 -32.3107 -32.3075 -32.3037 -32.2973 -32.2701 -32.2050 -32.1821
   -32.1779 -32.1772 -32.1571 -32.1556 -32.1195 -32.1113 -32.0729 -32.0419
    -8.3381  -3.5759  -3.4893  -2.9158  -2.1522  -1.6548  -1.2245  -1.1915
    -1.0068  -0.8767  -0.8463  -0.7058  -0.3103   0.0656   0.2522   0.3204
     0.3551   0.3660   0.3992   0.4550   0.8198   0.9120   0.9433   0.9673
     1.0951   1.1291   1.3620   1.4687   1.5461   1.5760   1.7636   1.7892
     1.8119   1.8633   2.0582   2.3961   2.4211   2.4986   2.5610   2.9862
     3.1343   3.4097

          k = 0.0279-0.0161 0.0000 ( 19481 PWs)   bands (ev):

   -66.2206 -66.1631 -66.1124 -66.1085 -66.1084 -66.0799 -66.0520 -66.0403
   -66.0376 -66.0185 -66.0165 -65.9869 -32.8726 -32.8571 -32.8462 -32.8323
   -32.7992 -32.7937 -32.7877 -32.7709 -32.7573 -32.7218 -32.6127 -32.5128
   -32.4867 -32.4802 -32.4302 -32.3818 -32.3800 -32.3149 -32.3094 -32.2823
   -32.2771 -32.2645 -32.2178 -32.2048 -32.1922 -32.1918 -32.1715 -32.1607
   -32.1602 -32.1269 -32.1269 -32.0973 -32.0735 -32.0519 -32.0343 -31.9957
    -8.3993  -5.0159  -3.6833  -2.8010  -2.1888  -2.0002  -1.7955  -1.7666
    -1.6734  -1.6561  -1.4113  -1.0439  -0.9714  -0.7386  -0.6377  -0.6304
    -0.1488   0.1975   0.2189   0.9289   0.9316   1.1193   1.4093   1.7356
     1.8220   1.9312   1.9344   2.0223   2.0382   2.0899   2.1548   2.3354
     2.6562   2.7455   2.7683   2.7706   2.8191   2.8727   2.9645   2.9814
     3.0633   3.1312

          k = 0.0279 0.0161 0.0000 ( 19481 PWs)   bands (ev):

   -66.2206 -66.1631 -66.1124 -66.1085 -66.1085 -66.0799 -66.0520 -66.0403
   -66.0376 -66.0185 -66.0165 -65.9869 -32.8726 -32.8571 -32.8462 -32.8323
   -32.7992 -32.7937 -32.7877 -32.7709 -32.7573 -32.7218 -32.6127 -32.5128
   -32.4867 -32.4802 -32.4302 -32.3818 -32.3799 -32.3149 -32.3094 -32.2823
   -32.2772 -32.2645 -32.2178 -32.2048 -32.1922 -32.1918 -32.1715 -32.1607
   -32.1601 -32.1269 -32.1269 -32.0973 -32.0735 -32.0519 -32.0343 -31.9957
    -8.3993  -5.0159  -3.6833  -2.8010  -2.1888  -2.0002  -1.7955  -1.7666
    -1.6734  -1.6561  -1.4113  -1.0439  -0.9714  -0.7386  -0.6377  -0.6304
    -0.1488   0.1975   0.2189   0.9289   0.9316   1.1193   1.4093   1.7356
     1.8220   1.9312   1.9344   2.0223   2.0382   2.0899   2.1548   2.3354
     2.6562   2.7455   2.7683   2.7706   2.8191   2.8727   2.9645   2.9814
     3.0633   3.1312

          k = 0.0279 0.0483 0.0000 ( 19485 PWs)   bands (ev):

   -66.2194 -66.1559 -66.1160 -66.1157 -66.1051 -66.0757 -66.0481 -66.0450
   -66.0373 -66.0219 -66.0171 -65.9879 -32.8373 -32.8154 -32.7826 -32.7797
   -32.7565 -32.7490 -32.7427 -32.7249 -32.6862 -32.6600 -32.6139 -32.5293
   -32.5151 -32.4972 -32.4171 -32.3937 -32.3863 -32.3609 -32.3575 -32.2842
   -32.2831 -32.2649 -32.2451 -32.2396 -32.2327 -32.2045 -32.1924 -32.1817
   -32.1689 -32.1495 -32.1417 -32.1322 -32.1162 -32.0945 -32.0661 -32.0194
    -8.3682  -4.5915  -3.3812  -2.5380  -2.1256  -2.0547  -1.7699  -1.5615
    -1.4070  -1.2483  -1.1249  -0.7657  -0.6886  -0.4015  -0.3474  -0.3298
    -0.0011   0.2726   0.3926   0.7119   0.8007   1.0265   1.1953   1.4770
     1.4933   1.5783   1.7072   1.7485   1.9984   2.1095   2.1651   2.2463
     2.2773   2.3321   2.3962   2.4893   2.6707   2.7235   2.7805   2.9608
     3.0853   3.1733

          k = 0.0279-0.1128 0.0000 ( 19521 PWs)   bands (ev):

   -66.2182 -66.1433 -66.1286 -66.1178 -66.1031 -66.0688 -66.0536 -66.0416
   -66.0355 -66.0279 -66.0181 -65.9886 -32.7894 -32.7514 -32.7314 -32.7176
   -32.7038 -32.6955 -32.6670 -32.6540 -32.6132 -32.5938 -32.5602 -32.5482
   -32.5332 -32.5161 -32.4689 -32.4481 -32.4028 -32.3799 -32.3642 -32.3530
   -32.3366 -32.3144 -32.3008 -32.2667 -32.2601 -32.2316 -32.2108 -32.2031
   -32.1932 -32.1694 -32.1573 -32.1485 -32.1241 -32.1103 -32.0963 -32.0547
    -8.3382  -3.8326  -3.0938  -2.7811  -2.1196  -1.9954  -1.5481  -1.2062
    -0.9632  -0.7641  -0.6753  -0.5095  -0.2800   0.0184   0.1396   0.1685
     0.1997   0.3594   0.4521   0.6660   0.7312   0.7813   0.8716   0.9932
     1.1374   1.1849   1.2382   1.3850   1.5328   1.6536   1.6965   1.7986
     1.8465   2.0208   2.0742   2.2652   2.4839   2.6038   2.7410   2.9586
     3.1455   3.3282

          k = 0.0279-0.0806 0.0000 ( 19521 PWs)   bands (ev):

   -66.2182 -66.1433 -66.1286 -66.1178 -66.1031 -66.0688 -66.0536 -66.0416
   -66.0355 -66.0279 -66.0181 -65.9886 -32.7894 -32.7514 -32.7314 -32.7176
   -32.7037 -32.6955 -32.6670 -32.6540 -32.6132 -32.5938 -32.5602 -32.5482
   -32.5332 -32.5161 -32.4689 -32.4481 -32.4028 -32.3799 -32.3642 -32.3530
   -32.3366 -32.3144 -32.3008 -32.2667 -32.2601 -32.2316 -32.2108 -32.2031
   -32.1932 -32.1694 -32.1573 -32.1485 -32.1241 -32.1103 -32.0963 -32.0547
    -8.3382  -3.8326  -3.0938  -2.7811  -2.1196  -1.9954  -1.5481  -1.2062
    -0.9632  -0.7641  -0.6753  -0.5095  -0.2800   0.0184   0.1396   0.1685
     0.1997   0.3594   0.4521   0.6660   0.7312   0.7813   0.8716   0.9932
     1.1374   1.1849   1.2382   1.3850   1.5328   1.6536   1.6965   1.7986
     1.8465   2.0208   2.0742   2.2652   2.4839   2.6038   2.7410   2.9586
     3.1455   3.3282

          k = 0.0279-0.0483 0.0000 ( 19485 PWs)   bands (ev):

   -66.2194 -66.1559 -66.1159 -66.1158 -66.1051 -66.0757 -66.0481 -66.0450
   -66.0373 -66.0219 -66.0171 -65.9879 -32.8373 -32.8155 -32.7826 -32.7797
   -32.7565 -32.7490 -32.7427 -32.7249 -32.6862 -32.6600 -32.6139 -32.5293
   -32.5151 -32.4972 -32.4171 -32.3937 -32.3863 -32.3609 -32.3575 -32.2842
   -32.2831 -32.2649 -32.2451 -32.2396 -32.2327 -32.2045 -32.1924 -32.1818
   -32.1689 -32.1495 -32.1417 -32.1322 -32.1162 -32.0945 -32.0661 -32.0194
    -8.3682  -4.5915  -3.3812  -2.5380  -2.1256  -2.0547  -1.7699  -1.5615
    -1.4070  -1.2483  -1.1249  -0.7657  -0.6886  -0.4015  -0.3474  -0.3298
    -0.0011   0.2726   0.3926   0.7119   0.8007   1.0266   1.1953   1.4770
     1.4933   1.5783   1.7072   1.7485   1.9984   2.1095   2.1651   2.2463
     2.2773   2.3321   2.3962   2.4893   2.6707   2.7235   2.7805   2.9608
     3.0853   3.1733

          k = 0.0558-0.0322 0.0000 ( 19517 PWs)   bands (ev):

   -66.2190 -66.1525 -66.1232 -66.1085 -66.1085 -66.0739 -66.0494 -66.0433
   -66.0376 -66.0245 -66.0164 -65.9882 -32.8222 -32.7942 -32.7849 -32.7480
   -32.7469 -32.7294 -32.7136 -32.7098 -32.6786 -32.6164 -32.6072 -32.5314
   -32.5147 -32.5138 -32.4117 -32.3792 -32.3781 -32.3653 -32.3545 -32.3500
   -32.3208 -32.2891 -32.2479 -32.2426 -32.2332 -32.2307 -32.1920 -32.1876
   -32.1774 -32.1663 -32.1569 -32.1338 -32.1075 -32.1061 -32.0776 -32.0197
    -8.3581  -4.3939  -3.2724  -2.6479  -2.3315  -1.7539  -1.5087  -1.4131
    -1.3300  -1.2266  -1.0827  -0.7688  -0.4798  -0.2827  -0.2078  -0.1831
     0.0978   0.3294   0.4007   0.6901   0.7885   0.9367   1.0422   1.3256
     1.4210   1.4674   1.5382   1.6852   2.0135   2.0410   2.0844   2.1310
     2.2127   2.2182   2.2778   2.3782   2.5784   2.6604   2.6696   2.9009
     3.0246   3.2438

          k = 0.0558 0.0000 0.0000 ( 19485 PWs)   bands (ev):

   -66.2194 -66.1559 -66.1159 -66.1158 -66.1051 -66.0757 -66.0481 -66.0450
   -66.0373 -66.0219 -66.0171 -65.9879 -32.8373 -32.8155 -32.7826 -32.7797
   -32.7565 -32.7490 -32.7427 -32.7249 -32.6862 -32.6600 -32.6139 -32.5293
   -32.5151 -32.4972 -32.4171 -32.3937 -32.3863 -32.3609 -32.3575 -32.2842
   -32.2831 -32.2649 -32.2451 -32.2396 -32.2327 -32.2045 -32.1924 -32.1817
   -32.1689 -32.1495 -32.1417 -32.1322 -32.1162 -32.0945 -32.0661 -32.0194
    -8.3682  -4.5915  -3.3812  -2.5380  -2.1256  -2.0547  -1.7699  -1.5615
    -1.4070  -1.2483  -1.1249  -0.7657  -0.6886  -0.4015  -0.3474  -0.3298
    -0.0011   0.2726   0.3926   0.7119   0.8007   1.0265   1.1953   1.4770
     1.4933   1.5783   1.7072   1.7485   1.9984   2.1095   2.1651   2.2463
     2.2773   2.3321   2.3961   2.4893   2.6707   2.7235   2.7805   2.9608
     3.0853   3.1733

          k = 0.0558 0.0322 0.0000 ( 19517 PWs)   bands (ev):

   -66.2190 -66.1525 -66.1232 -66.1085 -66.1085 -66.0739 -66.0494 -66.0433
   -66.0376 -66.0245 -66.0164 -65.9882 -32.8222 -32.7942 -32.7849 -32.7480
   -32.7469 -32.7294 -32.7136 -32.7098 -32.6786 -32.6164 -32.6072 -32.5314
   -32.5147 -32.5138 -32.4117 -32.3792 -32.3781 -32.3653 -32.3545 -32.3500
   -32.3208 -32.2891 -32.2479 -32.2426 -32.2332 -32.2307 -32.1920 -32.1876
   -32.1774 -32.1663 -32.1569 -32.1338 -32.1075 -32.1061 -32.0776 -32.0197
    -8.3581  -4.3939  -3.2724  -2.6479  -2.3315  -1.7539  -1.5087  -1.4131
    -1.3300  -1.2266  -1.0827  -0.7688  -0.4798  -0.2827  -0.2078  -0.1831
     0.0978   0.3294   0.4007   0.6901   0.7885   0.9367   1.0422   1.3256
     1.4210   1.4674   1.5382   1.6852   2.0135   2.0410   2.0844   2.1310
     2.2127   2.2182   2.2778   2.3782   2.5784   2.6604   2.6696   2.9009
     3.0246   3.2438

          k = 0.0558-0.1289 0.0000 ( 19521 PWs)   bands (ev):

   -66.2182 -66.1433 -66.1286 -66.1178 -66.1031 -66.0688 -66.0536 -66.0416
   -66.0355 -66.0279 -66.0181 -65.9886 -32.7894 -32.7514 -32.7314 -32.7176
   -32.7037 -32.6955 -32.6670 -32.6540 -32.6132 -32.5938 -32.5602 -32.5482
   -32.5332 -32.5161 -32.4689 -32.4481 -32.4028 -32.3799 -32.3642 -32.3530
   -32.3366 -32.3144 -32.3008 -32.2667 -32.2601 -32.2316 -32.2108 -32.2031
   -32.1932 -32.1694 -32.1573 -32.1485 -32.1241 -32.1103 -32.0963 -32.0547
    -8.3382  -3.8326  -3.0938  -2.7811  -2.1196  -1.9954  -1.5481  -1.2062
    -0.9632  -0.7641  -0.6753  -0.5095  -0.2800   0.0184   0.1396   0.1685
     0.1997   0.3594   0.4521   0.6660   0.7312   0.7813   0.8716   0.9932
     1.1374   1.1849   1.2382   1.3850   1.5328   1.6536   1.6965   1.7986
     1.8465   2.0208   2.0742   2.2652   2.4839   2.6038   2.7410   2.9586
     3.1455   3.3282

          k = 0.0558-0.0967 0.0000 ( 19521 PWs)   bands (ev):

   -66.2178 -66.1309 -66.1306 -66.1302 -66.1011 -66.0628 -66.0596 -66.0413
   -66.0315 -66.0303 -66.0204 -65.9887 -32.7649 -32.7192 -32.7031 -32.6819
   -32.6780 -32.6680 -32.6400 -32.6111 -32.6093 -32.5759 -32.5699 -32.5373
   -32.5088 -32.5041 -32.4932 -32.4750 -32.4727 -32.4663 -32.3795 -32.3629
   -32.3384 -32.3318 -32.3198 -32.2449 -32.2396 -32.2260 -32.2115 -32.1975
   -32.1943 -32.1667 -32.1650 -32.1577 -32.1541 -32.1143 -32.1020 -32.0997
    -8.3285  -3.2031  -2.9523  -2.9314  -2.6364  -1.6939  -1.6395  -1.1924
    -0.5054  -0.4032  -0.2532  -0.2062  -0.1778  -0.0526   0.0240   0.2866
     0.4346   0.4359   0.4902   0.5625   0.6059   0.6701   0.6981   0.7312
     0.7844   1.0408   1.0605   1.3930   1.3975   1.4438   1.4801   1.5547
     1.6482   1.8446   1.9315   1.9910   2.6871   2.7932   3.0050   3.0904
     3.1746   3.2206

          k = 0.0558-0.0645 0.0000 ( 19521 PWs)   bands (ev):

   -66.2182 -66.1433 -66.1286 -66.1178 -66.1031 -66.0688 -66.0536 -66.0416
   -66.0355 -66.0279 -66.0181 -65.9886 -32.7894 -32.7514 -32.7314 -32.7176
   -32.7037 -32.6955 -32.6670 -32.6540 -32.6132 -32.5938 -32.5602 -32.5482
   -32.5332 -32.5161 -32.4689 -32.4481 -32.4028 -32.3799 -32.3642 -32.3530
   -32.3366 -32.3144 -32.3008 -32.2667 -32.2601 -32.2316 -32.2108 -32.2031
   -32.1932 -32.1694 -32.1573 -32.1485 -32.1241 -32.1103 -32.0963 -32.0547
    -8.3382  -3.8326  -3.0938  -2.7811  -2.1196  -1.9954  -1.5481  -1.2062
    -0.9632  -0.7641  -0.6753  -0.5095  -0.2800   0.0184   0.1396   0.1685
     0.1997   0.3594   0.4521   0.6660   0.7312   0.7813   0.8716   0.9932
     1.1374   1.1849   1.2382   1.3850   1.5328   1.6536   1.6965   1.7986
     1.8465   2.0208   2.0742   2.2652   2.4839   2.6038   2.7410   2.9586
     3.1455   3.3282

          k =-0.0837 0.0483 0.0000 ( 19532 PWs)   bands (ev):

   -66.2182 -66.1381 -66.1377 -66.1085 -66.1085 -66.0690 -66.0542 -66.0376
   -66.0370 -66.0312 -66.0164 -65.9888 -32.7885 -32.7492 -32.7351 -32.7296
   -32.7217 -32.7039 -32.6614 -32.6504 -32.6274 -32.5833 -32.5514 -32.5512
   -32.5052 -32.4624 -32.4413 -32.4112 -32.4059 -32.3887 -32.3850 -32.3786
   -32.3489 -32.3107 -32.3075 -32.3037 -32.2973 -32.2701 -32.2050 -32.1821
   -32.1779 -32.1772 -32.1571 -32.1556 -32.1195 -32.1113 -32.0729 -32.0419
    -8.3381  -3.5759  -3.4893  -2.9158  -2.1522  -1.6548  -1.2245  -1.1915
    -1.0068  -0.8767  -0.8463  -0.7058  -0.3103   0.0656   0.2522   0.3204
     0.3551   0.3660   0.3992   0.4550   0.8198   0.9120   0.9433   0.9673
     1.0950   1.1291   1.3620   1.4687   1.5461   1.5760   1.7636   1.7892
     1.8119   1.8633   2.0582   2.3961   2.4211   2.4986   2.5610   2.9862
     3.1343   3.4097

          k =-0.0837 0.0806 0.0000 ( 19521 PWs)   bands (ev):

   -66.2182 -66.1433 -66.1286 -66.1178 -66.1031 -66.0688 -66.0536 -66.0416
   -66.0355 -66.0279 -66.0181 -65.9886 -32.7894 -32.7514 -32.7314 -32.7176
   -32.7037 -32.6955 -32.6670 -32.6540 -32.6132 -32.5938 -32.5602 -32.5482
   -32.5332 -32.5161 -32.4689 -32.4481 -32.4028 -32.3799 -32.3642 -32.3530
   -32.3366 -32.3144 -32.3008 -32.2667 -32.2601 -32.2316 -32.2108 -32.2031
   -32.1932 -32.1694 -32.1573 -32.1485 -32.1241 -32.1103 -32.0963 -32.0547
    -8.3382  -3.8326  -3.0938  -2.7811  -2.1196  -1.9954  -1.5481  -1.2062
    -0.9632  -0.7641  -0.6753  -0.5095  -0.2800   0.0184   0.1396   0.1685
     0.1997   0.3594   0.4521   0.6660   0.7312   0.7813   0.8716   0.9932
     1.1374   1.1849   1.2382   1.3850   1.5328   1.6536   1.6965   1.7986
     1.8465   2.0208   2.0742   2.2652   2.4839   2.6038   2.7410   2.9586
     3.1455   3.3282

          k =-0.0837 0.1128 0.0000 ( 19521 PWs)   bands (ev):

   -66.2182 -66.1433 -66.1286 -66.1178 -66.1031 -66.0688 -66.0536 -66.0416
   -66.0355 -66.0279 -66.0181 -65.9886 -32.7894 -32.7514 -32.7314 -32.7176
   -32.7037 -32.6955 -32.6670 -32.6540 -32.6132 -32.5938 -32.5602 -32.5482
   -32.5332 -32.5161 -32.4689 -32.4481 -32.4028 -32.3799 -32.3642 -32.3530
   -32.3366 -32.3144 -32.3008 -32.2667 -32.2601 -32.2316 -32.2108 -32.2031
   -32.1932 -32.1694 -32.1573 -32.1485 -32.1241 -32.1103 -32.0963 -32.0547
    -8.3382  -3.8326  -3.0938  -2.7811  -2.1196  -1.9954  -1.5481  -1.2062
    -0.9632  -0.7641  -0.6753  -0.5095  -0.2800   0.0184   0.1396   0.1685
     0.1997   0.3594   0.4521   0.6660   0.7312   0.7813   0.8716   0.9932
     1.1374   1.1849   1.2382   1.3850   1.5328   1.6536   1.6965   1.7986
     1.8465   2.0208   2.0742   2.2652   2.4839   2.6038   2.7410   2.9586
     3.1455   3.3282

          k =-0.0837-0.0483 0.0000 ( 19532 PWs)   bands (ev):

   -66.2182 -66.1381 -66.1377 -66.1085 -66.1085 -66.0690 -66.0542 -66.0376
   -66.0370 -66.0312 -66.0164 -65.9888 -32.7885 -32.7492 -32.7351 -32.7296
   -32.7217 -32.7039 -32.6614 -32.6504 -32.6274 -32.5833 -32.5514 -32.5511
   -32.5052 -32.4624 -32.4413 -32.4112 -32.4059 -32.3887 -32.3850 -32.3786
   -32.3488 -32.3107 -32.3075 -32.3037 -32.2973 -32.2701 -32.2050 -32.1821
   -32.1779 -32.1771 -32.1571 -32.1557 -32.1195 -32.1113 -32.0729 -32.0419
    -8.3381  -3.5759  -3.4893  -2.9158  -2.1522  -1.6548  -1.2245  -1.1915
    -1.0068  -0.8767  -0.8463  -0.7058  -0.3103   0.0656   0.2522   0.3204
     0.3551   0.3660   0.3992   0.4550   0.8198   0.9120   0.9433   0.9673
     1.0951   1.1291   1.3620   1.4687   1.5461   1.5760   1.7636   1.7892
     1.8119   1.8633   2.0582   2.3961   2.4211   2.4986   2.5610   2.9862
     3.1343   3.4097

     the Fermi energy is     2.1550 ev

!    total energy              =   -1731.11117765 Ry
     Harris-Foulkes estimate   =   -1731.11117628 Ry
     estimated scf accuracy    <       0.00000432 Ry

     The total energy is the sum of the following terms:

     one-electron contribution =  -11638.71155316 Ry
     hartree contribution      =    5804.28200131 Ry
     xc contribution           =    -527.08293854 Ry
     ewald contribution        =    4630.50248330 Ry
     electric field correction =       0.00001662 Ry
     smearing contrib. (-TS)   =      -0.10118718 Ry

     convergence has been achieved in   9 iterations
 
 BEEF-vdW xc energy contributions
           1 :   -463.937103145356     
           2 :    428.226542108227     
           3 :   -365.907352007985     
           4 :    291.405849353999     
           5 :   -219.167461401083     
           6 :    159.224664943125     
           7 :   -115.200546058006     
           8 :    85.1302114535839     
           9 :   -64.1914478580637     
          10 :    47.7373702440863     
          11 :   -33.2073249473071     
          12 :    20.3439369974918     
          13 :   -10.1204934784689     
          14 :    3.33230313321042     
          15 :   0.270535553488344     
          16 :   -1.94276989685028     
          17 :    3.21690579059555     
          18 :   -5.06001575769022     
          19 :    7.44943815597151     
          20 :   -9.57749306297347     
          21 :    10.5050549566513     
          22 :   -9.83610632274042     
          23 :    8.00640729184749     
          24 :   -6.03784400150744     
          25 :    4.94053657532584     
          26 :   -5.14667159711541     
          27 :    6.31379894649319     
          28 :   -7.58902304685512     
          29 :    8.14288479302638     
          30 :   -7.63655666456168     
          31 :   -41.5655381810685     
          32 :   -30.8602286395965     

     Forces acting on atoms (Ry/au):


     negative rho (up, down):  1.175E+00 0.000E+00
     atom    1 type  1   force =    -0.00000050   -0.00000015    0.00354531
     atom    2 type  1   force =     0.00000082    0.00086086    0.00527260
     atom    3 type  1   force =     0.00074540   -0.00042965    0.00527307
     atom    4 type  1   force =    -0.00074538   -0.00043088    0.00527313
     atom    5 type  1   force =     0.00097006   -0.00055957    0.00677198
     atom    6 type  1   force =    -0.00096999   -0.00055921    0.00677034
     atom    7 type  1   force =     0.00000072   -0.00000064    0.00734284
     atom    8 type  1   force =    -0.00000063    0.00111936    0.00677056
     atom    9 type  1   force =    -0.00347214   -0.00200423    0.03260827
     atom   10 type  1   force =     0.00347178   -0.00200584    0.03260903
     atom   11 type  1   force =    -0.00000141    0.00400949    0.03260866
     atom   12 type  1   force =     0.00000207    0.00000011   -0.02411550
     atom   13 type  2   force =    -0.00000078    0.00000024   -0.04362893
     atom   14 type  3   force =    -0.00000002    0.00000011   -0.07710135

     Total force =     0.108018     Total SCF correction =     0.010804
     SCF correction compared to forces is large: reduce conv_thr to get better values


     entering subroutine stress ...


     negative rho (up, down):  1.175E+00 0.000E+00
          total   stress  (Ry/bohr**3)                   (kbar)     P=  -35.89
  -0.00026308   0.00000000  -0.00000000        -38.70      0.00     -0.00
   0.00000000  -0.00026308   0.00000000          0.00    -38.70      0.00
  -0.00000000   0.00000000  -0.00020578         -0.00      0.00    -30.27


     number of scf cycles    =   2
     number of bfgs steps    =   1

     energy   old            =   -1731.0915129019 Ry
     energy   new            =   -1731.1111776503 Ry

     CASE: energy  _new < energy  _old

     new trust radius        =       0.1826079467 bohr
     new conv_thr            =       0.0000001000 Ry


ATOMIC_POSITIONS (crystal)
Ta1      0.166666667   0.166666667   0.401991699    0   0   0
Ta1      0.666666667   0.166666667   0.401991699    0   0   0
Ta1      0.166666667   0.666666667   0.401991699    0   0   0
Ta1      0.666666667   0.666666667   0.401991699    0   0   0
Ta1      0.833333333   0.333333333   0.500000000    0   0   0
Ta1      0.333333333   0.333333333   0.500000000    0   0   0
Ta1      0.833333333   0.833333333   0.500000000    0   0   0
Ta1      0.333333333   0.833333333   0.500000000    0   0   0
Ta1     -0.000453584  -0.000453284   0.601058613
Ta1      0.500907036  -0.000453621   0.601058517
Ta1     -0.000453631   0.500906961   0.601058516
Ta1      0.500000359   0.499999755   0.596350368
C1       0.166666477   0.166666831   0.655408654
H1       0.166666661   0.166666710   0.703157134



     Writing output data file calc.save
     Check: negative starting charge=   -1.119554
     NEW-OLD atomic charge density approx. for the potential
     Check: negative starting charge=   -1.122282

     negative rho (up, down):  1.178E+00 0.000E+00
 
     Adding external electric field

     Computed dipole along edir(3) : 
        Dipole                0.0830 Ry au,          0.2111 Debye
        Dipole field          0.0002 Ry au
 
        Potential amp.       -0.0185 Ry
        Total length         45.8339 bohr
 

     total cpu time spent up to now is     1135.0 secs

[...]

   -66.0573 -66.0199 -66.0144 -66.0053 -65.9729 -65.9280 -65.9126 -65.9100
   -65.8973 -65.8709 -65.8641 -65.8569 -32.7709 -32.7115 -32.6816 -32.6765
   -32.6534 -32.6449 -32.6383 -32.5951 -32.5530 -32.5357 -32.4722 -32.4232
   -32.4064 -32.3933 -32.2882 -32.2625 -32.2484 -32.2394 -32.2361 -32.1807
   -32.1737 -32.1431 -32.1286 -32.1100 -32.1075 -32.0775 -32.0574 -32.0525
   -32.0215 -32.0169 -32.0091 -31.9938 -31.9844 -31.9551 -31.9313 -31.8702
    -8.9871  -4.5681  -3.5712  -2.5745  -2.1703  -2.0189  -1.7445  -1.6061
    -1.4436  -1.2220  -1.0575  -0.8127  -0.7050  -0.3599  -0.2971  -0.2719
     0.1119   0.2704   0.3722   0.6290   0.7225   1.1450   1.2776   1.5074
     1.5508   1.6236   1.7190   1.8191   2.0299   2.2392   2.2735   2.3334
     2.4066   2.4291   2.4670   2.6094   2.7636   2.8165   2.9680   2.9953
     3.1512   3.2309

          k = 0.0558-0.0322 0.0000 ( 19517 PWs)   bands (ev):

   -66.0540 -66.0248 -66.0110 -66.0071 -65.9706 -65.9291 -65.9138 -65.9086
   -65.8970 -65.8722 -65.8643 -65.8571 -32.7543 -32.6885 -32.6819 -32.6489
   -32.6396 -32.6293 -32.6136 -32.5740 -32.5523 -32.4888 -32.4725 -32.4243
   -32.4069 -32.4063 -32.2770 -32.2602 -32.2471 -32.2409 -32.2407 -32.2108
   -32.2103 -32.1754 -32.1361 -32.1227 -32.1073 -32.0947 -32.0616 -32.0479
   -32.0357 -32.0303 -32.0292 -32.0066 -31.9671 -31.9603 -31.9469 -31.8713
    -8.9732  -4.3791  -3.4802  -2.6569  -2.3169  -1.7984  -1.4848  -1.4479
    -1.3005  -1.2707  -1.0011  -0.7657  -0.5711  -0.2637  -0.1605  -0.1309
     0.1959   0.3104   0.3758   0.6532   0.7489   0.9996   1.1105   1.3808
     1.4518   1.4739   1.5608   1.7872   2.0134   2.0789   2.2003   2.2238
     2.3209   2.3262   2.4023   2.5404   2.6739   2.6929   2.8016   3.1008
     3.1282   3.2214

          k = 0.0558 0.0000 0.0000 ( 19485 PWs)   bands (ev):

   -66.0573 -66.0199 -66.0144 -66.0053 -65.9729 -65.9280 -65.9126 -65.9100
   -65.8973 -65.8709 -65.8641 -65.8569 -32.7709 -32.7115 -32.6816 -32.6765
   -32.6534 -32.6449 -32.6383 -32.5951 -32.5530 -32.5357 -32.4722 -32.4232
   -32.4064 -32.3933 -32.2882 -32.2625 -32.2484 -32.2394 -32.2361 -32.1807
   -32.1737 -32.1431 -32.1286 -32.1100 -32.1075 -32.0775 -32.0574 -32.0525
   -32.0215 -32.0169 -32.0091 -31.9938 -31.9844 -31.9551 -31.9313 -31.8702
    -8.9871  -4.5681  -3.5712  -2.5745  -2.1703  -2.0189  -1.7445  -1.6061
    -1.4436  -1.2220  -1.0575  -0.8127  -0.7050  -0.3599  -0.2971  -0.2719
     0.1119   0.2704   0.3722   0.6290   0.7225   1.1450   1.2776   1.5074
     1.5508   1.6236   1.7190   1.8191   2.0299   2.2392   2.2735   2.3334
     2.4066   2.4291   2.4670   2.6094   2.7636   2.8165   2.9680   2.9953
     3.1512   3.2309

          k = 0.0558 0.0322 0.0000 ( 19517 PWs)   bands (ev):

   -66.0540 -66.0248 -66.0110 -66.0071 -65.9706 -65.9291 -65.9138 -65.9086
   -65.8970 -65.8722 -65.8643 -65.8571 -32.7543 -32.6885 -32.6819 -32.6489
   -32.6396 -32.6293 -32.6136 -32.5740 -32.5523 -32.4888 -32.4725 -32.4243
   -32.4069 -32.4063 -32.2770 -32.2602 -32.2471 -32.2409 -32.2407 -32.2108
   -32.2103 -32.1754 -32.1361 -32.1227 -32.1073 -32.0947 -32.0616 -32.0479
   -32.0357 -32.0303 -32.0292 -32.0066 -31.9671 -31.9603 -31.9469 -31.8713
    -8.9732  -4.3791  -3.4802  -2.6569  -2.3169  -1.7984  -1.4848  -1.4479
    -1.3005  -1.2707  -1.0011  -0.7657  -0.5711  -0.2637  -0.1605  -0.1309
     0.1959   0.3104   0.3758   0.6532   0.7489   0.9996   1.1105   1.3808
     1.4518   1.4739   1.5608   1.7872   2.0134   2.0789   2.2003   2.2238
     2.3209   2.3262   2.4023   2.5404   2.6739   2.6929   2.8016   3.1008
     3.1282   3.2214

          k = 0.0558-0.1289 0.0000 ( 19521 PWs)   bands (ev):

   -66.0452 -66.0297 -66.0184 -66.0036 -65.9657 -65.9307 -65.9137 -65.9110
   -65.8945 -65.8756 -65.8639 -65.8578 -32.7125 -32.6468 -32.6357 -32.6141
   -32.6029 -32.5954 -32.5587 -32.5292 -32.4909 -32.4783 -32.4538 -32.4294
   -32.4191 -32.3825 -32.3590 -32.3209 -32.2783 -32.2560 -32.2362 -32.2272
   -32.2067 -32.1961 -32.1699 -32.1432 -32.1306 -32.1180 -32.0810 -32.0667
   -32.0629 -32.0534 -32.0159 -31.9954 -31.9882 -31.9745 -31.9582 -31.9041
    -8.9458  -3.8571  -3.2868  -2.7864  -2.1533  -1.9631  -1.5165  -1.2239
    -0.9306  -0.7821  -0.6894  -0.5034  -0.4172   0.0029   0.1264   0.2041
     0.2488   0.2958   0.4802   0.6592   0.7786   0.8306   0.9348   1.0089
     1.2012   1.2311   1.2909   1.4836   1.5741   1.6703   1.7586   1.8903
     1.9751   2.0303   2.1478   2.3537   2.5978   2.7454   2.8924   3.1086
     3.2431   3.4009

          k = 0.0558-0.0967 0.0000 ( 19521 PWs)   bands (ev):

   -66.0372 -66.0293 -66.0287 -66.0018 -65.9630 -65.9307 -65.9154 -65.9118
   -65.8924 -65.8778 -65.8634 -65.8583 -32.6744 -32.6397 -32.6069 -32.5811
   -32.5690 -32.5651 -32.5320 -32.5150 -32.5058 -32.4368 -32.4336 -32.4098
   -32.4003 -32.3972 -32.3905 -32.3608 -32.3412 -32.3135 -32.2517 -32.2299
   -32.2107 -32.2106 -32.1759 -32.1360 -32.1275 -32.1212 -32.0800 -32.0673
   -32.0496 -32.0376 -32.0340 -32.0161 -32.0045 -31.9786 -31.9661 -31.9371
    -8.9322  -3.4191  -2.9905  -2.9056  -2.6264  -1.7665  -1.6041  -1.0437
    -0.6886  -0.5902  -0.2534  -0.2215  -0.1320  -0.0590   0.0758   0.2332
     0.3656   0.5026   0.5204   0.5746   0.6669   0.6956   0.7579   0.7729
     0.8893   1.0770   1.1111   1.4322   1.4803   1.5193   1.6140   1.6580
     1.7273   1.7770   2.0110   2.0894   2.6991   3.0409   3.0567   3.2160
     3.2980   3.3603

          k = 0.0558-0.0645 0.0000 ( 19521 PWs)   bands (ev):

   -66.0452 -66.0297 -66.0184 -66.0036 -65.9657 -65.9307 -65.9137 -65.9110
   -65.8945 -65.8756 -65.8639 -65.8578 -32.7125 -32.6468 -32.6357 -32.6141
   -32.6029 -32.5954 -32.5587 -32.5292 -32.4909 -32.4783 -32.4538 -32.4294
   -32.4191 -32.3825 -32.3590 -32.3209 -32.2783 -32.2560 -32.2362 -32.2272
   -32.2067 -32.1961 -32.1699 -32.1432 -32.1306 -32.1180 -32.0810 -32.0667
   -32.0629 -32.0534 -32.0159 -31.9954 -31.9882 -31.9745 -31.9582 -31.9041
    -8.9458  -3.8571  -3.2868  -2.7864  -2.1533  -1.9631  -1.5165  -1.2239
    -0.9306  -0.7821  -0.6894  -0.5034  -0.4172   0.0029   0.1264   0.2041
     0.2488   0.2958   0.4802   0.6592   0.7786   0.8306   0.9348   1.0089
     1.2012   1.2311   1.2909   1.4836   1.5741   1.6703   1.7586   1.8903
     1.9751   2.0303   2.1478   2.3537   2.5978   2.7454   2.8924   3.1086
     3.2431   3.4009

          k =-0.0837 0.0483 0.0000 ( 19532 PWs)   bands (ev):

   -66.0423 -66.0362 -66.0113 -66.0071 -65.9653 -65.9322 -65.9139 -65.9086
   -65.8955 -65.8753 -65.8643 -65.8577 -32.7127 -32.6424 -32.6388 -32.6260
   -32.6173 -32.6057 -32.5372 -32.5270 -32.5044 -32.4885 -32.4496 -32.4426
   -32.3542 -32.3411 -32.3287 -32.3028 -32.2862 -32.2853 -32.2656 -32.2404
   -32.1992 -32.1913 -32.1778 -32.1672 -32.1612 -32.1324 -32.0956 -32.0756
   -32.0518 -32.0283 -32.0257 -31.9920 -31.9891 -31.9850 -31.9319 -31.8921
    -8.9457  -3.6852  -3.4767  -3.0326  -2.1610  -1.6054  -1.2753  -1.2113
    -0.9558  -0.9269  -0.7778  -0.6310  -0.5306   0.0309   0.1777   0.2706
     0.3753   0.3841   0.4760   0.5293   0.8549   0.9334   0.9433   0.9668
     1.1716   1.1901   1.3862   1.6043   1.6278   1.6438   1.7459   1.8595
     1.9365   1.9705   2.0287   2.4977   2.5362   2.6090   2.8005   3.2263
     3.2405   3.3619

          k =-0.0837 0.0806 0.0000 ( 19521 PWs)   bands (ev):

   -66.0452 -66.0297 -66.0184 -66.0036 -65.9657 -65.9307 -65.9137 -65.9110
   -65.8945 -65.8756 -65.8639 -65.8578 -32.7125 -32.6468 -32.6357 -32.6141
   -32.6029 -32.5954 -32.5587 -32.5292 -32.4909 -32.4783 -32.4538 -32.4294
   -32.4191 -32.3825 -32.3590 -32.3209 -32.2783 -32.2560 -32.2362 -32.2272
   -32.2067 -32.1961 -32.1699 -32.1432 -32.1306 -32.1180 -32.0810 -32.0667
   -32.0629 -32.0534 -32.0159 -31.9954 -31.9882 -31.9745 -31.9582 -31.9041
    -8.9458  -3.8571  -3.2868  -2.7864  -2.1533  -1.9631  -1.5165  -1.2239
    -0.9306  -0.7821  -0.6894  -0.5034  -0.4172   0.0029   0.1264   0.2041
     0.2488   0.2958   0.4802   0.6592   0.7786   0.8306   0.9348   1.0089
     1.2012   1.2311   1.2909   1.4836   1.5741   1.6703   1.7586   1.8903
     1.9751   2.0303   2.1478   2.3537   2.5978   2.7454   2.8924   3.1086
     3.2431   3.4009

          k =-0.0837 0.1128 0.0000 ( 19521 PWs)   bands (ev):

   -66.0452 -66.0297 -66.0184 -66.0036 -65.9657 -65.9307 -65.9137 -65.9110
   -65.8945 -65.8756 -65.8639 -65.8578 -32.7125 -32.6468 -32.6357 -32.6141
   -32.6029 -32.5954 -32.5587 -32.5292 -32.4909 -32.4783 -32.4538 -32.4294
   -32.4191 -32.3825 -32.3590 -32.3209 -32.2783 -32.2560 -32.2362 -32.2272
   -32.2067 -32.1961 -32.1699 -32.1432 -32.1306 -32.1180 -32.0810 -32.0667
   -32.0629 -32.0534 -32.0159 -31.9954 -31.9882 -31.9745 -31.9582 -31.9041
    -8.9458  -3.8571  -3.2868  -2.7864  -2.1533  -1.9631  -1.5165  -1.2239
    -0.9306  -0.7821  -0.6894  -0.5034  -0.4172   0.0029   0.1264   0.2041
     0.2488   0.2958   0.4802   0.6592   0.7786   0.8306   0.9348   1.0089
     1.2012   1.2311   1.2909   1.4836   1.5741   1.6703   1.7586   1.8903
     1.9751   2.0303   2.1478   2.3537   2.5978   2.7454   2.8924   3.1086
     3.2431   3.4009

          k =-0.0837-0.0483 0.0000 ( 19532 PWs)   bands (ev):

   -66.0423 -66.0362 -66.0113 -66.0071 -65.9653 -65.9322 -65.9139 -65.9086
   -65.8955 -65.8753 -65.8643 -65.8577 -32.7127 -32.6424 -32.6388 -32.6260
   -32.6173 -32.6057 -32.5372 -32.5270 -32.5044 -32.4885 -32.4496 -32.4426
   -32.3542 -32.3411 -32.3287 -32.3028 -32.2862 -32.2853 -32.2656 -32.2404
   -32.1992 -32.1913 -32.1778 -32.1672 -32.1612 -32.1324 -32.0956 -32.0756
   -32.0518 -32.0283 -32.0257 -31.9920 -31.9891 -31.9850 -31.9319 -31.8921
    -8.9457  -3.6852  -3.4767  -3.0326  -2.1610  -1.6054  -1.2752  -1.2113
    -0.9558  -0.9269  -0.7778  -0.6310  -0.5306   0.0309   0.1777   0.2706
     0.3753   0.3841   0.4760   0.5293   0.8549   0.9334   0.9433   0.9668
     1.1716   1.1901   1.3862   1.6043   1.6278   1.6438   1.7459   1.8595
     1.9365   1.9705   2.0287   2.4977   2.5362   2.6090   2.8005   3.2263
     3.2405   3.3619

     the Fermi energy is     2.2468 ev

!    total energy              =   -1731.15902146 Ry
     Harris-Foulkes estimate   =   -1731.15902141 Ry
     estimated scf accuracy    <       0.00000003 Ry

     The total energy is the sum of the following terms:

     one-electron contribution =  -11819.07287462 Ry
     hartree contribution      =    5895.02104794 Ry
     xc contribution           =    -527.48620610 Ry
     ewald contribution        =    4720.47467646 Ry
     electric field correction =       0.00005626 Ry
     smearing contrib. (-TS)   =      -0.09572141 Ry

     convergence has been achieved in   7 iterations
 
 BEEF-vdW xc energy contributions
           1 :   -464.331414701613     
           2 :    428.699148675984     
           3 :   -366.463847655306     
           4 :    291.966937898142     
           5 :   -219.611550333598     
           6 :    159.455230358009     
           7 :   -115.203366326723     
           8 :    84.9859261722968     
           9 :   -64.0338963232246     
          10 :    47.6798797540515     
          11 :   -33.2808699281462     
          12 :    20.4858074292544     
          13 :   -10.2202399733573     
          14 :    3.30464222167166     
          15 :   0.432205287060242     
          16 :   -2.16446273837482     
          17 :    3.39218106503148     
          18 :   -5.11463284425446     
          19 :    7.38172232986000     
          20 :   -9.45229444120389     
          21 :    10.4090922949886     
          22 :   -9.82564557031378     
          23 :    8.07904379333814     
          24 :   -6.14192281523060     
          25 :    5.01241951254127     
          26 :   -5.15103379894498     
          27 :    6.26363821979010     
          28 :   -7.53591766788793     
          29 :    8.14493180489541     
          30 :   -7.72360537888142     
          31 :   -41.5915297110182     
          32 :   -30.9014885674218     

     Forces acting on atoms (Ry/au):


     negative rho (up, down):  1.182E+00 0.000E+00
     atom    1 type  1   force =    -0.00000005    0.00000003    0.00731193
     atom    2 type  1   force =     0.00000003    0.00044360    0.00513097
     atom    3 type  1   force =     0.00038420   -0.00022182    0.00513063
     atom    4 type  1   force =    -0.00038415   -0.00022183    0.00513100
     atom    5 type  1   force =     0.01640166   -0.00946956   -0.00800409
     atom    6 type  1   force =    -0.01640164   -0.00946890   -0.00800469
     atom    7 type  1   force =     0.00000045   -0.00000022    0.00128048
     atom    8 type  1   force =    -0.00000055    0.01893872   -0.00800464
     atom    9 type  1   force =    -0.00049591   -0.00028662    0.00000228
     atom   10 type  1   force =     0.00049585   -0.00028626    0.00000242
     atom   11 type  1   force =     0.00000029    0.00057278    0.00000225
     atom   12 type  1   force =    -0.00000014    0.00000007   -0.00012635
     atom   13 type  2   force =    -0.00000002    0.00000004   -0.00096018
     atom   14 type  3   force =    -0.00000002   -0.00000002    0.00110799

     Total force =     0.001775     Total SCF correction =     0.000303
     SCF correction compared to forces is large: reduce conv_thr to get better values


     entering subroutine stress ...


     negative rho (up, down):  1.182E+00 0.000E+00
          total   stress  (Ry/bohr**3)                   (kbar)     P=  -20.05
  -0.00017047   0.00000000   0.00000000        -25.08      0.00      0.00
   0.00000000  -0.00017047  -0.00000000          0.00    -25.08     -0.00
   0.00000000  -0.00000000  -0.00006793          0.00     -0.00     -9.99


     bfgs converged in  15 scf cycles and  14 bfgs steps
     (criteria: energy <  1.0E+00, force <  1.9E-03)

     End of BFGS Geometry Optimization

     Final energy   =   -1731.1590214643 Ry
Begin final coordinates

ATOMIC_POSITIONS (crystal)
Ta1      0.166666667   0.166666667   0.401991699    0   0   0
Ta1      0.666666667   0.166666667   0.401991699    0   0   0
Ta1      0.166666667   0.666666667   0.401991699    0   0   0
Ta1      0.666666667   0.666666667   0.401991699    0   0   0
Ta1      0.833333333   0.333333333   0.500000000    0   0   0
Ta1      0.333333333   0.333333333   0.500000000    0   0   0
Ta1      0.833333333   0.833333333   0.500000000    0   0   0
Ta1      0.333333333   0.833333333   0.500000000    0   0   0
Ta1     -0.003914078  -0.003914006   0.597751820
Ta1      0.507828214  -0.003914108   0.597751814
Ta1     -0.003914087   0.507828085   0.597751816
Ta1      0.500000084   0.499999961   0.590596624
C1       0.166666657   0.166666659   0.645684522
H1       0.166666593   0.166666860   0.689944062
End final coordinates



     Writing output data file calc.save
 
     init_run     :     16.43s CPU     16.88s WALL (       1 calls)
     electrons    :   5581.24s CPU   6061.40s WALL (      15 calls)
     update_pot   :     44.30s CPU     46.28s WALL (      14 calls)
     forces       :    386.88s CPU    419.93s WALL (      15 calls)
     stress       :   1223.95s CPU   1315.34s WALL (      15 calls)

     Called by init_run:
     wfcinit      :      5.69s CPU      5.78s WALL (       1 calls)
     potinit      :      1.99s CPU      2.15s WALL (       1 calls)

     Called by electrons:
     c_bands      :   1815.05s CPU   1919.47s WALL (     166 calls)
     sum_band     :   1323.52s CPU   1440.72s WALL (     166 calls)
     v_of_rho     :    298.01s CPU    347.30s WALL (     178 calls)
     newd         :   1378.07s CPU   1401.09s WALL (     178 calls)
     mix_rho      :      9.67s CPU      9.92s WALL (     166 calls)
     vdW_energy   :    161.39s CPU    178.08s WALL (     718 calls)
     vdW_ffts     :    394.98s CPU    415.34s WALL (    1466 calls)
     vdW_v        :    146.24s CPU    152.20s WALL (     718 calls)

     Called by c_bands:
     init_us_2    :     13.60s CPU     13.65s WALL (    1815 calls)
     cegterg      :   1620.39s CPU   1653.23s WALL (     830 calls)

     Called by *egterg:
     h_psi        :   1066.53s CPU   1089.72s WALL (    4171 calls)
     s_psi        :    125.94s CPU    126.21s WALL (    4171 calls)
     g_psi        :      6.10s CPU      6.09s WALL (    3336 calls)
     cdiaghg      :    135.33s CPU    136.39s WALL (    4081 calls)

     Called by h_psi:
     add_vuspsi   :    127.85s CPU    128.12s WALL (    4171 calls)

     General routines
     calbec       :    195.38s CPU    198.89s WALL (    5151 calls)
     fft          :    622.45s CPU    678.91s WALL (   43319 calls)
     ffts         :      0.66s CPU      0.70s WALL (     344 calls)
     fftw         :    628.69s CPU    653.02s WALL (  463622 calls)
     interpolate  :      6.08s CPU      6.23s WALL (     344 calls)
     davcio       :      0.00s CPU      0.03s WALL (       5 calls)
 
     Parallel routines
     fft_scatter  :    730.35s CPU    806.92s WALL (  507285 calls)
 
     PWSCF        :     2h 2m CPU        2h13m WALL

 
   This run was terminated on:   9: 5:15  23Apr2018            

=------------------------------------------------------------------------------=
   JOB DONE.
=------------------------------------------------------------------------------=
Job  /afs/slac/g/suncat/bin/suncat-tsmpirun -x LD_LIBRARY_PATH -wdir /scratch/qe428389_2bFmr pw.x -npool 4 -in pw.inp

TID   HOST_NAME   COMMAND_LINE            STATUS            TERMINATION_TIME
===== ========== ================  =======================  ===================
00000 suncat0178 pw.x -npool 4 -i  Done                     04/23/2018 09:05:15
00001 suncat0178 pw.x -npool 4 -i  Done                     04/23/2018 09:05:15
00002 suncat0178 pw.x -npool 4 -i  Done                     04/23/2018 09:05:15
00003 suncat0178 pw.x -npool 4 -i  Done                     04/23/2018 09:05:15
00004 suncat0178 pw.x -npool 4 -i  Done                     04/23/2018 09:05:15
00005 suncat0178 pw.x -npool 4 -i  Done                     04/23/2018 09:05:15
00006 suncat0178 pw.x -npool 4 -i  Done                     04/23/2018 09:05:15
00007 suncat0178 pw.x -npool 4 -i  Done                     04/23/2018 09:05:15
00008 suncat0169 pw.x -npool 4 -i  Done                     04/23/2018 09:05:15
00009 suncat0169 pw.x -npool 4 -i  Done                     04/23/2018 09:05:15
00010 suncat0169 pw.x -npool 4 -i  Done                     04/23/2018 09:05:15
00011 suncat0169 pw.x -npool 4 -i  Done                     04/23/2018 09:05:15
00012 suncat0169 pw.x -npool 4 -i  Done                     04/23/2018 09:05:15
00013 suncat0169 pw.x -npool 4 -i  Done                     04/23/2018 09:05:15
00014 suncat0169 pw.x -npool 4 -i  Done                     04/23/2018 09:05:15
00015 suncat0169 pw.x -npool 4 -i  Done                     04/23/2018 09:05:15
00016 suncat0260 pw.x -npool 4 -i  Done                     04/23/2018 09:05:15
00017 suncat0260 pw.x -npool 4 -i  Done                     04/23/2018 09:05:15
00018 suncat0260 pw.x -npool 4 -i  Done                     04/23/2018 09:05:15
00019 suncat0260 pw.x -npool 4 -i  Done                     04/23/2018 09:05:15
00020 suncat0260 pw.x -npool 4 -i  Done                     04/23/2018 09:05:15
00021 suncat0260 pw.x -npool 4 -i  Done                     04/23/2018 09:05:15
00022 suncat0260 pw.x -npool 4 -i  Done                     04/23/2018 09:05:15
00023 suncat0260 pw.x -npool 4 -i  Done                     04/23/2018 09:05:15
00024 suncat0218 pw.x -npool 4 -i  Done                     04/23/2018 09:05:15
00025 suncat0218 pw.x -npool 4 -i  Done                     04/23/2018 09:05:15
00026 suncat0218 pw.x -npool 4 -i  Done                     04/23/2018 09:05:15
00027 suncat0218 pw.x -npool 4 -i  Done                     04/23/2018 09:05:15
00028 suncat0218 pw.x -npool 4 -i  Done                     04/23/2018 09:05:15
00029 suncat0218 pw.x -npool 4 -i  Done                     04/23/2018 09:05:15
00030 suncat0218 pw.x -npool 4 -i  Done                     04/23/2018 09:05:15
00031 suncat0218 pw.x -npool 4 -i  Done                     04/23/2018 09:05:15
