  python dir          : /u/if/mamunm/src/espresso
  espresso dir        : /nfs/slac/g/suncatfs/sw/espv18/espresso-dynpy-beef/bin
  pseudo dir          : /u/if/mamunm/psp/gbrv1.5pbe
  ase-espresso py git : GITVERSION



     Program PWSCF v.5.1rc2 (svn rev. 11289) starts on 24Apr2018 at 11:35:59 

     This program is part of the open-source Quantum ESPRESSO suite
     for quantum simulation of materials; please cite
         "P. Giannozzi et al., J. Phys.:Condens. Matter 21 395502 (2009);
          URL http://www.quantum-espresso.org", 
     in publications or presentations arising from this work. More details at
     http://www.quantum-espresso.org/quote

     Parallel version (MPI), running on    32 processors
     K-points division:     npool     =       4
     R & G space division:  proc/nbgrp/npool/nimage =       8
     Reading input from pw.inp
     Message from routine read_cards :
     DEPRECATED: no units specified in CELL_PARAMETERS card

     Current dimensions of program PWSCF are:
     Max number of different atomic species (ntypx) = 10
     Max number of k-points (npk) =  40000
     Max angular momentum in pseudopotentials (lmaxx) =  3
     Presently stress not available with electric field


     **************************************************************************
     Initializing libbeef V0.1.1 with the BEEF-vdW functional.
     Citation: Wellendorff et al., PRB 85, 235149 (2012).
     **************************************************************************


     IMPORTANT: XC functional enforced from input :
     Exchange-correlation      = BEEF-VDW ( 1  4 27 13 2)
     Any further DFT definition will be discarded
     Please, verify this is what you really want


     Subspace diagonalization in iterative solution of the eigenvalue problem:
     a serial algorithm will be used

 
     Parallelization info
     --------------------
     sticks:   dense  smooth     PW     G-vecs:    dense   smooth      PW
     Min         329     130     39                61797    15613    2499
     Max         330     131     40                61814    15645    2512
     Sum        2635    1045    313               494447   125015   20053
 


     bravais-lattice index     =            0
     lattice parameter (alat)  =       1.8897  a.u.
     unit-cell volume          =    4158.3597 (a.u.)^3
     number of atoms/cell      =           14
     number of atomic types    =            3
     number of electrons       =       163.00
     number of Kohn-Sham states=           91
     kinetic-energy cutoff     =      36.7493  Ry
     charge density cutoff     =     367.4932  Ry
     convergence threshold     =      1.0E-05
     mixing beta               =       0.3000
     number of iterations used =           10  plain     mixing
     Exchange-correlation      = BEEF-VDW ( 1  4 27 13 2)
     nstep                     =           50


     celldm(1)=   1.889726  celldm(2)=   0.000000  celldm(3)=   0.000000
     celldm(4)=   0.000000  celldm(5)=   0.000000  celldm(6)=   0.000000

     crystal axes: (cart. coord. in units of alat)
               a(1) = (   5.399178   0.000000   0.000000 )  
               a(2) = (   2.699589   4.675825   0.000000 )  
               a(3) = (   0.000000   0.000000  24.408411 )  

     reciprocal axes: (cart. coord. in units 2 pi/alat)
               b(1) = (  0.185213 -0.106933  0.000000 )  
               b(2) = (  0.000000  0.213866  0.000000 )  
               b(3) = (  0.000000  0.000000  0.040969 )  


     PseudoPot. # 1 for V  read from file:
     /u/if/mamunm/psp/gbrv1.5pbe/V.UPF
     MD5 check sum: 22b79981416ebb76fdaf5b1b8640f6fb
     Pseudo is Ultrasoft + core correction, Zval = 13.0
     Generated by new atomic code, or converted to UPF format
     Using radial grid of  853 points,  6 beta functions with: 
                l(1) =   0
                l(2) =   0
                l(3) =   1
                l(4) =   1
                l(5) =   2
                l(6) =   2
     Q(r) pseudized with  8 coefficients,  rinner =    1.100   1.100   1.100
                                                       1.100   1.100

     PseudoPot. # 2 for S  read from file:
     /u/if/mamunm/psp/gbrv1.5pbe/S.UPF
     MD5 check sum: 88d86576ff6df21479756cfb9bdac1df
     Pseudo is Ultrasoft + core correction, Zval =  6.0
     Generated by new atomic code, or converted to UPF format
     Using radial grid of  907 points,  6 beta functions with: 
                l(1) =   0
                l(2) =   0
                l(3) =   1
                l(4) =   1
                l(5) =   2
                l(6) =   2
     Q(r) pseudized with  8 coefficients,  rinner =    1.300   1.300   1.300
                                                       1.300   1.300

     PseudoPot. # 3 for H  read from file:
     /u/if/mamunm/psp/gbrv1.5pbe/H.UPF
     MD5 check sum: 761ae9a214b05c3daf00ab9f6b793d6f
     Pseudo is Ultrasoft, Zval =  1.0
     Generated by new atomic code, or converted to UPF format
     Using radial grid of  615 points,  2 beta functions with: 
                l(1) =   0
                l(2) =   0
     Q(r) pseudized with  8 coefficients,  rinner =    0.700

     vdW kernel table read from file vdW_kernel_table
     MD5 check sum: 095c7af220d748ca6e76c0b4c6cfb241

     atomic species   valence    mass     pseudopotential
        V1            13.00    50.94150     V ( 1.00)
        S1             6.00    32.06000     S ( 1.00)
        H1             1.00     1.00800     H ( 1.00)

     No symmetry found



   Cartesian axes

     site n.     atom                  positions (alat units)
         1           V1  tau(   1) = (   1.3497945   0.7793042  10.0000000  )
         2           V1  tau(   2) = (   4.0493836   0.7793042  10.0000000  )
         3           V1  tau(   3) = (   2.6995891   3.1172170  10.0000000  )
         4           V1  tau(   4) = (   5.3991782   3.1172170  10.0000000  )
         5           V1  tau(   5) = (   5.3991782   1.5586085  12.2042053  )
         6           V1  tau(   6) = (   2.6995891   1.5586085  12.2042053  )
         7           V1  tau(   7) = (   6.7489727   3.8965212  12.2042053  )
         8           V1  tau(   8) = (   4.0493836   3.8965212  12.2042053  )
         9           V1  tau(   9) = (   0.0000000   0.0000000  14.4084105  )
        10           V1  tau(  10) = (   2.6995891   0.0000000  14.4084105  )
        11           V1  tau(  11) = (   1.3497945   2.3379127  14.4084105  )
        12           V1  tau(  12) = (   4.0493836   2.3379127  14.4084105  )
        13           S1  tau(  13) = (   2.6995891   1.5586085  16.0854105  )
        14           H1  tau(  14) = (   2.6995891   1.5586085  17.3354105  )

     number of k points=    20  Fermi-Dirac smearing, width (Ry)=  0.0110
                       cart. coord. in units 2pi/alat
        k(    1) = (   0.0000000   0.0000000   0.0000000), wk =   0.0555556
        k(    2) = (   0.0000000   0.0356443   0.0000000), wk =   0.1111111
        k(    3) = (   0.0000000   0.0712887   0.0000000), wk =   0.1111111
        k(    4) = (   0.0000000  -0.1069330   0.0000000), wk =   0.0555556
        k(    5) = (   0.0308689  -0.0178222   0.0000000), wk =   0.1111111
        k(    6) = (   0.0308689   0.0178222   0.0000000), wk =   0.1111111
        k(    7) = (   0.0308689   0.0534665   0.0000000), wk =   0.1111111
        k(    8) = (   0.0308689  -0.1247552   0.0000000), wk =   0.1111111
        k(    9) = (   0.0308689  -0.0891108   0.0000000), wk =   0.1111111
        k(   10) = (   0.0308689  -0.0534665   0.0000000), wk =   0.1111111
        k(   11) = (   0.0617378  -0.0356443   0.0000000), wk =   0.1111111
        k(   12) = (   0.0617378   0.0000000   0.0000000), wk =   0.1111111
        k(   13) = (   0.0617378   0.0356443   0.0000000), wk =   0.1111111
        k(   14) = (   0.0617378  -0.1425773   0.0000000), wk =   0.1111111
        k(   15) = (   0.0617378  -0.1069330   0.0000000), wk =   0.1111111
        k(   16) = (   0.0617378  -0.0712887   0.0000000), wk =   0.1111111
        k(   17) = (  -0.0926067   0.0534665   0.0000000), wk =   0.0555556
        k(   18) = (  -0.0926067   0.0891108   0.0000000), wk =   0.1111111
        k(   19) = (  -0.0926067   0.1247552   0.0000000), wk =   0.1111111
        k(   20) = (  -0.0926067  -0.0534665   0.0000000), wk =   0.0555556

     Dense  grid:   494447 G-vectors     FFT dimensions: (  64,  64, 288)

     Smooth grid:   125015 G-vectors     FFT dimensions: (  40,  40, 180)

     Largest allocated arrays     est. size (Mb)     dimensions
        Kohn-Sham Wavefunctions         2.84 Mb     (    2047,   91)
        NL pseudopotentials             7.37 Mb     (    2047,  236)
        Each V/rho on FFT grid          2.25 Mb     (  147456)
        Each G-vector array             0.47 Mb     (   61814)
        G-vector shells                 0.12 Mb     (   16161)
     Largest temporary arrays     est. size (Mb)     dimensions
        Auxiliary wavefunctions        11.37 Mb     (    2047,  364)
        Each subspace H/S matrix        2.02 Mb     (     364,  364)
        Each <psi_i|beta_j> matrix      0.33 Mb     (     236,   91)
        Arrays for rho mixing          22.50 Mb     (  147456,   10)

     Check: negative/imaginary core charge=   -0.000001    0.000000

     Initial potential from superposition of free atoms
     Check: negative starting charge=   -0.011480

     starting charge  162.98523, renormalised to  163.00000

     negative rho (up, down):  1.148E-02 0.000E+00


     ************************************************************************
     *
     * You are using vdW-DF for exchange-correlation in this calculation.
     * Please cite the following three references that made this development
     * possible:
     *
     *   M. Dion, H. Rydberg, E. Schroder, D. C. Langreth, and
     *   B. I. Lundqvist, Phys. Rev. Lett. 92, 246401 (2004).
     *
     *   T. Thonhauser, V. R. Cooper, S. Li, A. Puzder, P. Hyldgaard, and
     *   D. C. Langreth, Phys. Rev. B 76, 125112 (2007).
     *
     *   G. Roman-Perez and J. M. Soler, Phys. Rev. Lett. 103, 096102 (2009).
     *
     *
     * If you are using vdW-DF2, please also cite:
     *
     *   K. Lee, E. D. Murray, L. Kong, B. I. Lundqvist, and
     *   D. C. Langreth, Phys. Rev. B 82, 081101(R) (2010).
     *
     *
     * If you are calculating the stress with vdW-DF, please also cite:
     *
     *   R. Sabatini, E. Kucukbenli, B. Kolb, T. Thonhauser, and
     *   S. de Gironcoli, J. Phys.: Condens. Matter 24, 424209 (2012).
     *
     ************************************************************************

     Carrying out vdW-DF run using the following parameters:

     Nqs =      20    Nr_points =    1024   r_max =   100.000
     q_mesh =
               0.00001000     0.04494208     0.09755937     0.15916263
               0.23128650     0.31572767     0.41458969     0.53033537
               0.66584808     0.82450364     1.01025438     1.22772762
               1.48234092     1.78043706     2.12944203     2.53805004
               3.01644009     3.57652955     4.23227104     5.00000000

     Gradients computed in reciprocal space

     ************************************************************************


 
     Adding external electric field

     Computed dipole along edir(3) : 
        Dipole               -0.0045 Ry au,         -0.0115 Debye
        Dipole field         -0.0000 Ry au
 
        Potential amp.        0.0012 Ry
        Total length         44.9721 bohr
 
     Starting wfc are  125 randomized atomic wfcs

     total cpu time spent up to now is       10.1 secs

     per-process dynamical memory:    72.1 Mb

     Self-consistent Calculation

     iteration #  1     ecut=    36.75 Ry     beta=0.30
     Davidson diagonalization with overlap
     ethr =  1.00E-02,  avg # of iterations =  2.4

     negative rho (up, down):  1.190E-02 0.000E+00
 
     Adding external electric field

     Computed dipole along edir(3) : 
        Dipole               -0.6096 Ry au,         -1.5494 Debye
        Dipole field         -0.0018 Ry au
 
        Potential amp.        0.1657 Ry
        Total length         44.9721 bohr
 

     total cpu time spent up to now is       25.6 secs

     total energy              =   -1768.83436760 Ry
     Harris-Foulkes estimate   =   -1775.36250912 Ry
     estimated scf accuracy    <      13.35919571 Ry

     iteration #  2     ecut=    36.75 Ry     beta=0.30
     Davidson diagonalization with overlap
     ethr =  8.20E-03,  avg # of iterations =  8.9

     negative rho (up, down):  1.054E-02 0.000E+00
 
     Adding external electric field

     Computed dipole along edir(3) : 
        Dipole                4.6039 Ry au,         11.7018 Debye
        Dipole field          0.0139 Ry au
 
        Potential amp.       -1.2514 Ry
        Total length         44.9721 bohr
 

     total cpu time spent up to now is       46.7 secs

     total energy              =   -1761.63647560 Ry
     Harris-Foulkes estimate   =   -1791.49533466 Ry
     estimated scf accuracy    <     449.14091476 Ry

     iteration #  3     ecut=    36.75 Ry     beta=0.30
     Davidson diagonalization with overlap
     ethr =  8.20E-03,  avg # of iterations =  9.2

     negative rho (up, down):  1.025E-02 0.000E+00
 
     Adding external electric field

     Computed dipole along edir(3) : 
        Dipole               -1.0588 Ry au,         -2.6911 Debye
        Dipole field         -0.0032 Ry au
 
        Potential amp.        0.2878 Ry
        Total length         44.9721 bohr
 

     total cpu time spent up to now is       69.8 secs

     total energy              =   -1760.67545209 Ry
     Harris-Foulkes estimate   =   -1800.74854562 Ry
     estimated scf accuracy    <    1309.90018999 Ry

     iteration #  4     ecut=    36.75 Ry     beta=0.30
     Davidson diagonalization with overlap
     ethr =  8.20E-03,  avg # of iterations =  8.4

     negative rho (up, down):  1.050E-02 0.000E+00
 
     Adding external electric field

     Computed dipole along edir(3) : 
        Dipole               -0.4707 Ry au,         -1.1965 Debye
        Dipole field         -0.0014 Ry au
 
        Potential amp.        0.1280 Ry
        Total length         44.9721 bohr
 

     total cpu time spent up to now is       91.4 secs

     total energy              =   -1774.46277501 Ry
     Harris-Foulkes estimate   =   -1775.24657812 Ry
     estimated scf accuracy    <      45.84652907 Ry

     iteration #  5     ecut=    36.75 Ry     beta=0.30
     Davidson diagonalization with overlap
     ethr =  8.20E-03,  avg # of iterations =  1.6

     negative rho (up, down):  1.086E-02 0.000E+00
 
     Adding external electric field

     Computed dipole along edir(3) : 
        Dipole               -0.4213 Ry au,         -1.0707 Debye
        Dipole field         -0.0013 Ry au
 
        Potential amp.        0.1145 Ry
        Total length         44.9721 bohr
 

     total cpu time spent up to now is      105.1 secs

     total energy              =   -1774.51032332 Ry
     Harris-Foulkes estimate   =   -1774.68028690 Ry
     estimated scf accuracy    <      11.74146309 Ry

     iteration #  6     ecut=    36.75 Ry     beta=0.30
     Davidson diagonalization with overlap
     ethr =  7.20E-03,  avg # of iterations =  1.1

     negative rho (up, down):  1.158E-02 0.000E+00
 
     Adding external electric field

     Computed dipole along edir(3) : 
        Dipole               -0.4253 Ry au,         -1.0809 Debye
        Dipole field         -0.0013 Ry au
 
        Potential amp.        0.1156 Ry
        Total length         44.9721 bohr
 

     total cpu time spent up to now is      118.4 secs

     total energy              =   -1774.34555701 Ry
     Harris-Foulkes estimate   =   -1774.59861764 Ry
     estimated scf accuracy    <       9.04718655 Ry

     iteration #  7     ecut=    36.75 Ry     beta=0.30
     Davidson diagonalization with overlap
     ethr =  5.55E-03,  avg # of iterations =  1.0

     negative rho (up, down):  1.271E-02 0.000E+00
 
     Adding external electric field

     Computed dipole along edir(3) : 
        Dipole               -0.1659 Ry au,         -0.4216 Debye
        Dipole field         -0.0005 Ry au
 
        Potential amp.        0.0451 Ry
        Total length         44.9721 bohr
 

     total cpu time spent up to now is      131.8 secs

     total energy              =   -1774.28209035 Ry
     Harris-Foulkes estimate   =   -1774.44752195 Ry
     estimated scf accuracy    <       4.30324952 Ry

     iteration #  8     ecut=    36.75 Ry     beta=0.30
     Davidson diagonalization with overlap
     ethr =  2.64E-03,  avg # of iterations =  6.2

     negative rho (up, down):  1.255E-02 0.000E+00
 
     Adding external electric field

     Computed dipole along edir(3) : 
        Dipole               -0.1481 Ry au,         -0.3764 Debye
        Dipole field         -0.0004 Ry au
 
        Potential amp.        0.0403 Ry
        Total length         44.9721 bohr
 

     total cpu time spent up to now is      148.4 secs

     total energy              =   -1774.45624989 Ry
     Harris-Foulkes estimate   =   -1774.52789928 Ry
     estimated scf accuracy    <       0.94885085 Ry

     iteration #  9     ecut=    36.75 Ry     beta=0.30
     Davidson diagonalization with overlap
     ethr =  5.82E-04,  avg # of iterations =  7.5

     negative rho (up, down):  1.262E-02 0.000E+00
 
     Adding external electric field

     Computed dipole along edir(3) : 
        Dipole               -0.1848 Ry au,         -0.4697 Debye
        Dipole field         -0.0006 Ry au
 
        Potential amp.        0.0502 Ry
        Total length         44.9721 bohr
 

     total cpu time spent up to now is      166.6 secs

     total energy              =   -1774.58399470 Ry
     Harris-Foulkes estimate   =   -1774.59546300 Ry
     estimated scf accuracy    <       0.90331390 Ry

     iteration # 10     ecut=    36.75 Ry     beta=0.30
     Davidson diagonalization with overlap
     ethr =  5.54E-04,  avg # of iterations =  1.1

     negative rho (up, down):  1.291E-02 0.000E+00
 
     Adding external electric field

     Computed dipole along edir(3) : 
        Dipole               -0.2187 Ry au,         -0.5558 Debye
        Dipole field         -0.0007 Ry au
 
        Potential amp.        0.0594 Ry
        Total length         44.9721 bohr
 

     total cpu time spent up to now is      180.0 secs

     total energy              =   -1774.57533088 Ry
     Harris-Foulkes estimate   =   -1774.58947226 Ry
     estimated scf accuracy    <       0.37728138 Ry

     iteration # 11     ecut=    36.75 Ry     beta=0.30
     Davidson diagonalization with overlap
     ethr =  2.31E-04,  avg # of iterations =  2.4

     negative rho (up, down):  1.304E-02 0.000E+00
 
     Adding external electric field

     Computed dipole along edir(3) : 
        Dipole               -0.1731 Ry au,         -0.4400 Debye
        Dipole field         -0.0005 Ry au
 
        Potential amp.        0.0471 Ry
        Total length         44.9721 bohr
 

     total cpu time spent up to now is      194.4 secs

     total energy              =   -1774.57090714 Ry
     Harris-Foulkes estimate   =   -1774.58437338 Ry
     estimated scf accuracy    <       0.15305601 Ry

     iteration # 12     ecut=    36.75 Ry     beta=0.30
     Davidson diagonalization with overlap
     ethr =  9.39E-05,  avg # of iterations =  5.5

     negative rho (up, down):  1.329E-02 0.000E+00
 
     Adding external electric field

     Computed dipole along edir(3) : 
        Dipole               -0.0843 Ry au,         -0.2142 Debye
        Dipole field         -0.0003 Ry au
 
        Potential amp.        0.0229 Ry
        Total length         44.9721 bohr
 

     total cpu time spent up to now is      210.2 secs

     total energy              =   -1774.57174803 Ry
     Harris-Foulkes estimate   =   -1774.57887944 Ry
     estimated scf accuracy    <       0.04301381 Ry

     iteration # 13     ecut=    36.75 Ry     beta=0.30
     Davidson diagonalization with overlap
     ethr =  2.64E-05,  avg # of iterations =  7.7

     negative rho (up, down):  1.354E-02 0.000E+00
 
     Adding external electric field

     Computed dipole along edir(3) : 
        Dipole               -0.0355 Ry au,         -0.0903 Debye
        Dipole field         -0.0001 Ry au
 
        Potential amp.        0.0097 Ry
        Total length         44.9721 bohr
 

     total cpu time spent up to now is      230.0 secs

     total energy              =   -1774.57188004 Ry
     Harris-Foulkes estimate   =   -1774.58005309 Ry
     estimated scf accuracy    <       0.13124072 Ry

     iteration # 14     ecut=    36.75 Ry     beta=0.30
     Davidson diagonalization with overlap
     ethr =  2.64E-05,  avg # of iterations =  4.5

     negative rho (up, down):  1.381E-02 0.000E+00
 
     Adding external electric field

     Computed dipole along edir(3) : 
        Dipole                0.1124 Ry au,          0.2856 Debye
        Dipole field          0.0003 Ry au
 
        Potential amp.       -0.0305 Ry
        Total length         44.9721 bohr
 

     total cpu time spent up to now is      245.1 secs

     total energy              =   -1774.57354330 Ry
     Harris-Foulkes estimate   =   -1774.57571345 Ry
     estimated scf accuracy    <       0.20144952 Ry

     iteration # 15     ecut=    36.75 Ry     beta=0.30
     Davidson diagonalization with overlap
     ethr =  2.64E-05,  avg # of iterations =  3.5

     negative rho (up, down):  1.368E-02 0.000E+00
 
     Adding external electric field

     Computed dipole along edir(3) : 
        Dipole                0.1935 Ry au,          0.4917 Debye
        Dipole field          0.0006 Ry au
 
        Potential amp.       -0.0526 Ry
        Total length         44.9721 bohr
 

     total cpu time spent up to now is      259.8 secs

     total energy              =   -1774.57002718 Ry
     Harris-Foulkes estimate   =   -1774.57589726 Ry
     estimated scf accuracy    <       0.25621226 Ry

     iteration # 16     ecut=    36.75 Ry     beta=0.30
     Davidson diagonalization with overlap
     ethr =  2.64E-05,  avg # of iterations =  1.1

     negative rho (up, down):  1.379E-02 0.000E+00
 
     Adding external electric field

     Computed dipole along edir(3) : 
        Dipole                0.2597 Ry au,          0.6601 Debye
        Dipole field          0.0008 Ry au
 
        Potential amp.       -0.0706 Ry
        Total length         44.9721 bohr
 

     total cpu time spent up to now is      273.3 secs

     total energy              =   -1774.57252510 Ry
     Harris-Foulkes estimate   =   -1774.57285662 Ry
     estimated scf accuracy    <       0.00374363 Ry

     iteration # 17     ecut=    36.75 Ry     beta=0.30
     Davidson diagonalization with overlap
     ethr =  2.30E-06,  avg # of iterations =  8.0

     negative rho (up, down):  1.382E-02 0.000E+00
 
     Adding external electric field

     Computed dipole along edir(3) : 
        Dipole                0.2619 Ry au,          0.6656 Debye
        Dipole field          0.0008 Ry au
 
        Potential amp.       -0.0712 Ry
        Total length         44.9721 bohr
 

     total cpu time spent up to now is      293.7 secs

     total energy              =   -1774.57362244 Ry
     Harris-Foulkes estimate   =   -1774.57444864 Ry
     estimated scf accuracy    <       0.04113186 Ry

     iteration # 18     ecut=    36.75 Ry     beta=0.30
     Davidson diagonalization with overlap
     ethr =  2.30E-06,  avg # of iterations =  1.4

     negative rho (up, down):  1.386E-02 0.000E+00
 
     Adding external electric field

     Computed dipole along edir(3) : 
        Dipole                0.2686 Ry au,          0.6827 Debye
        Dipole field          0.0008 Ry au
 
        Potential amp.       -0.0730 Ry
        Total length         44.9721 bohr
 

     total cpu time spent up to now is      307.4 secs

     total energy              =   -1774.57302867 Ry
     Harris-Foulkes estimate   =   -1774.57380466 Ry
     estimated scf accuracy    <       0.02035313 Ry

     iteration # 19     ecut=    36.75 Ry     beta=0.30
     Davidson diagonalization with overlap
     ethr =  2.30E-06,  avg # of iterations =  7.7

     negative rho (up, down):  1.399E-02 0.000E+00
 
     Adding external electric field

     Computed dipole along edir(3) : 
        Dipole                0.2837 Ry au,          0.7211 Debye
        Dipole field          0.0009 Ry au
 
        Potential amp.       -0.0771 Ry
        Total length         44.9721 bohr
 

     total cpu time spent up to now is      326.2 secs

     total energy              =   -1774.57358883 Ry
     Harris-Foulkes estimate   =   -1774.57363441 Ry
     estimated scf accuracy    <       0.00190246 Ry

     iteration # 20     ecut=    36.75 Ry     beta=0.30
     Davidson diagonalization with overlap
     ethr =  1.17E-06,  avg # of iterations =  4.6

     negative rho (up, down):  1.423E-02 0.000E+00
 
     Adding external electric field

     Computed dipole along edir(3) : 
        Dipole                0.3132 Ry au,          0.7961 Debye
        Dipole field          0.0009 Ry au
 
        Potential amp.       -0.0851 Ry
        Total length         44.9721 bohr
 

     total cpu time spent up to now is      341.0 secs

     total energy              =   -1774.57362430 Ry
     Harris-Foulkes estimate   =   -1774.57365436 Ry
     estimated scf accuracy    <       0.00353120 Ry

     iteration # 21     ecut=    36.75 Ry     beta=0.30
     Davidson diagonalization with overlap
     ethr =  1.17E-06,  avg # of iterations =  3.9

     negative rho (up, down):  1.467E-02 0.000E+00
 
     Adding external electric field

     Computed dipole along edir(3) : 
        Dipole                0.3328 Ry au,          0.8458 Debye
        Dipole field          0.0010 Ry au
 
        Potential amp.       -0.0905 Ry
        Total length         44.9721 bohr
 

     total cpu time spent up to now is      355.6 secs

     total energy              =   -1774.57358034 Ry
     Harris-Foulkes estimate   =   -1774.57371260 Ry
     estimated scf accuracy    <       0.00459583 Ry

     iteration # 22     ecut=    36.75 Ry     beta=0.30
     Davidson diagonalization with overlap
     ethr =  1.17E-06,  avg # of iterations =  1.4

     negative rho (up, down):  1.471E-02 0.000E+00
 
     Adding external electric field

     Computed dipole along edir(3) : 
        Dipole                0.3350 Ry au,          0.8515 Debye
        Dipole field          0.0010 Ry au
 
        Potential amp.       -0.0911 Ry
        Total length         44.9721 bohr
 

     total cpu time spent up to now is      369.5 secs

     total energy              =   -1774.57363121 Ry
     Harris-Foulkes estimate   =   -1774.57366002 Ry
     estimated scf accuracy    <       0.00043325 Ry

     iteration # 23     ecut=    36.75 Ry     beta=0.30
     Davidson diagonalization with overlap
     ethr =  2.66E-07,  avg # of iterations =  7.4

     negative rho (up, down):  1.491E-02 0.000E+00
 
     Adding external electric field

     Computed dipole along edir(3) : 
        Dipole                0.3397 Ry au,          0.8633 Debye
        Dipole field          0.0010 Ry au
 
        Potential amp.       -0.0923 Ry
        Total length         44.9721 bohr
 

     total cpu time spent up to now is      388.7 secs

     total energy              =   -1774.57368285 Ry
     Harris-Foulkes estimate   =   -1774.57369819 Ry
     estimated scf accuracy    <       0.00055072 Ry

     iteration # 24     ecut=    36.75 Ry     beta=0.30
     Davidson diagonalization with overlap
     ethr =  2.66E-07,  avg # of iterations =  1.0

     negative rho (up, down):  1.504E-02 0.000E+00
 
     Adding external electric field

     Computed dipole along edir(3) : 
        Dipole                0.3423 Ry au,          0.8702 Debye
        Dipole field          0.0010 Ry au
 
        Potential amp.       -0.0931 Ry
        Total length         44.9721 bohr
 

     total cpu time spent up to now is      402.1 secs

     total energy              =   -1774.57366572 Ry
     Harris-Foulkes estimate   =   -1774.57368375 Ry
     estimated scf accuracy    <       0.00028075 Ry

     iteration # 25     ecut=    36.75 Ry     beta=0.30
     Davidson diagonalization with overlap
     ethr =  1.72E-07,  avg # of iterations =  4.5

     negative rho (up, down):  1.508E-02 0.000E+00
 
     Adding external electric field

     Computed dipole along edir(3) : 
        Dipole                0.3433 Ry au,          0.8727 Debye
        Dipole field          0.0010 Ry au
 
        Potential amp.       -0.0933 Ry
        Total length         44.9721 bohr
 

     total cpu time spent up to now is      417.8 secs

     total energy              =   -1774.57368094 Ry
     Harris-Foulkes estimate   =   -1774.57368104 Ry
     estimated scf accuracy    <       0.00002186 Ry

     iteration # 26     ecut=    36.75 Ry     beta=0.30
     Davidson diagonalization with overlap
     ethr =  1.34E-08,  avg # of iterations =  8.4

     negative rho (up, down):  1.518E-02 0.000E+00
 
     Adding external electric field

     Computed dipole along edir(3) : 
        Dipole                0.3451 Ry au,          0.8773 Debye
        Dipole field          0.0010 Ry au
 
        Potential amp.       -0.0938 Ry
        Total length         44.9721 bohr
 

     total cpu time spent up to now is      438.4 secs

     total energy              =   -1774.57368191 Ry
     Harris-Foulkes estimate   =   -1774.57368324 Ry
     estimated scf accuracy    <       0.00005916 Ry

     iteration # 27     ecut=    36.75 Ry     beta=0.30
     Davidson diagonalization with overlap
     ethr =  1.34E-08,  avg # of iterations =  6.0

     negative rho (up, down):  1.527E-02 0.000E+00
 
     Adding external electric field

     Computed dipole along edir(3) : 
        Dipole                0.3466 Ry au,          0.8811 Debye
        Dipole field          0.0010 Ry au
 
        Potential amp.       -0.0942 Ry
        Total length         44.9721 bohr
 

     total cpu time spent up to now is      455.8 secs

     total energy              =   -1774.57368239 Ry
     Harris-Foulkes estimate   =   -1774.57368211 Ry
     estimated scf accuracy    <       0.00003351 Ry

     iteration # 28     ecut=    36.75 Ry     beta=0.30
     Davidson diagonalization with overlap
     ethr =  1.34E-08,  avg # of iterations =  3.5

     negative rho (up, down):  1.522E-02 0.000E+00
 
     Adding external electric field

     Computed dipole along edir(3) : 
        Dipole                0.3458 Ry au,          0.8788 Debye
        Dipole field          0.0010 Ry au
 
        Potential amp.       -0.0940 Ry
        Total length         44.9721 bohr
 

     total cpu time spent up to now is      470.2 secs

     total energy              =   -1774.57368299 Ry
     Harris-Foulkes estimate   =   -1774.57368550 Ry
     estimated scf accuracy    <       0.00001163 Ry

     iteration # 29     ecut=    36.75 Ry     beta=0.30
     Davidson diagonalization with overlap
     ethr =  7.13E-09,  avg # of iterations =  5.0

     negative rho (up, down):  1.528E-02 0.000E+00

     negative rho (up, down):  1.528E-02 0.000E+00

     negative rho (up, down):  1.528E-02 0.000E+00

     negative rho (up, down):  1.528E-02 0.000E+00

     negative rho (up, down):  1.528E-02 0.000E+00

     negative rho (up, down):  1.528E-02 0.000E+00

     negative rho (up, down):  1.528E-02 0.000E+00

     negative rho (up, down):  1.528E-02 0.000E+00

     negative rho (up, down):  1.528E-02 0.000E+00

     negative rho (up, down):  1.528E-02 0.000E+00

     negative rho (up, down):  1.528E-02 0.000E+00

     negative rho (up, down):  1.528E-02 0.000E+00

     negative rho (up, down):  1.528E-02 0.000E+00

     negative rho (up, down):  1.528E-02 0.000E+00

     negative rho (up, down):  1.528E-02 0.000E+00

     negative rho (up, down):  1.528E-02 0.000E+00

     negative rho (up, down):  1.528E-02 0.000E+00

     negative rho (up, down):  1.528E-02 0.000E+00

     negative rho (up, down):  1.528E-02 0.000E+00

     negative rho (up, down):  1.528E-02 0.000E+00

     negative rho (up, down):  1.528E-02 0.000E+00

     negative rho (up, down):  1.528E-02 0.000E+00

     negative rho (up, down):  1.528E-02 0.000E+00

     negative rho (up, down):  1.528E-02 0.000E+00

     negative rho (up, down):  1.528E-02 0.000E+00

     negative rho (up, down):  1.528E-02 0.000E+00

     negative rho (up, down):  1.528E-02 0.000E+00

     negative rho (up, down):  1.528E-02 0.000E+00

     negative rho (up, down):  1.528E-02 0.000E+00

     negative rho (up, down):  1.528E-02 0.000E+00

     negative rho (up, down):  1.528E-02 0.000E+00

     negative rho (up, down):  1.528E-02 0.000E+00

     negative rho (up, down):  1.528E-02 0.000E+00

     negative rho (up, down):  1.528E-02 0.000E+00

     negative rho (up, down):  1.528E-02 0.000E+00
 
     Adding external electric field

     Computed dipole along edir(3) : 
        Dipole                0.3383 Ry au,          0.8598 Debye
        Dipole field          0.0010 Ry au
 
        Potential amp.       -0.0919 Ry
        Total length         44.9721 bohr
 

     total cpu time spent up to now is      525.7 secs

     End of self-consistent calculation

          k = 0.0000 0.0000 0.0000 ( 15569 PWs)   bands (ev):

   -62.4624 -62.3945 -62.3486 -62.3261 -62.3200 -62.3193 -62.3011 -62.2829
   -62.2825 -62.2760 -62.2739 -62.2735 -36.5647 -36.5502 -36.5500 -36.5202
   -36.4903 -36.4885 -36.4884 -36.4332 -36.4269 -36.4267 -36.2614 -36.1905
   -36.1633 -36.1629 -36.1499 -36.1396 -36.1393 -36.0572 -36.0570 -36.0553
   -36.0048 -36.0007 -36.0002 -35.9705 -35.9704 -35.9620 -35.9525 -35.9214
   -35.9212 -35.9200 -35.8940 -35.8940 -35.8317 -35.8317 -35.8035 -35.8034
   -13.4413  -6.5705  -4.1215  -2.7649  -2.7648  -2.4603  -1.5274  -1.2230
    -1.2228  -1.1395  -0.9576  -0.8321  -0.8320  -0.5552  -0.4725  -0.4725
    -0.4001  -0.3629  -0.3628   0.4497   0.4498   0.5160   1.1082   1.4043
     1.4728   1.4728   1.6612   1.9125   1.9607   1.9607   2.0393   2.0999
     2.0999   2.1721   2.1721   2.2239   2.2457   2.2458   2.3006   2.3007
     2.4220   2.6739   2.6741

          k = 0.0000 0.0356 0.0000 ( 15635 PWs)   bands (ev):

   -62.4538 -62.3877 -62.3441 -62.3327 -62.3237 -62.3194 -62.3031 -62.2870
   -62.2827 -62.2784 -62.2750 -62.2734 -36.5398 -36.5282 -36.5160 -36.5033
   -36.4712 -36.4684 -36.4610 -36.4103 -36.4053 -36.3900 -36.2603 -36.2120
   -36.1889 -36.1830 -36.1414 -36.1268 -36.1241 -36.0715 -36.0702 -36.0461
   -36.0284 -36.0205 -35.9913 -35.9715 -35.9692 -35.9652 -35.9571 -35.9427
   -35.9425 -35.9292 -35.9131 -35.9052 -35.8644 -35.8418 -35.8407 -35.8112
   -13.4368  -6.5399  -3.9298  -2.8674  -2.7530  -2.2078  -1.3442  -1.2292
    -1.1042  -1.0584  -0.9023  -0.7913  -0.7320  -0.4336  -0.3827  -0.3710
    -0.3037  -0.2059  -0.2045   0.4942   0.5024   0.5523   1.1023   1.3809
     1.5105   1.5141   1.6214   1.7048   1.7831   1.8950   1.9141   1.9829
     2.0705   2.1121   2.1673   2.1786   2.1935   2.2274   2.2677   2.2759
     2.3971   2.4806   2.5224

          k = 0.0000 0.0713 0.0000 ( 15669 PWs)   bands (ev):

   -62.4301 -62.3707 -62.3598 -62.3312 -62.3228 -62.3196 -62.3145 -62.2949
   -62.2868 -62.2827 -62.2756 -62.2733 -36.4828 -36.4733 -36.4653 -36.4309
   -36.4219 -36.4168 -36.4052 -36.3580 -36.3531 -36.2893 -36.2632 -36.2377
   -36.2266 -36.2201 -36.1267 -36.1157 -36.1106 -36.0961 -36.0952 -36.0798
   -36.0690 -36.0444 -36.0178 -36.0116 -36.0079 -36.0040 -35.9671 -35.9657
   -35.9621 -35.9569 -35.9358 -35.9331 -35.9071 -35.8914 -35.8656 -35.8325
   -13.4277  -6.4793  -3.4480  -2.9125  -2.7318  -1.7197  -1.5716  -0.9238
    -0.8461  -0.8057  -0.6960  -0.5463  -0.5198  -0.2303  -0.0724  -0.0656
     0.0198   0.1552   0.1800   0.5674   0.6393   0.6888   0.8947   1.1556
     1.2503   1.3549   1.3558   1.4746   1.5546   1.6696   1.7144   1.7621
     1.8056   1.8195   1.8815   1.9442   2.0269   2.1073   2.2155   2.2531
     2.3461   2.3792   2.4246

          k = 0.0000-0.1069 0.0000 ( 15660 PWs)   bands (ev):

   -62.3987 -62.3948 -62.3498 -62.3360 -62.3241 -62.3197 -62.3104 -62.3065
   -62.2910 -62.2827 -62.2757 -62.2733 -36.4378 -36.4337 -36.4234 -36.4203
   -36.4026 -36.3956 -36.3266 -36.3131 -36.3118 -36.2990 -36.2659 -36.2648
   -36.1854 -36.1516 -36.1365 -36.1350 -36.1294 -36.1198 -36.1083 -36.0983
   -36.0817 -36.0746 -36.0711 -36.0661 -36.0628 -36.0558 -35.9804 -35.9767
   -35.9639 -35.9627 -35.9401 -35.9370 -35.9008 -35.8988 -35.8624 -35.8613
   -13.4231  -6.4493  -3.2360  -2.7224  -2.4788  -2.2992  -1.1443  -1.0257
    -0.5680  -0.5604  -0.4573  -0.4513  -0.2691  -0.2340   0.2360   0.2385
     0.2724   0.3655   0.4121   0.4898   0.7788   0.8307   0.8889   0.9092
     0.9804   1.0646   1.1691   1.3201   1.3401   1.4052   1.4359   1.5289
     1.5837   1.6350   1.6743   1.8347   1.8747   1.9272   2.0241   2.0297
     2.1564   2.4733   2.5252

          k = 0.0309-0.0178 0.0000 ( 15635 PWs)   bands (ev):

   -62.4538 -62.3877 -62.3441 -62.3328 -62.3232 -62.3198 -62.3030 -62.2873
   -62.2826 -62.2783 -62.2749 -62.2735 -36.5399 -36.5280 -36.5162 -36.5033
   -36.4712 -36.4685 -36.4610 -36.4103 -36.4053 -36.3900 -36.2603 -36.2119
   -36.1890 -36.1830 -36.1413 -36.1269 -36.1242 -36.0714 -36.0703 -36.0461
   -36.0283 -36.0206 -35.9913 -35.9715 -35.9692 -35.9652 -35.9571 -35.9427
   -35.9425 -35.9292 -35.9130 -35.9052 -35.8644 -35.8418 -35.8407 -35.8112
   -13.4368  -6.5399  -3.9298  -2.8674  -2.7530  -2.2078  -1.3442  -1.2292
    -1.1041  -1.0584  -0.9023  -0.7914  -0.7319  -0.4336  -0.3827  -0.3710
    -0.3037  -0.2060  -0.2045   0.4942   0.5024   0.5523   1.1023   1.3809
     1.5105   1.5142   1.6214   1.7048   1.7831   1.8950   1.9140   1.9829
     2.0705   2.1121   2.1673   2.1787   2.1936   2.2275   2.2677   2.2759
     2.3971   2.4807   2.5223

          k = 0.0309 0.0178 0.0000 ( 15635 PWs)   bands (ev):

   -62.4538 -62.3877 -62.3441 -62.3330 -62.3230 -62.3200 -62.3030 -62.2870
   -62.2829 -62.2783 -62.2747 -62.2738 -36.5399 -36.5280 -36.5162 -36.5033
   -36.4713 -36.4684 -36.4610 -36.4104 -36.4051 -36.3900 -36.2603 -36.2120
   -36.1888 -36.1832 -36.1411 -36.1271 -36.1241 -36.0713 -36.0704 -36.0460
   -36.0282 -36.0207 -35.9912 -35.9714 -35.9694 -35.9652 -35.9571 -35.9427
   -35.9425 -35.9292 -35.9130 -35.9052 -35.8644 -35.8418 -35.8407 -35.8112
   -13.4368  -6.5399  -3.9298  -2.8674  -2.7530  -2.2078  -1.3442  -1.2292
    -1.1041  -1.0585  -0.9023  -0.7914  -0.7319  -0.4336  -0.3828  -0.3710
    -0.3038  -0.2059  -0.2045   0.4941   0.5025   0.5523   1.1023   1.3809
     1.5106   1.5141   1.6214   1.7049   1.7831   1.8951   1.9139   1.9829
     2.0705   2.1121   2.1672   2.1787   2.1936   2.2275   2.2677   2.2759
     2.3971   2.4807   2.5223

          k = 0.0309 0.0535 0.0000 ( 15620 PWs)   bands (ev):

   -62.4377 -62.3754 -62.3453 -62.3403 -62.3319 -62.3125 -62.3075 -62.2957
   -62.2854 -62.2802 -62.2782 -62.2717 -36.5050 -36.4813 -36.4660 -36.4612
   -36.4402 -36.4250 -36.4238 -36.3813 -36.3434 -36.3357 -36.2616 -36.2365
   -36.2199 -36.2103 -36.1362 -36.1202 -36.1156 -36.1021 -36.0897 -36.0502
   -36.0488 -36.0160 -36.0100 -36.0016 -35.9972 -35.9891 -35.9773 -35.9571
   -35.9485 -35.9314 -35.9272 -35.9251 -35.9221 -35.8889 -35.8566 -35.8309
   -13.4300  -6.4945  -3.5828  -2.9053  -2.7657  -1.8241  -1.2701  -1.2264
    -0.9662  -0.8339  -0.8097  -0.7096  -0.4306  -0.2325  -0.2189  -0.1475
    -0.0583   0.0376   0.0397   0.5446   0.6010   0.6363   0.9997   1.2810
     1.3255   1.4143   1.4813   1.4908   1.5790   1.6653   1.7738   1.8165
     1.8820   1.9354   1.9846   2.0730   2.1376   2.1443   2.1981   2.2408
     2.4005   2.4225   2.4688

          k = 0.0309-0.1248 0.0000 ( 15642 PWs)   bands (ev):

   -62.4092 -62.3753 -62.3547 -62.3458 -62.3262 -62.3146 -62.3056 -62.3037
   -62.2958 -62.2847 -62.2768 -62.2701 -36.4459 -36.4344 -36.4099 -36.4010
   -36.3940 -36.3888 -36.3593 -36.3306 -36.2951 -36.2789 -36.2750 -36.2492
   -36.2244 -36.2031 -36.1783 -36.1492 -36.1170 -36.1133 -36.1008 -36.0929
   -36.0768 -36.0732 -36.0537 -36.0430 -36.0236 -36.0080 -35.9890 -35.9824
   -35.9654 -35.9595 -35.9372 -35.9286 -35.9247 -35.8955 -35.8912 -35.8619
   -13.4231  -6.4497  -3.2031  -2.8119  -2.6212  -1.8634  -1.2525  -1.1580
    -0.8270  -0.5973  -0.4242  -0.3280  -0.1433  -0.0460   0.1449   0.1950
     0.2245   0.3108   0.4203   0.6049   0.7048   0.7406   0.8803   0.9163
     0.9760   1.0782   1.1343   1.2381   1.3538   1.3859   1.4648   1.5148
     1.5926   1.6122   1.6769   1.7552   1.8694   1.9603   2.0275   2.1551
     2.2650   2.3336   2.4908

          k = 0.0309-0.0891 0.0000 ( 15642 PWs)   bands (ev):

   -62.4092 -62.3753 -62.3548 -62.3457 -62.3262 -62.3146 -62.3057 -62.3036
   -62.2960 -62.2847 -62.2767 -62.2701 -36.4460 -36.4343 -36.4099 -36.4010
   -36.3940 -36.3888 -36.3593 -36.3306 -36.2952 -36.2788 -36.2750 -36.2492
   -36.2244 -36.2031 -36.1783 -36.1492 -36.1170 -36.1133 -36.1008 -36.0929
   -36.0768 -36.0732 -36.0536 -36.0430 -36.0236 -36.0080 -35.9890 -35.9825
   -35.9654 -35.9595 -35.9372 -35.9286 -35.9247 -35.8955 -35.8912 -35.8619
   -13.4231  -6.4497  -3.2031  -2.8119  -2.6212  -1.8634  -1.2525  -1.1580
    -0.8270  -0.5973  -0.4242  -0.3280  -0.1433  -0.0460   0.1449   0.1950
     0.2245   0.3108   0.4203   0.6049   0.7047   0.7407   0.8803   0.9163
     0.9760   1.0781   1.1343   1.2381   1.3538   1.3859   1.4648   1.5148
     1.5926   1.6121   1.6769   1.7552   1.8694   1.9603   2.0275   2.1551
     2.2650   2.3336   2.4908

          k = 0.0309-0.0535 0.0000 ( 15620 PWs)   bands (ev):

   -62.4377 -62.3755 -62.3453 -62.3404 -62.3318 -62.3125 -62.3073 -62.2958
   -62.2856 -62.2803 -62.2780 -62.2717 -36.5050 -36.4812 -36.4661 -36.4613
   -36.4402 -36.4251 -36.4238 -36.3813 -36.3435 -36.3356 -36.2616 -36.2366
   -36.2198 -36.2103 -36.1363 -36.1201 -36.1156 -36.1021 -36.0897 -36.0502
   -36.0488 -36.0160 -36.0100 -36.0016 -35.9971 -35.9891 -35.9773 -35.9571
   -35.9484 -35.9315 -35.9272 -35.9251 -35.9221 -35.8889 -35.8566 -35.8308
   -13.4300  -6.4945  -3.5828  -2.9053  -2.7656  -1.8241  -1.2701  -1.2264
    -0.9662  -0.8340  -0.8096  -0.7096  -0.4305  -0.2325  -0.2189  -0.1475
    -0.0583   0.0375   0.0397   0.5446   0.6009   0.6364   0.9997   1.2810
     1.3255   1.4144   1.4813   1.4909   1.5790   1.6654   1.7738   1.8164
     1.8820   1.9354   1.9847   2.0730   2.1377   2.1443   2.1981   2.2408
     2.4005   2.4225   2.4688

          k = 0.0617-0.0356 0.0000 ( 15669 PWs)   bands (ev):

   -62.4301 -62.3708 -62.3598 -62.3313 -62.3224 -62.3200 -62.3143 -62.2950
   -62.2870 -62.2826 -62.2754 -62.2734 -36.4829 -36.4731 -36.4654 -36.4309
   -36.4221 -36.4167 -36.4052 -36.3580 -36.3531 -36.2894 -36.2632 -36.2377
   -36.2266 -36.2202 -36.1266 -36.1158 -36.1106 -36.0960 -36.0954 -36.0797
   -36.0690 -36.0445 -36.0178 -36.0115 -36.0079 -36.0041 -35.9672 -35.9659
   -35.9620 -35.9568 -35.9359 -35.9331 -35.9071 -35.8914 -35.8656 -35.8325
   -13.4277  -6.4793  -3.4481  -2.9125  -2.7317  -1.7197  -1.5716  -0.9238
    -0.8461  -0.8057  -0.6960  -0.5464  -0.5197  -0.2303  -0.0725  -0.0655
     0.0198   0.1552   0.1800   0.5674   0.6393   0.6888   0.8947   1.1557
     1.2504   1.3548   1.3557   1.4746   1.5546   1.6696   1.7144   1.7620
     1.8057   1.8194   1.8815   1.9442   2.0269   2.1073   2.2156   2.2530
     2.3461   2.3792   2.4245

          k = 0.0617 0.0000 0.0000 ( 15620 PWs)   bands (ev):

   -62.4377 -62.3755 -62.3453 -62.3403 -62.3320 -62.3125 -62.3073 -62.2960
   -62.2853 -62.2805 -62.2780 -62.2717 -36.5050 -36.4813 -36.4659 -36.4614
   -36.4402 -36.4251 -36.4237 -36.3813 -36.3434 -36.3357 -36.2615 -36.2365
   -36.2200 -36.2103 -36.1362 -36.1200 -36.1157 -36.1022 -36.0896 -36.0503
   -36.0488 -36.0161 -36.0100 -36.0019 -35.9969 -35.9891 -35.9773 -35.9569
   -35.9486 -35.9315 -35.9271 -35.9251 -35.9222 -35.8889 -35.8566 -35.8308
   -13.4300  -6.4945  -3.5828  -2.9053  -2.7656  -1.8241  -1.2700  -1.2264
    -0.9662  -0.8339  -0.8097  -0.7097  -0.4305  -0.2325  -0.2189  -0.1475
    -0.0583   0.0376   0.0397   0.5446   0.6010   0.6363   0.9997   1.2810
     1.3255   1.4144   1.4812   1.4909   1.5789   1.6654   1.7738   1.8164
     1.8820   1.9354   1.9846   2.0730   2.1376   2.1444   2.1982   2.2407
     2.4005   2.4226   2.4689

          k = 0.0617 0.0356 0.0000 ( 15669 PWs)   bands (ev):

   -62.4301 -62.3707 -62.3599 -62.3313 -62.3222 -62.3202 -62.3144 -62.2949
   -62.2866 -62.2829 -62.2752 -62.2737 -36.4829 -36.4730 -36.4654 -36.4310
   -36.4220 -36.4168 -36.4052 -36.3582 -36.3529 -36.2893 -36.2632 -36.2376
   -36.2268 -36.2200 -36.1265 -36.1157 -36.1108 -36.0959 -36.0956 -36.0795
   -36.0692 -36.0445 -36.0178 -36.0114 -36.0079 -36.0042 -35.9671 -35.9661
   -35.9620 -35.9567 -35.9358 -35.9331 -35.9071 -35.8914 -35.8656 -35.8325
   -13.4277  -6.4793  -3.4481  -2.9125  -2.7318  -1.7197  -1.5716  -0.9238
    -0.8462  -0.8056  -0.6960  -0.5464  -0.5197  -0.2303  -0.0725  -0.0655
     0.0198   0.1551   0.1801   0.5674   0.6394   0.6888   0.8947   1.1557
     1.2504   1.3549   1.3557   1.4746   1.5545   1.6696   1.7144   1.7621
     1.8057   1.8194   1.8815   1.9442   2.0269   2.1073   2.2156   2.2531
     2.3461   2.3793   2.4245

          k = 0.0617-0.1426 0.0000 ( 15642 PWs)   bands (ev):

   -62.4092 -62.3752 -62.3549 -62.3457 -62.3262 -62.3147 -62.3058 -62.3036
   -62.2958 -62.2847 -62.2768 -62.2701 -36.4459 -36.4344 -36.4099 -36.4009
   -36.3941 -36.3889 -36.3593 -36.3306 -36.2952 -36.2789 -36.2749 -36.2492
   -36.2244 -36.2031 -36.1783 -36.1492 -36.1171 -36.1132 -36.1008 -36.0929
   -36.0768 -36.0733 -36.0537 -36.0430 -36.0237 -36.0080 -35.9889 -35.9825
   -35.9654 -35.9595 -35.9371 -35.9286 -35.9247 -35.8955 -35.8912 -35.8619
   -13.4231  -6.4497  -3.2032  -2.8119  -2.6212  -1.8634  -1.2525  -1.1580
    -0.8270  -0.5973  -0.4242  -0.3280  -0.1433  -0.0460   0.1449   0.1950
     0.2245   0.3108   0.4203   0.6049   0.7047   0.7407   0.8803   0.9162
     0.9761   1.0781   1.1343   1.2381   1.3538   1.3859   1.4649   1.5147
     1.5926   1.6122   1.6769   1.7552   1.8694   1.9603   2.0275   2.1552
     2.2649   2.3336   2.4908

          k = 0.0617-0.1069 0.0000 ( 15672 PWs)   bands (ev):

   -62.3837 -62.3792 -62.3758 -62.3399 -62.3236 -62.3215 -62.3021 -62.2998
   -62.2974 -62.2960 -62.2756 -62.2682 -36.3997 -36.3991 -36.3917 -36.3763
   -36.3758 -36.3635 -36.3378 -36.3318 -36.3301 -36.2559 -36.2441 -36.2279
   -36.2210 -36.1991 -36.1937 -36.1795 -36.1703 -36.1699 -36.1082 -36.0948
   -36.0924 -36.0897 -36.0815 -36.0109 -36.0032 -36.0008 -35.9957 -35.9662
   -35.9621 -35.9615 -35.9429 -35.9378 -35.9369 -35.9067 -35.9033 -35.9004
   -13.4209  -6.4352  -3.0358  -2.9594  -1.9835  -1.9587  -1.8523  -0.7966
    -0.7670  -0.6987  -0.0415  -0.0349   0.0594   0.1589   0.1607   0.1648
     0.5180   0.5437   0.5449   0.5663   0.5780   0.6572   0.6885   0.7099
     0.8895   0.9999   1.0596   1.1284   1.1951   1.1974   1.2373   1.2633
     1.4272   1.4455   1.5920   1.6613   1.6806   1.8569   2.1782   2.1923
     2.3229   2.4629   2.4703

          k = 0.0617-0.0713 0.0000 ( 15642 PWs)   bands (ev):

   -62.4092 -62.3753 -62.3548 -62.3457 -62.3261 -62.3145 -62.3059 -62.3037
   -62.2959 -62.2849 -62.2766 -62.2701 -36.4460 -36.4343 -36.4098 -36.4009
   -36.3940 -36.3890 -36.3593 -36.3305 -36.2952 -36.2788 -36.2750 -36.2492
   -36.2245 -36.2031 -36.1783 -36.1492 -36.1170 -36.1133 -36.1007 -36.0930
   -36.0769 -36.0733 -36.0536 -36.0430 -36.0236 -36.0080 -35.9889 -35.9825
   -35.9654 -35.9595 -35.9372 -35.9286 -35.9247 -35.8955 -35.8912 -35.8619
   -13.4231  -6.4497  -3.2032  -2.8118  -2.6212  -1.8634  -1.2525  -1.1580
    -0.8270  -0.5973  -0.4242  -0.3280  -0.1434  -0.0460   0.1449   0.1950
     0.2245   0.3108   0.4203   0.6049   0.7047   0.7407   0.8803   0.9162
     0.9761   1.0781   1.1343   1.2382   1.3539   1.3859   1.4648   1.5147
     1.5926   1.6121   1.6769   1.7552   1.8694   1.9603   2.0275   2.1552
     2.2650   2.3336   2.4908

          k =-0.0926 0.0535 0.0000 ( 15660 PWs)   bands (ev):

   -62.3989 -62.3946 -62.3500 -62.3357 -62.3238 -62.3201 -62.3104 -62.3062
   -62.2914 -62.2826 -62.2754 -62.2734 -36.4381 -36.4333 -36.4231 -36.4205
   -36.4025 -36.3958 -36.3266 -36.3131 -36.3119 -36.2989 -36.2661 -36.2647
   -36.1856 -36.1515 -36.1367 -36.1349 -36.1293 -36.1197 -36.1084 -36.0983
   -36.0812 -36.0750 -36.0712 -36.0660 -36.0628 -36.0557 -35.9804 -35.9768
   -35.9637 -35.9629 -35.9403 -35.9368 -35.9010 -35.8985 -35.8625 -35.8612
   -13.4231  -6.4493  -3.2361  -2.7223  -2.4788  -2.2992  -1.1443  -1.0257
    -0.5681  -0.5603  -0.4575  -0.4511  -0.2691  -0.2340   0.2357   0.2387
     0.2725   0.3654   0.4122   0.4898   0.7789   0.8307   0.8888   0.9093
     0.9806   1.0646   1.1691   1.3200   1.3402   1.4052   1.4359   1.5289
     1.5836   1.6350   1.6744   1.8347   1.8747   1.9271   2.0240   2.0298
     2.1565   2.4732   2.5250

          k =-0.0926 0.0891 0.0000 ( 15642 PWs)   bands (ev):

   -62.4092 -62.3753 -62.3548 -62.3457 -62.3261 -62.3146 -62.3057 -62.3038
   -62.2958 -62.2849 -62.2766 -62.2701 -36.4459 -36.4344 -36.4098 -36.4009
   -36.3940 -36.3890 -36.3593 -36.3305 -36.2952 -36.2787 -36.2751 -36.2493
   -36.2245 -36.2031 -36.1783 -36.1493 -36.1170 -36.1132 -36.1007 -36.0930
   -36.0768 -36.0734 -36.0536 -36.0430 -36.0236 -36.0080 -35.9889 -35.9824
   -35.9654 -35.9595 -35.9371 -35.9286 -35.9247 -35.8955 -35.8912 -35.8619
   -13.4231  -6.4497  -3.2032  -2.8118  -2.6212  -1.8634  -1.2525  -1.1581
    -0.8269  -0.5973  -0.4243  -0.3280  -0.1433  -0.0460   0.1449   0.1950
     0.2245   0.3108   0.4203   0.6049   0.7047   0.7407   0.8803   0.9163
     0.9761   1.0782   1.1343   1.2381   1.3538   1.3859   1.4648   1.5147
     1.5926   1.6122   1.6769   1.7552   1.8694   1.9603   2.0275   2.1552
     2.2650   2.3336   2.4908

          k =-0.0926 0.1248 0.0000 ( 15642 PWs)   bands (ev):

   -62.4092 -62.3752 -62.3549 -62.3456 -62.3262 -62.3147 -62.3057 -62.3036
   -62.2958 -62.2848 -62.2767 -62.2701 -36.4459 -36.4344 -36.4098 -36.4009
   -36.3941 -36.3889 -36.3593 -36.3306 -36.2952 -36.2787 -36.2750 -36.2492
   -36.2245 -36.2031 -36.1783 -36.1492 -36.1170 -36.1131 -36.1008 -36.0930
   -36.0767 -36.0734 -36.0536 -36.0430 -36.0236 -36.0080 -35.9889 -35.9825
   -35.9653 -35.9595 -35.9371 -35.9286 -35.9247 -35.8955 -35.8912 -35.8619
   -13.4231  -6.4497  -3.2032  -2.8118  -2.6212  -1.8634  -1.2525  -1.1580
    -0.8270  -0.5973  -0.4242  -0.3280  -0.1433  -0.0460   0.1449   0.1950
     0.2245   0.3108   0.4203   0.6049   0.7047   0.7408   0.8803   0.9163
     0.9761   1.0781   1.1343   1.2381   1.3538   1.3860   1.4648   1.5147
     1.5926   1.6121   1.6769   1.7552   1.8694   1.9603   2.0275   2.1552
     2.2649   2.3336   2.4908

          k =-0.0926-0.0535 0.0000 ( 15660 PWs)   bands (ev):

   -62.3988 -62.3947 -62.3499 -62.3359 -62.3236 -62.3203 -62.3104 -62.3063
   -62.2908 -62.2829 -62.2752 -62.2736 -36.4381 -36.4332 -36.4232 -36.4204
   -36.4026 -36.3956 -36.3268 -36.3129 -36.3118 -36.2991 -36.2663 -36.2645
   -36.1853 -36.1517 -36.1366 -36.1350 -36.1292 -36.1199 -36.1081 -36.0985
   -36.0811 -36.0751 -36.0712 -36.0659 -36.0627 -36.0559 -35.9804 -35.9768
   -35.9635 -35.9630 -35.9403 -35.9368 -35.9007 -35.8988 -35.8623 -35.8614
   -13.4231  -6.4493  -3.2360  -2.7223  -2.4788  -2.2992  -1.1443  -1.0257
    -0.5680  -0.5604  -0.4575  -0.4510  -0.2691  -0.2340   0.2357   0.2387
     0.2724   0.3655   0.4121   0.4898   0.7788   0.8307   0.8889   0.9092
     0.9806   1.0645   1.1691   1.3199   1.3402   1.4052   1.4359   1.5289
     1.5837   1.6349   1.6743   1.8347   1.8748   1.9271   2.0241   2.0297
     2.1564   2.4733   2.5252

     the Fermi energy is     1.8277 ev

!    total energy              =   -1774.57368032 Ry
     Harris-Foulkes estimate   =   -1774.57369938 Ry
     estimated scf accuracy    <       0.00000393 Ry

     The total energy is the sum of the following terms:

     one-electron contribution =  -15381.86547126 Ry
     hartree contribution      =    7684.21949832 Ry
     xc contribution           =    -254.05537796 Ry
     ewald contribution        =    6177.27301857 Ry
     electric field correction =       0.00034579 Ry
     smearing contrib. (-TS)   =      -0.14569377 Ry

     convergence has been achieved in  29 iterations
 
 BEEF-vdW xc energy contributions
           1 :   -218.789103125423     
           2 :    196.230631749070     
           3 :   -158.933934331831     
           4 :    118.549848874558     
           5 :   -85.2735436967415     
           6 :    64.0519421875214     
           7 :   -53.8615807190540     
           8 :    49.8640077219465     
           9 :   -46.8317431716833     
          10 :    41.8398581365918     
          11 :   -35.0100698656088     
          12 :    28.3714311074800     
          13 :   -23.9313192167915     
          14 :    22.2546806500175     
          15 :   -22.2936203142015     
          16 :    22.3108633062367     
          17 :   -21.1089002290194     
          18 :    18.7099951326314     
          19 :   -16.1217891147215     
          20 :    14.4717290434193     
          21 :   -14.1804988402126     
          22 :    14.7296809489719     
          23 :   -15.1120629207744     
          24 :    14.5728076594817     
          25 :   -13.1022523593757     
          26 :    11.3687008578947     
          27 :   -10.1950522392790     
          28 :    9.97781869376297     
          29 :   -10.4484272744783     
          30 :    10.9083323650767     
          31 :   -22.8155997982410     
          32 :   -16.4411257371422     

     Forces acting on atoms (Ry/au):


     negative rho (up, down):  1.528E-02 0.000E+00
     atom    1 type  1   force =    -0.00085385   -0.00048386   -0.00113090
     atom    2 type  1   force =     0.00086111   -0.00046990   -0.00118856
     atom    3 type  1   force =     0.00001988    0.00097251   -0.00118963
     atom    4 type  1   force =    -0.00001593   -0.00001707   -0.00090473
     atom    5 type  1   force =     0.00000598   -0.00033272   -0.00588275
     atom    6 type  1   force =    -0.00000915    0.00001801   -0.00680811
     atom    7 type  1   force =     0.00030946    0.00015239   -0.00589705
     atom    8 type  1   force =    -0.00029986    0.00015521   -0.00593453
     atom    9 type  1   force =     0.00001427    0.00001041   -0.01636249
     atom   10 type  1   force =     0.00000304   -0.04445859    0.00369600
     atom   11 type  1   force =    -0.03851743    0.02221436    0.00368719
     atom   12 type  1   force =     0.03851856    0.02222244    0.00365079
     atom   13 type  2   force =    -0.00003866    0.00001992   -0.10225604
     atom   14 type  3   force =     0.00000258   -0.00000311    0.13652082

     Total force =     0.187973     Total SCF correction =     0.001273


     entering subroutine stress ...


     negative rho (up, down):  1.528E-02 0.000E+00
          total   stress  (Ry/bohr**3)                   (kbar)     P=   -7.64
  -0.00014376   0.00000003  -0.00000010        -21.15      0.00     -0.02
   0.00000003  -0.00014364   0.00000004          0.00    -21.13      0.01
  -0.00000010   0.00000004   0.00013160         -0.02      0.01     19.36


     BFGS Geometry Optimization

     number of scf cycles    =   1
     number of bfgs steps    =   0

     energy   new            =   -1774.5736803156 Ry

     new trust radius        =       0.1365208223 bohr
     new conv_thr            =       0.0000099958 Ry


ATOMIC_POSITIONS (crystal)
V1       0.166666667   0.166666667   0.409694847    0   0   0
V1       0.666666667   0.166666667   0.409694847    0   0   0
V1       0.166666667   0.666666667   0.409694847    0   0   0
V1       0.666666667   0.666666667   0.409694847    0   0   0
V1       0.833333333   0.333333333   0.500000000    0   0   0
V1       0.333333333   0.333333333   0.500000000    0   0   0
V1       0.833333333   0.833333333   0.500000000    0   0   0
V1       0.333333333   0.833333333   0.500000000    0   0   0
V1       0.000000809   0.000001178   0.589950413
V1       0.502516054  -0.005031513   0.590385283
V1      -0.005032153   0.502514066   0.590385092
V1       0.502517741   0.502514980   0.590384303
S1       0.333328417   0.333335588   0.656794056
H1       0.333333762   0.333332982   0.713182623



     Writing output data file calc.save
     Check: negative starting charge=   -0.011480
     NEW-OLD atomic charge density approx. for the potential

     Check: negative/imaginary core charge=   -0.000001    0.000000
     Check: negative starting charge=   -0.011114

     negative rho (up, down):  1.513E-02 0.000E+00
 
     Adding external electric field

     Computed dipole along edir(3) : 
        Dipole                0.3383 Ry au,          0.8598 Debye
        Dipole field          0.0010 Ry au
 
        Potential amp.       -0.0919 Ry
        Total length         44.9721 bohr
 

     total cpu time spent up to now is      579.2 secs

     per-process dynamical memory:   108.0 Mb

     Self-consistent Calculation

     iteration #  1     ecut=    36.75 Ry     beta=0.30
     Davidson diagonalization with overlap
     c_bands:  1 eigenvalues not converged
     ethr =  1.00E-06,  avg # of iterations = 15.8

     negative rho (up, down):  1.513E-02 0.000E+00
 
     Adding external electric field

     Computed dipole along edir(3) : 
        Dipole                0.4288 Ry au,          1.0900 Debye
        Dipole field          0.0013 Ry au
 
        Potential amp.       -0.1166 Ry
        Total length         44.9721 bohr
 

     total cpu time spent up to now is      608.6 secs

     total energy              =   -1774.58454985 Ry
     Harris-Foulkes estimate   =   -1774.59144276 Ry
     estimated scf accuracy    <       0.01671851 Ry

     iteration #  2     ecut=    36.75 Ry     beta=0.30
     Davidson diagonalization with overlap
     ethr =  1.03E-05,  avg # of iterations =  6.3

     negative rho (up, down):  1.514E-02 0.000E+00
 
     Adding external electric field

     Computed dipole along edir(3) : 
        Dipole                0.2601 Ry au,          0.6611 Debye
        Dipole field          0.0008 Ry au
 
        Potential amp.       -0.0707 Ry
        Total length         44.9721 bohr
 

     total cpu time spent up to now is      628.9 secs

     total energy              =   -1774.55058858 Ry
     Harris-Foulkes estimate   =   -1774.62053313 Ry
     estimated scf accuracy    <       2.67389201 Ry

     iteration #  3     ecut=    36.75 Ry     beta=0.30
     Davidson diagonalization with overlap
     ethr =  1.03E-05,  avg # of iterations =  7.5

     negative rho (up, down):  1.515E-02 0.000E+00
 
     Adding external electric field

     Computed dipole along edir(3) : 
        Dipole                0.3512 Ry au,          0.8927 Debye
        Dipole field          0.0011 Ry au
 
        Potential amp.       -0.0955 Ry
        Total length         44.9721 bohr
 

     total cpu time spent up to now is      649.7 secs

     total energy              =   -1774.56579561 Ry
     Harris-Foulkes estimate   =   -1774.61221258 Ry
     estimated scf accuracy    <       2.61566398 Ry

     iteration #  4     ecut=    36.75 Ry     beta=0.30
     Davidson diagonalization with overlap
     ethr =  1.03E-05,  avg # of iterations =  6.5

     negative rho (up, down):  1.516E-02 0.000E+00
 
     Adding external electric field

     Computed dipole along edir(3) : 
        Dipole                0.3355 Ry au,          0.8529 Debye
        Dipole field          0.0010 Ry au
 
        Potential amp.       -0.0912 Ry
        Total length         44.9721 bohr
 

     total cpu time spent up to now is      669.8 secs

     total energy              =   -1774.58815370 Ry
     Harris-Foulkes estimate   =   -1774.59077502 Ry
     estimated scf accuracy    <       0.02709952 Ry

     iteration #  5     ecut=    36.75 Ry     beta=0.30
     Davidson diagonalization with overlap
     ethr =  1.03E-05,  avg # of iterations =  4.2

     negative rho (up, down):  1.517E-02 0.000E+00
 
     Adding external electric field

     Computed dipole along edir(3) : 
        Dipole                0.3067 Ry au,          0.7795 Debye
        Dipole field          0.0009 Ry au
 
        Potential amp.       -0.0834 Ry
        Total length         44.9721 bohr
 

     total cpu time spent up to now is      685.7 secs

     total energy              =   -1774.58899129 Ry
     Harris-Foulkes estimate   =   -1774.59060141 Ry
     estimated scf accuracy    <       0.01881201 Ry

     iteration #  6     ecut=    36.75 Ry     beta=0.30
     Davidson diagonalization with overlap
     ethr =  1.03E-05,  avg # of iterations =  2.1

     negative rho (up, down):  1.518E-02 0.000E+00
 
     Adding external electric field

     Computed dipole along edir(3) : 
        Dipole                0.3067 Ry au,          0.7795 Debye
        Dipole field          0.0009 Ry au
 
        Potential amp.       -0.0834 Ry
        Total length         44.9721 bohr
 

     total cpu time spent up to now is      700.1 secs

     total energy              =   -1774.58936573 Ry
     Harris-Foulkes estimate   =   -1774.58976573 Ry
     estimated scf accuracy    <       0.00319044 Ry

     iteration #  7     ecut=    36.75 Ry     beta=0.30
     Davidson diagonalization with overlap
     ethr =  1.96E-06,  avg # of iterations =  5.0

     negative rho (up, down):  1.519E-02 0.000E+00
 
     Adding external electric field

     Computed dipole along edir(3) : 
        Dipole                0.3126 Ry au,          0.7946 Debye
        Dipole field          0.0009 Ry au
 
        Potential amp.       -0.0850 Ry
        Total length         44.9721 bohr
 

     total cpu time spent up to now is      717.5 secs

     total energy              =   -1774.58970407 Ry
     Harris-Foulkes estimate   =   -1774.58995375 Ry
     estimated scf accuracy    <       0.00219866 Ry

     iteration #  8     ecut=    36.75 Ry     beta=0.30
     Davidson diagonalization with overlap
     ethr =  1.35E-06,  avg # of iterations =  4.0

     negative rho (up, down):  1.520E-02 0.000E+00
 
     Adding external electric field

     Computed dipole along edir(3) : 
        Dipole                0.3098 Ry au,          0.7875 Debye
        Dipole field          0.0009 Ry au
 
        Potential amp.       -0.0842 Ry
        Total length         44.9721 bohr
 

     total cpu time spent up to now is      732.8 secs

     total energy              =   -1774.58979136 Ry
     Harris-Foulkes estimate   =   -1774.58985230 Ry
     estimated scf accuracy    <       0.00061936 Ry

     iteration #  9     ecut=    36.75 Ry     beta=0.30
     Davidson diagonalization with overlap
     ethr =  3.80E-07,  avg # of iterations =  5.9

     negative rho (up, down):  1.520E-02 0.000E+00
 
     Adding external electric field

     Computed dipole along edir(3) : 
        Dipole                0.3094 Ry au,          0.7865 Debye
        Dipole field          0.0009 Ry au
 
        Potential amp.       -0.0841 Ry
        Total length         44.9721 bohr
 

     total cpu time spent up to now is      751.3 secs

     total energy              =   -1774.58984719 Ry
     Harris-Foulkes estimate   =   -1774.58989821 Ry
     estimated scf accuracy    <       0.00074020 Ry

     iteration # 10     ecut=    36.75 Ry     beta=0.30
     Davidson diagonalization with overlap
     ethr =  3.80E-07,  avg # of iterations =  1.0

     negative rho (up, down):  1.520E-02 0.000E+00
 
     Adding external electric field

     Computed dipole along edir(3) : 
        Dipole                0.3092 Ry au,          0.7860 Debye
        Dipole field          0.0009 Ry au
 
        Potential amp.       -0.0841 Ry
        Total length         44.9721 bohr
 

     total cpu time spent up to now is      765.2 secs

     total energy              =   -1774.58984987 Ry
     Harris-Foulkes estimate   =   -1774.58986956 Ry
     estimated scf accuracy    <       0.00030446 Ry

     iteration # 11     ecut=    36.75 Ry     beta=0.30
     Davidson diagonalization with overlap
     ethr =  1.87E-07,  avg # of iterations =  5.2

     negative rho (up, down):  1.520E-02 0.000E+00
 
     Adding external electric field

     Computed dipole along edir(3) : 
        Dipole                0.3090 Ry au,          0.7854 Debye
        Dipole field          0.0009 Ry au
 
        Potential amp.       -0.0840 Ry
        Total length         44.9721 bohr
 

     total cpu time spent up to now is      781.8 secs

     total energy              =   -1774.58986338 Ry
     Harris-Foulkes estimate   =   -1774.58987582 Ry
     estimated scf accuracy    <       0.00016361 Ry

     iteration # 12     ecut=    36.75 Ry     beta=0.30
     Davidson diagonalization with overlap
     ethr =  1.00E-07,  avg # of iterations =  3.0

     negative rho (up, down):  1.521E-02 0.000E+00
 
     Adding external electric field

     Computed dipole along edir(3) : 
        Dipole                0.3075 Ry au,          0.7816 Debye
        Dipole field          0.0009 Ry au
 
        Potential amp.       -0.0836 Ry
        Total length         44.9721 bohr
 

     total cpu time spent up to now is      796.5 secs

     total energy              =   -1774.58986032 Ry
     Harris-Foulkes estimate   =   -1774.58987272 Ry
     estimated scf accuracy    <       0.00007514 Ry

     iteration # 13     ecut=    36.75 Ry     beta=0.30
     Davidson diagonalization with overlap
     ethr =  4.61E-08,  avg # of iterations =  5.8

     negative rho (up, down):  1.521E-02 0.000E+00
 
     Adding external electric field

     Computed dipole along edir(3) : 
        Dipole                0.3079 Ry au,          0.7827 Debye
        Dipole field          0.0009 Ry au
 
        Potential amp.       -0.0837 Ry
        Total length         44.9721 bohr
 

     total cpu time spent up to now is      814.6 secs

     total energy              =   -1774.58986833 Ry
     Harris-Foulkes estimate   =   -1774.58987333 Ry
     estimated scf accuracy    <       0.00009743 Ry

     iteration # 14     ecut=    36.75 Ry     beta=0.30
     Davidson diagonalization with overlap
     ethr =  4.61E-08,  avg # of iterations =  1.3

     negative rho (up, down):  1.521E-02 0.000E+00
 
     Adding external electric field

     Computed dipole along edir(3) : 
        Dipole                0.3072 Ry au,          0.7808 Debye
        Dipole field          0.0009 Ry au
 
        Potential amp.       -0.0835 Ry
        Total length         44.9721 bohr
 

     total cpu time spent up to now is      828.7 secs

     total energy              =   -1774.58986884 Ry
     Harris-Foulkes estimate   =   -1774.58987176 Ry
     estimated scf accuracy    <       0.00004903 Ry

     iteration # 15     ecut=    36.75 Ry     beta=0.30
     Davidson diagonalization with overlap
     ethr =  3.01E-08,  avg # of iterations =  4.8

     negative rho (up, down):  1.521E-02 0.000E+00
 
     Adding external electric field

     Computed dipole along edir(3) : 
        Dipole                0.3088 Ry au,          0.7848 Debye
        Dipole field          0.0009 Ry au
 
        Potential amp.       -0.0839 Ry
        Total length         44.9721 bohr
 

     total cpu time spent up to now is      844.3 secs

     total energy              =   -1774.58986648 Ry
     Harris-Foulkes estimate   =   -1774.58986888 Ry
     estimated scf accuracy    <       0.00023719 Ry

     iteration # 16     ecut=    36.75 Ry     beta=0.30
     Davidson diagonalization with overlap
     ethr =  3.01E-08,  avg # of iterations =  4.2

     negative rho (up, down):  1.521E-02 0.000E+00

     negative rho (up, down):  1.521E-02 0.000E+00

     negative rho (up, down):  1.521E-02 0.000E+00

     negative rho (up, down):  1.521E-02 0.000E+00

     negative rho (up, down):  1.521E-02 0.000E+00

     negative rho (up, down):  1.521E-02 0.000E+00

     negative rho (up, down):  1.521E-02 0.000E+00

     negative rho (up, down):  1.521E-02 0.000E+00

     negative rho (up, down):  1.521E-02 0.000E+00

     negative rho (up, down):  1.521E-02 0.000E+00

     negative rho (up, down):  1.521E-02 0.000E+00

     negative rho (up, down):  1.521E-02 0.000E+00

     negative rho (up, down):  1.521E-02 0.000E+00

     negative rho (up, down):  1.521E-02 0.000E+00

     negative rho (up, down):  1.521E-02 0.000E+00

     negative rho (up, down):  1.521E-02 0.000E+00

     negative rho (up, down):  1.521E-02 0.000E+00

     negative rho (up, down):  1.521E-02 0.000E+00

     negative rho (up, down):  1.521E-02 0.000E+00

     negative rho (up, down):  1.521E-02 0.000E+00

     negative rho (up, down):  1.521E-02 0.000E+00

     negative rho (up, down):  1.521E-02 0.000E+00

     negative rho (up, down):  1.521E-02 0.000E+00

     negative rho (up, down):  1.521E-02 0.000E+00

     negative rho (up, down):  1.521E-02 0.000E+00

     negative rho (up, down):  1.521E-02 0.000E+00

     negative rho (up, down):  1.521E-02 0.000E+00

     negative rho (up, down):  1.521E-02 0.000E+00

     negative rho (up, down):  1.521E-02 0.000E+00

     negative rho (up, down):  1.521E-02 0.000E+00

     negative rho (up, down):  1.521E-02 0.000E+00

     negative rho (up, down):  1.521E-02 0.000E+00

     negative rho (up, down):  1.521E-02 0.000E+00

     negative rho (up, down):  1.521E-02 0.000E+00

     negative rho (up, down):  1.521E-02 0.000E+00
 
     Adding external electric field

     Computed dipole along edir(3) : 
        Dipole                0.3056 Ry au,          0.7768 Debye
        Dipole field          0.0009 Ry au
 
        Potential amp.       -0.0831 Ry
        Total length         44.9721 bohr
 

     total cpu time spent up to now is      901.3 secs

     End of self-consistent calculation

          k = 0.0000 0.0000 0.0000 ( 15569 PWs)   bands (ev):

   -62.5161 -62.4451 -62.4051 -62.3804 -62.3737 -62.3718 -62.3521 -62.3330
   -62.3319 -62.3283 -62.3131 -62.3113 -36.6168 -36.6051 -36.6044 -36.5715
   -36.5426 -36.5421 -36.5354 -36.4841 -36.4793 -36.4790 -36.3079 -36.2345
   -36.2092 -36.2086 -36.2038 -36.1869 -36.1863 -36.1107 -36.1101 -36.1075
   -36.0622 -36.0497 -36.0487 -36.0204 -36.0200 -36.0091 -36.0027 -35.9755
   -35.9752 -35.9692 -35.9474 -35.9473 -35.8763 -35.8762 -35.8561 -35.8561
   -13.0686  -6.1911  -4.1612  -2.8523  -2.8522  -2.4990  -1.5799  -1.2746
    -1.2744  -1.1918  -0.9940  -0.8845  -0.8842  -0.6041  -0.5261  -0.5260
    -0.4458  -0.4023  -0.4021   0.4070   0.4072   0.4669   1.0482   1.3593
     1.4139   1.4140   1.6089   1.8558   1.9066   1.9067   1.9876   2.0348
     2.0349   2.1232   2.1234   2.1717   2.1853   2.1856   2.2659   2.2660
     2.3851   2.6281   2.6287

          k = 0.0000 0.0356 0.0000 ( 15635 PWs)   bands (ev):

   -62.5076 -62.4389 -62.4020 -62.3852 -62.3772 -62.3725 -62.3531 -62.3363
   -62.3321 -62.3297 -62.3161 -62.3116 -36.5923 -36.5827 -36.5700 -36.5555
   -36.5229 -36.5194 -36.5111 -36.4611 -36.4578 -36.4418 -36.3072 -36.2575
   -36.2358 -36.2291 -36.1934 -36.1745 -36.1722 -36.1232 -36.1220 -36.0988
   -36.0824 -36.0674 -36.0426 -36.0249 -36.0194 -36.0138 -36.0058 -35.9973
   -35.9924 -35.9812 -35.9666 -35.9573 -35.9088 -35.8949 -35.8854 -35.8637
   -13.0626  -6.1551  -3.9729  -2.9508  -2.8374  -2.2489  -1.4011  -1.2801
    -1.1552  -1.1099  -0.9386  -0.8330  -0.7831  -0.4843  -0.4349  -0.4236
    -0.3483  -0.2551  -0.2514   0.4496   0.4580   0.4951   1.0424   1.3355
     1.4501   1.4546   1.5670   1.6495   1.7286   1.8421   1.8554   1.9235
     2.0171   2.0623   2.1085   2.1225   2.1507   2.1706   2.2146   2.2228
     2.3467   2.4412   2.4897

          k = 0.0000 0.0713 0.0000 ( 15669 PWs)   bands (ev):

   -62.4842 -62.4266 -62.4113 -62.3886 -62.3758 -62.3727 -62.3600 -62.3460
   -62.3321 -62.3309 -62.3234 -62.3117 -36.5358 -36.5277 -36.5175 -36.4782
   -36.4780 -36.4693 -36.4565 -36.4079 -36.4057 -36.3391 -36.3122 -36.2844
   -36.2744 -36.2683 -36.1779 -36.1677 -36.1598 -36.1445 -36.1436 -36.1336
   -36.1131 -36.0956 -36.0708 -36.0657 -36.0586 -36.0540 -36.0212 -36.0169
   -36.0137 -36.0039 -35.9917 -35.9788 -35.9567 -35.9438 -35.9102 -35.8847
   -13.0506  -6.0837  -3.5094  -2.9824  -2.8100  -1.7665  -1.6137  -0.9739
    -0.9046  -0.8559  -0.7359  -0.5858  -0.5697  -0.2815  -0.1236  -0.1207
    -0.0277   0.0974   0.1278   0.5086   0.5886   0.6307   0.8421   1.0985
     1.1929   1.2968   1.2984   1.4157   1.4995   1.5987   1.6627   1.6942
     1.7636   1.7680   1.8276   1.8898   1.9809   2.0503   2.1666   2.1950
     2.2962   2.3383   2.3712

          k = 0.0000-0.1069 0.0000 ( 15660 PWs)   bands (ev):

   -62.4544 -62.4487 -62.4073 -62.3809 -62.3801 -62.3730 -62.3646 -62.3519
   -62.3325 -62.3321 -62.3265 -62.3116 -36.4935 -36.4877 -36.4754 -36.4709
   -36.4535 -36.4463 -36.3746 -36.3663 -36.3648 -36.3469 -36.3164 -36.3142
   -36.2313 -36.2046 -36.1912 -36.1882 -36.1742 -36.1660 -36.1530 -36.1446
   -36.1374 -36.1266 -36.1211 -36.1186 -36.1163 -36.1007 -36.0331 -36.0309
   -36.0166 -36.0147 -35.9902 -35.9860 -35.9540 -35.9389 -35.9155 -35.9116
   -13.0446  -6.0484  -3.3237  -2.7974  -2.5248  -2.3455  -1.1924  -1.0591
    -0.6228  -0.6127  -0.5244  -0.4953  -0.3184  -0.2725   0.1790   0.1841
     0.2364   0.3056   0.3516   0.4337   0.7252   0.7683   0.8305   0.8469
     0.9243   1.0084   1.1123   1.2624   1.2786   1.3514   1.3790   1.4598
     1.5145   1.5808   1.6524   1.7619   1.8333   1.8878   1.9690   1.9939
     2.0875   2.4322   2.4590

          k = 0.0309-0.0178 0.0000 ( 15635 PWs)   bands (ev):

   -62.5076 -62.4389 -62.4020 -62.3849 -62.3778 -62.3722 -62.3533 -62.3362
   -62.3321 -62.3297 -62.3146 -62.3131 -36.5922 -36.5830 -36.5699 -36.5555
   -36.5225 -36.5197 -36.5111 -36.4613 -36.4576 -36.4419 -36.3072 -36.2578
   -36.2352 -36.2295 -36.1934 -36.1748 -36.1720 -36.1231 -36.1220 -36.0988
   -36.0823 -36.0676 -36.0426 -36.0248 -36.0197 -36.0138 -36.0056 -35.9973
   -35.9924 -35.9811 -35.9666 -35.9572 -35.9088 -35.8949 -35.8855 -35.8637
   -13.0626  -6.1551  -3.9729  -2.9507  -2.8375  -2.2489  -1.4011  -1.2802
    -1.1552  -1.1099  -0.9386  -0.8330  -0.7831  -0.4843  -0.4349  -0.4236
    -0.3483  -0.2552  -0.2512   0.4495   0.4581   0.4950   1.0424   1.3355
     1.4501   1.4545   1.5671   1.6496   1.7287   1.8421   1.8553   1.9235
     2.0172   2.0623   2.1084   2.1224   2.1507   2.1705   2.2146   2.2229
     2.3467   2.4410   2.4898

          k = 0.0309 0.0178 0.0000 ( 15635 PWs)   bands (ev):

   -62.5076 -62.4389 -62.4019 -62.3857 -62.3756 -62.3738 -62.3529 -62.3361
   -62.3330 -62.3291 -62.3162 -62.3115 -36.5925 -36.5823 -36.5702 -36.5554
   -36.5230 -36.5194 -36.5111 -36.4613 -36.4576 -36.4419 -36.3072 -36.2575
   -36.2357 -36.2295 -36.1929 -36.1748 -36.1723 -36.1228 -36.1225 -36.0987
   -36.0821 -36.0678 -36.0424 -36.0249 -36.0197 -36.0136 -36.0059 -35.9970
   -35.9927 -35.9811 -35.9661 -35.9577 -35.9088 -35.8949 -35.8854 -35.8637
   -13.0626  -6.1551  -3.9729  -2.9508  -2.8374  -2.2489  -1.4011  -1.2801
    -1.1550  -1.1101  -0.9385  -0.8332  -0.7829  -0.4844  -0.4349  -0.4235
    -0.3484  -0.2551  -0.2513   0.4495   0.4580   0.4951   1.0424   1.3355
     1.4501   1.4546   1.5670   1.6495   1.7287   1.8423   1.8552   1.9234
     2.0171   2.0622   2.1083   2.1226   2.1507   2.1706   2.2145   2.2228
     2.3467   2.4414   2.4895

          k = 0.0309 0.0535 0.0000 ( 15620 PWs)   bands (ev):

   -62.4916 -62.4287 -62.4017 -62.3938 -62.3848 -62.3658 -62.3554 -62.3423
   -62.3389 -62.3264 -62.3227 -62.3110 -36.5586 -36.5325 -36.5198 -36.5155
   -36.4917 -36.4777 -36.4734 -36.4328 -36.3937 -36.3877 -36.3097 -36.2819
   -36.2669 -36.2598 -36.1870 -36.1697 -36.1680 -36.1471 -36.1367 -36.1044
   -36.1001 -36.0708 -36.0629 -36.0523 -36.0458 -36.0399 -36.0277 -36.0091
   -35.9971 -35.9835 -35.9785 -35.9767 -35.9713 -35.9388 -35.9015 -35.8837
   -13.0536  -6.1016  -3.6354  -2.9823  -2.8461  -1.8653  -1.3223  -1.2781
    -1.0218  -0.8783  -0.8585  -0.7400  -0.4812  -0.2865  -0.2710  -0.1999
    -0.1036  -0.0192  -0.0122   0.4859   0.5489   0.5859   0.9444   1.2266
     1.2654   1.3586   1.4199   1.4344   1.5233   1.6115   1.7142   1.7564
     1.8278   1.8778   1.9373   2.0075   2.0900   2.0961   2.1463   2.1975
     2.3487   2.3675   2.4187

          k = 0.0309-0.1248 0.0000 ( 15642 PWs)   bands (ev):

   -62.4638 -62.4315 -62.4104 -62.3975 -62.3779 -62.3636 -62.3597 -62.3504
   -62.3437 -62.3309 -62.3239 -62.3105 -36.5000 -36.4867 -36.4636 -36.4527
   -36.4460 -36.4392 -36.4119 -36.3821 -36.3428 -36.3293 -36.3247 -36.2977
   -36.2731 -36.2540 -36.2288 -36.1987 -36.1675 -36.1629 -36.1485 -36.1405
   -36.1272 -36.1236 -36.1043 -36.0967 -36.0731 -36.0606 -36.0416 -36.0340
   -36.0170 -36.0100 -35.9888 -35.9778 -35.9727 -35.9479 -35.9354 -35.9143
   -13.0446  -6.0489  -3.2865  -2.8880  -2.6715  -1.9106  -1.2985  -1.2030
    -0.8688  -0.6473  -0.4804  -0.3701  -0.1940  -0.0986   0.0931   0.1414
     0.1716   0.2596   0.3600   0.5479   0.6461   0.6840   0.8206   0.8641
     0.9197   1.0207   1.0702   1.1795   1.3015   1.3239   1.4079   1.4409
     1.5329   1.5773   1.6256   1.7088   1.8198   1.9132   1.9678   2.1033
     2.2083   2.2941   2.4355

          k = 0.0309-0.0891 0.0000 ( 15642 PWs)   bands (ev):

   -62.4637 -62.4315 -62.4102 -62.3977 -62.3779 -62.3631 -62.3604 -62.3506
   -62.3436 -62.3303 -62.3239 -62.3108 -36.5000 -36.4867 -36.4638 -36.4525
   -36.4461 -36.4392 -36.4119 -36.3822 -36.3427 -36.3295 -36.3245 -36.2978
   -36.2730 -36.2539 -36.2289 -36.1986 -36.1676 -36.1633 -36.1485 -36.1401
   -36.1271 -36.1234 -36.1046 -36.0965 -36.0733 -36.0606 -36.0416 -36.0342
   -36.0169 -36.0099 -35.9887 -35.9781 -35.9725 -35.9480 -35.9354 -35.9143
   -13.0446  -6.0489  -3.2864  -2.8881  -2.6715  -1.9106  -1.2986  -1.2029
    -0.8689  -0.6473  -0.4803  -0.3701  -0.1941  -0.0984   0.0931   0.1414
     0.1715   0.2597   0.3601   0.5478   0.6462   0.6840   0.8208   0.8640
     0.9196   1.0206   1.0702   1.1795   1.3014   1.3239   1.4080   1.4410
     1.5328   1.5771   1.6256   1.7088   1.8198   1.9132   1.9676   2.1033
     2.2084   2.2941   2.4355

          k = 0.0309-0.0535 0.0000 ( 15620 PWs)   bands (ev):

   -62.4916 -62.4286 -62.4017 -62.3942 -62.3843 -62.3660 -62.3561 -62.3414
   -62.3394 -62.3265 -62.3214 -62.3119 -36.5585 -36.5327 -36.5202 -36.5151
   -36.4913 -36.4782 -36.4732 -36.4329 -36.3936 -36.3877 -36.3097 -36.2821
   -36.2666 -36.2597 -36.1870 -36.1700 -36.1679 -36.1469 -36.1369 -36.1043
   -36.1001 -36.0704 -36.0629 -36.0523 -36.0459 -36.0400 -36.0279 -36.0095
   -35.9967 -35.9836 -35.9784 -35.9764 -35.9714 -35.9390 -35.9016 -35.8837
   -13.0536  -6.1016  -3.6354  -2.9822  -2.8462  -1.8653  -1.3224  -1.2779
    -1.0217  -0.8786  -0.8584  -0.7399  -0.4813  -0.2865  -0.2710  -0.2000
    -0.1036  -0.0192  -0.0122   0.4859   0.5489   0.5859   0.9445   1.2266
     1.2654   1.3586   1.4201   1.4343   1.5235   1.6113   1.7141   1.7564
     1.8279   1.8779   1.9373   2.0074   2.0900   2.0958   2.1461   2.1979
     2.3487   2.3674   2.4186

          k = 0.0617-0.0356 0.0000 ( 15669 PWs)   bands (ev):

   -62.4842 -62.4265 -62.4115 -62.3885 -62.3762 -62.3723 -62.3606 -62.3461
   -62.3321 -62.3306 -62.3217 -62.3130 -36.5356 -36.5280 -36.5176 -36.4783
   -36.4776 -36.4695 -36.4565 -36.4082 -36.4054 -36.3391 -36.3122 -36.2842
   -36.2746 -36.2681 -36.1777 -36.1675 -36.1601 -36.1445 -36.1435 -36.1333
   -36.1136 -36.0956 -36.0708 -36.0657 -36.0585 -36.0543 -36.0211 -36.0168
   -36.0138 -36.0037 -35.9914 -35.9788 -35.9567 -35.9436 -35.9104 -35.8848
   -13.0506  -6.0837  -3.5094  -2.9824  -2.8101  -1.7665  -1.6137  -0.9738
    -0.9046  -0.8559  -0.7359  -0.5857  -0.5697  -0.2816  -0.1236  -0.1208
    -0.0277   0.0973   0.1279   0.5085   0.5888   0.6305   0.8421   1.0985
     1.1928   1.2969   1.2984   1.4156   1.4995   1.5987   1.6627   1.6943
     1.7636   1.7681   1.8276   1.8897   1.9810   2.0502   2.1666   2.1950
[...]
   -36.5209 -36.5109 -36.4969 -36.4711 -36.4206 -36.4102 -36.3304 -36.3140
   -36.3006 -36.2785 -36.2250 -36.2197 -36.2077 -36.1826 -36.1766 -36.1404
   -36.1242 -36.1111 -36.0990 -36.0705 -36.0645 -36.0357 -36.0144 -36.0069
   -35.9998 -35.9800 -35.9671 -35.9265 -35.9119 -35.7827 -35.7536 -35.6852
   -12.8900  -5.9296  -3.6010  -2.7233  -2.5193  -1.8559  -1.3279  -1.3149
    -1.0155  -0.9262  -0.8486  -0.7032  -0.5037  -0.3667  -0.1977  -0.1675
    -0.0836  -0.0409   0.0013   0.4047   0.5618   0.6085   0.8490   0.9815
     1.2012   1.3225   1.3623   1.3860   1.4697   1.5365   1.6327   1.7097
     1.7244   1.8183   1.9237   2.0100   2.0488   2.1600   2.2282   2.2511
     2.3000   2.3799   2.4306

          k = 0.0617-0.0356 0.0000 ( 15669 PWs)   bands (ev):

   -62.5263 -62.4756 -62.4450 -62.4060 -62.3876 -62.3803 -62.3769 -62.3659
   -62.3597 -62.3352 -62.3207 -62.1308 -36.6224 -36.5585 -36.5504 -36.5107
   -36.5058 -36.5041 -36.4833 -36.4560 -36.4154 -36.3814 -36.3360 -36.3178
   -36.3035 -36.2811 -36.2278 -36.2150 -36.2035 -36.1983 -36.1772 -36.1433
   -36.1363 -36.1188 -36.1048 -36.0827 -36.0575 -36.0560 -36.0467 -36.0279
   -35.9954 -35.9907 -35.9757 -35.9245 -35.9132 -35.7927 -35.7513 -35.6815
   -12.8871  -5.9110  -3.4395  -2.7619  -2.4830  -1.7695  -1.6041  -1.0021
    -0.9626  -0.8655  -0.6981  -0.6023  -0.5519  -0.3260  -0.1269  -0.0940
    -0.0066   0.0832   0.1121   0.4092   0.5719   0.6124   0.8167   0.9134
     1.1046   1.2655   1.2694   1.3189   1.3744   1.5034   1.5849   1.6494
     1.7152   1.7214   1.8327   1.9567   1.9927   2.0698   2.1203   2.1748
     2.2796   2.2959   2.4644

          k = 0.0617 0.0000 0.0000 ( 15620 PWs)   bands (ev):

   -62.5305 -62.4769 -62.4483 -62.4022 -62.3857 -62.3801 -62.3751 -62.3716
   -62.3548 -62.3326 -62.3208 -62.1311 -36.6377 -36.5733 -36.5561 -36.5342
   -36.5209 -36.5109 -36.4970 -36.4711 -36.4206 -36.4102 -36.3304 -36.3140
   -36.3006 -36.2785 -36.2250 -36.2196 -36.2077 -36.1826 -36.1766 -36.1404
   -36.1242 -36.1111 -36.0990 -36.0705 -36.0645 -36.0357 -36.0144 -36.0069
   -35.9998 -35.9800 -35.9671 -35.9265 -35.9119 -35.7827 -35.7536 -35.6852
   -12.8900  -5.9296  -3.6010  -2.7233  -2.5193  -1.8559  -1.3279  -1.3149
    -1.0155  -0.9262  -0.8486  -0.7032  -0.5037  -0.3667  -0.1977  -0.1675
    -0.0836  -0.0410   0.0013   0.4047   0.5618   0.6085   0.8490   0.9815
     1.2012   1.3225   1.3623   1.3860   1.4697   1.5365   1.6327   1.7097
     1.7244   1.8183   1.9237   2.0101   2.0488   2.1600   2.2282   2.2511
     2.3000   2.3799   2.4306

          k = 0.0617 0.0356 0.0000 ( 15669 PWs)   bands (ev):

   -62.5263 -62.4756 -62.4450 -62.4059 -62.3876 -62.3803 -62.3769 -62.3659
   -62.3597 -62.3353 -62.3206 -62.1308 -36.6224 -36.5585 -36.5504 -36.5107
   -36.5058 -36.5042 -36.4833 -36.4560 -36.4154 -36.3814 -36.3360 -36.3178
   -36.3035 -36.2811 -36.2278 -36.2150 -36.2035 -36.1983 -36.1772 -36.1433
   -36.1362 -36.1188 -36.1048 -36.0827 -36.0575 -36.0561 -36.0467 -36.0279
   -35.9954 -35.9907 -35.9757 -35.9244 -35.9132 -35.7927 -35.7513 -35.6815
   -12.8871  -5.9110  -3.4395  -2.7619  -2.4830  -1.7695  -1.6041  -1.0021
    -0.9626  -0.8656  -0.6981  -0.6023  -0.5519  -0.3260  -0.1269  -0.0940
    -0.0066   0.0832   0.1121   0.4092   0.5719   0.6123   0.8167   0.9134
     1.1046   1.2655   1.2694   1.3189   1.3744   1.5034   1.5850   1.6494
     1.7152   1.7213   1.8328   1.9567   1.9927   2.0698   2.1203   2.1748
     2.2796   2.2959   2.4644

          k = 0.0617-0.1426 0.0000 ( 15642 PWs)   bands (ev):

   -62.5178 -62.4721 -62.4362 -62.4090 -62.3939 -62.3875 -62.3788 -62.3695
   -62.3523 -62.3421 -62.3208 -62.1302 -36.5829 -36.5313 -36.5056 -36.4896
   -36.4823 -36.4684 -36.4480 -36.4234 -36.3763 -36.3647 -36.3492 -36.3341
   -36.3074 -36.2797 -36.2393 -36.2239 -36.2146 -36.2111 -36.1923 -36.1671
   -36.1593 -36.1295 -36.1152 -36.0989 -36.0847 -36.0756 -36.0504 -36.0407
   -36.0151 -36.0071 -35.9802 -35.9458 -35.9356 -35.7975 -35.7595 -35.6738
   -12.8814  -5.8747  -3.0764  -2.6262  -2.5400  -1.9023  -1.3035  -1.1955
    -0.8816  -0.6578  -0.4960  -0.4571  -0.2056  -0.1224   0.0075   0.0886
     0.2014   0.2542   0.3232   0.4541   0.5844   0.6654   0.7182   0.8409
     0.8704   0.9760   1.0362   1.0784   1.1724   1.2731   1.3532   1.3794
     1.4398   1.5969   1.6196   1.7287   1.8024   1.9460   2.0230   2.1411
     2.2560   2.3548   2.4948

          k = 0.0617-0.1069 0.0000 ( 15672 PWs)   bands (ev):

   -62.5138 -62.4692 -62.4292 -62.4101 -62.3984 -62.3920 -62.3868 -62.3644
   -62.3494 -62.3462 -62.3212 -62.1300 -36.5485 -36.5160 -36.4897 -36.4760
   -36.4556 -36.4412 -36.4277 -36.4264 -36.3747 -36.3577 -36.3492 -36.3359
   -36.2947 -36.2599 -36.2593 -36.2565 -36.2297 -36.2150 -36.2066 -36.1988
   -36.1654 -36.1405 -36.1387 -36.0934 -36.0866 -36.0508 -36.0507 -36.0404
   -36.0142 -35.9981 -35.9955 -35.9880 -35.9527 -35.7939 -35.7692 -35.6700
   -12.8786  -5.8570  -2.8783  -2.7073  -2.0076  -1.9777  -1.9067  -0.8925
    -0.8396  -0.6560  -0.2439  -0.1929  -0.1055  -0.0098   0.0941   0.1906
     0.3816   0.4320   0.4599   0.5013   0.5731   0.5861   0.5870   0.6478
     0.7277   0.7278   0.9300   0.9707   1.0884   1.1303   1.1628   1.1754
     1.3286   1.4571   1.5313   1.5589   1.5897   2.0257   2.0642   2.1762
     2.2332   2.4844   2.5066

          k = 0.0617-0.0713 0.0000 ( 15642 PWs)   bands (ev):

   -62.5178 -62.4721 -62.4362 -62.4090 -62.3939 -62.3875 -62.3788 -62.3695
   -62.3523 -62.3420 -62.3209 -62.1302 -36.5830 -36.5313 -36.5055 -36.4896
   -36.4823 -36.4684 -36.4480 -36.4234 -36.3762 -36.3647 -36.3492 -36.3341
   -36.3074 -36.2797 -36.2393 -36.2238 -36.2146 -36.2111 -36.1923 -36.1671
   -36.1593 -36.1295 -36.1152 -36.0989 -36.0847 -36.0756 -36.0504 -36.0407
   -36.0152 -36.0071 -35.9802 -35.9458 -35.9357 -35.7975 -35.7595 -35.6738
   -12.8814  -5.8747  -3.0764  -2.6262  -2.5400  -1.9023  -1.3035  -1.1955
    -0.8816  -0.6578  -0.4960  -0.4571  -0.2056  -0.1224   0.0075   0.0886
     0.2014   0.2542   0.3233   0.4541   0.5844   0.6654   0.7182   0.8409
     0.8704   0.9760   1.0362   1.0784   1.1724   1.2731   1.3532   1.3794
     1.4398   1.5969   1.6196   1.7287   1.8023   1.9460   2.0231   2.1411
     2.2560   2.3548   2.4948

          k =-0.0926 0.0535 0.0000 ( 15660 PWs)   bands (ev):

   -62.5171 -62.4731 -62.4359 -62.4131 -62.3976 -62.3770 -62.3753 -62.3659
   -62.3634 -62.3410 -62.3207 -62.1302 -36.5841 -36.5326 -36.5093 -36.4956
   -36.4940 -36.4680 -36.4458 -36.3889 -36.3853 -36.3783 -36.3542 -36.3318
   -36.3004 -36.2431 -36.2293 -36.2235 -36.2108 -36.2062 -36.1841 -36.1771
   -36.1634 -36.1379 -36.1260 -36.1099 -36.1060 -36.0803 -36.0658 -36.0364
   -36.0261 -36.0162 -35.9500 -35.9462 -35.9220 -35.8050 -35.7527 -35.6743
   -12.8814  -5.8743  -3.0747  -2.5060  -2.4728  -2.3219  -1.2167  -1.0309
    -0.6289  -0.6263  -0.5522  -0.4873  -0.4358  -0.2406   0.0292   0.0990
     0.2200   0.2649   0.3847   0.4505   0.5725   0.7386   0.7845   0.8393
     0.8714   1.0194   1.0746   1.1136   1.1748   1.2503   1.3734   1.3823
     1.4281   1.4948   1.6260   1.7928   1.8722   1.9107   2.0115   2.0224
     2.2396   2.3293   2.6034

          k =-0.0926 0.0891 0.0000 ( 15642 PWs)   bands (ev):

   -62.5178 -62.4721 -62.4362 -62.4090 -62.3939 -62.3875 -62.3788 -62.3695
   -62.3523 -62.3421 -62.3209 -62.1302 -36.5829 -36.5313 -36.5056 -36.4895
   -36.4823 -36.4684 -36.4481 -36.4234 -36.3762 -36.3647 -36.3492 -36.3341
   -36.3074 -36.2797 -36.2393 -36.2238 -36.2146 -36.2111 -36.1923 -36.1671
   -36.1593 -36.1296 -36.1152 -36.0989 -36.0847 -36.0756 -36.0504 -36.0407
   -36.0151 -36.0071 -35.9802 -35.9458 -35.9357 -35.7975 -35.7595 -35.6738
   -12.8814  -5.8747  -3.0764  -2.6262  -2.5400  -1.9023  -1.3035  -1.1955
    -0.8816  -0.6578  -0.4960  -0.4571  -0.2056  -0.1224   0.0075   0.0886
     0.2014   0.2542   0.3232   0.4541   0.5844   0.6654   0.7182   0.8409
     0.8704   0.9760   1.0362   1.0784   1.1724   1.2731   1.3532   1.3794
     1.4398   1.5969   1.6196   1.7287   1.8024   1.9460   2.0230   2.1411
     2.2560   2.3548   2.4948

          k =-0.0926 0.1248 0.0000 ( 15642 PWs)   bands (ev):

   -62.5178 -62.4721 -62.4362 -62.4090 -62.3939 -62.3875 -62.3788 -62.3695
   -62.3523 -62.3421 -62.3208 -62.1302 -36.5829 -36.5313 -36.5056 -36.4896
   -36.4823 -36.4684 -36.4481 -36.4234 -36.3763 -36.3647 -36.3492 -36.3341
   -36.3074 -36.2797 -36.2393 -36.2238 -36.2146 -36.2111 -36.1922 -36.1671
   -36.1593 -36.1295 -36.1152 -36.0989 -36.0847 -36.0756 -36.0504 -36.0407
   -36.0151 -36.0071 -35.9802 -35.9458 -35.9356 -35.7975 -35.7595 -35.6738
   -12.8814  -5.8747  -3.0764  -2.6262  -2.5400  -1.9023  -1.3035  -1.1955
    -0.8816  -0.6578  -0.4960  -0.4571  -0.2056  -0.1224   0.0075   0.0886
     0.2014   0.2542   0.3232   0.4540   0.5844   0.6654   0.7182   0.8409
     0.8704   0.9760   1.0362   1.0784   1.1724   1.2731   1.3532   1.3794
     1.4398   1.5969   1.6196   1.7287   1.8024   1.9460   2.0230   2.1411
     2.2560   2.3548   2.4947

          k =-0.0926-0.0535 0.0000 ( 15660 PWs)   bands (ev):

   -62.5171 -62.4731 -62.4359 -62.4131 -62.3977 -62.3769 -62.3753 -62.3659
   -62.3635 -62.3411 -62.3206 -62.1302 -36.5840 -36.5326 -36.5093 -36.4956
   -36.4940 -36.4680 -36.4458 -36.3889 -36.3853 -36.3783 -36.3542 -36.3318
   -36.3004 -36.2431 -36.2293 -36.2234 -36.2108 -36.2062 -36.1842 -36.1771
   -36.1634 -36.1379 -36.1260 -36.1099 -36.1061 -36.0804 -36.0658 -36.0365
   -36.0261 -36.0161 -35.9500 -35.9462 -35.9220 -35.8050 -35.7527 -35.6743
   -12.8814  -5.8743  -3.0747  -2.5060  -2.4728  -2.3219  -1.2167  -1.0309
    -0.6289  -0.6263  -0.5522  -0.4872  -0.4358  -0.2406   0.0292   0.0990
     0.2201   0.2648   0.3847   0.4505   0.5725   0.7386   0.7845   0.8393
     0.8714   1.0194   1.0746   1.1136   1.1749   1.2503   1.3734   1.3823
     1.4281   1.4947   1.6260   1.7928   1.8722   1.9107   2.0115   2.0224
     2.2396   2.3293   2.6034

     the Fermi energy is     1.7411 ev

!    total energy              =   -1774.62376667 Ry
     Harris-Foulkes estimate   =   -1774.62376652 Ry
     estimated scf accuracy    <       0.00000008 Ry

     The total energy is the sum of the following terms:

     one-electron contribution =  -15328.96339890 Ry
     hartree contribution      =    7657.50551574 Ry
     xc contribution           =    -254.01330183 Ry
     ewald contribution        =    6150.97750817 Ry
     electric field correction =       0.00028794 Ry
     smearing contrib. (-TS)   =      -0.13037779 Ry

     convergence has been achieved in  11 iterations
 
 BEEF-vdW xc energy contributions
           1 :   -218.752462986406     
           2 :    196.166240111548     
           3 :   -158.820633896746     
           4 :    118.372386877800     
           5 :   -85.0219491396570     
           6 :    63.7247102623215     
           7 :   -53.4702841814672     
           8 :    49.4386693997733     
           9 :   -46.4232366638700     
          10 :    41.5065120509682     
          11 :   -34.7833652209012     
          12 :    28.2209452120825     
          13 :   -23.7647561598433     
          14 :    21.9696978021060     
          15 :   -21.8528679783015     
          16 :    21.7811600655112     
          17 :   -20.6239151440896     
          18 :    18.3762182141533     
          19 :   -15.9375818442061     
          20 :    14.3223072891889     
          21 :   -13.9153743474007     
          22 :    14.2684810355888     
          23 :   -14.5046410609892     
          24 :    13.9732669263960     
          25 :   -12.6742679998316     
          26 :    11.1837614354580     
          27 :   -10.1886662482844     
          28 :    9.99151671978825     
          29 :   -10.3309218098773     
          30 :    10.6103869001027     
          31 :   -22.8118373123855     
          32 :   -16.4242540922490     

     Forces acting on atoms (Ry/au):


     negative rho (up, down):  1.437E-02 0.000E+00
     atom    1 type  1   force =    -0.00010287   -0.00005998   -0.00092771
     atom    2 type  1   force =     0.00010397   -0.00006283   -0.00092243
     atom    3 type  1   force =    -0.00000218    0.00012128   -0.00092382
     atom    4 type  1   force =     0.00000302    0.00000124    0.00332169
     atom    5 type  1   force =     0.00000296    0.02214624   -0.01410463
     atom    6 type  1   force =    -0.00000129   -0.00000106    0.04440701
     atom    7 type  1   force =    -0.01918558   -0.01107667   -0.01410359
     atom    8 type  1   force =     0.01918149   -0.01107030   -0.01410814
     atom    9 type  1   force =    -0.00000374   -0.00000085   -0.00064285
     atom   10 type  1   force =     0.00000305   -0.00002012   -0.00014880
     atom   11 type  1   force =    -0.00001809    0.00001603   -0.00015193
     atom   12 type  1   force =     0.00001482    0.00000838   -0.00014625
     atom   13 type  2   force =     0.00000463   -0.00000150   -0.00077813
     atom   14 type  3   force =    -0.00000020    0.00000012   -0.00077041

     Total force =     0.001296     Total SCF correction =     0.000196
     SCF correction compared to forces is large: reduce conv_thr to get better values


     entering subroutine stress ...


     negative rho (up, down):  1.437E-02 0.000E+00
          total   stress  (Ry/bohr**3)                   (kbar)     P=  -13.08
  -0.00012773  -0.00000001   0.00000000        -18.79     -0.00      0.00
  -0.00000001  -0.00012773  -0.00000000         -0.00    -18.79     -0.00
   0.00000000  -0.00000000  -0.00001119          0.00     -0.00     -1.65


     bfgs converged in  16 scf cycles and  15 bfgs steps
     (criteria: energy <  1.0E+00, force <  1.9E-03)

     End of BFGS Geometry Optimization

     Final energy   =   -1774.6237666709 Ry
Begin final coordinates

ATOMIC_POSITIONS (crystal)
V1       0.166666667   0.166666667   0.409694847    0   0   0
V1       0.666666667   0.166666667   0.409694847    0   0   0
V1       0.166666667   0.666666667   0.409694847    0   0   0
V1       0.666666667   0.666666667   0.409694847    0   0   0
V1       0.833333333   0.333333333   0.500000000    0   0   0
V1       0.333333333   0.333333333   0.500000000    0   0   0
V1       0.833333333   0.833333333   0.500000000    0   0   0
V1       0.333333333   0.833333333   0.500000000    0   0   0
V1      -0.000000322  -0.000003124   0.573548238
V1       0.512071513  -0.024144184   0.595588662
V1      -0.024154547   0.512077378   0.595588998
V1       0.512078795   0.512082666   0.595588513
S1       0.333329405   0.333342329   0.663704462
H1       0.333335090   0.333331390   0.719857886
End final coordinates



     Writing output data file calc.save
 
     init_run     :      9.20s CPU      9.57s WALL (       1 calls)
     electrons    :   6286.70s CPU   6709.29s WALL (      16 calls)
     update_pot   :     39.18s CPU     40.92s WALL (      15 calls)
     forces       :    197.07s CPU    208.72s WALL (      16 calls)
     stress       :    636.36s CPU    658.85s WALL (      16 calls)

     Called by init_run:
     wfcinit      :      2.96s CPU      3.03s WALL (       1 calls)
     potinit      :      1.73s CPU      1.85s WALL (       1 calls)

     Called by electrons:
     c_bands      :   2737.83s CPU   2906.47s WALL (     333 calls)
     sum_band     :   1265.68s CPU   1350.21s WALL (     333 calls)
     v_of_rho     :    434.65s CPU    469.72s WALL (     349 calls)
     newd         :   1146.57s CPU   1166.24s WALL (     349 calls)
     mix_rho      :     16.53s CPU     17.05s WALL (     333 calls)
     vdW_energy   :    174.79s CPU    192.11s WALL (     925 calls)
     vdW_ffts     :    369.19s CPU    389.88s WALL (    1882 calls)
     vdW_v        :    151.87s CPU    157.25s WALL (     925 calls)

     Called by c_bands:
     init_us_2    :     16.97s CPU     17.13s WALL (    3495 calls)
     cegterg      :   2446.25s CPU   2502.08s WALL (    1665 calls)

     Called by *egterg:
     h_psi        :   1470.72s CPU   1513.08s WALL (    9136 calls)
     s_psi        :    155.57s CPU    155.98s WALL (    9136 calls)
     g_psi        :      9.74s CPU      9.77s WALL (    7466 calls)
     cdiaghg      :    328.34s CPU    330.65s WALL (    9056 calls)

     Called by h_psi:
     add_vuspsi   :    160.76s CPU    161.31s WALL (    9136 calls)

     General routines
     calbec       :    244.26s CPU    249.39s WALL (   10961 calls)
     fft          :    580.17s CPU    630.49s WALL (   56697 calls)
     ffts         :      0.94s CPU      1.02s WALL (     682 calls)
     fftw         :    861.35s CPU    905.76s WALL (  930389 calls)
     interpolate  :      8.77s CPU      9.01s WALL (     682 calls)
     davcio       :      0.00s CPU      0.02s WALL (       5 calls)
 
     Parallel routines
     fft_scatter  :    834.95s CPU    925.44s WALL (  987768 calls)
 
     PWSCF        :     2h 0m CPU        2h 8m WALL

 
   This run was terminated on:  13:44:10  24Apr2018            

=------------------------------------------------------------------------------=
   JOB DONE.
=------------------------------------------------------------------------------=
Job  /afs/slac/g/suncat/bin/suncat-tsmpirun -x LD_LIBRARY_PATH -wdir /scratch/qe785563_Zdnn6 pw.x -npool 4 -in pw.inp

TID   HOST_NAME   COMMAND_LINE            STATUS            TERMINATION_TIME
===== ========== ================  =======================  ===================
00000 suncat0165 pw.x -npool 4 -i  Done                     04/24/2018 13:44:10
00001 suncat0165 pw.x -npool 4 -i  Done                     04/24/2018 13:44:10
00002 suncat0165 pw.x -npool 4 -i  Done                     04/24/2018 13:44:10
00003 suncat0165 pw.x -npool 4 -i  Done                     04/24/2018 13:44:10
00004 suncat0165 pw.x -npool 4 -i  Done                     04/24/2018 13:44:10
00005 suncat0165 pw.x -npool 4 -i  Done                     04/24/2018 13:44:10
00006 suncat0165 pw.x -npool 4 -i  Done                     04/24/2018 13:44:10
00007 suncat0165 pw.x -npool 4 -i  Done                     04/24/2018 13:44:10
00008 suncat0115 pw.x -npool 4 -i  Done                     04/24/2018 13:44:10
00009 suncat0115 pw.x -npool 4 -i  Done                     04/24/2018 13:44:10
00010 suncat0115 pw.x -npool 4 -i  Done                     04/24/2018 13:44:10
00011 suncat0115 pw.x -npool 4 -i  Done                     04/24/2018 13:44:10
00012 suncat0115 pw.x -npool 4 -i  Done                     04/24/2018 13:44:10
00013 suncat0115 pw.x -npool 4 -i  Done                     04/24/2018 13:44:10
00014 suncat0115 pw.x -npool 4 -i  Done                     04/24/2018 13:44:10
00015 suncat0115 pw.x -npool 4 -i  Done                     04/24/2018 13:44:10
00016 suncat0249 pw.x -npool 4 -i  Done                     04/24/2018 13:44:10
00017 suncat0249 pw.x -npool 4 -i  Done                     04/24/2018 13:44:10
00018 suncat0249 pw.x -npool 4 -i  Done                     04/24/2018 13:44:10
00019 suncat0249 pw.x -npool 4 -i  Done                     04/24/2018 13:44:10
00020 suncat0249 pw.x -npool 4 -i  Done                     04/24/2018 13:44:10
00021 suncat0249 pw.x -npool 4 -i  Done                     04/24/2018 13:44:10
00022 suncat0249 pw.x -npool 4 -i  Done                     04/24/2018 13:44:10
00023 suncat0249 pw.x -npool 4 -i  Done                     04/24/2018 13:44:10
00024 suncat0240 pw.x -npool 4 -i  Done                     04/24/2018 13:44:10
00025 suncat0240 pw.x -npool 4 -i  Done                     04/24/2018 13:44:10
00026 suncat0240 pw.x -npool 4 -i  Done                     04/24/2018 13:44:10
00027 suncat0240 pw.x -npool 4 -i  Done                     04/24/2018 13:44:10
00028 suncat0240 pw.x -npool 4 -i  Done                     04/24/2018 13:44:10
00029 suncat0240 pw.x -npool 4 -i  Done                     04/24/2018 13:44:10
00030 suncat0240 pw.x -npool 4 -i  Done                     04/24/2018 13:44:10
00031 suncat0240 pw.x -npool 4 -i  Done                     04/24/2018 13:44:10
