  python dir          : /u/if/mamunm/src/espresso
  espresso dir        : /nfs/slac/g/suncatfs/sw/espv18/espresso-dynpy-beef/bin
  pseudo dir          : /u/if/mamunm/psp/gbrv1.5pbe
  ase-espresso py git : GITVERSION



     Program PWSCF v.5.1rc2 (svn rev. 11289) starts on  2May2018 at 17:32: 1 

     This program is part of the open-source Quantum ESPRESSO suite
     for quantum simulation of materials; please cite
         "P. Giannozzi et al., J. Phys.:Condens. Matter 21 395502 (2009);
          URL http://www.quantum-espresso.org", 
     in publications or presentations arising from this work. More details at
     http://www.quantum-espresso.org/quote

     Parallel version (MPI), running on    32 processors
     K-points division:     npool     =       4
     R & G space division:  proc/nbgrp/npool/nimage =       8
     Reading input from pw.inp
     Message from routine read_cards :
     DEPRECATED: no units specified in CELL_PARAMETERS card

     Current dimensions of program PWSCF are:
     Max number of different atomic species (ntypx) = 10
     Max number of k-points (npk) =  40000
     Max angular momentum in pseudopotentials (lmaxx) =  3
     Presently stress not available with electric field


     **************************************************************************
     Initializing libbeef V0.1.1 with the BEEF-vdW functional.
     Citation: Wellendorff et al., PRB 85, 235149 (2012).
     **************************************************************************


     IMPORTANT: XC functional enforced from input :
     Exchange-correlation      = BEEF-VDW ( 1  4 27 13 2)
     Any further DFT definition will be discarded
     Please, verify this is what you really want


     Subspace diagonalization in iterative solution of the eigenvalue problem:
     a serial algorithm will be used

 
     Parallelization info
     --------------------
     sticks:   dense  smooth     PW     G-vecs:    dense   smooth      PW
     Min         329     130     39                61797    15613    2499
     Max         330     131     40                61814    15645    2512
     Sum        2635    1045    313               494447   125015   20053
 


     bravais-lattice index     =            0
     lattice parameter (alat)  =       1.8897  a.u.
     unit-cell volume          =    4158.3597 (a.u.)^3
     number of atoms/cell      =           13
     number of atomic types    =            2
     number of electrons       =       157.00
     number of Kohn-Sham states=           88
     kinetic-energy cutoff     =      36.7493  Ry
     charge density cutoff     =     367.4932  Ry
     convergence threshold     =      1.0E-05
     mixing beta               =       0.3000
     number of iterations used =           10  plain     mixing
     Exchange-correlation      = BEEF-VDW ( 1  4 27 13 2)
     nstep                     =           50


     celldm(1)=   1.889726  celldm(2)=   0.000000  celldm(3)=   0.000000
     celldm(4)=   0.000000  celldm(5)=   0.000000  celldm(6)=   0.000000

     crystal axes: (cart. coord. in units of alat)
               a(1) = (   5.399178   0.000000   0.000000 )  
               a(2) = (   2.699589   4.675825   0.000000 )  
               a(3) = (   0.000000   0.000000  24.408411 )  

     reciprocal axes: (cart. coord. in units 2 pi/alat)
               b(1) = (  0.185213 -0.106933  0.000000 )  
               b(2) = (  0.000000  0.213866  0.000000 )  
               b(3) = (  0.000000  0.000000  0.040969 )  


     PseudoPot. # 1 for V  read from file:
     /u/if/mamunm/psp/gbrv1.5pbe/V.UPF
     MD5 check sum: 22b79981416ebb76fdaf5b1b8640f6fb
     Pseudo is Ultrasoft + core correction, Zval = 13.0
     Generated by new atomic code, or converted to UPF format
     Using radial grid of  853 points,  6 beta functions with: 
                l(1) =   0
                l(2) =   0
                l(3) =   1
                l(4) =   1
                l(5) =   2
                l(6) =   2
     Q(r) pseudized with  8 coefficients,  rinner =    1.100   1.100   1.100
                                                       1.100   1.100

     PseudoPot. # 2 for H  read from file:
     /u/if/mamunm/psp/gbrv1.5pbe/H.UPF
     MD5 check sum: 761ae9a214b05c3daf00ab9f6b793d6f
     Pseudo is Ultrasoft, Zval =  1.0
     Generated by new atomic code, or converted to UPF format
     Using radial grid of  615 points,  2 beta functions with: 
                l(1) =   0
                l(2) =   0
     Q(r) pseudized with  8 coefficients,  rinner =    0.700

     vdW kernel table read from file vdW_kernel_table
     MD5 check sum: 095c7af220d748ca6e76c0b4c6cfb241

     atomic species   valence    mass     pseudopotential
        V1            13.00    50.94150     V ( 1.00)
        H1             1.00     1.00800     H ( 1.00)

     No symmetry found



   Cartesian axes

     site n.     atom                  positions (alat units)
         1           V1  tau(   1) = (   1.3497945   0.7793042  10.0000000  )
         2           V1  tau(   2) = (   4.0493836   0.7793042  10.0000000  )
         3           V1  tau(   3) = (   2.6995891   3.1172170  10.0000000  )
         4           V1  tau(   4) = (   5.3991782   3.1172170  10.0000000  )
         5           V1  tau(   5) = (   5.3991782   1.5586085  12.2042053  )
         6           V1  tau(   6) = (   2.6995891   1.5586085  12.2042053  )
         7           V1  tau(   7) = (   6.7489727   3.8965212  12.2042053  )
         8           V1  tau(   8) = (   4.0493836   3.8965212  12.2042053  )
         9           V1  tau(   9) = (   0.0000000   0.0000000  14.4084105  )
        10           V1  tau(  10) = (   2.6995891   0.0000000  14.4084105  )
        11           V1  tau(  11) = (   1.3497945   2.3379127  14.4084105  )
        12           V1  tau(  12) = (   4.0493836   2.3379127  14.4084105  )
        13           H1  tau(  13) = (   0.0000000   0.0000000  15.9724105  )

     number of k points=    20  Fermi-Dirac smearing, width (Ry)=  0.0110
                       cart. coord. in units 2pi/alat
        k(    1) = (   0.0000000   0.0000000   0.0000000), wk =   0.0555556
        k(    2) = (   0.0000000   0.0356443   0.0000000), wk =   0.1111111
        k(    3) = (   0.0000000   0.0712887   0.0000000), wk =   0.1111111
        k(    4) = (   0.0000000  -0.1069330   0.0000000), wk =   0.0555556
        k(    5) = (   0.0308689  -0.0178222   0.0000000), wk =   0.1111111
        k(    6) = (   0.0308689   0.0178222   0.0000000), wk =   0.1111111
        k(    7) = (   0.0308689   0.0534665   0.0000000), wk =   0.1111111
        k(    8) = (   0.0308689  -0.1247552   0.0000000), wk =   0.1111111
        k(    9) = (   0.0308689  -0.0891108   0.0000000), wk =   0.1111111
        k(   10) = (   0.0308689  -0.0534665   0.0000000), wk =   0.1111111
        k(   11) = (   0.0617378  -0.0356443   0.0000000), wk =   0.1111111
        k(   12) = (   0.0617378   0.0000000   0.0000000), wk =   0.1111111
        k(   13) = (   0.0617378   0.0356443   0.0000000), wk =   0.1111111
        k(   14) = (   0.0617378  -0.1425773   0.0000000), wk =   0.1111111
        k(   15) = (   0.0617378  -0.1069330   0.0000000), wk =   0.1111111
        k(   16) = (   0.0617378  -0.0712887   0.0000000), wk =   0.1111111
        k(   17) = (  -0.0926067   0.0534665   0.0000000), wk =   0.0555556
        k(   18) = (  -0.0926067   0.0891108   0.0000000), wk =   0.1111111
        k(   19) = (  -0.0926067   0.1247552   0.0000000), wk =   0.1111111
        k(   20) = (  -0.0926067  -0.0534665   0.0000000), wk =   0.0555556

     Dense  grid:   494447 G-vectors     FFT dimensions: (  64,  64, 288)

     Smooth grid:   125015 G-vectors     FFT dimensions: (  40,  40, 180)

     Largest allocated arrays     est. size (Mb)     dimensions
        Kohn-Sham Wavefunctions         2.75 Mb     (    2047,   88)
        NL pseudopotentials             6.81 Mb     (    2047,  218)
        Each V/rho on FFT grid          2.25 Mb     (  147456)
        Each G-vector array             0.47 Mb     (   61814)
        G-vector shells                 0.12 Mb     (   16161)
     Largest temporary arrays     est. size (Mb)     dimensions
        Auxiliary wavefunctions        10.99 Mb     (    2047,  352)
        Each subspace H/S matrix        1.89 Mb     (     352,  352)
        Each <psi_i|beta_j> matrix      0.29 Mb     (     218,   88)
        Arrays for rho mixing          22.50 Mb     (  147456,   10)

     Check: negative/imaginary core charge=   -0.000001    0.000000

     Initial potential from superposition of free atoms
     Check: negative starting charge=   -0.011681

     starting charge  156.98526, renormalised to  157.00000

     negative rho (up, down):  1.168E-02 0.000E+00


     ************************************************************************
     *
     * You are using vdW-DF for exchange-correlation in this calculation.
     * Please cite the following three references that made this development
     * possible:
     *
     *   M. Dion, H. Rydberg, E. Schroder, D. C. Langreth, and
     *   B. I. Lundqvist, Phys. Rev. Lett. 92, 246401 (2004).
     *
     *   T. Thonhauser, V. R. Cooper, S. Li, A. Puzder, P. Hyldgaard, and
     *   D. C. Langreth, Phys. Rev. B 76, 125112 (2007).
     *
     *   G. Roman-Perez and J. M. Soler, Phys. Rev. Lett. 103, 096102 (2009).
     *
     *
     * If you are using vdW-DF2, please also cite:
     *
     *   K. Lee, E. D. Murray, L. Kong, B. I. Lundqvist, and
     *   D. C. Langreth, Phys. Rev. B 82, 081101(R) (2010).
     *
     *
     * If you are calculating the stress with vdW-DF, please also cite:
     *
     *   R. Sabatini, E. Kucukbenli, B. Kolb, T. Thonhauser, and
     *   S. de Gironcoli, J. Phys.: Condens. Matter 24, 424209 (2012).
     *
     ************************************************************************

     Carrying out vdW-DF run using the following parameters:

     Nqs =      20    Nr_points =    1024   r_max =   100.000
     q_mesh =
               0.00001000     0.04494208     0.09755937     0.15916263
               0.23128650     0.31572767     0.41458969     0.53033537
               0.66584808     0.82450364     1.01025438     1.22772762
               1.48234092     1.78043706     2.12944203     2.53805004
               3.01644009     3.57652955     4.23227104     5.00000000

     Gradients computed in reciprocal space

     ************************************************************************


 
     Adding external electric field

     Computed dipole along edir(3) : 
        Dipole               -0.0006 Ry au,         -0.0015 Debye
        Dipole field         -0.0000 Ry au
 
        Potential amp.        0.0002 Ry
        Total length         44.9721 bohr
 
     Starting wfc are  121 randomized atomic wfcs

     total cpu time spent up to now is        8.4 secs

     per-process dynamical memory:    68.6 Mb

     Self-consistent Calculation

     iteration #  1     ecut=    36.75 Ry     beta=0.30
     Davidson diagonalization with overlap
     ethr =  1.00E-02,  avg # of iterations =  2.2

     negative rho (up, down):  1.221E-02 0.000E+00
 
     Adding external electric field

     Computed dipole along edir(3) : 
        Dipole               -2.5055 Ry au,         -6.3684 Debye
        Dipole field         -0.0076 Ry au
 
        Potential amp.        0.6810 Ry
        Total length         44.9721 bohr
 

     total cpu time spent up to now is       21.9 secs

     total energy              =   -1744.66050473 Ry
     Harris-Foulkes estimate   =   -1750.67027796 Ry
     estimated scf accuracy    <      12.37177510 Ry

     iteration #  2     ecut=    36.75 Ry     beta=0.30
     Davidson diagonalization with overlap
     ethr =  7.88E-03,  avg # of iterations = 10.1

     negative rho (up, down):  1.114E-02 0.000E+00
 
     Adding external electric field

     Computed dipole along edir(3) : 
        Dipole                3.6771 Ry au,          9.3464 Debye
        Dipole field          0.0111 Ry au
 
        Potential amp.       -0.9995 Ry
        Total length         44.9721 bohr
 

     total cpu time spent up to now is       43.7 secs

     total energy              =   -1731.64635553 Ry
     Harris-Foulkes estimate   =   -1770.68721473 Ry
     estimated scf accuracy    <     928.77767233 Ry

     iteration #  3     ecut=    36.75 Ry     beta=0.30
     Davidson diagonalization with overlap
     ethr =  7.88E-03,  avg # of iterations =  9.1

     negative rho (up, down):  1.043E-02 0.000E+00
 
     Adding external electric field

     Computed dipole along edir(3) : 
        Dipole                0.0566 Ry au,          0.1440 Debye
        Dipole field          0.0002 Ry au
 
        Potential amp.       -0.0154 Ry
        Total length         44.9721 bohr
 

     total cpu time spent up to now is       65.0 secs

     total energy              =   -1737.62652811 Ry
     Harris-Foulkes estimate   =   -1769.12318751 Ry
     estimated scf accuracy    <    1051.05813568 Ry

     iteration #  4     ecut=    36.75 Ry     beta=0.30
     Davidson diagonalization with overlap
     ethr =  7.88E-03,  avg # of iterations =  5.9

     negative rho (up, down):  1.069E-02 0.000E+00
 
     Adding external electric field

     Computed dipole along edir(3) : 
        Dipole                0.3266 Ry au,          0.8301 Debye
        Dipole field          0.0010 Ry au
 
        Potential amp.       -0.0888 Ry
        Total length         44.9721 bohr
 

     total cpu time spent up to now is       82.8 secs

     total energy              =   -1749.72310773 Ry
     Harris-Foulkes estimate   =   -1750.76309306 Ry
     estimated scf accuracy    <      25.48973569 Ry

     iteration #  5     ecut=    36.75 Ry     beta=0.30
     Davidson diagonalization with overlap
     ethr =  7.88E-03,  avg # of iterations =  1.5

     negative rho (up, down):  1.114E-02 0.000E+00
 
     Adding external electric field

     Computed dipole along edir(3) : 
        Dipole                0.0786 Ry au,          0.1998 Debye
        Dipole field          0.0002 Ry au
 
        Potential amp.       -0.0214 Ry
        Total length         44.9721 bohr
 

     total cpu time spent up to now is       95.5 secs

     total energy              =   -1749.74774143 Ry
     Harris-Foulkes estimate   =   -1750.01194145 Ry
     estimated scf accuracy    <       6.50635050 Ry

     iteration #  6     ecut=    36.75 Ry     beta=0.30
     Davidson diagonalization with overlap
     ethr =  4.14E-03,  avg # of iterations =  1.6

     negative rho (up, down):  1.228E-02 0.000E+00
 
     Adding external electric field

     Computed dipole along edir(3) : 
        Dipole               -0.0288 Ry au,         -0.0731 Debye
        Dipole field         -0.0001 Ry au
 
        Potential amp.        0.0078 Ry
        Total length         44.9721 bohr
 

     total cpu time spent up to now is      108.5 secs

     total energy              =   -1749.57187633 Ry
     Harris-Foulkes estimate   =   -1749.87604782 Ry
     estimated scf accuracy    <       4.28590455 Ry

     iteration #  7     ecut=    36.75 Ry     beta=0.30
     Davidson diagonalization with overlap
     ethr =  2.73E-03,  avg # of iterations =  6.7

     negative rho (up, down):  1.253E-02 0.000E+00
 
     Adding external electric field

     Computed dipole along edir(3) : 
        Dipole                0.0368 Ry au,          0.0935 Debye
        Dipole field          0.0001 Ry au
 
        Potential amp.       -0.0100 Ry
        Total length         44.9721 bohr
 

     total cpu time spent up to now is      124.4 secs

     total energy              =   -1749.94535403 Ry
     Harris-Foulkes estimate   =   -1750.05745535 Ry
     estimated scf accuracy    <       2.26232797 Ry

     iteration #  8     ecut=    36.75 Ry     beta=0.30
     Davidson diagonalization with overlap
     ethr =  1.44E-03,  avg # of iterations =  3.7

     negative rho (up, down):  1.255E-02 0.000E+00
 
     Adding external electric field

     Computed dipole along edir(3) : 
        Dipole                0.1102 Ry au,          0.2801 Debye
        Dipole field          0.0003 Ry au
 
        Potential amp.       -0.0299 Ry
        Total length         44.9721 bohr
 

     total cpu time spent up to now is      138.7 secs

     total energy              =   -1749.94493308 Ry
     Harris-Foulkes estimate   =   -1750.03624780 Ry
     estimated scf accuracy    <       1.55011249 Ry

     iteration #  9     ecut=    36.75 Ry     beta=0.30
     Davidson diagonalization with overlap
     ethr =  9.87E-04,  avg # of iterations =  1.9

     negative rho (up, down):  1.261E-02 0.000E+00
 
     Adding external electric field

     Computed dipole along edir(3) : 
        Dipole               -0.0007 Ry au,         -0.0019 Debye
        Dipole field         -0.0000 Ry au
 
        Potential amp.        0.0002 Ry
        Total length         44.9721 bohr
 

     total cpu time spent up to now is      151.9 secs

     total energy              =   -1749.97441136 Ry
     Harris-Foulkes estimate   =   -1749.99520374 Ry
     estimated scf accuracy    <       0.51526645 Ry

     iteration # 10     ecut=    36.75 Ry     beta=0.30
     Davidson diagonalization with overlap
     ethr =  3.28E-04,  avg # of iterations =  5.7

     negative rho (up, down):  1.282E-02 0.000E+00
 
     Adding external electric field

     Computed dipole along edir(3) : 
        Dipole               -0.1521 Ry au,         -0.3865 Debye
        Dipole field         -0.0005 Ry au
 
        Potential amp.        0.0413 Ry
        Total length         44.9721 bohr
 

     total cpu time spent up to now is      168.7 secs

     total energy              =   -1749.99263220 Ry
     Harris-Foulkes estimate   =   -1750.02217112 Ry
     estimated scf accuracy    <       0.32634832 Ry

     iteration # 11     ecut=    36.75 Ry     beta=0.30
     Davidson diagonalization with overlap
     ethr =  2.08E-04,  avg # of iterations =  3.0

     negative rho (up, down):  1.316E-02 0.000E+00
 
     Adding external electric field

     Computed dipole along edir(3) : 
        Dipole               -0.1734 Ry au,         -0.4407 Debye
        Dipole field         -0.0005 Ry au
 
        Potential amp.        0.0471 Ry
        Total length         44.9721 bohr
 

     total cpu time spent up to now is      182.5 secs

     total energy              =   -1749.99150479 Ry
     Harris-Foulkes estimate   =   -1750.00499703 Ry
     estimated scf accuracy    <       0.24601928 Ry

     iteration # 12     ecut=    36.75 Ry     beta=0.30
     Davidson diagonalization with overlap
     ethr =  1.57E-04,  avg # of iterations =  2.4

     negative rho (up, down):  1.325E-02 0.000E+00
 
     Adding external electric field

     Computed dipole along edir(3) : 
        Dipole               -0.0765 Ry au,         -0.1945 Debye
        Dipole field         -0.0002 Ry au
 
        Potential amp.        0.0208 Ry
        Total length         44.9721 bohr
 

     total cpu time spent up to now is      195.8 secs

     total energy              =   -1749.99035855 Ry
     Harris-Foulkes estimate   =   -1749.99941344 Ry
     estimated scf accuracy    <       0.25589496 Ry

     iteration # 13     ecut=    36.75 Ry     beta=0.30
     Davidson diagonalization with overlap
     ethr =  1.57E-04,  avg # of iterations =  1.3

     negative rho (up, down):  1.353E-02 0.000E+00
 
     Adding external electric field

     Computed dipole along edir(3) : 
        Dipole               -0.1689 Ry au,         -0.4292 Debye
        Dipole field         -0.0005 Ry au
 
        Potential amp.        0.0459 Ry
        Total length         44.9721 bohr
 

     total cpu time spent up to now is      208.6 secs

     total energy              =   -1749.99300290 Ry
     Harris-Foulkes estimate   =   -1749.99981342 Ry
     estimated scf accuracy    <       0.07956279 Ry

     iteration # 14     ecut=    36.75 Ry     beta=0.30
     Davidson diagonalization with overlap
     ethr =  5.07E-05,  avg # of iterations =  4.8

     negative rho (up, down):  1.360E-02 0.000E+00
 
     Adding external electric field

     Computed dipole along edir(3) : 
        Dipole               -0.1154 Ry au,         -0.2933 Debye
        Dipole field         -0.0003 Ry au
 
        Potential amp.        0.0314 Ry
        Total length         44.9721 bohr
 

     total cpu time spent up to now is      223.1 secs

     total energy              =   -1749.99112144 Ry
     Harris-Foulkes estimate   =   -1749.99683509 Ry
     estimated scf accuracy    <       0.06379997 Ry

     iteration # 15     ecut=    36.75 Ry     beta=0.30
     Davidson diagonalization with overlap
     ethr =  4.06E-05,  avg # of iterations =  7.3

     negative rho (up, down):  1.360E-02 0.000E+00
 
     Adding external electric field

     Computed dipole along edir(3) : 
        Dipole               -0.0890 Ry au,         -0.2262 Debye
        Dipole field         -0.0003 Ry au
 
        Potential amp.        0.0242 Ry
        Total length         44.9721 bohr
 

     total cpu time spent up to now is      239.9 secs

     total energy              =   -1749.99326830 Ry
     Harris-Foulkes estimate   =   -1749.99496330 Ry
     estimated scf accuracy    <       0.05429838 Ry

     iteration # 16     ecut=    36.75 Ry     beta=0.30
     Davidson diagonalization with overlap
     ethr =  3.46E-05,  avg # of iterations =  4.3

     negative rho (up, down):  1.362E-02 0.000E+00
 
     Adding external electric field

     Computed dipole along edir(3) : 
        Dipole               -0.0895 Ry au,         -0.2274 Debye
        Dipole field         -0.0003 Ry au
 
        Potential amp.        0.0243 Ry
        Total length         44.9721 bohr
 

     total cpu time spent up to now is      254.8 secs

     total energy              =   -1749.99422826 Ry
     Harris-Foulkes estimate   =   -1749.99486808 Ry
     estimated scf accuracy    <       0.00497418 Ry

     iteration # 17     ecut=    36.75 Ry     beta=0.30
     Davidson diagonalization with overlap
     ethr =  3.17E-06,  avg # of iterations =  7.3

     negative rho (up, down):  1.366E-02 0.000E+00
 
     Adding external electric field

     Computed dipole along edir(3) : 
        Dipole               -0.1126 Ry au,         -0.2863 Debye
        Dipole field         -0.0003 Ry au
 
        Potential amp.        0.0306 Ry
        Total length         44.9721 bohr
 

     total cpu time spent up to now is      273.1 secs

     total energy              =   -1749.99490593 Ry
     Harris-Foulkes estimate   =   -1749.99590088 Ry
     estimated scf accuracy    <       0.02189226 Ry

     iteration # 18     ecut=    36.75 Ry     beta=0.30
     Davidson diagonalization with overlap
     ethr =  3.17E-06,  avg # of iterations =  6.5

     negative rho (up, down):  1.375E-02 0.000E+00
 
     Adding external electric field

     Computed dipole along edir(3) : 
        Dipole               -0.1113 Ry au,         -0.2830 Debye
        Dipole field         -0.0003 Ry au
 
        Potential amp.        0.0303 Ry
        Total length         44.9721 bohr
 

     total cpu time spent up to now is      288.8 secs

     total energy              =   -1749.99519684 Ry
     Harris-Foulkes estimate   =   -1749.99553566 Ry
     estimated scf accuracy    <       0.00497595 Ry

     iteration # 19     ecut=    36.75 Ry     beta=0.30
     Davidson diagonalization with overlap
     ethr =  3.17E-06,  avg # of iterations =  4.5

     negative rho (up, down):  1.382E-02 0.000E+00
 
     Adding external electric field

     Computed dipole along edir(3) : 
        Dipole               -0.1149 Ry au,         -0.2921 Debye
        Dipole field         -0.0003 Ry au
 
        Potential amp.        0.0312 Ry
        Total length         44.9721 bohr
 

     total cpu time spent up to now is      303.1 secs

     total energy              =   -1749.99529009 Ry
     Harris-Foulkes estimate   =   -1749.99556204 Ry
     estimated scf accuracy    <       0.00392819 Ry

     iteration # 20     ecut=    36.75 Ry     beta=0.30
     Davidson diagonalization with overlap
     ethr =  2.50E-06,  avg # of iterations =  4.3

     negative rho (up, down):  1.376E-02 0.000E+00
 
     Adding external electric field

     Computed dipole along edir(3) : 
        Dipole               -0.1034 Ry au,         -0.2628 Debye
        Dipole field         -0.0003 Ry au
 
        Potential amp.        0.0281 Ry
        Total length         44.9721 bohr
 

     total cpu time spent up to now is      317.4 secs

     total energy              =   -1749.99526616 Ry
     Harris-Foulkes estimate   =   -1749.99554004 Ry
     estimated scf accuracy    <       0.00209755 Ry

     iteration # 21     ecut=    36.75 Ry     beta=0.30
     Davidson diagonalization with overlap
     ethr =  1.34E-06,  avg # of iterations =  5.0

     negative rho (up, down):  1.448E-02 0.000E+00
 
     Adding external electric field

     Computed dipole along edir(3) : 
        Dipole               -0.1067 Ry au,         -0.2713 Debye
        Dipole field         -0.0003 Ry au
 
        Potential amp.        0.0290 Ry
        Total length         44.9721 bohr
 

     total cpu time spent up to now is      333.5 secs

     total energy              =   -1749.99541107 Ry
     Harris-Foulkes estimate   =   -1749.99565821 Ry
     estimated scf accuracy    <       0.01064437 Ry

     iteration # 22     ecut=    36.75 Ry     beta=0.30
     Davidson diagonalization with overlap
     ethr =  1.34E-06,  avg # of iterations =  3.9

     negative rho (up, down):  1.467E-02 0.000E+00
 
     Adding external electric field

     Computed dipole along edir(3) : 
        Dipole               -0.1067 Ry au,         -0.2713 Debye
        Dipole field         -0.0003 Ry au
 
        Potential amp.        0.0290 Ry
        Total length         44.9721 bohr
 

     total cpu time spent up to now is      347.3 secs

     total energy              =   -1749.99551336 Ry
     Harris-Foulkes estimate   =   -1749.99556021 Ry
     estimated scf accuracy    <       0.00087246 Ry

     iteration # 23     ecut=    36.75 Ry     beta=0.30
     Davidson diagonalization with overlap
     ethr =  5.56E-07,  avg # of iterations =  5.3

     negative rho (up, down):  1.481E-02 0.000E+00
 
     Adding external electric field

     Computed dipole along edir(3) : 
        Dipole               -0.1077 Ry au,         -0.2737 Debye
        Dipole field         -0.0003 Ry au
 
        Potential amp.        0.0293 Ry
        Total length         44.9721 bohr
 

     total cpu time spent up to now is      363.2 secs

     total energy              =   -1749.99557261 Ry
     Harris-Foulkes estimate   =   -1749.99559553 Ry
     estimated scf accuracy    <       0.00046241 Ry

     iteration # 24     ecut=    36.75 Ry     beta=0.30
     Davidson diagonalization with overlap
     ethr =  2.95E-07,  avg # of iterations =  3.5

     negative rho (up, down):  1.486E-02 0.000E+00
 
     Adding external electric field

     Computed dipole along edir(3) : 
        Dipole               -0.1063 Ry au,         -0.2701 Debye
        Dipole field         -0.0003 Ry au
 
        Potential amp.        0.0289 Ry
        Total length         44.9721 bohr
 

     total cpu time spent up to now is      377.3 secs

     total energy              =   -1749.99557230 Ry
     Harris-Foulkes estimate   =   -1749.99558806 Ry
     estimated scf accuracy    <       0.00034679 Ry

     iteration # 25     ecut=    36.75 Ry     beta=0.30
     Davidson diagonalization with overlap
     ethr =  2.21E-07,  avg # of iterations =  3.0

     negative rho (up, down):  1.455E-02 0.000E+00
 
     Adding external electric field

     Computed dipole along edir(3) : 
        Dipole               -0.1047 Ry au,         -0.2660 Debye
        Dipole field         -0.0003 Ry au
 
        Potential amp.        0.0284 Ry
        Total length         44.9721 bohr
 

     total cpu time spent up to now is      391.5 secs

     total energy              =   -1749.99556627 Ry
     Harris-Foulkes estimate   =   -1749.99558357 Ry
     estimated scf accuracy    <       0.00011835 Ry

     iteration # 26     ecut=    36.75 Ry     beta=0.30
     Davidson diagonalization with overlap
     ethr =  7.54E-08,  avg # of iterations =  6.8

     negative rho (up, down):  1.530E-02 0.000E+00
 
     Adding external electric field

     Computed dipole along edir(3) : 
        Dipole               -0.1048 Ry au,         -0.2665 Debye
        Dipole field         -0.0003 Ry au
 
        Potential amp.        0.0285 Ry
        Total length         44.9721 bohr
 

     total cpu time spent up to now is      409.3 secs

     total energy              =   -1749.99557709 Ry
     Harris-Foulkes estimate   =   -1749.99558908 Ry
     estimated scf accuracy    <       0.00024377 Ry

     iteration # 27     ecut=    36.75 Ry     beta=0.30
     Davidson diagonalization with overlap
     ethr =  7.54E-08,  avg # of iterations =  1.4

     negative rho (up, down):  1.533E-02 0.000E+00
 
     Adding external electric field

     Computed dipole along edir(3) : 
        Dipole               -0.1048 Ry au,         -0.2664 Debye
        Dipole field         -0.0003 Ry au
 
        Potential amp.        0.0285 Ry
        Total length         44.9721 bohr
 

     total cpu time spent up to now is      422.4 secs

     total energy              =   -1749.99557911 Ry
     Harris-Foulkes estimate   =   -1749.99558254 Ry
     estimated scf accuracy    <       0.00007266 Ry

     iteration # 28     ecut=    36.75 Ry     beta=0.30
     Davidson diagonalization with overlap
     ethr =  4.63E-08,  avg # of iterations =  3.9

     negative rho (up, down):  1.546E-02 0.000E+00
 
     Adding external electric field

     Computed dipole along edir(3) : 
        Dipole               -0.1048 Ry au,         -0.2663 Debye
        Dipole field         -0.0003 Ry au
 
        Potential amp.        0.0285 Ry
        Total length         44.9721 bohr
 

     total cpu time spent up to now is      436.4 secs

     total energy              =   -1749.99557924 Ry
     Harris-Foulkes estimate   =   -1749.99558137 Ry
     estimated scf accuracy    <       0.00003030 Ry

     iteration # 29     ecut=    36.75 Ry     beta=0.30
     Davidson diagonalization with overlap
     ethr =  1.93E-08,  avg # of iterations =  6.6

     negative rho (up, down):  1.533E-02 0.000E+00
 
     Adding external electric field

     Computed dipole along edir(3) : 
        Dipole               -0.1047 Ry au,         -0.2661 Debye
        Dipole field         -0.0003 Ry au
 
        Potential amp.        0.0285 Ry
        Total length         44.9721 bohr
 

     total cpu time spent up to now is      453.4 secs

     total energy              =   -1749.99558128 Ry
     Harris-Foulkes estimate   =   -1749.99558201 Ry
     estimated scf accuracy    <       0.00002202 Ry

     iteration # 30     ecut=    36.75 Ry     beta=0.30
     Davidson diagonalization with overlap
     ethr =  1.40E-08,  avg # of iterations =  1.0

     negative rho (up, down):  1.546E-02 0.000E+00

     negative rho (up, down):  1.546E-02 0.000E+00

     negative rho (up, down):  1.546E-02 0.000E+00

     negative rho (up, down):  1.546E-02 0.000E+00

     negative rho (up, down):  1.546E-02 0.000E+00

     negative rho (up, down):  1.546E-02 0.000E+00

     negative rho (up, down):  1.546E-02 0.000E+00

     negative rho (up, down):  1.546E-02 0.000E+00

     negative rho (up, down):  1.546E-02 0.000E+00

     negative rho (up, down):  1.546E-02 0.000E+00

     negative rho (up, down):  1.546E-02 0.000E+00

     negative rho (up, down):  1.546E-02 0.000E+00

     negative rho (up, down):  1.546E-02 0.000E+00

     negative rho (up, down):  1.546E-02 0.000E+00

     negative rho (up, down):  1.546E-02 0.000E+00

     negative rho (up, down):  1.546E-02 0.000E+00

     negative rho (up, down):  1.546E-02 0.000E+00

     negative rho (up, down):  1.546E-02 0.000E+00

     negative rho (up, down):  1.546E-02 0.000E+00

     negative rho (up, down):  1.546E-02 0.000E+00

     negative rho (up, down):  1.546E-02 0.000E+00

     negative rho (up, down):  1.546E-02 0.000E+00

     negative rho (up, down):  1.546E-02 0.000E+00

     negative rho (up, down):  1.546E-02 0.000E+00

     negative rho (up, down):  1.546E-02 0.000E+00

     negative rho (up, down):  1.546E-02 0.000E+00

     negative rho (up, down):  1.546E-02 0.000E+00

     negative rho (up, down):  1.546E-02 0.000E+00

     negative rho (up, down):  1.546E-02 0.000E+00

     negative rho (up, down):  1.546E-02 0.000E+00

     negative rho (up, down):  1.546E-02 0.000E+00

     negative rho (up, down):  1.546E-02 0.000E+00

     negative rho (up, down):  1.546E-02 0.000E+00

     negative rho (up, down):  1.546E-02 0.000E+00

     negative rho (up, down):  1.546E-02 0.000E+00
 
     Adding external electric field

     Computed dipole along edir(3) : 
        Dipole               -0.1056 Ry au,         -0.2683 Debye
        Dipole field         -0.0003 Ry au
 
        Potential amp.        0.0287 Ry
        Total length         44.9721 bohr
 

     total cpu time spent up to now is      506.6 secs

     End of self-consistent calculation

          k = 0.0000 0.0000 0.0000 ( 15569 PWs)   bands (ev):

   -63.4633 -63.3928 -63.3486 -63.3311 -63.3267 -63.3263 -63.3022 -63.3019
   -63.2707 -63.2701 -63.2695 -63.1267 -37.5555 -37.5552 -37.5341 -37.5146
   -37.4739 -37.4738 -37.4691 -37.4148 -37.4101 -37.4101 -37.2646 -37.1987
   -37.1982 -37.1437 -37.1431 -37.1426 -37.0604 -37.0598 -37.0477 -37.0474
   -37.0064 -37.0060 -36.9864 -36.9794 -36.9395 -36.9393 -36.9197 -36.9009
   -36.9007 -36.8862 -36.8861 -36.8422 -36.8046 -36.8045 -36.7859 -36.7858
    -5.3051  -3.8476  -2.6826  -2.2823  -2.2185  -2.2184  -2.2079  -1.9614
    -1.9613  -1.7144  -1.4630  -1.4630  -1.4592  -1.4519  -1.4519  -1.3144
    -0.5964  -0.5786  -0.5786   0.3572   0.4504   0.4504   0.4559   0.6867
     0.8931   0.9882   0.9882   1.0421   1.0422   1.1561   1.1561   1.2209
     1.2385   1.2387   1.2721   1.2868   1.2868   1.7083   1.7413   1.7414

          k = 0.0000 0.0356 0.0000 ( 15635 PWs)   bands (ev):

   -63.4551 -63.3867 -63.3457 -63.3376 -63.3271 -63.3267 -63.3064 -63.3022
   -63.2752 -63.2701 -63.2699 -63.1277 -37.5338 -37.5262 -37.5101 -37.4955
   -37.4542 -37.4528 -37.4452 -37.3925 -37.3878 -37.3727 -37.2644 -37.2187
   -37.2089 -37.1525 -37.1375 -37.1353 -37.0745 -37.0724 -37.0467 -37.0425
   -37.0257 -37.0087 -36.9915 -36.9771 -36.9527 -36.9432 -36.9296 -36.9266
   -36.9198 -36.8999 -36.8957 -36.8529 -36.8289 -36.8218 -36.8136 -36.7933
    -5.0862  -3.6493  -2.5193  -2.2817  -2.1925  -2.1015  -2.0955  -1.9457
    -1.8433  -1.6519  -1.3908  -1.3491  -1.3296  -1.2986  -1.2785  -1.1945
    -0.5533  -0.5377  -0.5173   0.2845   0.4757   0.5036   0.5064   0.6103
     0.7428   0.7852   0.8060   0.8726   1.0910   1.1026   1.1304   1.1785
     1.1906   1.2141   1.2579   1.2834   1.4318   1.4579   1.4897   1.4923

          k = 0.0000 0.0713 0.0000 ( 15669 PWs)   bands (ev):

   -63.4326 -63.3727 -63.3626 -63.3338 -63.3269 -63.3254 -63.3168 -63.3021
   -63.2885 -63.2701 -63.2700 -63.1297 -37.4813 -37.4726 -37.4618 -37.4198
   -37.4084 -37.4034 -37.3982 -37.3420 -37.3330 -37.2706 -37.2667 -37.2394
   -37.2352 -37.1804 -37.1266 -37.1227 -37.0996 -37.0934 -37.0782 -37.0642
   -37.0507 -37.0158 -37.0132 -37.0023 -36.9936 -36.9854 -36.9672 -36.9668
   -36.9377 -36.9296 -36.9102 -36.8990 -36.8823 -36.8373 -36.8325 -36.8125
    -4.4710  -3.1477  -2.7267  -2.2396  -1.9311  -1.8152  -1.8052  -1.7596
    -1.5705  -1.4705  -1.2104  -1.0404  -1.0182  -0.9603  -0.8473  -0.8201
    -0.4301  -0.4189  -0.3453  -0.0329   0.2129   0.2742   0.2973   0.3594
     0.5223   0.6706   0.6825   0.7489   0.7864   0.7960   0.8082   0.8773
     0.9751   1.0483   1.0495   1.2111   1.2897   1.3720   1.3903   1.4095

          k = 0.0000-0.1069 0.0000 ( 15660 PWs)   bands (ev):

   -63.4087 -63.3905 -63.3533 -63.3416 -63.3270 -63.3240 -63.3086 -63.3051
   -63.3021 -63.2702 -63.2700 -63.1307 -37.4453 -37.4348 -37.4283 -37.3996
   -37.3922 -37.3808 -37.3172 -37.3075 -37.3006 -37.2893 -37.2713 -37.2278
   -37.1685 -37.1500 -37.1335 -37.1305 -37.1203 -37.1163 -37.0872 -37.0809
   -37.0748 -37.0720 -37.0646 -37.0637 -37.0235 -36.9910 -36.9817 -36.9698
   -36.9631 -36.9565 -36.9265 -36.8921 -36.8677 -36.8581 -36.8326 -36.8280
    -3.6582  -3.5426  -2.6765  -2.2733  -1.8455  -1.5646  -1.5428  -1.4558
    -1.4279  -1.3154  -1.2516  -0.7626  -0.7134  -0.6380  -0.6342  -0.5467
    -0.5105  -0.1561  -0.1253  -0.0844  -0.0713  -0.0620   0.0385   0.2281
     0.3170   0.3851   0.3912   0.4617   0.4628   0.5408   0.6295   0.6895
     0.8012   0.9352   0.9469   1.0349   1.0395   1.0652   1.3384   1.5330

          k = 0.0309-0.0178 0.0000 ( 15635 PWs)   bands (ev):

   -63.4551 -63.3867 -63.3457 -63.3375 -63.3275 -63.3264 -63.3067 -63.3019
   -63.2752 -63.2702 -63.2699 -63.1277 -37.5340 -37.5260 -37.5101 -37.4955
   -37.4541 -37.4529 -37.4452 -37.3925 -37.3879 -37.3727 -37.2644 -37.2189
   -37.2087 -37.1525 -37.1375 -37.1354 -37.0746 -37.0723 -37.0468 -37.0425
   -37.0256 -37.0087 -36.9917 -36.9770 -36.9527 -36.9432 -36.9295 -36.9268
   -36.9198 -36.8998 -36.8957 -36.8529 -36.8289 -36.8218 -36.8136 -36.7933
    -5.0862  -3.6493  -2.5193  -2.2817  -2.1925  -2.1016  -2.0955  -1.9457
    -1.8434  -1.6519  -1.3908  -1.3492  -1.3296  -1.2986  -1.2786  -1.1945
    -0.5533  -0.5377  -0.5173   0.2846   0.4757   0.5036   0.5065   0.6103
     0.7428   0.7852   0.8060   0.8727   1.0909   1.1025   1.1304   1.1785
     1.1905   1.2141   1.2578   1.2834   1.4318   1.4579   1.4896   1.4924

          k = 0.0309 0.0178 0.0000 ( 15635 PWs)   bands (ev):

   -63.4551 -63.3867 -63.3457 -63.3373 -63.3275 -63.3267 -63.3065 -63.3020
   -63.2753 -63.2705 -63.2695 -63.1277 -37.5340 -37.5259 -37.5101 -37.4955
   -37.4541 -37.4530 -37.4452 -37.3924 -37.3879 -37.3727 -37.2644 -37.2186
   -37.2090 -37.1528 -37.1372 -37.1353 -37.0747 -37.0723 -37.0469 -37.0424
   -37.0255 -37.0087 -36.9918 -36.9770 -36.9529 -36.9428 -36.9297 -36.9267
   -36.9197 -36.8999 -36.8957 -36.8529 -36.8289 -36.8219 -36.8136 -36.7933
    -5.0862  -3.6493  -2.5193  -2.2817  -2.1925  -2.1016  -2.0954  -1.9457
    -1.8434  -1.6519  -1.3908  -1.3492  -1.3296  -1.2986  -1.2786  -1.1945
    -0.5533  -0.5377  -0.5173   0.2845   0.4757   0.5036   0.5064   0.6103
     0.7428   0.7853   0.8061   0.8725   1.0909   1.1025   1.1304   1.1786
     1.1905   1.2141   1.2578   1.2834   1.4318   1.4579   1.4895   1.4924

          k = 0.0309 0.0535 0.0000 ( 15620 PWs)   bands (ev):

   -63.4397 -63.3759 -63.3536 -63.3388 -63.3328 -63.3207 -63.3135 -63.3026
   -63.2805 -63.2779 -63.2659 -63.1292 -37.5005 -37.4814 -37.4688 -37.4474
   -37.4225 -37.4149 -37.4098 -37.3644 -37.3222 -37.3191 -37.2669 -37.2378
   -37.2300 -37.1745 -37.1341 -37.1254 -37.1076 -37.0914 -37.0495 -37.0419
   -37.0377 -37.0152 -37.0091 -37.0005 -36.9836 -36.9759 -36.9484 -36.9340
   -36.9288 -36.9226 -36.9098 -36.9020 -36.8744 -36.8343 -36.8274 -36.8123
    -4.6677  -3.2911  -2.4174  -2.2776  -2.1722  -1.9846  -1.8757  -1.7963
    -1.6941  -1.4192  -1.2032  -1.1705  -1.1030  -1.0524  -1.0030  -0.9492
    -0.4665  -0.4491  -0.4277   0.1068   0.3318   0.3765   0.3846   0.4091
     0.5671   0.5996   0.7415   0.7554   0.8658   0.9414   0.9493   0.9739
     1.0250   1.1319   1.1456   1.2570   1.2804   1.4111   1.4597   1.4910

          k = 0.0309-0.1248 0.0000 ( 15642 PWs)   bands (ev):

   -63.4139 -63.3779 -63.3584 -63.3470 -63.3299 -63.3192 -63.3125 -63.3030
   -63.2945 -63.2814 -63.2635 -63.1306 -37.4447 -37.4405 -37.4120 -37.3911
   -37.3833 -37.3764 -37.3532 -37.3170 -37.2867 -37.2699 -37.2608 -37.2295
   -37.2059 -37.1929 -37.1625 -37.1397 -37.1147 -37.1120 -37.1028 -37.0762
   -37.0713 -37.0463 -37.0396 -37.0226 -37.0032 -36.9945 -36.9862 -36.9656
   -36.9524 -36.9456 -36.9192 -36.9071 -36.8880 -36.8645 -36.8397 -36.8300
    -3.9153  -3.0500  -2.7091  -2.2655  -2.0980  -1.7859  -1.5712  -1.4086
    -1.3803  -1.1290  -1.0391  -0.8158  -0.7717  -0.7556  -0.6773  -0.5805
    -0.3396  -0.3005  -0.2481  -0.1451  -0.0489   0.0137   0.0687   0.1386
     0.2064   0.3055   0.4495   0.4828   0.5436   0.6281   0.6407   0.6791
     0.7655   0.7835   0.9865   1.0221   1.0680   1.2830   1.3350   1.5173

          k = 0.0309-0.0891 0.0000 ( 15642 PWs)   bands (ev):

   -63.4138 -63.3780 -63.3582 -63.3471 -63.3299 -63.3192 -63.3127 -63.3027
   -63.2946 -63.2815 -63.2635 -63.1306 -37.4448 -37.4404 -37.4121 -37.3911
   -37.3833 -37.3764 -37.3531 -37.3171 -37.2867 -37.2699 -37.2608 -37.2295
   -37.2058 -37.1930 -37.1626 -37.1395 -37.1147 -37.1121 -37.1029 -37.0761
   -37.0712 -37.0464 -37.0393 -37.0227 -37.0032 -36.9947 -36.9862 -36.9654
   -36.9525 -36.9455 -36.9193 -36.9070 -36.8880 -36.8645 -36.8397 -36.8300
    -3.9153  -3.0500  -2.7092  -2.2655  -2.0980  -1.7859  -1.5712  -1.4086
    -1.3803  -1.1290  -1.0391  -0.8158  -0.7717  -0.7556  -0.6773  -0.5806
    -0.3396  -0.3005  -0.2481  -0.1451  -0.0489   0.0137   0.0687   0.1386
     0.2064   0.3055   0.4494   0.4830   0.5436   0.6281   0.6409   0.6791
     0.7655   0.7834   0.9866   1.0221   1.0679   1.2830   1.3351   1.5173

          k = 0.0309-0.0535 0.0000 ( 15620 PWs)   bands (ev):

   -63.4397 -63.3758 -63.3538 -63.3388 -63.3327 -63.3205 -63.3137 -63.3025
   -63.2801 -63.2783 -63.2659 -63.1292 -37.5004 -37.4814 -37.4689 -37.4474
   -37.4224 -37.4150 -37.4098 -37.3644 -37.3222 -37.3191 -37.2669 -37.2379
   -37.2298 -37.1744 -37.1340 -37.1257 -37.1075 -37.0914 -37.0495 -37.0419
   -37.0376 -37.0151 -37.0092 -37.0006 -36.9838 -36.9758 -36.9485 -36.9338
   -36.9287 -36.9227 -36.9097 -36.9020 -36.8744 -36.8343 -36.8274 -36.8124
    -4.6677  -3.2911  -2.4174  -2.2777  -2.1722  -1.9846  -1.8757  -1.7963
    -1.6941  -1.4192  -1.2032  -1.1704  -1.1029  -1.0524  -1.0030  -0.9492
    -0.4665  -0.4491  -0.4277   0.1068   0.3317   0.3764   0.3847   0.4091
     0.5670   0.5996   0.7416   0.7553   0.8657   0.9414   0.9494   0.9738
     1.0250   1.1319   1.1457   1.2568   1.2805   1.4111   1.4598   1.4910

          k = 0.0617-0.0356 0.0000 ( 15669 PWs)   bands (ev):

   -63.4327 -63.3725 -63.3627 -63.3338 -63.3267 -63.3256 -63.3172 -63.3019
   -63.2885 -63.2701 -63.2700 -63.1297 -37.4815 -37.4725 -37.4616 -37.4199
   -37.4083 -37.4034 -37.3982 -37.3420 -37.3331 -37.2706 -37.2667 -37.2393
   -37.2353 -37.1805 -37.1266 -37.1228 -37.0996 -37.0935 -37.0782 -37.0642
   -37.0507 -37.0158 -37.0132 -37.0024 -36.9936 -36.9855 -36.9674 -36.9666
   -36.9377 -36.9295 -36.9101 -36.8990 -36.8822 -36.8373 -36.8325 -36.8125
    -4.4710  -3.1477  -2.7267  -2.2396  -1.9311  -1.8152  -1.8053  -1.7596
    -1.5705  -1.4704  -1.2104  -1.0404  -1.0182  -0.9603  -0.8473  -0.8201
    -0.4301  -0.4189  -0.3453  -0.0329   0.2130   0.2743   0.2973   0.3594
     0.5223   0.6707   0.6824   0.7489   0.7863   0.7961   0.8082   0.8774
     0.9750   1.0483   1.0495   1.2112   1.2896   1.3720   1.3903   1.4095

          k = 0.0617 0.0000 0.0000 ( 15620 PWs)   bands (ev):

   -63.4397 -63.3759 -63.3535 -63.3390 -63.3326 -63.3208 -63.3136 -63.3025
   -63.2803 -63.2781 -63.2659 -63.1292 -37.5005 -37.4814 -37.4688 -37.4474
   -37.4225 -37.4150 -37.4098 -37.3644 -37.3222 -37.3191 -37.2669 -37.2378
   -37.2299 -37.1745 -37.1341 -37.1255 -37.1076 -37.0914 -37.0495 -37.0419
   -37.0376 -37.0152 -37.0092 -37.0006 -36.9837 -36.9757 -36.9484 -36.9339
   -36.9288 -36.9227 -36.9097 -36.9021 -36.8744 -36.8343 -36.8274 -36.8123
    -4.6677  -3.2911  -2.4174  -2.2776  -2.1722  -1.9847  -1.8757  -1.7963
    -1.6941  -1.4192  -1.2032  -1.1705  -1.1029  -1.0524  -1.0030  -0.9492
    -0.4665  -0.4491  -0.4277   0.1068   0.3317   0.3765   0.3846   0.4091
     0.5670   0.5996   0.7415   0.7554   0.8657   0.9414   0.9493   0.9739
     1.0250   1.1318   1.1457   1.2569   1.2804   1.4111   1.4597   1.4909

          k = 0.0617 0.0356 0.0000 ( 15669 PWs)   bands (ev):

   -63.4327 -63.3727 -63.3624 -63.3337 -63.3269 -63.3255 -63.3171 -63.3020
   -63.2886 -63.2706 -63.2694 -63.1297 -37.4816 -37.4725 -37.4616 -37.4198
   -37.4083 -37.4034 -37.3982 -37.3419 -37.3331 -37.2706 -37.2667 -37.2393
   -37.2352 -37.1807 -37.1266 -37.1227 -37.0995 -37.0937 -37.0779 -37.0643
   -37.0506 -37.0157 -37.0133 -37.0023 -36.9936 -36.9856 -36.9672 -36.9664
   -36.9377 -36.9297 -36.9102 -36.8990 -36.8824 -36.8373 -36.8325 -36.8124
    -4.4710  -3.1477  -2.7267  -2.2397  -1.9311  -1.8152  -1.8053  -1.7596
    -1.5706  -1.4704  -1.2104  -1.0404  -1.0182  -0.9602  -0.8473  -0.8200
    -0.4301  -0.4190  -0.3453  -0.0329   0.2130   0.2743   0.2973   0.3594
     0.5222   0.6707   0.6824   0.7489   0.7864   0.7962   0.8081   0.8773
     0.9750   1.0483   1.0494   1.2110   1.2897   1.3720   1.3902   1.4095

          k = 0.0617-0.1426 0.0000 ( 15642 PWs)   bands (ev):

   -63.4140 -63.3777 -63.3584 -63.3471 -63.3296 -63.3192 -63.3128 -63.3027
   -63.2947 -63.2814 -63.2635 -63.1306 -37.4448 -37.4406 -37.4119 -37.3910
   -37.3834 -37.3762 -37.3532 -37.3170 -37.2866 -37.2697 -37.2608 -37.2296
   -37.2059 -37.1930 -37.1626 -37.1396 -37.1147 -37.1119 -37.1028 -37.0762
   -37.0713 -37.0465 -37.0392 -37.0229 -37.0033 -36.9945 -36.9863 -36.9654
   -36.9525 -36.9455 -36.9193 -36.9071 -36.8881 -36.8645 -36.8396 -36.8300
    -3.9153  -3.0500  -2.7091  -2.2655  -2.0980  -1.7858  -1.5713  -1.4087
    -1.3803  -1.1290  -1.0391  -0.8159  -0.7717  -0.7555  -0.6773  -0.5805
    -0.3396  -0.3005  -0.2481  -0.1451  -0.0489   0.0138   0.0687   0.1386
     0.2064   0.3055   0.4495   0.4829   0.5436   0.6281   0.6408   0.6791
     0.7654   0.7834   0.9865   1.0221   1.0679   1.2830   1.3350   1.5172

          k = 0.0617-0.1069 0.0000 ( 15672 PWs)   bands (ev):

   -63.3967 -63.3827 -63.3674 -63.3430 -63.3374 -63.3179 -63.3065 -63.2974
   -63.2957 -63.2952 -63.2611 -63.1311 -37.4146 -37.4038 -37.3914 -37.3735
   -37.3714 -37.3433 -37.3379 -37.3342 -37.2950 -37.2343 -37.2245 -37.2206
   -37.1986 -37.1862 -37.1823 -37.1630 -37.1496 -37.1493 -37.1147 -37.1056
   -37.1046 -37.0743 -37.0205 -37.0106 -36.9963 -36.9867 -36.9825 -36.9676
   -36.9650 -36.9272 -36.9148 -36.9134 -36.9092 -36.8820 -36.8773 -36.8289
    -3.2511  -3.0394  -3.0367  -2.4279  -1.8851  -1.8844  -1.5385  -1.0439
    -1.0294  -0.8962  -0.8442  -0.8408  -0.8206  -0.4452  -0.4388  -0.4338
    -0.4290  -0.3342  -0.2898  -0.2869  -0.2726  -0.1904  -0.1795   0.0548
     0.2080   0.2200   0.2217   0.2937   0.3059   0.3086   0.5693   0.5980
     0.6170   0.6409   0.7086   1.2123   1.2273   1.3125   1.4494   1.4500

          k = 0.0617-0.0713 0.0000 ( 15642 PWs)   bands (ev):

   -63.4139 -63.3779 -63.3583 -63.3471 -63.3300 -63.3192 -63.3127 -63.3026
   -63.2947 -63.2814 -63.2635 -63.1307 -37.4448 -37.4405 -37.4120 -37.3911
   -37.3833 -37.3762 -37.3531 -37.3171 -37.2867 -37.2698 -37.2608 -37.2296
   -37.2058 -37.1930 -37.1626 -37.1395 -37.1147 -37.1121 -37.1028 -37.0761
   -37.0713 -37.0465 -37.0393 -37.0228 -37.0033 -36.9946 -36.9862 -36.9654
   -36.9525 -36.9455 -36.9192 -36.9070 -36.8880 -36.8646 -36.8398 -36.8300
    -3.9153  -3.0500  -2.7091  -2.2655  -2.0979  -1.7859  -1.5713  -1.4086
    -1.3803  -1.1290  -1.0391  -0.8159  -0.7717  -0.7555  -0.6774  -0.5806
    -0.3396  -0.3005  -0.2481  -0.1451  -0.0489   0.0137   0.0687   0.1386
     0.2064   0.3055   0.4494   0.4830   0.5435   0.6281   0.6408   0.6791
     0.7655   0.7834   0.9866   1.0221   1.0679   1.2831   1.3351   1.5172

          k =-0.0926 0.0535 0.0000 ( 15660 PWs)   bands (ev):

   -63.4088 -63.3903 -63.3531 -63.3420 -63.3267 -63.3243 -63.3089 -63.3050
   -63.3018 -63.2701 -63.2700 -63.1307 -37.4456 -37.4348 -37.4282 -37.3994
   -37.3923 -37.3807 -37.3171 -37.3075 -37.3006 -37.2894 -37.2711 -37.2281
   -37.1684 -37.1501 -37.1334 -37.1304 -37.1203 -37.1165 -37.0872 -37.0809
   -37.0747 -37.0718 -37.0647 -37.0640 -37.0236 -36.9909 -36.9820 -36.9696
   -36.9631 -36.9563 -36.9266 -36.8919 -36.8676 -36.8582 -36.8326 -36.8281
    -3.6582  -3.5426  -2.6765  -2.2733  -1.8455  -1.5646  -1.5429  -1.4560
    -1.4278  -1.3153  -1.2516  -0.7627  -0.7132  -0.6380  -0.6341  -0.5468
    -0.5105  -0.1561  -0.1253  -0.0844  -0.0712  -0.0619   0.0385   0.2281
     0.3170   0.3850   0.3911   0.4617   0.4627   0.5408   0.6295   0.6895
     0.8013   0.9352   0.9468   1.0348   1.0394   1.0652   1.3384   1.5328

          k =-0.0926 0.0891 0.0000 ( 15642 PWs)   bands (ev):

   -63.4139 -63.3778 -63.3583 -63.3471 -63.3301 -63.3191 -63.3126 -63.3029
   -63.2945 -63.2814 -63.2635 -63.1307 -37.4448 -37.4405 -37.4120 -37.3911
   -37.3832 -37.3763 -37.3531 -37.3170 -37.2866 -37.2699 -37.2608 -37.2296
   -37.2059 -37.1930 -37.1625 -37.1396 -37.1147 -37.1121 -37.1028 -37.0762
   -37.0714 -37.0462 -37.0396 -37.0227 -37.0033 -36.9945 -36.9861 -36.9656
   -36.9524 -36.9456 -36.9192 -36.9070 -36.8879 -36.8645 -36.8398 -36.8300
    -3.9153  -3.0500  -2.7091  -2.2655  -2.0980  -1.7859  -1.5713  -1.4087
    -1.3802  -1.1290  -1.0391  -0.8159  -0.7717  -0.7556  -0.6773  -0.5806
    -0.3396  -0.3004  -0.2481  -0.1451  -0.0489   0.0137   0.0687   0.1386
     0.2064   0.3055   0.4495   0.4829   0.5436   0.6281   0.6408   0.6791
     0.7655   0.7835   0.9866   1.0221   1.0679   1.2830   1.3351   1.5172

          k =-0.0926 0.1248 0.0000 ( 15642 PWs)   bands (ev):

   -63.4140 -63.3777 -63.3583 -63.3473 -63.3297 -63.3191 -63.3129 -63.3028
   -63.2946 -63.2814 -63.2635 -63.1306 -37.4449 -37.4405 -37.4120 -37.3910
   -37.3833 -37.3763 -37.3531 -37.3170 -37.2866 -37.2698 -37.2608 -37.2297
   -37.2059 -37.1930 -37.1627 -37.1396 -37.1147 -37.1120 -37.1028 -37.0762
   -37.0713 -37.0464 -37.0393 -37.0229 -37.0033 -36.9946 -36.9862 -36.9654
   -36.9524 -36.9455 -36.9193 -36.9071 -36.8881 -36.8645 -36.8396 -36.8300
    -3.9153  -3.0500  -2.7091  -2.2655  -2.0980  -1.7858  -1.5713  -1.4087
    -1.3803  -1.1290  -1.0391  -0.8159  -0.7717  -0.7555  -0.6773  -0.5805
    -0.3396  -0.3005  -0.2481  -0.1451  -0.0489   0.0137   0.0687   0.1386
     0.2064   0.3055   0.4495   0.4829   0.5436   0.6281   0.6409   0.6791
     0.7654   0.7834   0.9866   1.0221   1.0679   1.2830   1.3351   1.5172

          k =-0.0926-0.0535 0.0000 ( 15660 PWs)   bands (ev):

   -63.4090 -63.3901 -63.3536 -63.3412 -63.3270 -63.3242 -63.3085 -63.3055
   -63.3019 -63.2707 -63.2694 -63.1307 -37.4457 -37.4349 -37.4281 -37.3992
   -37.3924 -37.3808 -37.3174 -37.3072 -37.3003 -37.2893 -37.2711 -37.2283
   -37.1686 -37.1498 -37.1337 -37.1306 -37.1204 -37.1160 -37.0872 -37.0810
   -37.0750 -37.0716 -37.0648 -37.0634 -37.0238 -36.9909 -36.9821 -36.9695
   -36.9631 -36.9562 -36.9266 -36.8922 -36.8678 -36.8581 -36.8326 -36.8279
    -3.6581  -3.5427  -2.6764  -2.2734  -1.8454  -1.5646  -1.5429  -1.4560
    -1.4278  -1.3154  -1.2516  -0.7628  -0.7132  -0.6380  -0.6341  -0.5467
    -0.5105  -0.1560  -0.1254  -0.0843  -0.0713  -0.0619   0.0385   0.2281
     0.3169   0.3851   0.3913   0.4617   0.4627   0.5407   0.6297   0.6895
     0.8011   0.9353   0.9468   1.0348   1.0394   1.0651   1.3383   1.5331

     the Fermi energy is     0.8337 ev

!    total energy              =   -1749.99557559 Ry
     Harris-Foulkes estimate   =   -1749.99558117 Ry
     estimated scf accuracy    <       0.00000643 Ry

     The total energy is the sum of the following terms:

     one-electron contribution =  -14928.08912953 Ry
     hartree contribution      =    7450.59142168 Ry
     xc contribution           =    -244.97503419 Ry
     ewald contribution        =    5972.62503762 Ry
     electric field correction =       0.00003368 Ry
     smearing contrib. (-TS)   =      -0.14790484 Ry

     convergence has been achieved in  30 iterations
 
 BEEF-vdW xc energy contributions
           1 :   -211.111522251831     
           2 :    189.440572031469     
           3 :   -153.654831996518     
           4 :    115.038132539395     
           5 :   -83.4271648919913     
           6 :    63.4769567432917     
           7 :   -54.0237441238637     
           8 :    50.2874492089332     
           9 :   -47.2401946941028     
          10 :    42.1705021028288     
          11 :   -35.3217612354777     
          12 :    28.7345571776130     
          13 :   -24.3668373444912     
          14 :    22.7268786351659     
          15 :   -22.7303421040557     
          16 :    22.6323700695109     
          17 :   -21.2591713710269     
          18 :    18.6835273342343     
          19 :   -15.9706553103226     
          20 :    14.2811243639603     
          21 :   -14.0240486241717     
          22 :    14.6342834511342     
          23 :   -15.0549533338451     
          24 :    14.5092246953000     
          25 :   -13.0007016721793     
          26 :    11.2295492645867     
          27 :   -10.0443872632524     
          28 :    9.84625993961069     
          29 :   -10.3525283609914     
          30 :    10.8472651395522     
          31 :   -21.8472547589812     
          32 :   -15.7471673773788     

     Forces acting on atoms (Ry/au):


     negative rho (up, down):  1.546E-02 0.000E+00
     atom    1 type  1   force =     0.00047495    0.00027989   -0.00145907
     atom    2 type  1   force =    -0.00048196    0.00027053   -0.00144724
     atom    3 type  1   force =    -0.00000822   -0.00055152   -0.00150922
     atom    4 type  1   force =     0.00001197    0.00000056   -0.00012096
     atom    5 type  1   force =     0.00004091    0.00164138   -0.00725031
     atom    6 type  1   force =    -0.00005396   -0.00000728    0.00020367
     atom    7 type  1   force =    -0.00140969   -0.00084627   -0.00719166
     atom    8 type  1   force =     0.00142373   -0.00078230   -0.00729703
     atom    9 type  1   force =     0.00000589    0.00000526   -0.04626459
     atom   10 type  1   force =    -0.00000474   -0.00123788    0.00130806
     atom   11 type  1   force =    -0.00106411    0.00061203    0.00131573
     atom   12 type  1   force =     0.00106349    0.00061544    0.00129006
     atom   13 type  2   force =     0.00000174    0.00000015    0.06842256

     Total force =     0.082654     Total SCF correction =     0.001184


     entering subroutine stress ...


     negative rho (up, down):  1.546E-02 0.000E+00
          total   stress  (Ry/bohr**3)                   (kbar)     P=  -16.09
  -0.00020032  -0.00000001  -0.00000002        -29.47     -0.00     -0.00
  -0.00000001  -0.00020027   0.00000001         -0.00    -29.46      0.00
  -0.00000002   0.00000001   0.00007243         -0.00      0.00     10.65


     BFGS Geometry Optimization

     number of scf cycles    =   1
     number of bfgs steps    =   0

     energy   new            =   -1749.9955755858 Ry

     new trust radius        =       0.0684225642 bohr
     new conv_thr            =       0.0000099958 Ry


ATOMIC_POSITIONS (crystal)
V1       0.166666667   0.166666667   0.409694847    0   0   0
V1       0.666666667   0.166666667   0.409694847    0   0   0
V1       0.166666667   0.666666667   0.409694847    0   0   0
V1       0.666666667   0.666666667   0.409694847    0   0   0
V1       0.833333333   0.333333333   0.500000000    0   0   0
V1       0.333333333   0.333333333   0.500000000    0   0   0
V1       0.833333333   0.833333333   0.500000000    0   0   0
V1       0.333333333   0.833333333   0.500000000    0   0   0
V1       0.000000280   0.000000595   0.589302132
V1       0.500069583  -0.000140095   0.590333512
V1      -0.000138927   0.500069266   0.590333679
V1       0.500069408   0.500069651   0.590333122
H1       0.000000162   0.000000017   0.655864837



     Writing output data file calc.save
     Check: negative starting charge=   -0.011681
     NEW-OLD atomic charge density approx. for the potential

     Check: negative/imaginary core charge=   -0.000001    0.000000
     Check: negative starting charge=   -0.011589

     negative rho (up, down):  1.545E-02 0.000E+00
 
     Adding external electric field

     Computed dipole along edir(3) : 
        Dipole               -0.1056 Ry au,         -0.2685 Debye
        Dipole field         -0.0003 Ry au
 
        Potential amp.        0.0287 Ry
        Total length         44.9721 bohr
 

     total cpu time spent up to now is      557.0 secs

     per-process dynamical memory:   103.5 Mb

     Self-consistent Calculation

     iteration #  1     ecut=    36.75 Ry     beta=0.30
     Davidson diagonalization with overlap
     ethr =  1.00E-06,  avg # of iterations =  7.2

     negative rho (up, down):  1.545E-02 0.000E+00
 
     Adding external electric field

     Computed dipole along edir(3) : 
        Dipole                0.1575 Ry au,          0.4003 Debye
        Dipole field          0.0005 Ry au
 
        Potential amp.       -0.0428 Ry
        Total length         44.9721 bohr
 

     total cpu time spent up to now is      578.5 secs

     total energy              =   -1749.99150460 Ry
     Harris-Foulkes estimate   =   -1750.00114264 Ry
     estimated scf accuracy    <       0.01983575 Ry

     iteration #  2     ecut=    36.75 Ry     beta=0.30
     Davidson diagonalization with overlap
     ethr =  1.26E-05,  avg # of iterations =  6.8

     negative rho (up, down):  1.547E-02 0.000E+00
 
     Adding external electric field

     Computed dipole along edir(3) : 
        Dipole               -0.1206 Ry au,         -0.3066 Debye
        Dipole field         -0.0004 Ry au
 
        Potential amp.        0.0328 Ry
        Total length         44.9721 bohr
 

     total cpu time spent up to now is      598.5 secs

     total energy              =   -1749.85584678 Ry
     Harris-Foulkes estimate   =   -1750.14562855 Ry
     estimated scf accuracy    <      19.86667100 Ry

     iteration #  3     ecut=    36.75 Ry     beta=0.30
     Davidson diagonalization with overlap
     ethr =  1.26E-05,  avg # of iterations =  8.2

     negative rho (up, down):  1.548E-02 0.000E+00
 
     Adding external electric field

     Computed dipole along edir(3) : 
        Dipole               -0.0934 Ry au,         -0.2374 Debye
        Dipole field         -0.0003 Ry au
 
        Potential amp.        0.0254 Ry
        Total length         44.9721 bohr
 

     total cpu time spent up to now is      619.6 secs

     total energy              =   -1749.98830943 Ry
     Harris-Foulkes estimate   =   -1750.01290732 Ry
     estimated scf accuracy    <       0.58896026 Ry

     iteration #  4     ecut=    36.75 Ry     beta=0.30
     Davidson diagonalization with overlap
     ethr =  1.26E-05,  avg # of iterations =  5.2

     negative rho (up, down):  1.548E-02 0.000E+00
 
     Adding external electric field

     Computed dipole along edir(3) : 
        Dipole               -0.0950 Ry au,         -0.2415 Debye
        Dipole field         -0.0003 Ry au
 
        Potential amp.        0.0258 Ry
        Total length         44.9721 bohr
 

     total cpu time spent up to now is      637.3 secs

     total energy              =   -1750.00010898 Ry
     Harris-Foulkes estimate   =   -1750.00093654 Ry
     estimated scf accuracy    <       0.01115535 Ry

     iteration #  5     ecut=    36.75 Ry     beta=0.30
     Davidson diagonalization with overlap
     ethr =  7.11E-06,  avg # of iterations =  2.7

     negative rho (up, down):  1.548E-02 0.000E+00
 
     Adding external electric field

     Computed dipole along edir(3) : 
        Dipole               -0.1018 Ry au,         -0.2588 Debye
        Dipole field         -0.0003 Ry au
 
        Potential amp.        0.0277 Ry
        Total length         44.9721 bohr
 

     total cpu time spent up to now is      651.2 secs

     total energy              =   -1750.00043244 Ry
     Harris-Foulkes estimate   =   -1750.00048441 Ry
     estimated scf accuracy    <       0.00037423 Ry

     iteration #  6     ecut=    36.75 Ry     beta=0.30
     Davidson diagonalization with overlap
     ethr =  2.38E-07,  avg # of iterations =  7.6

     negative rho (up, down):  1.548E-02 0.000E+00
 
     Adding external electric field

     Computed dipole along edir(3) : 
        Dipole               -0.1048 Ry au,         -0.2664 Debye
        Dipole field         -0.0003 Ry au
 
        Potential amp.        0.0285 Ry
        Total length         44.9721 bohr
 

     total cpu time spent up to now is      671.3 secs

     total energy              =   -1750.00056848 Ry
     Harris-Foulkes estimate   =   -1750.00072277 Ry
     estimated scf accuracy    <       0.00267184 Ry

     iteration #  7     ecut=    36.75 Ry     beta=0.30
     Davidson diagonalization with overlap
     ethr =  2.38E-07,  avg # of iterations =  5.6

     negative rho (up, down):  1.548E-02 0.000E+00
 
     Adding external electric field

     Computed dipole along edir(3) : 
        Dipole               -0.1076 Ry au,         -0.2736 Debye
        Dipole field         -0.0003 Ry au
 
        Potential amp.        0.0293 Ry
        Total length         44.9721 bohr
 

     total cpu time spent up to now is      688.6 secs

     total energy              =   -1750.00057481 Ry
     Harris-Foulkes estimate   =   -1750.00068349 Ry
     estimated scf accuracy    <       0.00173581 Ry

     iteration #  8     ecut=    36.75 Ry     beta=0.30
     Davidson diagonalization with overlap
     ethr =  2.38E-07,  avg # of iterations =  5.2

     negative rho (up, down):  1.548E-02 0.000E+00
 
     Adding external electric field

     Computed dipole along edir(3) : 
        Dipole               -0.1071 Ry au,         -0.2722 Debye
        Dipole field         -0.0003 Ry au
 
        Potential amp.        0.0291 Ry
        Total length         44.9721 bohr
 

     total cpu time spent up to now is      704.9 secs

     total energy              =   -1750.00061275 Ry
     Harris-Foulkes estimate   =   -1750.00064326 Ry
     estimated scf accuracy    <       0.00027205 Ry

     iteration #  9     ecut=    36.75 Ry     beta=0.30
     Davidson diagonalization with overlap
     ethr =  1.73E-07,  avg # of iterations =  5.3

     negative rho (up, down):  1.548E-02 0.000E+00
 
     Adding external electric field

     Computed dipole along edir(3) : 
        Dipole               -0.1048 Ry au,         -0.2665 Debye
        Dipole field         -0.0003 Ry au
 
        Potential amp.        0.0285 Ry
        Total length         44.9721 bohr
 

     total cpu time spent up to now is      719.8 secs

     total energy              =   -1750.00063151 Ry
     Harris-Foulkes estimate   =   -1750.00063320 Ry
     estimated scf accuracy    <       0.00002730 Ry

     iteration # 10     ecut=    36.75 Ry     beta=0.30
     Davidson diagonalization with overlap
     ethr =  1.74E-08,  avg # of iterations =  7.4

     negative rho (up, down):  1.548E-02 0.000E+00
 
     Adding external electric field

     Computed dipole along edir(3) : 
        Dipole               -0.1055 Ry au,         -0.2681 Debye
        Dipole field         -0.0003 Ry au
 
        Potential amp.        0.0287 Ry
        Total length         44.9721 bohr
 

     total cpu time spent up to now is      739.0 secs

     total energy              =   -1750.00063595 Ry
     Harris-Foulkes estimate   =   -1750.00063763 Ry
     estimated scf accuracy    <       0.00003029 Ry

     iteration # 11     ecut=    36.75 Ry     beta=0.30
     Davidson diagonalization with overlap
     ethr =  1.74E-08,  avg # of iterations =  6.0

     negative rho (up, down):  1.548E-02 0.000E+00
 
     Adding external electric field

     Computed dipole along edir(3) : 
        Dipole               -0.1060 Ry au,         -0.2694 Debye
        Dipole field         -0.0003 Ry au
 
        Potential amp.        0.0288 Ry
        Total length         44.9721 bohr
 

     total cpu time spent up to now is      755.9 secs

     total energy              =   -1750.00063451 Ry
     Harris-Foulkes estimate   =   -1750.00064203 Ry
     estimated scf accuracy    <       0.00010886 Ry

     iteration # 12     ecut=    36.75 Ry     beta=0.30
     Davidson diagonalization with overlap
     ethr =  1.74E-08,  avg # of iterations =  6.5

     negative rho (up, down):  1.549E-02 0.000E+00

     negative rho (up, down):  1.549E-02 0.000E+00

     negative rho (up, down):  1.549E-02 0.000E+00

     negative rho (up, down):  1.549E-02 0.000E+00

     negative rho (up, down):  1.549E-02 0.000E+00

     negative rho (up, down):  1.549E-02 0.000E+00

     negative rho (up, down):  1.549E-02 0.000E+00

     negative rho (up, down):  1.549E-02 0.000E+00

     negative rho (up, down):  1.549E-02 0.000E+00

     negative rho (up, down):  1.549E-02 0.000E+00

     negative rho (up, down):  1.549E-02 0.000E+00

     negative rho (up, down):  1.549E-02 0.000E+00

     negative rho (up, down):  1.549E-02 0.000E+00

     negative rho (up, down):  1.549E-02 0.000E+00

     negative rho (up, down):  1.549E-02 0.000E+00

     negative rho (up, down):  1.549E-02 0.000E+00

     negative rho (up, down):  1.549E-02 0.000E+00

     negative rho (up, down):  1.549E-02 0.000E+00

     negative rho (up, down):  1.549E-02 0.000E+00

     negative rho (up, down):  1.549E-02 0.000E+00

     negative rho (up, down):  1.549E-02 0.000E+00

     negative rho (up, down):  1.549E-02 0.000E+00

     negative rho (up, down):  1.549E-02 0.000E+00

     negative rho (up, down):  1.549E-02 0.000E+00

     negative rho (up, down):  1.549E-02 0.000E+00

     negative rho (up, down):  1.549E-02 0.000E+00

     negative rho (up, down):  1.549E-02 0.000E+00

     negative rho (up, down):  1.549E-02 0.000E+00

     negative rho (up, down):  1.549E-02 0.000E+00

     negative rho (up, down):  1.549E-02 0.000E+00

     negative rho (up, down):  1.549E-02 0.000E+00

     negative rho (up, down):  1.549E-02 0.000E+00

     negative rho (up, down):  1.549E-02 0.000E+00

     negative rho (up, down):  1.549E-02 0.000E+00

     negative rho (up, down):  1.549E-02 0.000E+00
 
     Adding external electric field

     Computed dipole along edir(3) : 
        Dipole               -0.1126 Ry au,         -0.2863 Debye
        Dipole field         -0.0003 Ry au
 
        Potential amp.        0.0306 Ry
        Total length         44.9721 bohr
 

     total cpu time spent up to now is      812.3 secs

     End of self-consistent calculation

          k = 0.0000 0.0000 0.0000 ( 15569 PWs)   bands (ev):

   -63.4654 -63.3965 -63.3503 -63.3321 -63.3299 -63.3297 -63.3043 -63.3038
   -63.2713 -63.2712 -63.2711 -63.1443 -37.5574 -37.5571 -37.5362 -37.5185
   -37.4794 -37.4793 -37.4716 -37.4159 -37.4147 -37.4146 -37.2699 -37.2058
   -37.2057 -37.1447 -37.1441 -37.1440 -37.0638 -37.0623 -37.0498 -37.0496
   -37.0079 -37.0075 -36.9904 -36.9835 -36.9419 -36.9418 -36.9208 -36.9031
   -36.9031 -36.8880 -36.8879 -36.8408 -36.8087 -36.8087 -36.7918 -36.7918
    -5.3058  -3.8440  -2.6810  -2.2451  -2.2266  -2.2265  -2.2080  -1.9674
    -1.9673  -1.6920  -1.4694  -1.4694  -1.4660  -1.4547  -1.4547  -1.2991
    -0.6005  -0.5814  -0.5814   0.3541   0.4531   0.4531   0.4557   0.6908
     0.8991   0.9835   0.9835   1.0391   1.0391   1.1505   1.1505   1.2182
     1.2272   1.2274   1.2727   1.2828   1.2828   1.7104   1.7397   1.7399

          k = 0.0000 0.0356 0.0000 ( 15635 PWs)   bands (ev):

   -63.4572 -63.3904 -63.3475 -63.3395 -63.3300 -63.3291 -63.3085 -63.3042
   -63.2763 -63.2712 -63.2710 -63.1453 -37.5357 -37.5281 -37.5129 -37.4986
   -37.4598 -37.4573 -37.4486 -37.3945 -37.3925 -37.3762 -37.2694 -37.2246
   -37.2152 -37.1545 -37.1394 -37.1377 -37.0771 -37.0746 -37.0501 -37.0447
   -37.0280 -37.0115 -36.9946 -36.9804 -36.9546 -36.9445 -36.9316 -36.9280
   -36.9230 -36.9018 -36.8979 -36.8544 -36.8326 -36.8251 -36.8179 -36.7991
    -5.0866  -3.6438  -2.5087  -2.2787  -2.1697  -2.1092  -2.1007  -1.9475
    -1.8492  -1.6339  -1.3944  -1.3522  -1.3368  -1.3036  -1.2857  -1.1832
    -0.5565  -0.5412  -0.5185   0.2812   0.4768   0.5062   0.5068   0.6165
     0.7393   0.7853   0.8034   0.8707   1.0834   1.0997   1.1256   1.1737
     1.1844   1.2129   1.2528   1.2734   1.4275   1.4577   1.4842   1.4912

          k = 0.0000 0.0713 0.0000 ( 15669 PWs)   bands (ev):

   -63.4348 -63.3760 -63.3650 -63.3362 -63.3302 -63.3273 -63.3184 -63.3042
   -63.2896 -63.2712 -63.2711 -63.1473 -37.4831 -37.4760 -37.4645 -37.4220
   -37.4143 -37.4062 -37.4025 -37.3440 -37.3381 -37.2752 -37.2698 -37.2441
   -37.2397 -37.1841 -37.1305 -37.1261 -37.1027 -37.0947 -37.0802 -37.0672
   -37.0542 -37.0180 -37.0166 -37.0035 -36.9967 -36.9879 -36.9690 -36.9685
   -36.9412 -36.9307 -36.9137 -36.9060 -36.8836 -36.8418 -36.8300 -36.8186
    -4.4701  -3.1311  -2.7263  -2.2090  -1.9348  -1.8168  -1.8117  -1.7527
    -1.5761  -1.4678  -1.2130  -1.0437  -1.0235  -0.9628  -0.8573  -0.8177
    -0.4325  -0.4237  -0.3450  -0.0353   0.2120   0.2718   0.2927   0.3612
     0.5204   0.6685   0.6807   0.7471   0.7829   0.7921   0.8031   0.8795
     0.9734   1.0448   1.0488   1.2095   1.2933   1.3712   1.3847   1.4019

          k = 0.0000-0.1069 0.0000 ( 15660 PWs)   bands (ev):

   -63.4109 -63.3924 -63.3568 -63.3452 -63.3303 -63.3252 -63.3097 -63.3063
   -63.3042 -63.2712 -63.2710 -63.1483 -37.4471 -37.4390 -37.4311 -37.4029
   -37.3945 -37.3869 -37.3203 -37.3100 -37.3030 -37.2951 -37.2747 -37.2323
   -37.1734 -37.1528 -37.1364 -37.1357 -37.1242 -37.1178 -37.0896 -37.0829
   -37.0785 -37.0720 -37.0658 -37.0657 -37.0311 -36.9963 -36.9826 -36.9715
   -36.9658 -36.9589 -36.9303 -36.8937 -36.8716 -36.8593 -36.8363 -36.8299
    -3.6480  -3.5456  -2.6421  -2.2754  -1.8216  -1.5701  -1.5469  -1.4616
    -1.4339  -1.3224  -1.2491  -0.7652  -0.7176  -0.6470  -0.6387  -0.5502
    -0.5109  -0.1587  -0.1264  -0.0877  -0.0766  -0.0647   0.0272   0.2285
     0.3153   0.3752   0.3947   0.4545   0.4602   0.5369   0.6379   0.6812
     0.8137   0.9339   0.9421   1.0309   1.0472   1.0589   1.3543   1.5289

          k = 0.0309-0.0178 0.0000 ( 15635 PWs)   bands (ev):

   -63.4572 -63.3904 -63.3475 -63.3394 -63.3299 -63.3293 -63.3088 -63.3040
   -63.2763 -63.2711 -63.2710 -63.1453 -37.5358 -37.5279 -37.5129 -37.4986
   -37.4597 -37.4575 -37.4485 -37.3945 -37.3925 -37.3762 -37.2694 -37.2246
   -37.2152 -37.1546 -37.1393 -37.1377 -37.0772 -37.0745 -37.0502 -37.0447
   -37.0278 -37.0115 -36.9947 -36.9803 -36.9546 -36.9444 -36.9316 -36.9280
   -36.9230 -36.9019 -36.8978 -36.8544 -36.8326 -36.8251 -36.8179 -36.7991
    -5.0866  -3.6438  -2.5087  -2.2787  -2.1697  -2.1092  -2.1007  -1.9475
    -1.8492  -1.6339  -1.3944  -1.3522  -1.3368  -1.3036  -1.2858  -1.1832
    -0.5565  -0.5412  -0.5185   0.2812   0.4768   0.5062   0.5068   0.6165
     0.7393   0.7853   0.8034   0.8707   1.0833   1.0997   1.1256   1.1738
     1.1844   1.2129   1.2528   1.2734   1.4275   1.4577   1.4840   1.4913

          k = 0.0309 0.0178 0.0000 ( 15635 PWs)   bands (ev):

   -63.4572 -63.3904 -63.3475 -63.3393 -63.3298 -63.3295 -63.3089 -63.3039
   -63.2763 -63.2711 -63.2710 -63.1453 -37.5359 -37.5278 -37.5129 -37.4986
   -37.4597 -37.4575 -37.4485 -37.3945 -37.3925 -37.3762 -37.2694 -37.2246
   -37.2152 -37.1546 -37.1394 -37.1377 -37.0773 -37.0745 -37.0502 -37.0447
   -37.0278 -37.0115 -36.9948 -36.9803 -36.9546 -36.9444 -36.9316 -36.9281
   -36.9231 -36.9019 -36.8977 -36.8544 -36.8326 -36.8251 -36.8179 -36.7991
    -5.0866  -3.6438  -2.5087  -2.2787  -2.1697  -2.1092  -2.1007  -1.9475
    -1.8492  -1.6339  -1.3944  -1.3522  -1.3368  -1.3036  -1.2857  -1.1832
    -0.5565  -0.5412  -0.5186   0.2812   0.4768   0.5062   0.5069   0.6165
     0.7393   0.7853   0.8034   0.8707   1.0833   1.0997   1.1256   1.1738
     1.1844   1.2129   1.2528   1.2734   1.4275   1.4577   1.4840   1.4913

          k = 0.0309 0.0535 0.0000 ( 15620 PWs)   bands (ev):

   -63.4418 -63.3795 -63.3559 -63.3409 -63.3345 -63.3236 -63.3162 -63.3041
   -63.2814 -63.2791 -63.2670 -63.1468 -37.5024 -37.4853 -37.4708 -37.4495
   -37.4273 -37.4199 -37.4133 -37.3676 -37.3264 -37.3219 -37.2715 -37.2426
   -37.2350 -37.1775 -37.1375 -37.1288 -37.1091 -37.0955 -37.0514 -37.0440
   -37.0415 -37.0180 -37.0107 -37.0034 -36.9852 -36.9778 -36.9516 -36.9351
   -36.9317 -36.9243 -36.9112 -36.9062 -36.8816 -36.8355 -36.8278 -36.8186
    -4.6673  -3.2798  -2.3919  -2.2819  -2.1675  -1.9801  -1.8828  -1.8029
    -1.6806  -1.4197  -1.2075  -1.1744  -1.1087  -1.0579  -1.0063  -0.9473
    -0.4693  -0.4533  -0.4274   0.1035   0.3302   0.3744   0.3870   0.4090
     0.5652   0.5995   0.7399   0.7548   0.8596   0.9355   0.9455   0.9734
     1.0254   1.1287   1.1445   1.2532   1.2733   1.4066   1.4547   1.4902

          k = 0.0309-0.1248 0.0000 ( 15642 PWs)   bands (ev):

   -63.4160 -63.3801 -63.3615 -63.3494 -63.3331 -63.3220 -63.3147 -63.3039
   -63.2956 -63.2825 -63.2646 -63.1483 -37.4472 -37.4442 -37.4153 -37.3940
   -37.3866 -37.3811 -37.3558 -37.3201 -37.2900 -37.2738 -37.2648 -37.2336
   -37.2105 -37.1959 -37.1665 -37.1436 -37.1180 -37.1151 -37.1060 -37.0794
   -37.0727 -37.0488 -37.0415 -37.0255 -37.0055 -36.9970 -36.9885 -36.9689
   -36.9555 -36.9473 -36.9232 -36.9103 -36.8902 -36.8677 -36.8473 -36.8274
    -3.9121  -3.0365  -2.6905  -2.2615  -2.0900  -1.7780  -1.5726  -1.4158
    -1.3804  -1.1352  -1.0430  -0.8197  -0.7782  -0.7606  -0.6811  -0.5837
    -0.3446  -0.3025  -0.2510  -0.1478  -0.0536   0.0106   0.0637   0.1377
     0.1986   0.3079   0.4494   0.4804   0.5431   0.6206   0.6393   0.6752
     0.7719   0.7914   0.9838   1.0229   1.0676   1.2870   1.3314   1.5117

          k = 0.0309-0.0891 0.0000 ( 15642 PWs)   bands (ev):

   -63.4160 -63.3801 -63.3615 -63.3494 -63.3331 -63.3220 -63.3147 -63.3038
   -63.2956 -63.2825 -63.2646 -63.1483 -37.4472 -37.4442 -37.4153 -37.3940
   -37.3867 -37.3810 -37.3558 -37.3201 -37.2900 -37.2738 -37.2648 -37.2337
   -37.2105 -37.1959 -37.1665 -37.1436 -37.1180 -37.1150 -37.1060 -37.0793
   -37.0727 -37.0489 -37.0415 -37.0255 -37.0055 -36.9970 -36.9885 -36.9690
   -36.9555 -36.9473 -36.9232 -36.9103 -36.8902 -36.8677 -36.8473 -36.8274
    -3.9121  -3.0364  -2.6905  -2.2615  -2.0900  -1.7780  -1.5726  -1.4157
    -1.3805  -1.1352  -1.0430  -0.8197  -0.7782  -0.7606  -0.6811  -0.5837
    -0.3446  -0.3026  -0.2510  -0.1478  -0.0537   0.0107   0.0637   0.1377
     0.1986   0.3079   0.4494   0.4804   0.5431   0.6206   0.6393   0.6752
     0.7719   0.7914   0.9838   1.0229   1.0676   1.2870   1.3314   1.5117

          k = 0.0309-0.0535 0.0000 ( 15620 PWs)   bands (ev):

   -63.4418 -63.3795 -63.3559 -63.3409 -63.3346 -63.3236 -63.3162 -63.3041
   -63.2815 -63.2790 -63.2670 -63.1468 -37.5023 -37.4853 -37.4708 -37.4495
   -37.4273 -37.4198 -37.4134 -37.3676 -37.3264 -37.3219 -37.2715 -37.2426
   -37.2350 -37.1775 -37.1374 -37.1288 -37.1091 -37.0955 -37.0514 -37.0440
   -37.0415 -37.0179 -37.0107 -37.0034 -36.9852 -36.9779 -36.9515 -36.9351
   -36.9317 -36.9243 -36.9112 -36.9062 -36.8816 -36.8355 -36.8277 -36.8186
    -4.6673  -3.2798  -2.3918  -2.2819  -2.1675  -1.9801  -1.8828  -1.8029
    -1.6806  -1.4197  -1.2075  -1.1744  -1.1087  -1.0579  -1.0063  -0.9473
    -0.4693  -0.4533  -0.4274   0.1035   0.3302   0.3744   0.3870   0.4090
     0.5652   0.5995   0.7399   0.7548   0.8596   0.9355   0.9455   0.9734
     1.0254   1.1287   1.1445   1.2532   1.2733   1.4066   1.4547   1.4902

          k = 0.0617-0.0356 0.0000 ( 15669 PWs)   bands (ev):

   -63.4348 -63.3760 -63.3650 -63.3362 -63.3301 -63.3273 -63.3188 -63.3040
   -63.2897 -63.2713 -63.2710 -63.1473 -37.4833 -37.4759 -37.4643 -37.4221
   -37.4142 -37.4062 -37.4024 -37.3440 -37.3381 -37.2752 -37.2698 -37.2440
   -37.2397 -37.1842 -37.1304 -37.1260 -37.1026 -37.0949 -37.0800 -37.0673
   -37.0541 -37.0180 -37.0167 -37.0035 -36.9967 -36.9880 -36.9690 -36.9683
   -36.9412 -36.9307 -36.9137 -36.9061 -36.8836 -36.8418 -36.8300 -36.8186
    -4.4701  -3.1311  -2.7263  -2.2090  -1.9348  -1.8167  -1.8117  -1.7526
    -1.5761  -1.4678  -1.2130  -1.0437  -1.0235  -0.9628  -0.8574  -0.8177
    -0.4325  -0.4237  -0.3450  -0.0353   0.2120   0.2719   0.2927   0.3612
     0.5203   0.6685   0.6807   0.7471   0.7829   0.7922   0.8031   0.8795
     0.9734   1.0448   1.0488   1.2095   1.2933   1.3712   1.3847   1.4019

          k = 0.0617 0.0000 0.0000 ( 15620 PWs)   bands (ev):

   -63.4418 -63.3795 -63.3558 -63.3411 -63.3344 -63.3238 -63.3163 -63.3040
   -63.2814 -63.2791 -63.2670 -63.1468 -37.5024 -37.4853 -37.4707 -37.4495
   -37.4273 -37.4199 -37.4133 -37.3676 -37.3264 -37.3219 -37.2715 -37.2426
   -37.2350 -37.1776 -37.1375 -37.1287 -37.1091 -37.0955 -37.0514 -37.0441
   -37.0414 -37.0180 -37.0107 -37.0034 -36.9852 -36.9777 -36.9515 -36.9352
   -36.9318 -36.9244 -36.9111 -36.9062 -36.8816 -36.8355 -36.8278 -36.8185
    -4.6673  -3.2798  -2.3919  -2.2819  -2.1675  -1.9801  -1.8827  -1.8029
    -1.6806  -1.4198  -1.2075  -1.1745  -1.1087  -1.0579  -1.0063  -0.9473
    -0.4693  -0.4533  -0.4274   0.1035   0.3302   0.3745   0.3870   0.4090
     0.5652   0.5995   0.7399   0.7548   0.8596   0.9355   0.9455   0.9735
     1.0254   1.1286   1.1445   1.2532   1.2733   1.4066   1.4547   1.4902

          k = 0.0617 0.0356 0.0000 ( 15669 PWs)   bands (ev):

   -63.4348 -63.3759 -63.3649 -63.3362 -63.3300 -63.3273 -63.3189 -63.3039
   -63.2897 -63.2712 -63.2711 -63.1473 -37.4834 -37.4759 -37.4643 -37.4221
   -37.4141 -37.4062 -37.4024 -37.3440 -37.3380 -37.2752 -37.2698 -37.2440
   -37.2397 -37.1843 -37.1304 -37.1260 -37.1026 -37.0950 -37.0800 -37.0673
   -37.0541 -37.0180 -37.0167 -37.0035 -36.9968 -36.9880 -36.9691 -36.9683
   -36.9412 -36.9307 -36.9137 -36.9061 -36.8836 -36.8418 -36.8300 -36.8186
    -4.4701  -3.1311  -2.7263  -2.2090  -1.9348  -1.8167  -1.8117  -1.7526
    -1.5762  -1.4678  -1.2130  -1.0438  -1.0234  -0.9628  -0.8574  -0.8177
    -0.4326  -0.4236  -0.3450  -0.0353   0.2120   0.2719   0.2927   0.3612
     0.5203   0.6685   0.6806   0.7471   0.7828   0.7922   0.8030   0.8796
     0.9733   1.0448   1.0488   1.2095   1.2933   1.3712   1.3847   1.4019

          k = 0.0617-0.1426 0.0000 ( 15642 PWs)   bands (ev):

   -63.4160 -63.3799 -63.3615 -63.3495 -63.3331 -63.3221 -63.3149 -63.3036
   -63.2957 -63.2824 -63.2646 -63.1483 -37.4472 -37.4443 -37.4152 -37.3940
   -37.3867 -37.3808 -37.3558 -37.3202 -37.2900 -37.2738 -37.2648 -37.2338
   -37.2105 -37.1959 -37.1665 -37.1436 -37.1181 -37.1151 -37.1059 -37.0792
   -37.0728 -37.0489 -37.0413 -37.0258 -37.0056 -36.9969 -36.9884 -36.9689
   -36.9555 -36.9472 -36.9232 -36.9103 -36.8902 -36.8677 -36.8472 -36.8274
    -3.9121  -3.0365  -2.6905  -2.2615  -2.0900  -1.7780  -1.5727  -1.4158
    -1.3804  -1.1352  -1.0430  -0.8198  -0.7782  -0.7605  -0.6811  -0.5837
    -0.3446  -0.3026  -0.2510  -0.1478  -0.0536   0.0107   0.0637   0.1376
     0.1986   0.3079   0.4494   0.4804   0.5431   0.6206   0.6393   0.6752
     0.7719   0.7914   0.9838   1.0229   1.0675   1.2870   1.3314   1.5116

          k = 0.0617-0.1069 0.0000 ( 15672 PWs)   bands (ev):

   -63.3989 -63.3852 -63.3687 -63.3469 -63.3402 -63.3224 -63.3076 -63.2989
   -63.2964 -63.2958 -63.2622 -63.1488 -37.4188 -37.4089 -37.3946 -37.3751
   -37.3737 -37.3474 -37.3396 -37.3366 -37.2995 -37.2370 -37.2282 -37.2247
   -37.2042 -37.1898 -37.1853 -37.1651 -37.1544 -37.1541 -37.1189 -37.1089
   -37.1070 -37.0754 -37.0230 -37.0130 -36.9990 -36.9885 -36.9852 -36.9694
   -36.9666 -36.9282 -36.9165 -36.9162 -36.9130 -36.8892 -36.8849 -36.8261
    -3.2250  -3.0429  -3.0399  -2.3922  -1.8886  -1.8865  -1.5291  -1.0569
    -1.0306  -0.9032  -0.8476  -0.8473  -0.8300  -0.4471  -0.4417  -0.4365
    -0.4309  -0.3439  -0.2975  -0.2947  -0.2737  -0.1969  -0.1886   0.0663
     0.2038   0.2142   0.2282   0.2982   0.3005   0.3016   0.5788   0.5927
     0.6333   0.6374   0.7044   1.2165   1.2298   1.3144   1.4442   1.4459

          k = 0.0617-0.0713 0.0000 ( 15642 PWs)   bands (ev):

   -63.4160 -63.3800 -63.3616 -63.3494 -63.3330 -63.3221 -63.3149 -63.3036
   -63.2958 -63.2824 -63.2646 -63.1483 -37.4472 -37.4443 -37.4152 -37.3940
   -37.3868 -37.3808 -37.3558 -37.3202 -37.2900 -37.2737 -37.2648 -37.2338
[...]
    -1.4435  -1.2754  -1.1749  -0.9976  -0.9442  -0.8979  -0.8146  -0.7254
    -0.5114  -0.4594  -0.3873  -0.3281  -0.1958  -0.1628  -0.0868  -0.0219
     0.0765   0.1225   0.2508   0.2985   0.3568   0.4478   0.4907   0.5450
     0.5970   0.6337   0.7847   0.8857   0.9340   1.1217   1.2114   1.3608

          k = 0.0309-0.0535 0.0000 ( 15620 PWs)   bands (ev):

   -63.5999 -63.5256 -63.5112 -63.4999 -63.4879 -63.4773 -63.4590 -63.4511
   -63.4404 -63.4384 -63.4275 -63.3861 -37.6655 -37.6428 -37.6325 -37.6104
   -37.5792 -37.5742 -37.5664 -37.5250 -37.4834 -37.4789 -37.4103 -37.3849
   -37.3777 -37.3279 -37.2852 -37.2696 -37.2576 -37.2492 -37.2110 -37.2034
   -37.1961 -37.1678 -37.1652 -37.1507 -37.1435 -37.1386 -37.1272 -37.1048
   -37.1022 -37.0853 -37.0812 -37.0783 -37.0725 -37.0433 -37.0034 -36.9855
    -4.7884  -3.3480  -2.4570  -2.4286  -2.2629  -2.0991  -2.0032  -1.9308
    -1.6928  -1.5353  -1.3574  -1.3335  -1.2560  -1.1857  -1.1456  -1.0928
    -0.6489  -0.5687  -0.5560  -0.0347   0.1322   0.1971   0.2331   0.2409
     0.3897   0.4132   0.5796   0.5950   0.7264   0.7400   0.7845   0.8297
     0.8783   0.9706   0.9894   1.0845   1.1862   1.2470   1.2741   1.3284

          k = 0.0617-0.0356 0.0000 ( 15669 PWs)   bands (ev):

   -63.5926 -63.5270 -63.5167 -63.4899 -63.4849 -63.4821 -63.4661 -63.4479
   -63.4476 -63.4316 -63.4313 -63.3868 -37.6444 -37.6399 -37.6175 -37.5881
   -37.5654 -37.5621 -37.5527 -37.5042 -37.4920 -37.4295 -37.4140 -37.3917
   -37.3840 -37.3315 -37.2689 -37.2677 -37.2572 -37.2486 -37.2336 -37.2284
   -37.2037 -37.1749 -37.1743 -37.1635 -37.1544 -37.1505 -37.1267 -37.1191
   -37.1173 -37.1028 -37.0932 -37.0791 -37.0628 -37.0456 -37.0119 -36.9869
    -4.5903  -3.1827  -2.8586  -2.2460  -2.0677  -1.9673  -1.9283  -1.7917
    -1.7092  -1.5420  -1.3432  -1.2124  -1.1781  -1.1010  -1.0126  -0.9485
    -0.6119  -0.5285  -0.5003  -0.1789   0.0196   0.1052   0.1366   0.1954
     0.3523   0.4817   0.4915   0.5596   0.6219   0.6440   0.6743   0.7168
     0.8260   0.8718   0.9414   1.0342   1.1218   1.1654   1.2431   1.2821

          k = 0.0617 0.0000 0.0000 ( 15620 PWs)   bands (ev):

   -63.5999 -63.5256 -63.5112 -63.5000 -63.4879 -63.4773 -63.4591 -63.4510
   -63.4403 -63.4385 -63.4275 -63.3861 -37.6655 -37.6429 -37.6324 -37.6104
   -37.5792 -37.5742 -37.5664 -37.5250 -37.4834 -37.4789 -37.4103 -37.3849
   -37.3777 -37.3279 -37.2853 -37.2696 -37.2576 -37.2492 -37.2110 -37.2034
   -37.1961 -37.1678 -37.1652 -37.1507 -37.1435 -37.1385 -37.1272 -37.1048
   -37.1022 -37.0853 -37.0812 -37.0783 -37.0725 -37.0433 -37.0034 -36.9855
    -4.7884  -3.3480  -2.4570  -2.4286  -2.2629  -2.0991  -2.0032  -1.9308
    -1.6928  -1.5353  -1.3573  -1.3335  -1.2560  -1.1857  -1.1456  -1.0928
    -0.6489  -0.5687  -0.5560  -0.0347   0.1322   0.1971   0.2331   0.2410
     0.3897   0.4133   0.5795   0.5950   0.7264   0.7400   0.7844   0.8297
     0.8782   0.9706   0.9894   1.0845   1.1862   1.2470   1.2741   1.3284

          k = 0.0617 0.0356 0.0000 ( 15669 PWs)   bands (ev):

   -63.5926 -63.5270 -63.5167 -63.4899 -63.4848 -63.4821 -63.4661 -63.4479
   -63.4476 -63.4317 -63.4312 -63.3868 -37.6444 -37.6399 -37.6175 -37.5881
   -37.5654 -37.5621 -37.5527 -37.5042 -37.4920 -37.4295 -37.4139 -37.3917
   -37.3840 -37.3315 -37.2689 -37.2677 -37.2572 -37.2487 -37.2336 -37.2284
   -37.2037 -37.1750 -37.1743 -37.1635 -37.1544 -37.1505 -37.1267 -37.1190
   -37.1173 -37.1028 -37.0931 -37.0791 -37.0628 -37.0456 -37.0119 -36.9869
    -4.5903  -3.1827  -2.8586  -2.2460  -2.0677  -1.9673  -1.9283  -1.7917
    -1.7093  -1.5420  -1.3432  -1.2125  -1.1781  -1.1010  -1.0126  -0.9485
    -0.6119  -0.5285  -0.5003  -0.1789   0.0196   0.1052   0.1366   0.1954
     0.3523   0.4817   0.4915   0.5597   0.6218   0.6440   0.6743   0.7168
     0.8260   0.8718   0.9414   1.0342   1.1218   1.1654   1.2430   1.2821

          k = 0.0617-0.1426 0.0000 ( 15642 PWs)   bands (ev):

   -63.5728 -63.5379 -63.5127 -63.5000 -63.4779 -63.4727 -63.4692 -63.4569
   -63.4508 -63.4410 -63.4252 -63.3878 -37.6106 -37.5961 -37.5743 -37.5555
   -37.5422 -37.5342 -37.5113 -37.4760 -37.4422 -37.4270 -37.4191 -37.3860
   -37.3646 -37.3426 -37.3204 -37.2916 -37.2609 -37.2561 -37.2530 -37.2327
   -37.2268 -37.2082 -37.2033 -37.1788 -37.1678 -37.1585 -37.1429 -37.1333
   -37.1176 -37.1130 -37.0911 -37.0859 -37.0747 -37.0499 -37.0372 -37.0161
    -4.0275  -3.1298  -2.7317  -2.3859  -2.1829  -1.8477  -1.6760  -1.5554
    -1.4435  -1.2754  -1.1748  -0.9977  -0.9442  -0.8979  -0.8146  -0.7254
    -0.5114  -0.4595  -0.3873  -0.3281  -0.1958  -0.1628  -0.0868  -0.0219
     0.0765   0.1224   0.2508   0.2984   0.3568   0.4478   0.4907   0.5450
     0.5970   0.6337   0.7847   0.8856   0.9340   1.1217   1.2115   1.3608

          k = 0.0617-0.1069 0.0000 ( 15672 PWs)   bands (ev):

   -63.5513 -63.5449 -63.5308 -63.4876 -63.4819 -63.4686 -63.4673 -63.4561
   -63.4548 -63.4510 -63.4228 -63.3881 -37.5711 -37.5620 -37.5561 -37.5335
   -37.5325 -37.5065 -37.5004 -37.4935 -37.4421 -37.3946 -37.3934 -37.3742
   -37.3489 -37.3415 -37.3377 -37.3225 -37.3178 -37.3099 -37.2500 -37.2490
   -37.2477 -37.2364 -37.1752 -37.1672 -37.1635 -37.1476 -37.1415 -37.1244
   -37.1193 -37.1168 -37.0896 -37.0869 -37.0816 -37.0603 -37.0595 -37.0540
    -3.2639  -3.1887  -3.1830  -2.3472  -2.0488  -2.0241  -1.5116  -1.2330
    -1.1911  -1.0491  -1.0030  -0.9671  -0.9202  -0.6368  -0.6138  -0.6083
    -0.5925  -0.4859  -0.4515  -0.4251  -0.3950  -0.3283  -0.2592  -0.1918
     0.0143   0.0177   0.0765   0.1116   0.1138   0.2103   0.3456   0.4368
     0.4386   0.4925   0.5910   1.0368   1.0728   1.1414   1.3273   1.3282

          k = 0.0617-0.0713 0.0000 ( 15642 PWs)   bands (ev):

   -63.5728 -63.5379 -63.5127 -63.5000 -63.4778 -63.4727 -63.4692 -63.4570
   -63.4508 -63.4410 -63.4252 -63.3878 -37.6106 -37.5961 -37.5743 -37.5554
   -37.5422 -37.5342 -37.5113 -37.4760 -37.4422 -37.4269 -37.4191 -37.3860
   -37.3646 -37.3426 -37.3204 -37.2916 -37.2609 -37.2561 -37.2530 -37.2327
   -37.2268 -37.2082 -37.2033 -37.1788 -37.1678 -37.1585 -37.1429 -37.1333
   -37.1176 -37.1130 -37.0911 -37.0859 -37.0747 -37.0499 -37.0372 -37.0161
    -4.0275  -3.1298  -2.7317  -2.3859  -2.1829  -1.8477  -1.6760  -1.5554
    -1.4435  -1.2754  -1.1748  -0.9976  -0.9442  -0.8979  -0.8146  -0.7254
    -0.5114  -0.4594  -0.3873  -0.3281  -0.1958  -0.1628  -0.0868  -0.0219
     0.0765   0.1225   0.2508   0.2985   0.3568   0.4478   0.4908   0.5450
     0.5970   0.6337   0.7847   0.8856   0.9340   1.1217   1.2114   1.3608

          k =-0.0926 0.0535 0.0000 ( 15660 PWs)   bands (ev):

   -63.5661 -63.5530 -63.5007 -63.4917 -63.4850 -63.4809 -63.4656 -63.4632
   -63.4476 -63.4316 -63.4315 -63.3881 -37.6076 -37.5996 -37.5865 -37.5615
   -37.5519 -37.5368 -37.4744 -37.4696 -37.4519 -37.4513 -37.4302 -37.3804
   -37.3266 -37.2968 -37.2909 -37.2728 -37.2713 -37.2579 -37.2432 -37.2415
   -37.2390 -37.2317 -37.2217 -37.2148 -37.2045 -37.1634 -37.1461 -37.1246
   -37.1191 -37.1173 -37.0975 -37.0943 -37.0521 -37.0412 -37.0176 -37.0142
    -3.7309  -3.6929  -2.6215  -2.4318  -1.8161  -1.6989  -1.6805  -1.5940
    -1.5806  -1.4414  -1.3246  -0.9391  -0.9010  -0.8250  -0.7322  -0.7094
    -0.6571  -0.3491  -0.3178  -0.2354  -0.2353  -0.2131  -0.0691   0.0097
     0.1545   0.1798   0.2425   0.3036   0.3825   0.4192   0.4260   0.5514
     0.6013   0.6167   0.8329   0.8330   0.8724   1.1083   1.1434   1.3557

          k =-0.0926 0.0891 0.0000 ( 15642 PWs)   bands (ev):

   -63.5728 -63.5379 -63.5127 -63.5000 -63.4778 -63.4727 -63.4692 -63.4570
   -63.4508 -63.4410 -63.4252 -63.3878 -37.6106 -37.5961 -37.5743 -37.5555
   -37.5422 -37.5342 -37.5114 -37.4760 -37.4422 -37.4269 -37.4192 -37.3860
   -37.3646 -37.3426 -37.3204 -37.2916 -37.2609 -37.2561 -37.2530 -37.2327
   -37.2268 -37.2082 -37.2033 -37.1787 -37.1678 -37.1585 -37.1429 -37.1334
   -37.1176 -37.1130 -37.0911 -37.0859 -37.0747 -37.0499 -37.0372 -37.0161
    -4.0275  -3.1298  -2.7317  -2.3859  -2.1829  -1.8477  -1.6760  -1.5554
    -1.4435  -1.2753  -1.1748  -0.9976  -0.9442  -0.8979  -0.8146  -0.7254
    -0.5114  -0.4594  -0.3873  -0.3281  -0.1958  -0.1628  -0.0868  -0.0219
     0.0765   0.1224   0.2508   0.2985   0.3569   0.4478   0.4907   0.5450
     0.5970   0.6337   0.7847   0.8856   0.9340   1.1217   1.2114   1.3608

          k =-0.0926 0.1248 0.0000 ( 15642 PWs)   bands (ev):

   -63.5728 -63.5379 -63.5127 -63.5000 -63.4779 -63.4727 -63.4692 -63.4569
   -63.4508 -63.4410 -63.4252 -63.3878 -37.6106 -37.5961 -37.5743 -37.5555
   -37.5422 -37.5342 -37.5113 -37.4760 -37.4422 -37.4270 -37.4191 -37.3860
   -37.3646 -37.3426 -37.3204 -37.2916 -37.2609 -37.2561 -37.2530 -37.2327
   -37.2268 -37.2082 -37.2033 -37.1788 -37.1678 -37.1585 -37.1429 -37.1333
   -37.1176 -37.1130 -37.0911 -37.0859 -37.0747 -37.0499 -37.0372 -37.0161
    -4.0275  -3.1298  -2.7317  -2.3859  -2.1829  -1.8477  -1.6760  -1.5554
    -1.4435  -1.2753  -1.1748  -0.9976  -0.9442  -0.8979  -0.8146  -0.7254
    -0.5114  -0.4594  -0.3873  -0.3281  -0.1958  -0.1628  -0.0868  -0.0219
     0.0765   0.1224   0.2508   0.2985   0.3568   0.4478   0.4907   0.5450
     0.5970   0.6338   0.7847   0.8856   0.9340   1.1217   1.2115   1.3608

          k =-0.0926-0.0535 0.0000 ( 15660 PWs)   bands (ev):

   -63.5661 -63.5529 -63.5007 -63.4918 -63.4849 -63.4810 -63.4656 -63.4632
   -63.4476 -63.4317 -63.4314 -63.3881 -37.6076 -37.5995 -37.5865 -37.5615
   -37.5519 -37.5368 -37.4743 -37.4696 -37.4519 -37.4512 -37.4301 -37.3804
   -37.3266 -37.2968 -37.2910 -37.2729 -37.2713 -37.2579 -37.2432 -37.2415
   -37.2390 -37.2317 -37.2218 -37.2149 -37.2044 -37.1634 -37.1462 -37.1246
   -37.1191 -37.1172 -37.0975 -37.0943 -37.0520 -37.0413 -37.0176 -37.0141
    -3.7309  -3.6929  -2.6215  -2.4318  -1.8162  -1.6988  -1.6806  -1.5940
    -1.5806  -1.4414  -1.3246  -0.9392  -0.9009  -0.8251  -0.7322  -0.7094
    -0.6570  -0.3492  -0.3177  -0.2354  -0.2353  -0.2131  -0.0692   0.0096
     0.1544   0.1798   0.2425   0.3035   0.3825   0.4193   0.4260   0.5514
     0.6012   0.6166   0.8329   0.8329   0.8723   1.1084   1.1433   1.3556

     the Fermi energy is     0.6710 ev

!    total energy              =   -1750.00818420 Ry
     Harris-Foulkes estimate   =   -1750.00818517 Ry
     estimated scf accuracy    <       0.00000008 Ry

     The total energy is the sum of the following terms:

     one-electron contribution =  -14862.07166238 Ry
     hartree contribution      =    7416.75551719 Ry
     xc contribution           =    -244.89809372 Ry
     ewald contribution        =    5940.35118305 Ry
     electric field correction =       0.00014699 Ry
     smearing contrib. (-TS)   =      -0.14527534 Ry

     convergence has been achieved in  16 iterations
 
 BEEF-vdW xc energy contributions
           1 :   -211.032090725798     
           2 :    189.329431562599     
           3 :   -153.509436633538     
           4 :    114.887036411674     
           5 :   -83.3095153470174     
           6 :    63.4162910391328     
           7 :   -54.0094937026834     
           8 :    50.2794616803714     
           9 :   -47.1975671299576     
          10 :    42.0831140172553     
          11 :   -35.2165038792476     
          12 :    28.6494531820189     
          13 :   -24.3160786153225     
          14 :    22.6883786017826     
          15 :   -22.6661321209558     
          16 :    22.5229467801684     
          17 :   -21.1200842956658     
          18 :    18.5501657889961     
          19 :   -15.8659033639881     
          20 :    14.1946549392267     
          21 :   -13.9210252436467     
          22 :    14.4854259313965     
          23 :   -14.8632434351960     
          24 :    14.3119452504112     
          25 :   -12.8445301157831     
          26 :    11.1379741286089     
          27 :   -10.0028116680389     
          28 :    9.81573475571145     
          29 :   -10.3001138965407     
          30 :    10.7677012692072     
          31 :   -21.8413840850745     
          32 :   -15.7338491045968     

     Forces acting on atoms (Ry/au):


     negative rho (up, down):  1.534E-02 0.000E+00
     atom    1 type  1   force =    -0.00034902   -0.00020516   -0.00081413
     atom    2 type  1   force =     0.00034912   -0.00020003   -0.00082243
     atom    3 type  1   force =     0.00000304    0.00040574   -0.00081544
     atom    4 type  1   force =    -0.00000376    0.00000198   -0.00105593
     atom    5 type  1   force =    -0.00000449   -0.01045756    0.00249107
     atom    6 type  1   force =     0.00000546    0.00000711   -0.00444633
     atom    7 type  1   force =     0.00905679    0.00523237    0.00248254
     atom    8 type  1   force =    -0.00905613    0.00522802    0.00249919
     atom    9 type  1   force =     0.00000407   -0.00000673   -0.00036476
     atom   10 type  1   force =    -0.00000721    0.00088112    0.00001710
     atom   11 type  1   force =     0.00077405   -0.00045026    0.00002479
     atom   12 type  1   force =    -0.00077348   -0.00044240    0.00002191
     atom   13 type  2   force =     0.00000156    0.00000581    0.00078241

     Total force =     0.001766     Total SCF correction =     0.000292
     SCF correction compared to forces is large: reduce conv_thr to get better values


     entering subroutine stress ...


     negative rho (up, down):  1.534E-02 0.000E+00
          total   stress  (Ry/bohr**3)                   (kbar)     P=  -19.52
  -0.00019828   0.00000000   0.00000000        -29.17      0.00      0.00
   0.00000000  -0.00019829  -0.00000001          0.00    -29.17     -0.00
   0.00000000  -0.00000001  -0.00000157          0.00     -0.00     -0.23


     bfgs converged in  16 scf cycles and  15 bfgs steps
     (criteria: energy <  1.0E+00, force <  1.9E-03)

     End of BFGS Geometry Optimization

     Final energy   =   -1750.0081841994 Ry
Begin final coordinates

ATOMIC_POSITIONS (crystal)
V1       0.166666667   0.166666667   0.409694847    0   0   0
V1       0.666666667   0.166666667   0.409694847    0   0   0
V1       0.166666667   0.666666667   0.409694847    0   0   0
V1       0.666666667   0.666666667   0.409694847    0   0   0
V1       0.833333333   0.333333333   0.500000000    0   0   0
V1       0.333333333   0.333333333   0.500000000    0   0   0
V1       0.833333333   0.833333333   0.500000000    0   0   0
V1       0.333333333   0.833333333   0.500000000    0   0   0
V1       0.000000799  -0.000016910   0.598759458
V1       0.502591433  -0.005172432   0.588646081
V1      -0.005165246   0.502566150   0.588645309
V1       0.502598979   0.502565017   0.588649283
H1      -0.000005141   0.000026519   0.668001114
End final coordinates



     Writing output data file calc.save
 
     init_run     :      7.72s CPU      7.98s WALL (       1 calls)
     electrons    :   5777.51s CPU   6192.37s WALL (      16 calls)
     update_pot   :     30.81s CPU     32.43s WALL (      15 calls)
     forces       :    189.05s CPU    202.50s WALL (      16 calls)
     stress       :    594.19s CPU    633.11s WALL (      16 calls)

     Called by init_run:
     wfcinit      :      2.82s CPU      2.87s WALL (       1 calls)
     potinit      :      1.46s CPU      1.55s WALL (       1 calls)

     Called by electrons:
     c_bands      :   2487.15s CPU   2644.50s WALL (     312 calls)
     sum_band     :   1141.93s CPU   1215.33s WALL (     312 calls)
     v_of_rho     :    407.78s CPU    440.39s WALL (     328 calls)
     newd         :    982.84s CPU    999.09s WALL (     328 calls)
     mix_rho      :     16.16s CPU     16.57s WALL (     312 calls)
     vdW_energy   :    171.93s CPU    188.44s WALL (     904 calls)
     vdW_ffts     :    361.75s CPU    382.59s WALL (    1840 calls)
     vdW_v        :    150.11s CPU    155.44s WALL (     904 calls)

     Called by c_bands:
     init_us_2    :     15.05s CPU     15.17s WALL (    3285 calls)
     cegterg      :   2157.93s CPU   2199.61s WALL (    1560 calls)

     Called by *egterg:
     h_psi        :   1320.39s CPU   1352.44s WALL (    8397 calls)
     s_psi        :    132.14s CPU    132.46s WALL (    8397 calls)
     g_psi        :      8.62s CPU      8.65s WALL (    6832 calls)
     cdiaghg      :    276.47s CPU    278.35s WALL (    8317 calls)

     Called by h_psi:
     add_vuspsi   :    136.97s CPU    137.19s WALL (    8397 calls)

     General routines
     calbec       :    206.51s CPU    209.49s WALL (   10117 calls)
     fft          :    559.22s CPU    604.55s WALL (   55311 calls)
     ffts         :      0.92s CPU      0.99s WALL (     640 calls)
     fftw         :    779.20s CPU    812.66s WALL (  831952 calls)
     interpolate  :      8.67s CPU      8.97s WALL (     640 calls)
     davcio       :      0.00s CPU      0.02s WALL (       5 calls)
 
     Parallel routines
     fft_scatter  :    779.12s CPU    852.48s WALL (  887903 calls)
 
     PWSCF        :     1h50m CPU        1h58m WALL

 
   This run was terminated on:  19:30:47   2May2018            

=------------------------------------------------------------------------------=
   JOB DONE.
=------------------------------------------------------------------------------=
Job  /afs/slac/g/suncat/bin/suncat-tsmpirun -x LD_LIBRARY_PATH -wdir /scratch/qe813698_seCOU pw.x -npool 4 -in pw.inp

TID   HOST_NAME   COMMAND_LINE            STATUS            TERMINATION_TIME
===== ========== ================  =======================  ===================
00000 suncat0169 pw.x -npool 4 -i  Done                     05/02/2018 19:30:47
00001 suncat0169 pw.x -npool 4 -i  Done                     05/02/2018 19:30:47
00002 suncat0169 pw.x -npool 4 -i  Done                     05/02/2018 19:30:47
00003 suncat0169 pw.x -npool 4 -i  Done                     05/02/2018 19:30:47
00004 suncat0169 pw.x -npool 4 -i  Done                     05/02/2018 19:30:47
00005 suncat0169 pw.x -npool 4 -i  Done                     05/02/2018 19:30:47
00006 suncat0169 pw.x -npool 4 -i  Done                     05/02/2018 19:30:47
00007 suncat0169 pw.x -npool 4 -i  Done                     05/02/2018 19:30:47
00008 suncat0167 pw.x -npool 4 -i  Done                     05/02/2018 19:30:47
00009 suncat0167 pw.x -npool 4 -i  Done                     05/02/2018 19:30:47
00010 suncat0167 pw.x -npool 4 -i  Done                     05/02/2018 19:30:47
00011 suncat0167 pw.x -npool 4 -i  Done                     05/02/2018 19:30:47
00012 suncat0167 pw.x -npool 4 -i  Done                     05/02/2018 19:30:47
00013 suncat0167 pw.x -npool 4 -i  Done                     05/02/2018 19:30:47
00014 suncat0167 pw.x -npool 4 -i  Done                     05/02/2018 19:30:47
00015 suncat0167 pw.x -npool 4 -i  Done                     05/02/2018 19:30:47
00016 suncat0123 pw.x -npool 4 -i  Done                     05/02/2018 19:30:47
00017 suncat0123 pw.x -npool 4 -i  Done                     05/02/2018 19:30:47
00018 suncat0123 pw.x -npool 4 -i  Done                     05/02/2018 19:30:47
00019 suncat0123 pw.x -npool 4 -i  Done                     05/02/2018 19:30:47
00020 suncat0123 pw.x -npool 4 -i  Done                     05/02/2018 19:30:47
00021 suncat0123 pw.x -npool 4 -i  Done                     05/02/2018 19:30:47
00022 suncat0123 pw.x -npool 4 -i  Done                     05/02/2018 19:30:47
00023 suncat0123 pw.x -npool 4 -i  Done                     05/02/2018 19:30:47
00024 suncat0121 pw.x -npool 4 -i  Done                     05/02/2018 19:30:47
00025 suncat0121 pw.x -npool 4 -i  Done                     05/02/2018 19:30:47
00026 suncat0121 pw.x -npool 4 -i  Done                     05/02/2018 19:30:47
00027 suncat0121 pw.x -npool 4 -i  Done                     05/02/2018 19:30:47
00028 suncat0121 pw.x -npool 4 -i  Done                     05/02/2018 19:30:47
00029 suncat0121 pw.x -npool 4 -i  Done                     05/02/2018 19:30:47
00030 suncat0121 pw.x -npool 4 -i  Done                     05/02/2018 19:30:47
00031 suncat0121 pw.x -npool 4 -i  Done                     05/02/2018 19:30:47
