  python dir          : /u/if/mamunm/src/espresso
  espresso dir        : /nfs/slac/g/suncatfs/sw/espv18/espresso-dynpy-beef/bin
  pseudo dir          : /u/if/mamunm/psp/gbrv1.5pbe
  ase-espresso py git : GITVERSION



     Program PWSCF v.5.1rc2 (svn rev. 11289) starts on 24Apr2018 at 18:48:40 

     This program is part of the open-source Quantum ESPRESSO suite
     for quantum simulation of materials; please cite
         "P. Giannozzi et al., J. Phys.:Condens. Matter 21 395502 (2009);
          URL http://www.quantum-espresso.org", 
     in publications or presentations arising from this work. More details at
     http://www.quantum-espresso.org/quote

     Parallel version (MPI), running on    32 processors
     K-points division:     npool     =       4
     R & G space division:  proc/nbgrp/npool/nimage =       8
     Reading input from pw.inp
     Message from routine read_cards :
     DEPRECATED: no units specified in CELL_PARAMETERS card

     Current dimensions of program PWSCF are:
     Max number of different atomic species (ntypx) = 10
     Max number of k-points (npk) =  40000
     Max angular momentum in pseudopotentials (lmaxx) =  3
     Presently stress not available with electric field


     **************************************************************************
     Initializing libbeef V0.1.1 with the BEEF-vdW functional.
     Citation: Wellendorff et al., PRB 85, 235149 (2012).
     **************************************************************************


     IMPORTANT: XC functional enforced from input :
     Exchange-correlation      = BEEF-VDW ( 1  4 27 13 2)
     Any further DFT definition will be discarded
     Please, verify this is what you really want


     Subspace diagonalization in iterative solution of the eigenvalue problem:
     a serial algorithm will be used

 
     Parallelization info
     --------------------
     sticks:   dense  smooth     PW     G-vecs:    dense   smooth      PW
     Min         579     230     64               114907    29014    4366
     Max         580     231     66               114920    29056    4372
     Sum        4639    1843    517               919335   232275   34949
 


     bravais-lattice index     =            0
     lattice parameter (alat)  =       1.8897  a.u.
     unit-cell volume          =    7725.1200 (a.u.)^3
     number of atoms/cell      =           14
     number of atomic types    =            3
     number of electrons       =       137.00
     number of Kohn-Sham states=           78
     kinetic-energy cutoff     =      36.7493  Ry
     charge density cutoff     =     367.4932  Ry
     convergence threshold     =      1.0E-05
     mixing beta               =       0.3000
     number of iterations used =           10  plain     mixing
     Exchange-correlation      = BEEF-VDW ( 1  4 27 13 2)
     nstep                     =           50


     celldm(1)=   1.889726  celldm(2)=   0.000000  celldm(3)=   0.000000
     celldm(4)=   0.000000  celldm(5)=   0.000000  celldm(6)=   0.000000

     crystal axes: (cart. coord. in units of alat)
               a(1) = (   7.152277   0.000000   0.000000 )  
               a(2) = (   3.576139   6.194054   0.000000 )  
               a(3) = (   0.000000   0.000000  25.839810 )  

     reciprocal axes: (cart. coord. in units 2 pi/alat)
               b(1) = (  0.139816 -0.080723  0.000000 )  
               b(2) = (  0.000000  0.161445  0.000000 )  
               b(3) = (  0.000000  0.000000  0.038700 )  


     PseudoPot. # 1 for Y  read from file:
     /u/if/mamunm/psp/gbrv1.5pbe/Y.UPF
     MD5 check sum: d034151ed7554c50b6e82763ed42c788
     Pseudo is Ultrasoft + core correction, Zval = 11.0
     Generated by new atomic code, or converted to UPF format
     Using radial grid of  885 points,  6 beta functions with: 
                l(1) =   0
                l(2) =   0
                l(3) =   1
                l(4) =   1
                l(5) =   2
                l(6) =   2
     Q(r) pseudized with  8 coefficients,  rinner =    1.200   1.200   1.200
                                                       1.200   1.200

     PseudoPot. # 2 for C  read from file:
     /u/if/mamunm/psp/gbrv1.5pbe/C.UPF
     MD5 check sum: d1aef80898a10debaa0f26306b886e00
     Pseudo is Ultrasoft + core correction, Zval =  4.0
     Generated by new atomic code, or converted to UPF format
     Using radial grid of  721 points,  4 beta functions with: 
                l(1) =   0
                l(2) =   0
                l(3) =   1
                l(4) =   1
     Q(r) pseudized with  8 coefficients,  rinner =    1.100   1.100   1.100


     PseudoPot. # 3 for H  read from file:
     /u/if/mamunm/psp/gbrv1.5pbe/H.UPF
     MD5 check sum: 761ae9a214b05c3daf00ab9f6b793d6f
     Pseudo is Ultrasoft, Zval =  1.0
     Generated by new atomic code, or converted to UPF format
     Using radial grid of  615 points,  2 beta functions with: 
                l(1) =   0
                l(2) =   0
     Q(r) pseudized with  8 coefficients,  rinner =    0.700

     vdW kernel table read from file vdW_kernel_table
     MD5 check sum: 095c7af220d748ca6e76c0b4c6cfb241

     atomic species   valence    mass     pseudopotential
        Y1            11.00    88.90584     Y ( 1.00)
        C1             4.00    12.01100     C ( 1.00)
        H1             1.00     1.00800     H ( 1.00)

     No symmetry found



   Cartesian axes

     site n.     atom                  positions (alat units)
         1           Y1  tau(   1) = (   1.7880693   1.0323423  10.0000000  )
         2           Y1  tau(   2) = (   5.3642080   1.0323423  10.0000000  )
         3           Y1  tau(   3) = (   3.5761386   4.1293692  10.0000000  )
         4           Y1  tau(   4) = (   7.1522773   4.1293692  10.0000000  )
         5           Y1  tau(   5) = (   7.1522773   2.0646846  12.9199050  )
         6           Y1  tau(   6) = (   3.5761386   2.0646846  12.9199050  )
         7           Y1  tau(   7) = (   8.9403466   5.1617115  12.9199050  )
         8           Y1  tau(   8) = (   5.3642080   5.1617115  12.9199050  )
         9           Y1  tau(   9) = (   0.0000000   0.0000000  15.8398100  )
        10           Y1  tau(  10) = (   3.5761386   0.0000000  15.8398100  )
        11           Y1  tau(  11) = (   1.7880693   3.0970269  15.8398100  )
        12           Y1  tau(  12) = (   5.3642080   3.0970269  15.8398100  )
        13           C1  tau(  13) = (   0.0000000   0.0000000  18.1008100  )
        14           H1  tau(  14) = (   0.0000000   0.0000000  19.2008100  )

     number of k points=    20  Fermi-Dirac smearing, width (Ry)=  0.0110
                       cart. coord. in units 2pi/alat
        k(    1) = (   0.0000000   0.0000000   0.0000000), wk =   0.0555556
        k(    2) = (   0.0000000   0.0269075   0.0000000), wk =   0.1111111
        k(    3) = (   0.0000000   0.0538151   0.0000000), wk =   0.1111111
        k(    4) = (   0.0000000  -0.0807226   0.0000000), wk =   0.0555556
        k(    5) = (   0.0233026  -0.0134538   0.0000000), wk =   0.1111111
        k(    6) = (   0.0233026   0.0134538   0.0000000), wk =   0.1111111
        k(    7) = (   0.0233026   0.0403613   0.0000000), wk =   0.1111111
        k(    8) = (   0.0233026  -0.0941763   0.0000000), wk =   0.1111111
        k(    9) = (   0.0233026  -0.0672688   0.0000000), wk =   0.1111111
        k(   10) = (   0.0233026  -0.0403613   0.0000000), wk =   0.1111111
        k(   11) = (   0.0466052  -0.0269075   0.0000000), wk =   0.1111111
        k(   12) = (   0.0466052   0.0000000   0.0000000), wk =   0.1111111
        k(   13) = (   0.0466052   0.0269075   0.0000000), wk =   0.1111111
        k(   14) = (   0.0466052  -0.1076301   0.0000000), wk =   0.1111111
        k(   15) = (   0.0466052  -0.0807226   0.0000000), wk =   0.1111111
        k(   16) = (   0.0466052  -0.0538151   0.0000000), wk =   0.1111111
        k(   17) = (  -0.0699078   0.0403613   0.0000000), wk =   0.0555556
        k(   18) = (  -0.0699078   0.0672688   0.0000000), wk =   0.1111111
        k(   19) = (  -0.0699078   0.0941763   0.0000000), wk =   0.1111111
        k(   20) = (  -0.0699078  -0.0403613   0.0000000), wk =   0.0555556

     Dense  grid:   919335 G-vectors     FFT dimensions: (  90,  90, 300)

     Smooth grid:   232275 G-vectors     FFT dimensions: (  54,  54, 192)

     Largest allocated arrays     est. size (Mb)     dimensions
        Kohn-Sham Wavefunctions         4.38 Mb     (    3683,   78)
        NL pseudopotentials            12.70 Mb     (    3683,  226)
        Each V/rho on FFT grid          4.70 Mb     (  307800)
        Each G-vector array             0.88 Mb     (  114920)
        G-vector shells                 0.22 Mb     (   29028)
     Largest temporary arrays     est. size (Mb)     dimensions
        Auxiliary wavefunctions        17.53 Mb     (    3683,  312)
        Each subspace H/S matrix        1.49 Mb     (     312,  312)
        Each <psi_i|beta_j> matrix      0.27 Mb     (     226,   78)
        Arrays for rho mixing          46.97 Mb     (  307800,   10)

     Initial potential from superposition of free atoms
     Check: negative starting charge=   -0.000494

     starting charge  136.94632, renormalised to  137.00000

     negative rho (up, down):  4.943E-04 0.000E+00


     ************************************************************************
     *
     * You are using vdW-DF for exchange-correlation in this calculation.
     * Please cite the following three references that made this development
     * possible:
     *
     *   M. Dion, H. Rydberg, E. Schroder, D. C. Langreth, and
     *   B. I. Lundqvist, Phys. Rev. Lett. 92, 246401 (2004).
     *
     *   T. Thonhauser, V. R. Cooper, S. Li, A. Puzder, P. Hyldgaard, and
     *   D. C. Langreth, Phys. Rev. B 76, 125112 (2007).
     *
     *   G. Roman-Perez and J. M. Soler, Phys. Rev. Lett. 103, 096102 (2009).
     *
     *
     * If you are using vdW-DF2, please also cite:
     *
     *   K. Lee, E. D. Murray, L. Kong, B. I. Lundqvist, and
     *   D. C. Langreth, Phys. Rev. B 82, 081101(R) (2010).
     *
     *
     * If you are calculating the stress with vdW-DF, please also cite:
     *
     *   R. Sabatini, E. Kucukbenli, B. Kolb, T. Thonhauser, and
     *   S. de Gironcoli, J. Phys.: Condens. Matter 24, 424209 (2012).
     *
     ************************************************************************

     Carrying out vdW-DF run using the following parameters:

     Nqs =      20    Nr_points =    1024   r_max =   100.000
     q_mesh =
               0.00001000     0.04494208     0.09755937     0.15916263
               0.23128650     0.31572767     0.41458969     0.53033537
               0.66584808     0.82450364     1.01025438     1.22772762
               1.48234092     1.78043706     2.12944203     2.53805004
               3.01644009     3.57652955     4.23227104     5.00000000

     Gradients computed in reciprocal space

     ************************************************************************


 
     Adding external electric field

     Computed dipole along edir(3) : 
        Dipole               -0.0195 Ry au,         -0.0496 Debye
        Dipole field         -0.0000 Ry au
 
        Potential amp.        0.0030 Ry
        Total length         47.6094 bohr
 
     Starting wfc are  161 randomized atomic wfcs

     total cpu time spent up to now is       20.8 secs

     per-process dynamical memory:   119.2 Mb

     Self-consistent Calculation

     iteration #  1     ecut=    36.75 Ry     beta=0.30
     Davidson diagonalization with overlap
     ethr =  1.00E-02,  avg # of iterations =  2.0

     negative rho (up, down):  3.005E-04 0.000E+00
 
     Adding external electric field

     Computed dipole along edir(3) : 
        Dipole               -7.3864 Ry au,        -18.7745 Debye
        Dipole field         -0.0120 Ry au
 
        Potential amp.        1.1441 Ry
        Total length         47.6094 bohr
 

     total cpu time spent up to now is       46.8 secs

     total energy              =   -1134.37353730 Ry
     Harris-Foulkes estimate   =   -1137.42945394 Ry
     estimated scf accuracy    <       6.69975546 Ry

     iteration #  2     ecut=    36.75 Ry     beta=0.30
     Davidson diagonalization with overlap
     ethr =  4.89E-03,  avg # of iterations =  9.4

     negative rho (up, down):  1.438E-04 0.000E+00
 
     Adding external electric field

     Computed dipole along edir(3) : 
        Dipole                1.1254 Ry au,          2.8605 Debye
        Dipole field          0.0018 Ry au
 
        Potential amp.       -0.1743 Ry
        Total length         47.6094 bohr
 

     total cpu time spent up to now is       84.8 secs

     total energy              =   -1125.58461026 Ry
     Harris-Foulkes estimate   =   -1151.38174924 Ry
     estimated scf accuracy    <     529.84530737 Ry

     iteration #  3     ecut=    36.75 Ry     beta=0.30
     Davidson diagonalization with overlap
     ethr =  4.89E-03,  avg # of iterations = 10.1

     negative rho (up, down):  1.365E-04 0.000E+00
 
     Adding external electric field

     Computed dipole along edir(3) : 
        Dipole                0.2156 Ry au,          0.5480 Debye
        Dipole field          0.0004 Ry au
 
        Potential amp.       -0.0334 Ry
        Total length         47.6094 bohr
 

     total cpu time spent up to now is      125.2 secs

     total energy              =   -1134.57995743 Ry
     Harris-Foulkes estimate   =   -1138.77140804 Ry
     estimated scf accuracy    <      96.48017439 Ry

     iteration #  4     ecut=    36.75 Ry     beta=0.30
     Davidson diagonalization with overlap
     ethr =  4.89E-03,  avg # of iterations =  6.0

     negative rho (up, down):  1.511E-04 0.000E+00
 
     Adding external electric field

     Computed dipole along edir(3) : 
        Dipole                0.4242 Ry au,          1.0782 Debye
        Dipole field          0.0007 Ry au
 
        Potential amp.       -0.0657 Ry
        Total length         47.6094 bohr
 

     total cpu time spent up to now is      155.2 secs

     total energy              =   -1136.75705784 Ry
     Harris-Foulkes estimate   =   -1137.03561475 Ry
     estimated scf accuracy    <       4.38816116 Ry

     iteration #  5     ecut=    36.75 Ry     beta=0.30
     Davidson diagonalization with overlap
     ethr =  3.20E-03,  avg # of iterations =  3.1

     negative rho (up, down):  1.445E-04 0.000E+00
 
     Adding external electric field

     Computed dipole along edir(3) : 
        Dipole                0.1427 Ry au,          0.3627 Debye
        Dipole field          0.0002 Ry au
 
        Potential amp.       -0.0221 Ry
        Total length         47.6094 bohr
 

     total cpu time spent up to now is      181.9 secs

     total energy              =   -1136.87494160 Ry
     Harris-Foulkes estimate   =   -1136.94355339 Ry
     estimated scf accuracy    <       0.72684582 Ry

     iteration #  6     ecut=    36.75 Ry     beta=0.30
     Davidson diagonalization with overlap
     ethr =  5.31E-04,  avg # of iterations =  8.5

     negative rho (up, down):  1.038E-04 0.000E+00
 
     Adding external electric field

     Computed dipole along edir(3) : 
        Dipole               -0.1653 Ry au,         -0.4202 Debye
        Dipole field         -0.0003 Ry au
 
        Potential amp.        0.0256 Ry
        Total length         47.6094 bohr
 

     total cpu time spent up to now is      213.9 secs

     total energy              =   -1136.85904818 Ry
     Harris-Foulkes estimate   =   -1136.92451731 Ry
     estimated scf accuracy    <       0.43783664 Ry

     iteration #  7     ecut=    36.75 Ry     beta=0.30
     Davidson diagonalization with overlap
     ethr =  3.20E-04,  avg # of iterations =  5.2

     negative rho (up, down):  1.073E-04 0.000E+00
 
     Adding external electric field

     Computed dipole along edir(3) : 
        Dipole               -0.2032 Ry au,         -0.5165 Debye
        Dipole field         -0.0003 Ry au
 
        Potential amp.        0.0315 Ry
        Total length         47.6094 bohr
 

     total cpu time spent up to now is      242.2 secs

     total energy              =   -1136.88118377 Ry
     Harris-Foulkes estimate   =   -1136.89271385 Ry
     estimated scf accuracy    <       0.31973449 Ry

     iteration #  8     ecut=    36.75 Ry     beta=0.30
     Davidson diagonalization with overlap
     ethr =  2.33E-04,  avg # of iterations =  5.3

     negative rho (up, down):  1.258E-04 0.000E+00
 
     Adding external electric field

     Computed dipole along edir(3) : 
        Dipole               -0.3930 Ry au,         -0.9990 Debye
        Dipole field         -0.0006 Ry au
 
        Potential amp.        0.0609 Ry
        Total length         47.6094 bohr
 

     total cpu time spent up to now is      270.0 secs

     total energy              =   -1136.88148603 Ry
     Harris-Foulkes estimate   =   -1136.88707004 Ry
     estimated scf accuracy    <       0.04101105 Ry

     iteration #  9     ecut=    36.75 Ry     beta=0.30
     Davidson diagonalization with overlap
     ethr =  2.99E-05,  avg # of iterations =  9.6

     negative rho (up, down):  1.321E-04 0.000E+00
 
     Adding external electric field

     Computed dipole along edir(3) : 
        Dipole               -0.4111 Ry au,         -1.0449 Debye
        Dipole field         -0.0007 Ry au
 
        Potential amp.        0.0637 Ry
        Total length         47.6094 bohr
 

     total cpu time spent up to now is      305.4 secs

     total energy              =   -1136.88961786 Ry
     Harris-Foulkes estimate   =   -1136.89196942 Ry
     estimated scf accuracy    <       0.02046091 Ry

     iteration # 10     ecut=    36.75 Ry     beta=0.30
     Davidson diagonalization with overlap
     ethr =  1.49E-05,  avg # of iterations =  1.9

     negative rho (up, down):  1.389E-04 0.000E+00
 
     Adding external electric field

     Computed dipole along edir(3) : 
        Dipole               -0.4461 Ry au,         -1.1338 Debye
        Dipole field         -0.0007 Ry au
 
        Potential amp.        0.0691 Ry
        Total length         47.6094 bohr
 

     total cpu time spent up to now is      332.2 secs

     total energy              =   -1136.88844004 Ry
     Harris-Foulkes estimate   =   -1136.89050174 Ry
     estimated scf accuracy    <       0.03864107 Ry

     iteration # 11     ecut=    36.75 Ry     beta=0.30
     Davidson diagonalization with overlap
     ethr =  1.49E-05,  avg # of iterations =  4.7

     negative rho (up, down):  1.371E-04 0.000E+00
 
     Adding external electric field

     Computed dipole along edir(3) : 
        Dipole               -0.4135 Ry au,         -1.0510 Debye
        Dipole field         -0.0007 Ry au
 
        Potential amp.        0.0640 Ry
        Total length         47.6094 bohr
 

     total cpu time spent up to now is      362.5 secs

     total energy              =   -1136.88988340 Ry
     Harris-Foulkes estimate   =   -1136.89040838 Ry
     estimated scf accuracy    <       0.00619127 Ry

     iteration # 12     ecut=    36.75 Ry     beta=0.30
     Davidson diagonalization with overlap
     ethr =  4.52E-06,  avg # of iterations =  5.9

     negative rho (up, down):  1.409E-04 0.000E+00
 
     Adding external electric field

     Computed dipole along edir(3) : 
        Dipole               -0.4218 Ry au,         -1.0720 Debye
        Dipole field         -0.0007 Ry au
 
        Potential amp.        0.0653 Ry
        Total length         47.6094 bohr
 

     total cpu time spent up to now is      392.7 secs

     total energy              =   -1136.89022878 Ry
     Harris-Foulkes estimate   =   -1136.89021858 Ry
     estimated scf accuracy    <       0.00060719 Ry

     iteration # 13     ecut=    36.75 Ry     beta=0.30
     Davidson diagonalization with overlap
     ethr =  4.43E-07,  avg # of iterations =  8.1

     negative rho (up, down):  1.459E-04 0.000E+00
 
     Adding external electric field

     Computed dipole along edir(3) : 
        Dipole               -0.4234 Ry au,         -1.0761 Debye
        Dipole field         -0.0007 Ry au
 
        Potential amp.        0.0656 Ry
        Total length         47.6094 bohr
 

     total cpu time spent up to now is      428.9 secs

     total energy              =   -1136.89034522 Ry
     Harris-Foulkes estimate   =   -1136.89039079 Ry
     estimated scf accuracy    <       0.00055817 Ry

     iteration # 14     ecut=    36.75 Ry     beta=0.30
     Davidson diagonalization with overlap
     ethr =  4.07E-07,  avg # of iterations =  2.5

     negative rho (up, down):  1.512E-04 0.000E+00
 
     Adding external electric field

     Computed dipole along edir(3) : 
        Dipole               -0.4292 Ry au,         -1.0910 Debye
        Dipole field         -0.0007 Ry au
 
        Potential amp.        0.0665 Ry
        Total length         47.6094 bohr
 

     total cpu time spent up to now is      456.6 secs

     total energy              =   -1136.89034233 Ry
     Harris-Foulkes estimate   =   -1136.89036057 Ry
     estimated scf accuracy    <       0.00015949 Ry

     iteration # 15     ecut=    36.75 Ry     beta=0.30
     Davidson diagonalization with overlap
     ethr =  1.16E-07,  avg # of iterations =  7.0

     negative rho (up, down):  1.516E-04 0.000E+00
 
     Adding external electric field

     Computed dipole along edir(3) : 
        Dipole               -0.4311 Ry au,         -1.0957 Debye
        Dipole field         -0.0007 Ry au
 
        Potential amp.        0.0668 Ry
        Total length         47.6094 bohr
 

     total cpu time spent up to now is      491.9 secs

     total energy              =   -1136.89038150 Ry
     Harris-Foulkes estimate   =   -1136.89040274 Ry
     estimated scf accuracy    <       0.00021545 Ry

     iteration # 16     ecut=    36.75 Ry     beta=0.30
     Davidson diagonalization with overlap
     ethr =  1.16E-07,  avg # of iterations =  1.1

     negative rho (up, down):  1.535E-04 0.000E+00
 
     Adding external electric field

     Computed dipole along edir(3) : 
        Dipole               -0.4323 Ry au,         -1.0988 Debye
        Dipole field         -0.0007 Ry au
 
        Potential amp.        0.0670 Ry
        Total length         47.6094 bohr
 

     total cpu time spent up to now is      520.1 secs

     total energy              =   -1136.89038004 Ry
     Harris-Foulkes estimate   =   -1136.89038560 Ry
     estimated scf accuracy    <       0.00007199 Ry

     iteration # 17     ecut=    36.75 Ry     beta=0.30
     Davidson diagonalization with overlap
     ethr =  5.26E-08,  avg # of iterations =  6.1

     negative rho (up, down):  1.546E-04 0.000E+00

     negative rho (up, down):  1.546E-04 0.000E+00

     negative rho (up, down):  1.546E-04 0.000E+00

     negative rho (up, down):  1.546E-04 0.000E+00

     negative rho (up, down):  1.546E-04 0.000E+00

     negative rho (up, down):  1.546E-04 0.000E+00

     negative rho (up, down):  1.546E-04 0.000E+00

     negative rho (up, down):  1.546E-04 0.000E+00

     negative rho (up, down):  1.546E-04 0.000E+00

     negative rho (up, down):  1.546E-04 0.000E+00

     negative rho (up, down):  1.546E-04 0.000E+00

     negative rho (up, down):  1.546E-04 0.000E+00

     negative rho (up, down):  1.546E-04 0.000E+00

     negative rho (up, down):  1.546E-04 0.000E+00

     negative rho (up, down):  1.546E-04 0.000E+00

     negative rho (up, down):  1.546E-04 0.000E+00

     negative rho (up, down):  1.546E-04 0.000E+00

     negative rho (up, down):  1.546E-04 0.000E+00

     negative rho (up, down):  1.546E-04 0.000E+00

     negative rho (up, down):  1.546E-04 0.000E+00

     negative rho (up, down):  1.546E-04 0.000E+00

     negative rho (up, down):  1.546E-04 0.000E+00

     negative rho (up, down):  1.546E-04 0.000E+00

     negative rho (up, down):  1.546E-04 0.000E+00

     negative rho (up, down):  1.546E-04 0.000E+00

     negative rho (up, down):  1.546E-04 0.000E+00

     negative rho (up, down):  1.546E-04 0.000E+00

     negative rho (up, down):  1.546E-04 0.000E+00

     negative rho (up, down):  1.546E-04 0.000E+00

     negative rho (up, down):  1.546E-04 0.000E+00

     negative rho (up, down):  1.546E-04 0.000E+00

     negative rho (up, down):  1.546E-04 0.000E+00

     negative rho (up, down):  1.546E-04 0.000E+00

     negative rho (up, down):  1.546E-04 0.000E+00

     negative rho (up, down):  1.546E-04 0.000E+00
 
     Adding external electric field

     Computed dipole along edir(3) : 
        Dipole               -0.4250 Ry au,         -1.0803 Debye
        Dipole field         -0.0007 Ry au
 
        Potential amp.        0.0658 Ry
        Total length         47.6094 bohr
 

     total cpu time spent up to now is      638.9 secs

     End of self-consistent calculation

          k = 0.0000 0.0000 0.0000 ( 28997 PWs)   bands (ev):

   -42.7478 -42.7161 -42.7154 -42.6511 -42.6102 -42.6091 -42.6049 -42.1045
   -42.0654 -42.0648 -42.0503 -41.4885 -22.8308 -22.7884 -22.7583 -22.7578
   -22.7538 -22.7381 -22.7377 -22.7317 -22.7311 -22.6786 -22.6117 -22.6107
   -22.6067 -22.5285 -22.4526 -22.4521 -22.4337 -22.4300 -22.4296 -22.3321
   -22.3321 -22.2500 -22.2190 -22.2187 -22.0313 -21.9964 -21.9959 -21.9805
   -21.9252 -21.9249 -21.9217 -21.8245 -21.8244 -21.5218 -21.5217 -21.3480
    -9.2032  -3.6030  -2.7936  -2.2494  -1.5674  -0.9040  -0.9039  -0.8617
    -0.7828  -0.7828  -0.7660  -0.4461  -0.4461  -0.3958   0.0003   0.0003
     0.0451   0.2075   0.2076   0.4326   0.7802   0.7802   0.8876   1.3078
     1.3668   1.4097   1.4098   1.5119   1.7468   1.9008

          k = 0.0000 0.0269 0.0000 ( 29019 PWs)   bands (ev):

   -42.7459 -42.7178 -42.7156 -42.6482 -42.6115 -42.6102 -42.6053 -42.1017
   -42.0674 -42.0649 -42.0511 -41.4885 -22.8124 -22.7842 -22.7427 -22.7415
   -22.7369 -22.7309 -22.7305 -22.7232 -22.7226 -22.6742 -22.6145 -22.6115
   -22.6064 -22.5382 -22.4759 -22.4563 -22.4496 -22.4464 -22.4245 -22.3621
   -22.3388 -22.2330 -22.2049 -22.1976 -22.0283 -21.9987 -21.9958 -21.9802
   -21.9409 -21.9388 -21.9175 -21.8529 -21.8311 -21.5291 -21.5239 -21.3477
    -9.2028  -3.4593  -2.7011  -2.1944  -1.4255  -1.1144  -0.8550  -0.8451
    -0.7909  -0.6886  -0.6613  -0.3430  -0.3079  -0.2567   0.0653   0.0803
     0.1238   0.2441   0.2478   0.4752   0.7552   0.7837   0.9007   1.2275
     1.2502   1.3319   1.3319   1.4501   1.6730   1.7776

          k = 0.0000 0.0538 0.0000 ( 29058 PWs)   bands (ev):

   -42.7410 -42.7227 -42.7156 -42.6405 -42.6190 -42.6102 -42.6057 -42.0943
   -42.0737 -42.0649 -42.0523 -41.4886 -22.7753 -22.7727 -22.7415 -22.7297
   -22.7035 -22.7025 -22.6976 -22.6837 -22.6621 -22.6535 -22.6250 -22.6112
   -22.6052 -22.5698 -22.5386 -22.4902 -22.4866 -22.4621 -22.4422 -22.4066
   -22.3571 -22.1952 -22.1695 -22.1337 -22.0219 -22.0062 -21.9977 -21.9794
   -21.9772 -21.9755 -21.9286 -21.9005 -21.8487 -21.5439 -21.5283 -21.3471
    -9.2022  -3.0654  -2.5385  -1.9662  -1.6362  -1.0681  -0.9421  -0.7470
    -0.7197  -0.4408  -0.4093  -0.2491  -0.0073   0.1075   0.2021   0.2703
     0.3370   0.3676   0.3851   0.5753   0.7880   0.7931   0.8357   1.0542
     1.0725   1.0860   1.1480   1.1777   1.4556   1.4743

          k = 0.0000-0.0807 0.0000 ( 29048 PWs)   bands (ev):

   -42.7369 -42.7267 -42.7157 -42.6317 -42.6278 -42.6102 -42.6058 -42.0864
   -42.0812 -42.0649 -42.0527 -41.4887 -22.7658 -22.7576 -22.7476 -22.7288
   -22.6771 -22.6771 -22.6529 -22.6454 -22.6436 -22.6333 -22.6150 -22.6100
   -22.6021 -22.6018 -22.5504 -22.5462 -22.5175 -22.5133 -22.4639 -22.3828
   -22.3811 -22.1713 -22.1443 -22.0510 -22.0350 -22.0122 -22.0113 -22.0041
   -21.9951 -21.9888 -21.9789 -21.8833 -21.8661 -21.5514 -21.5305 -21.3468
    -9.2019  -2.7118  -2.3852  -2.1907  -1.5584  -1.3351  -0.6850  -0.6689
    -0.5955  -0.4196  -0.2622  -0.2099   0.1087   0.2617   0.4402   0.4424
     0.4737   0.5210   0.5906   0.6118   0.7025   0.7608   0.8237   0.8812
     0.9021   1.0067   1.0197   1.2048   1.2092   1.2248

          k = 0.0233-0.0135 0.0000 ( 29019 PWs)   bands (ev):

   -42.7460 -42.7173 -42.7161 -42.6482 -42.6122 -42.6093 -42.6056 -42.1017
   -42.0672 -42.0651 -42.0510 -41.4885 -22.8124 -22.7842 -22.7431 -22.7411
   -22.7367 -22.7310 -22.7306 -22.7232 -22.7224 -22.6742 -22.6150 -22.6107
   -22.6068 -22.5382 -22.4755 -22.4567 -22.4492 -22.4468 -22.4244 -22.3621
   -22.3388 -22.2331 -22.2047 -22.1977 -22.0283 -21.9985 -21.9960 -21.9802
   -21.9407 -21.9389 -21.9175 -21.8530 -21.8310 -21.5291 -21.5239 -21.3477
    -9.2028  -3.4593  -2.7011  -2.1944  -1.4255  -1.1144  -0.8551  -0.8450
    -0.7909  -0.6886  -0.6613  -0.3430  -0.3079  -0.2567   0.0653   0.0804
     0.1237   0.2441   0.2479   0.4752   0.7553   0.7837   0.9007   1.2275
     1.2501   1.3317   1.3320   1.4501   1.6730   1.7774

          k = 0.0233 0.0135 0.0000 ( 29019 PWs)   bands (ev):

   -42.7459 -42.7179 -42.7155 -42.6482 -42.6122 -42.6093 -42.6056 -42.1018
   -42.0670 -42.0653 -42.0510 -41.4885 -22.8124 -22.7842 -22.7431 -22.7411
   -22.7369 -22.7308 -22.7305 -22.7231 -22.7228 -22.6742 -22.6149 -22.6107
   -22.6067 -22.5382 -22.4759 -22.4563 -22.4493 -22.4467 -22.4244 -22.3621
   -22.3388 -22.2331 -22.2046 -22.1978 -22.0283 -21.9983 -21.9962 -21.9801
   -21.9406 -21.9390 -21.9175 -21.8530 -21.8310 -21.5291 -21.5239 -21.3477
    -9.2028  -3.4593  -2.7011  -2.1944  -1.4255  -1.1144  -0.8551  -0.8450
    -0.7909  -0.6886  -0.6613  -0.3430  -0.3080  -0.2567   0.0653   0.0804
     0.1237   0.2441   0.2479   0.4752   0.7553   0.7836   0.9007   1.2275
     1.2501   1.3318   1.3320   1.4501   1.6730   1.7776

          k = 0.0233 0.0404 0.0000 ( 29087 PWs)   bands (ev):

   -42.7424 -42.7214 -42.7155 -42.6429 -42.6148 -42.6129 -42.6047 -42.0967
   -42.0705 -42.0662 -42.0517 -41.4886 -22.7815 -22.7765 -22.7395 -22.7303
   -22.7205 -22.7178 -22.6958 -22.6904 -22.6868 -22.6659 -22.6190 -22.6162
   -22.6037 -22.5635 -22.5095 -22.5000 -22.4664 -22.4344 -22.4324 -22.4155
   -22.3529 -22.2060 -22.1712 -22.1623 -22.0237 -22.0055 -21.9963 -21.9855
   -21.9795 -21.9275 -21.9254 -21.9026 -21.8448 -21.5389 -21.5285 -21.3472
    -9.2024  -3.1888  -2.5760  -2.0426  -1.2801  -1.2555  -1.1315  -0.7904
    -0.7118  -0.4912  -0.3951  -0.1947  -0.1436  -0.0187   0.1797   0.1856
     0.2767   0.3256   0.3391   0.5553   0.7535   0.8070   0.8775   1.0907
     1.1039   1.1566   1.2637   1.2776   1.4468   1.5718

          k = 0.0233-0.0942 0.0000 ( 29098 PWs)   bands (ev):

   -42.7369 -42.7267 -42.7157 -42.6340 -42.6227 -42.6151 -42.6036 -42.0882
   -42.0775 -42.0676 -42.0519 -41.4887 -22.7658 -22.7494 -22.7429 -22.7290
   -22.6867 -22.6795 -22.6538 -22.6521 -22.6399 -22.6301 -22.6217 -22.6173
   -22.6036 -22.5994 -22.5593 -22.5585 -22.5045 -22.4762 -22.4572 -22.4080
   -22.3785 -22.1675 -22.1302 -22.0916 -22.0493 -22.0163 -22.0061 -21.9965
   -21.9880 -21.9786 -21.9465 -21.9016 -21.8689 -21.5478 -21.5340 -21.3468
    -9.2019  -2.7686  -2.4231  -1.9042  -1.6305  -1.3092  -1.0866  -0.7019
    -0.5956  -0.2339  -0.1903  -0.0492   0.0674   0.2499   0.2910   0.3307
     0.4795   0.5055   0.5336   0.7052   0.7282   0.8138   0.8505   0.8960
     0.9947   1.0223   1.0683   1.1012   1.2098   1.2685

          k = 0.0233-0.0673 0.0000 ( 29098 PWs)   bands (ev):

   -42.7371 -42.7264 -42.7158 -42.6340 -42.6227 -42.6151 -42.6036 -42.0882
   -42.0775 -42.0675 -42.0519 -41.4887 -22.7660 -22.7492 -22.7428 -22.7292
   -22.6872 -22.6795 -22.6538 -22.6521 -22.6398 -22.6300 -22.6212 -22.6171
   -22.6036 -22.5994 -22.5594 -22.5588 -22.5045 -22.4763 -22.4572 -22.4080
   -22.3785 -22.1675 -22.1302 -22.0916 -22.0495 -22.0163 -22.0061 -21.9965
   -21.9879 -21.9786 -21.9465 -21.9016 -21.8689 -21.5478 -21.5339 -21.3468
    -9.2019  -2.7686  -2.4231  -1.9042  -1.6305  -1.3092  -1.0866  -0.7019
    -0.5956  -0.2339  -0.1903  -0.0492   0.0674   0.2499   0.2910   0.3306
     0.4795   0.5055   0.5336   0.7052   0.7282   0.8138   0.8506   0.8960
     0.9947   1.0224   1.0684   1.1012   1.2098   1.2685

          k = 0.0233-0.0404 0.0000 ( 29087 PWs)   bands (ev):

   -42.7425 -42.7209 -42.7160 -42.6429 -42.6148 -42.6128 -42.6048 -42.0966
   -42.0707 -42.0660 -42.0518 -41.4886 -22.7816 -22.7766 -22.7390 -22.7307
   -22.7205 -22.7181 -22.6955 -22.6904 -22.6866 -22.6659 -22.6190 -22.6161
   -22.6037 -22.5632 -22.5095 -22.5000 -22.4668 -22.4344 -22.4323 -22.4155
   -22.3529 -22.2060 -22.1714 -22.1623 -22.0237 -22.0057 -21.9961 -21.9856
   -21.9795 -21.9274 -21.9254 -21.9027 -21.8448 -21.5389 -21.5284 -21.3472
    -9.2024  -3.1888  -2.5760  -2.0426  -1.2800  -1.2555  -1.1315  -0.7903
    -0.7119  -0.4912  -0.3951  -0.1947  -0.1436  -0.0188   0.1797   0.1856
     0.2767   0.3256   0.3391   0.5553   0.7534   0.8071   0.8775   1.0907
     1.1038   1.1566   1.2637   1.2776   1.4469   1.5721

          k = 0.0466-0.0269 0.0000 ( 29058 PWs)   bands (ev):

   -42.7411 -42.7221 -42.7161 -42.6405 -42.6193 -42.6094 -42.6062 -42.0944
   -42.0735 -42.0651 -42.0522 -41.4886 -22.7755 -22.7729 -22.7409 -22.7302
   -22.7040 -22.7020 -22.6975 -22.6834 -22.6620 -22.6535 -22.6252 -22.6104
   -22.6058 -22.5698 -22.5383 -22.4897 -22.4871 -22.4625 -22.4422 -22.4066
   -22.3571 -22.1954 -22.1693 -22.1337 -22.0219 -22.0060 -21.9979 -21.9794
   -21.9770 -21.9757 -21.9287 -21.9006 -21.8486 -21.5440 -21.5282 -21.3471
    -9.2022  -3.0654  -2.5385  -1.9662  -1.6362  -1.0680  -0.9421  -0.7470
    -0.7197  -0.4408  -0.4094  -0.2491  -0.0072   0.1076   0.2021   0.2703
     0.3370   0.3675   0.3851   0.5754   0.7880   0.7931   0.8358   1.0543
     1.0723   1.0861   1.1481   1.1777   1.4556   1.4744

          k = 0.0466 0.0000 0.0000 ( 29087 PWs)   bands (ev):

   -42.7425 -42.7210 -42.7159 -42.6429 -42.6156 -42.6119 -42.6050 -42.0967
   -42.0703 -42.0665 -42.0517 -41.4886 -22.7816 -22.7766 -22.7391 -22.7307
   -22.7205 -22.7181 -22.6956 -22.6901 -22.6868 -22.6659 -22.6197 -22.6152
   -22.6038 -22.5633 -22.5095 -22.5000 -22.4667 -22.4346 -22.4321 -22.4155
   -22.3529 -22.2061 -22.1711 -22.1624 -22.0237 -22.0053 -21.9965 -21.9854
   -21.9794 -21.9276 -21.9255 -21.9026 -21.8448 -21.5389 -21.5285 -21.3472
    -9.2024  -3.1888  -2.5760  -2.0426  -1.2799  -1.2556  -1.1315  -0.7903
    -0.7118  -0.4912  -0.3951  -0.1946  -0.1436  -0.0188   0.1797   0.1857
     0.2767   0.3256   0.3390   0.5553   0.7535   0.8070   0.8775   1.0907
     1.1039   1.1566   1.2637   1.2776   1.4470   1.5728

          k = 0.0466 0.0269 0.0000 ( 29058 PWs)   bands (ev):

   -42.7409 -42.7229 -42.7155 -42.6405 -42.6193 -42.6094 -42.6062 -42.0944
   -42.0733 -42.0653 -42.0521 -41.4886 -22.7752 -22.7727 -22.7416 -22.7297
   -22.7040 -22.7020 -22.6975 -22.6839 -22.6620 -22.6535 -22.6252 -22.6104
   -22.6058 -22.5698 -22.5387 -22.4897 -22.4871 -22.4620 -22.4422 -22.4066
   -22.3571 -22.1955 -22.1691 -22.1337 -22.0219 -22.0058 -21.9981 -21.9794
   -21.9768 -21.9758 -21.9287 -21.9007 -21.8485 -21.5439 -21.5283 -21.3471
    -9.2022  -3.0654  -2.5385  -1.9661  -1.6362  -1.0680  -0.9422  -0.7471
    -0.7197  -0.4408  -0.4094  -0.2491  -0.0073   0.1076   0.2021   0.2703
     0.3370   0.3675   0.3851   0.5754   0.7880   0.7930   0.8358   1.0542
     1.0723   1.0861   1.1481   1.1777   1.4559   1.4746

          k = 0.0466-0.1076 0.0000 ( 29098 PWs)   bands (ev):

   -42.7369 -42.7268 -42.7156 -42.6339 -42.6231 -42.6148 -42.6037 -42.0883
   -42.0771 -42.0679 -42.0519 -41.4887 -22.7658 -22.7494 -22.7428 -22.7290
   -22.6868 -22.6795 -22.6538 -22.6520 -22.6402 -22.6303 -22.6216 -22.6171
   -22.6037 -22.5994 -22.5592 -22.5585 -22.5045 -22.4761 -22.4572 -22.4080
   -22.3785 -22.1678 -22.1300 -22.0915 -22.0495 -22.0164 -22.0058 -21.9969
   -21.9878 -21.9786 -21.9466 -21.9018 -21.8687 -21.5478 -21.5340 -21.3468
    -9.2019  -2.7686  -2.4231  -1.9042  -1.6305  -1.3092  -1.0866  -0.7019
    -0.5956  -0.2339  -0.1903  -0.0492   0.0675   0.2499   0.2909   0.3308
     0.4795   0.5055   0.5336   0.7053   0.7282   0.8138   0.8506   0.8960
     0.9946   1.0224   1.0684   1.1012   1.2098   1.2685

          k = 0.0466-0.0807 0.0000 ( 29103 PWs)   bands (ev):

   -42.7321 -42.7314 -42.7158 -42.6263 -42.6253 -42.6215 -42.6024 -42.0816
   -42.0809 -42.0713 -42.0513 -41.4887 -22.7566 -22.7558 -22.7291 -22.6954
   -22.6899 -22.6775 -22.6397 -22.6372 -22.6319 -22.6316 -22.6247 -22.5977
   -22.5849 -22.5840 -22.5791 -22.5788 -22.5770 -22.4930 -22.4167 -22.4160
   -22.4155 -22.1251 -22.1126 -22.0693 -22.0625 -22.0621 -22.0097 -22.0048
   -21.9985 -21.9783 -21.9192 -21.9016 -21.9011 -21.5433 -21.5431 -21.3467
    -9.2017  -2.6443  -2.0210  -2.0162  -1.8657  -1.2121  -1.2076  -0.9519
    -0.2645  -0.2583  -0.0191   0.1515   0.2006   0.2061   0.2842   0.2969
     0.6170   0.6279   0.6300   0.6543   0.7104   0.8747   0.8777   0.8980
     0.9445   0.9568   1.0184   1.0485   1.1564   1.1578

          k = 0.0466-0.0538 0.0000 ( 29098 PWs)   bands (ev):

   -42.7373 -42.7260 -42.7160 -42.6339 -42.6231 -42.6147 -42.6037 -42.0882
   -42.0773 -42.0677 -42.0519 -41.4887 -22.7662 -22.7490 -22.7429 -22.7294
   -22.6869 -22.6795 -22.6538 -22.6520 -22.6398 -22.6300 -22.6213 -22.6170
   -22.6037 -22.5994 -22.5592 -22.5586 -22.5045 -22.4766 -22.4572 -22.4080
   -22.3785 -22.1676 -22.1301 -22.0916 -22.0496 -22.0163 -22.0059 -21.9967
   -21.9879 -21.9786 -21.9465 -21.9017 -21.8688 -21.5478 -21.5339 -21.3468
    -9.2019  -2.7686  -2.4231  -1.9042  -1.6306  -1.3092  -1.0866  -0.7019
    -0.5956  -0.2339  -0.1902  -0.0492   0.0675   0.2498   0.2909   0.3308
     0.4795   0.5055   0.5336   0.7052   0.7282   0.8138   0.8506   0.8960
     0.9946   1.0223   1.0684   1.1012   1.2098   1.2684

          k =-0.0699 0.0404 0.0000 ( 29048 PWs)   bands (ev):

   -42.7374 -42.7258 -42.7161 -42.6308 -42.6289 -42.6094 -42.6064 -42.0867
   -42.0807 -42.0651 -42.0526 -41.4887 -22.7662 -22.7580 -22.7468 -22.7293
   -22.6779 -22.6763 -22.6525 -22.6447 -22.6445 -22.6334 -22.6147 -22.6095
   -22.6024 -22.6017 -22.5497 -22.5470 -22.5167 -22.5139 -22.4644 -22.3819
   -22.3819 -22.1715 -22.1440 -22.0507 -22.0352 -22.0124 -22.0115 -22.0038
   -21.9950 -21.9890 -21.9788 -21.8836 -21.8659 -21.5514 -21.5304 -21.3468
    -9.2019  -2.7118  -2.3853  -2.1906  -1.5586  -1.3349  -0.6851  -0.6688
    -0.5956  -0.4194  -0.2622  -0.2100   0.1088   0.2617   0.4403   0.4422
     0.4737   0.5210   0.5906   0.6117   0.7027   0.7606   0.8237   0.8813
     0.9021   1.0066   1.0198   1.2047   1.2092   1.2248

          k =-0.0699 0.0673 0.0000 ( 29098 PWs)   bands (ev):

   -42.7373 -42.7260 -42.7160 -42.6338 -42.6233 -42.6146 -42.6038 -42.0883
   -42.0772 -42.0679 -42.0519 -41.4887 -22.7661 -22.7490 -22.7429 -22.7294
   -22.6868 -22.6795 -22.6538 -22.6520 -22.6399 -22.6300 -22.6212 -22.6171
   -22.6036 -22.5995 -22.5592 -22.5585 -22.5045 -22.4766 -22.4572 -22.4080
   -22.3785 -22.1677 -22.1301 -22.0916 -22.0492 -22.0164 -22.0060 -21.9968
   -21.9880 -21.9786 -21.9465 -21.9017 -21.8688 -21.5478 -21.5339 -21.3468
    -9.2019  -2.7686  -2.4231  -1.9042  -1.6305  -1.3092  -1.0866  -0.7019
    -0.5956  -0.2339  -0.1903  -0.0492   0.0675   0.2499   0.2909   0.3307
     0.4795   0.5055   0.5336   0.7053   0.7282   0.8138   0.8506   0.8960
     0.9946   1.0223   1.0684   1.1013   1.2098   1.2685

          k =-0.0699 0.0942 0.0000 ( 29098 PWs)   bands (ev):

   -42.7370 -42.7266 -42.7157 -42.6338 -42.6233 -42.6146 -42.6038 -42.0883
   -42.0770 -42.0680 -42.0518 -41.4887 -22.7659 -22.7492 -22.7428 -22.7291
   -22.6871 -22.6795 -22.6538 -22.6520 -22.6401 -22.6302 -22.6210 -22.6170
   -22.6036 -22.5995 -22.5594 -22.5588 -22.5045 -22.4762 -22.4572 -22.4080
   -22.3785 -22.1678 -22.1299 -22.0916 -22.0493 -22.0165 -22.0058 -21.9969
   -21.9879 -21.9786 -21.9465 -21.9018 -21.8687 -21.5478 -21.5340 -21.3468
    -9.2019  -2.7686  -2.4231  -1.9042  -1.6306  -1.3092  -1.0866  -0.7019
    -0.5956  -0.2339  -0.1903  -0.0492   0.0675   0.2499   0.2910   0.3307
     0.4795   0.5055   0.5336   0.7053   0.7282   0.8138   0.8506   0.8959
     0.9946   1.0224   1.0684   1.1012   1.2097   1.2685

          k =-0.0699-0.0404 0.0000 ( 29048 PWs)   bands (ev):

   -42.7368 -42.7269 -42.7156 -42.6309 -42.6288 -42.6094 -42.6063 -42.0869
   -42.0804 -42.0653 -42.0526 -41.4887 -22.7657 -22.7575 -22.7477 -22.7287
   -22.6779 -22.6763 -22.6524 -22.6457 -22.6445 -22.6331 -22.6145 -22.6102
   -22.6027 -22.6015 -22.5498 -22.5469 -22.5168 -22.5139 -22.4638 -22.3820
   -22.3818 -22.1717 -22.1438 -22.0505 -22.0352 -22.0126 -22.0117 -22.0035
   -21.9949 -21.9892 -21.9788 -21.8838 -21.8657 -21.5514 -21.5305 -21.3468
    -9.2019  -2.7118  -2.3852  -2.1907  -1.5584  -1.3350  -0.6851  -0.6688
    -0.5955  -0.4195  -0.2621  -0.2100   0.1087   0.2617   0.4402   0.4423
     0.4738   0.5209   0.5907   0.6117   0.7027   0.7607   0.8238   0.8812
     0.9019   1.0066   1.0198   1.2046   1.2092   1.2248

     the Fermi energy is     0.7004 ev

!    total energy              =   -1136.89038571 Ry
     Harris-Foulkes estimate   =   -1136.89040238 Ry
     estimated scf accuracy    <       0.00000728 Ry

     The total energy is the sum of the following terms:

     one-electron contribution =   -5445.62416976 Ry
     hartree contribution      =    2715.61767246 Ry
     xc contribution           =    -343.08128839 Ry
     ewald contribution        =    1936.32252803 Ry
     electric field correction =       0.00029387 Ry
     smearing contrib. (-TS)   =      -0.12542193 Ry

     convergence has been achieved in  17 iterations
 
 BEEF-vdW xc energy contributions
           1 :   -299.132337078975     
           2 :    268.547318257186     
           3 :   -215.943788187415     
           4 :    154.277453242525     
           5 :   -95.5516033024019     
           6 :    47.2886132125577     
           7 :   -12.0248899908032     
           8 :   -10.9280430998579     
           9 :    23.2448125110707     
          10 :   -26.3492248582218     
          11 :    21.5367186117753     
          12 :   -10.8029342418276     
          13 :   -2.64631277968584     
          14 :    14.8425026688166     
          15 :   -22.3139728829227     
          16 :    23.3703867122088     
          17 :   -18.5846180835081     
          18 :    10.2035328893421     
          19 :  -0.949072881801044     
          20 :   -7.02076141254634     
          21 :    12.5059560977803     
          22 :   -15.0815327342857     
          23 :    14.7550901862174     
          24 :   -11.8249129497117     
          25 :    6.97028443348631     
          26 :   -1.33383339951422     
          27 :   -3.65862137205193     
          28 :    6.76129490705750     
          29 :   -7.40680786406898     
          30 :    5.91250810985883     
          31 :   -28.7435030107623     
          32 :   -19.6575498718424     

     Forces acting on atoms (Ry/au):


     negative rho (up, down):  1.546E-04 0.000E+00
     atom    1 type  1   force =    -0.00052345   -0.00022055    0.00516932
     atom    2 type  1   force =     0.00053067   -0.00007384    0.00517936
     atom    3 type  1   force =     0.00012513    0.00044023    0.00499388
     atom    4 type  1   force =    -0.00012438   -0.00016424    0.00575622
     atom    5 type  1   force =    -0.00018517    0.00816733   -0.00377554
     atom    6 type  1   force =     0.00016741   -0.00036445    0.00429559
     atom    7 type  1   force =    -0.00745040   -0.00374312   -0.00359275
     atom    8 type  1   force =     0.00746312   -0.00394981   -0.00349938
     atom    9 type  1   force =     0.00005279    0.00013909    0.02332838
     atom   10 type  1   force =    -0.00007363   -0.00002192    0.00665228
     atom   11 type  1   force =    -0.00015002   -0.00013580    0.00679021
     atom   12 type  1   force =     0.00015799   -0.00005746    0.00666552
     atom   13 type  2   force =     0.00000483   -0.00000596   -0.05789768
     atom   14 type  3   force =     0.00000510   -0.00000950   -0.00006540

     Total force =     0.063492     Total SCF correction =     0.002938


     entering subroutine stress ...


     negative rho (up, down):  1.546E-04 0.000E+00
          total   stress  (Ry/bohr**3)                   (kbar)     P=   -5.22
  -0.00002363  -0.00000000  -0.00000000         -3.48     -0.00     -0.00
  -0.00000000  -0.00002364   0.00000000         -0.00     -3.48      0.00
  -0.00000000   0.00000000  -0.00005916         -0.00      0.00     -8.70


     BFGS Geometry Optimization

     number of scf cycles    =   1
     number of bfgs steps    =   0

     energy   new            =   -1136.8903857147 Ry

     new trust radius        =       0.0578976827 bohr
     new conv_thr            =       0.0000099958 Ry


ATOMIC_POSITIONS (crystal)
Y1       0.166666667   0.166666667   0.386999750    0   0   0
Y1       0.666666667   0.166666667   0.386999750    0   0   0
Y1       0.166666667   0.666666667   0.386999750    0   0   0
Y1       0.666666667   0.666666667   0.386999750    0   0   0
Y1       0.833333333   0.333333333   0.500000000    0   0   0
Y1       0.333333333   0.333333333   0.500000000    0   0   0
Y1       0.833333333   0.833333333   0.500000000    0   0   0
Y1       0.333333333   0.833333333   0.500000000    0   0   0
Y1      -0.000002036   0.000011883   0.613477995
Y1       0.499995488  -0.000001872   0.613136483
Y1      -0.000005298   0.499988398   0.613139307
Y1       0.500014144   0.499995091   0.613136754
C1       0.000000612  -0.000000509   0.699315198
H1       0.000000784  -0.000000812   0.743069526



     Writing output data file calc.save
     Check: negative starting charge=   -0.000494
     NEW-OLD atomic charge density approx. for the potential
     Check: negative starting charge=   -0.000493

     negative rho (up, down):  1.391E-04 0.000E+00
 
     Adding external electric field

     Computed dipole along edir(3) : 
        Dipole               -0.4248 Ry au,         -1.0799 Debye
        Dipole field         -0.0007 Ry au
 
        Potential amp.        0.0658 Ry
        Total length         47.6094 bohr
 

     total cpu time spent up to now is      741.9 secs

     per-process dynamical memory:   108.3 Mb

     Self-consistent Calculation

     iteration #  1     ecut=    36.75 Ry     beta=0.30
     Davidson diagonalization with overlap
     ethr =  1.00E-06,  avg # of iterations =  5.2

     negative rho (up, down):  1.393E-04 0.000E+00
 
     Adding external electric field

     Computed dipole along edir(3) : 
        Dipole               -0.7659 Ry au,         -1.9466 Debye
        Dipole field         -0.0012 Ry au
 
        Potential amp.        0.1186 Ry
        Total length         47.6094 bohr
 

     total cpu time spent up to now is      780.3 secs

     total energy              =   -1136.88894526 Ry
     Harris-Foulkes estimate   =   -1136.89251309 Ry
     estimated scf accuracy    <       0.00884111 Ry

     iteration #  2     ecut=    36.75 Ry     beta=0.30
     Davidson diagonalization with overlap
     ethr =  6.45E-06,  avg # of iterations =  8.7

     negative rho (up, down):  1.433E-04 0.000E+00
 
     Adding external electric field

     Computed dipole along edir(3) : 
        Dipole               -0.4265 Ry au,         -1.0841 Debye
        Dipole field         -0.0007 Ry au
 
        Potential amp.        0.0661 Ry
        Total length         47.6094 bohr
 

     total cpu time spent up to now is      817.4 secs

     total energy              =   -1136.83302736 Ry
     Harris-Foulkes estimate   =   -1136.94547629 Ry
     estimated scf accuracy    <       5.71753365 Ry

     iteration #  3     ecut=    36.75 Ry     beta=0.30
     Davidson diagonalization with overlap
     ethr =  6.45E-06,  avg # of iterations =  8.2

     negative rho (up, down):  1.585E-04 0.000E+00
 
     Adding external electric field

     Computed dipole along edir(3) : 
        Dipole               -0.4302 Ry au,         -1.0935 Debye
        Dipole field         -0.0007 Ry au
 
        Potential amp.        0.0666 Ry
        Total length         47.6094 bohr
 

     total cpu time spent up to now is      854.0 secs

     total energy              =   -1136.89122294 Ry
     Harris-Foulkes estimate   =   -1136.89399187 Ry
     estimated scf accuracy    <       0.04453130 Ry

     iteration #  4     ecut=    36.75 Ry     beta=0.30
     Davidson diagonalization with overlap
     ethr =  6.45E-06,  avg # of iterations =  5.1

     negative rho (up, down):  1.625E-04 0.000E+00
 
     Adding external electric field

     Computed dipole along edir(3) : 
        Dipole               -0.4286 Ry au,         -1.0895 Debye
        Dipole field         -0.0007 Ry au
 
        Potential amp.        0.0664 Ry
        Total length         47.6094 bohr
 

     total cpu time spent up to now is      884.7 secs

     total energy              =   -1136.89259110 Ry
     Harris-Foulkes estimate   =   -1136.89284042 Ry
     estimated scf accuracy    <       0.00245034 Ry

     iteration #  5     ecut=    36.75 Ry     beta=0.30
     Davidson diagonalization with overlap
     ethr =  1.79E-06,  avg # of iterations =  6.3

     negative rho (up, down):  1.574E-04 0.000E+00
 
     Adding external electric field

     Computed dipole along edir(3) : 
        Dipole               -0.4372 Ry au,         -1.1111 Debye
        Dipole field         -0.0007 Ry au
 
        Potential amp.        0.0677 Ry
        Total length         47.6094 bohr
 

     total cpu time spent up to now is      915.3 secs

     total energy              =   -1136.89272434 Ry
     Harris-Foulkes estimate   =   -1136.89275952 Ry
     estimated scf accuracy    <       0.00031703 Ry

     iteration #  6     ecut=    36.75 Ry     beta=0.30
     Davidson diagonalization with overlap
     ethr =  2.31E-07,  avg # of iterations =  6.7

     negative rho (up, down):  1.487E-04 0.000E+00
 
     Adding external electric field

     Computed dipole along edir(3) : 
        Dipole               -0.4372 Ry au,         -1.1112 Debye
        Dipole field         -0.0007 Ry au
 
        Potential amp.        0.0677 Ry
        Total length         47.6094 bohr
 

     total cpu time spent up to now is      948.2 secs

     total energy              =   -1136.89276357 Ry
     Harris-Foulkes estimate   =   -1136.89277914 Ry
     estimated scf accuracy    <       0.00011090 Ry

     iteration #  7     ecut=    36.75 Ry     beta=0.30
     Davidson diagonalization with overlap
     ethr =  8.10E-08,  avg # of iterations =  4.8

     negative rho (up, down):  1.479E-04 0.000E+00
 
     Adding external electric field

     Computed dipole along edir(3) : 
        Dipole               -0.4389 Ry au,         -1.1156 Debye
        Dipole field         -0.0007 Ry au
 
        Potential amp.        0.0680 Ry
        Total length         47.6094 bohr
 

     total cpu time spent up to now is      979.2 secs

     total energy              =   -1136.89277433 Ry
     Harris-Foulkes estimate   =   -1136.89277217 Ry
     estimated scf accuracy    <       0.00004099 Ry

     iteration #  8     ecut=    36.75 Ry     beta=0.30
     Davidson diagonalization with overlap
     ethr =  2.99E-08,  avg # of iterations =  4.3

     negative rho (up, down):  1.489E-04 0.000E+00
 
     Adding external electric field

     Computed dipole along edir(3) : 
        Dipole               -0.4395 Ry au,         -1.1171 Debye
        Dipole field         -0.0007 Ry au
 
        Potential amp.        0.0681 Ry
        Total length         47.6094 bohr
 

     total cpu time spent up to now is     1008.3 secs

     total energy              =   -1136.89277727 Ry
     Harris-Foulkes estimate   =   -1136.89277606 Ry
     estimated scf accuracy    <       0.00001086 Ry

     iteration #  9     ecut=    36.75 Ry     beta=0.30
     Davidson diagonalization with overlap
     ethr =  7.93E-09,  avg # of iterations =  7.9

     negative rho (up, down):  1.516E-04 0.000E+00

     negative rho (up, down):  1.516E-04 0.000E+00

     negative rho (up, down):  1.516E-04 0.000E+00

     negative rho (up, down):  1.516E-04 0.000E+00

     negative rho (up, down):  1.516E-04 0.000E+00

     negative rho (up, down):  1.516E-04 0.000E+00

     negative rho (up, down):  1.516E-04 0.000E+00

     negative rho (up, down):  1.516E-04 0.000E+00

     negative rho (up, down):  1.516E-04 0.000E+00

     negative rho (up, down):  1.516E-04 0.000E+00

     negative rho (up, down):  1.516E-04 0.000E+00

     negative rho (up, down):  1.516E-04 0.000E+00

     negative rho (up, down):  1.516E-04 0.000E+00

     negative rho (up, down):  1.516E-04 0.000E+00

     negative rho (up, down):  1.516E-04 0.000E+00

     negative rho (up, down):  1.516E-04 0.000E+00

     negative rho (up, down):  1.516E-04 0.000E+00

     negative rho (up, down):  1.516E-04 0.000E+00

     negative rho (up, down):  1.516E-04 0.000E+00

     negative rho (up, down):  1.516E-04 0.000E+00

     negative rho (up, down):  1.516E-04 0.000E+00

     negative rho (up, down):  1.516E-04 0.000E+00

     negative rho (up, down):  1.516E-04 0.000E+00

     negative rho (up, down):  1.516E-04 0.000E+00

     negative rho (up, down):  1.516E-04 0.000E+00

     negative rho (up, down):  1.516E-04 0.000E+00

     negative rho (up, down):  1.516E-04 0.000E+00

     negative rho (up, down):  1.516E-04 0.000E+00

     negative rho (up, down):  1.516E-04 0.000E+00

     negative rho (up, down):  1.516E-04 0.000E+00

     negative rho (up, down):  1.516E-04 0.000E+00

     negative rho (up, down):  1.516E-04 0.000E+00

     negative rho (up, down):  1.516E-04 0.000E+00

     negative rho (up, down):  1.516E-04 0.000E+00

     negative rho (up, down):  1.516E-04 0.000E+00
 
     Adding external electric field

     Computed dipole along edir(3) : 
        Dipole               -0.4325 Ry au,         -1.0994 Debye
        Dipole field         -0.0007 Ry au
 
        Potential amp.        0.0670 Ry
        Total length         47.6094 bohr
 

     total cpu time spent up to now is     1125.9 secs

     End of self-consistent calculation

          k = 0.0000 0.0000 0.0000 ( 28997 PWs)   bands (ev):

   -42.7551 -42.7232 -42.7229 -42.6536 -42.6132 -42.6123 -42.6057 -42.1144
   -42.0759 -42.0756 -42.0561 -41.4112 -22.8368 -22.7950 -22.7610 -22.7606
   -22.7568 -22.7433 -22.7431 -22.7384 -22.7381 -22.6816 -22.6151 -22.6142
   -22.6080 -22.5361 -22.4586 -22.4584 -22.4367 -22.4321 -22.4317 -22.3344
   -22.3344 -22.2591 -22.2270 -22.2269 -22.0399 -22.0059 -22.0057 -21.9858
   -21.9335 -21.9333 -21.9316 -21.8328 -21.8328 -21.4563 -21.4562 -21.2955
    -9.0070  -3.6020  -2.7762  -2.2355  -1.5731  -0.9067  -0.9067  -0.8634
    -0.7848  -0.7847  -0.7674  -0.4450  -0.4450  -0.3936  -0.0074  -0.0074
     0.0453   0.1907   0.1908   0.4290   0.7784   0.7784   0.8838   1.3011
     1.3623   1.4062   1.4063   1.5094   1.7417   1.8971

          k = 0.0000 0.0269 0.0000 ( 29019 PWs)   bands (ev):

   -42.7532 -42.7250 -42.7230 -42.6508 -42.6145 -42.6132 -42.6063 -42.1117
   -42.0779 -42.0756 -42.0568 -41.4113 -22.8183 -22.7908 -22.7457 -22.7455
   -22.7420 -22.7372 -22.7363 -22.7281 -22.7268 -22.6772 -22.6177 -22.6148
   -22.6079 -22.5458 -22.4820 -22.4625 -22.4523 -22.4485 -22.4268 -22.3644
   -22.3411 -22.2423 -22.2129 -22.2059 -22.0370 -22.0081 -22.0055 -21.9854
   -21.9491 -21.9482 -21.9265 -21.8612 -21.8394 -21.4633 -21.4584 -21.2953
    -9.0067  -3.4580  -2.6800  -2.1852  -1.4306  -1.1165  -0.8579  -0.8472
    -0.7916  -0.6900  -0.6617  -0.3444  -0.3089  -0.2559   0.0563   0.0713
     0.1235   0.2296   0.2334   0.4716   0.7535   0.7827   0.8970   1.2213
     1.2458   1.3286   1.3293   1.4476   1.6668   1.7744

          k = 0.0000 0.0538 0.0000 ( 29058 PWs)   bands (ev):

   -42.7482 -42.7299 -42.7230 -42.6432 -42.6216 -42.6133 -42.6069 -42.1045
   -42.0839 -42.0757 -42.0581 -41.4114 -22.7818 -22.7791 -22.7483 -22.7367
   -22.7063 -22.7060 -22.7033 -22.6894 -22.6650 -22.6561 -22.6279 -22.6145
   -22.6069 -22.5771 -22.5449 -22.4931 -22.4886 -22.4684 -22.4446 -22.4090
   -22.3594 -22.2045 -22.1772 -22.1423 -22.0305 -22.0152 -22.0074 -21.9857
   -21.9852 -21.9845 -21.9365 -21.9097 -21.8568 -21.4775 -21.4626 -21.2948
    -9.0059  -3.0613  -2.5121  -1.9677  -1.6357  -1.0712  -0.9445  -0.7496
    -0.7207  -0.4425  -0.4097  -0.2526  -0.0188   0.1054   0.1888   0.2588
     0.3360   0.3642   0.3779   0.5719   0.7850   0.7940   0.8323   1.0511
     1.0694   1.0803   1.1458   1.1754   1.4529   1.4699

          k = 0.0000-0.0807 0.0000 ( 29048 PWs)   bands (ev):

   -42.7442 -42.7339 -42.7230 -42.6347 -42.6300 -42.6133 -42.6071 -42.0972
   -42.0908 -42.0757 -42.0586 -41.4114 -22.7727 -22.7641 -22.7544 -22.7358
   -22.6801 -22.6792 -22.6574 -22.6515 -22.6463 -22.6392 -22.6200 -22.6147
   -22.6074 -22.6048 -22.5534 -22.5482 -22.5205 -22.5151 -22.4704 -22.3857
   -22.3829 -22.1808 -22.1517 -22.0599 -22.0449 -22.0214 -22.0212 -22.0121
   -22.0013 -21.9984 -21.9841 -21.8934 -21.8733 -21.4847 -21.4648 -21.2946
    -9.0055  -2.6880  -2.3881  -2.1811  -1.5616  -1.3340  -0.6875  -0.6693
    -0.6012  -0.4221  -0.2643  -0.2096   0.0858   0.2438   0.4377   0.4385
     0.4709   0.5220   0.5878   0.6076   0.7005   0.7573   0.8210   0.8770
     0.9037   1.0029   1.0162   1.2012   1.2063   1.2209

          k = 0.0233-0.0135 0.0000 ( 29019 PWs)   bands (ev):

   -42.7532 -42.7248 -42.7232 -42.6508 -42.6152 -42.6124 -42.6065 -42.1117
   -42.0778 -42.0757 -42.0568 -41.4113 -22.8183 -22.7909 -22.7460 -22.7452
   -22.7418 -22.7375 -22.7362 -22.7280 -22.7268 -22.6772 -22.6182 -22.6141
   -22.6081 -22.5458 -22.4818 -22.4627 -22.4520 -22.4489 -22.4267 -22.3644
   -22.3411 -22.2423 -22.2128 -22.2059 -22.0370 -22.0080 -22.0056 -21.9854
   -21.9491 -21.9482 -21.9265 -21.8612 -21.8394 -21.4633 -21.4584 -21.2953
    -9.0067  -3.4580  -2.6800  -2.1852  -1.4306  -1.1165  -0.8580  -0.8472
    -0.7916  -0.6900  -0.6617  -0.3443  -0.3089  -0.2559   0.0562   0.0713
     0.1235   0.2295   0.2335   0.4716   0.7536   0.7827   0.8970   1.2214
     1.2458   1.3285   1.3294   1.4476   1.6668   1.7743

          k = 0.0233 0.0135 0.0000 ( 29019 PWs)   bands (ev):

   -42.7532 -42.7251 -42.7230 -42.6508 -42.6151 -42.6125 -42.6065 -42.1117
   -42.0776 -42.0759 -42.0568 -41.4113 -22.8183 -22.7908 -22.7460 -22.7452
   -22.7419 -22.7372 -22.7362 -22.7282 -22.7268 -22.6772 -22.6182 -22.6142
   -22.6081 -22.5458 -22.4820 -22.4625 -22.4521 -22.4488 -22.4267 -22.3644
   -22.3411 -22.2423 -22.2127 -22.2060 -22.0370 -22.0079 -22.0057 -21.9854
   -21.9490 -21.9483 -21.9265 -21.8613 -21.8393 -21.4633 -21.4584 -21.2953
    -9.0067  -3.4580  -2.6800  -2.1852  -1.4306  -1.1165  -0.8580  -0.8472
    -0.7916  -0.6899  -0.6617  -0.3443  -0.3090  -0.2559   0.0562   0.0713
     0.1234   0.2295   0.2335   0.4716   0.7536   0.7827   0.8970   1.2214
     1.2458   1.3285   1.3294   1.4476   1.6668   1.7743

          k = 0.0233 0.0404 0.0000 ( 29087 PWs)   bands (ev):

   -42.7497 -42.7286 -42.7229 -42.6455 -42.6179 -42.6153 -42.6062 -42.1067
   -42.0811 -42.0766 -42.0577 -41.4114 -22.7876 -22.7831 -22.7462 -22.7374
   -22.7250 -22.7224 -22.7008 -22.6929 -22.6904 -22.6689 -22.6223 -22.6187
   -22.6057 -22.5706 -22.5160 -22.5024 -22.4727 -22.4370 -22.4346 -22.4178
   -22.3552 -22.2152 -22.1793 -22.1708 -22.0324 -22.0147 -22.0058 -21.9945
   -21.9847 -21.9361 -21.9351 -21.9104 -21.8531 -21.4727 -21.4628 -21.2949
    -9.0061  -3.1861  -2.5497  -2.0413  -1.2824  -1.2559  -1.1361  -0.7919
    -0.7113  -0.4945  -0.3960  -0.1995  -0.1479  -0.0195   0.1682   0.1730
     0.2748   0.3185   0.3304   0.5516   0.7516   0.8069   0.8739   1.0876
     1.0989   1.1527   1.2612   1.2745   1.4436   1.5664

          k = 0.0233-0.0942 0.0000 ( 29098 PWs)   bands (ev):

   -42.7443 -42.7339 -42.7230 -42.6367 -42.6254 -42.6175 -42.6054 -42.0986
   -42.0877 -42.0778 -42.0582 -41.4114 -22.7727 -22.7560 -22.7493 -22.7361
   -22.6934 -22.6823 -22.6567 -22.6552 -22.6447 -22.6340 -22.6277 -22.6204
   -22.6062 -22.6017 -22.5656 -22.5615 -22.5069 -22.4825 -22.4596 -22.4104
   -22.3808 -22.1768 -22.1381 -22.1006 -22.0581 -22.0251 -22.0150 -22.0059
   -21.9967 -21.9840 -21.9548 -21.9107 -21.8768 -21.4813 -21.4681 -21.2946
    -9.0056  -2.7532  -2.4083  -1.9051  -1.6319  -1.3106  -1.0865  -0.7053
    -0.5973  -0.2396  -0.1926  -0.0503   0.0526   0.2360   0.2838   0.3261
     0.4777   0.5035   0.5301   0.7016   0.7247   0.8119   0.8472   0.8942
     0.9915   1.0174   1.0664   1.0991   1.2064   1.2651

          k = 0.0233-0.0673 0.0000 ( 29098 PWs)   bands (ev):

   -42.7443 -42.7337 -42.7231 -42.6367 -42.6254 -42.6175 -42.6054 -42.0985
   -42.0878 -42.0777 -42.0582 -41.4114 -22.7728 -22.7559 -22.7493 -22.7361
   -22.6936 -22.6823 -22.6567 -22.6552 -22.6446 -22.6340 -22.6274 -22.6204
   -22.6062 -22.6017 -22.5658 -22.5615 -22.5069 -22.4826 -22.4596 -22.4104
   -22.3808 -22.1768 -22.1381 -22.1006 -22.0582 -22.0251 -22.0150 -22.0059
   -21.9966 -21.9840 -21.9548 -21.9107 -21.8768 -21.4813 -21.4681 -21.2946
    -9.0056  -2.7532  -2.4083  -1.9051  -1.6319  -1.3106  -1.0865  -0.7053
    -0.5973  -0.2396  -0.1926  -0.0503   0.0526   0.2360   0.2839   0.3261
     0.4778   0.5035   0.5301   0.7016   0.7247   0.8119   0.8472   0.8942
     0.9915   1.0174   1.0664   1.0991   1.2064   1.2651

          k = 0.0233-0.0404 0.0000 ( 29087 PWs)   bands (ev):

   -42.7497 -42.7283 -42.7232 -42.6455 -42.6180 -42.6152 -42.6063 -42.1067
   -42.0813 -42.0764 -42.0577 -41.4114 -22.7876 -22.7832 -22.7460 -22.7375
   -22.7251 -22.7224 -22.7006 -22.6929 -22.6904 -22.6689 -22.6224 -22.6186
   -22.6057 -22.5705 -22.5160 -22.5024 -22.4729 -22.4370 -22.4346 -22.4178
   -22.3552 -22.2151 -22.1794 -22.1707 -22.0324 -22.0148 -22.0056 -21.9945
   -21.9847 -21.9361 -21.9351 -21.9104 -21.8531 -21.4727 -21.4628 -21.2949
    -9.0061  -3.1861  -2.5497  -2.0413  -1.2823  -1.2559  -1.1361  -0.7919
    -0.7113  -0.4945  -0.3960  -0.1995  -0.1479  -0.0195   0.1682   0.1731
     0.2748   0.3185   0.3304   0.5516   0.7516   0.8069   0.8739   1.0876
     1.0989   1.1527   1.2612   1.2745   1.4436   1.5663

          k = 0.0466-0.0269 0.0000 ( 29058 PWs)   bands (ev):

   -42.7483 -42.7296 -42.7232 -42.6431 -42.6221 -42.6124 -42.6074 -42.1045
   -42.0839 -42.0757 -42.0581 -41.4114 -22.7819 -22.7792 -22.7480 -22.7369
   -22.7065 -22.7060 -22.7030 -22.6893 -22.6650 -22.6561 -22.6282 -22.6138
   -22.6073 -22.5771 -22.5447 -22.4926 -22.4892 -22.4687 -22.4446 -22.4089
   -22.3594 -22.2046 -22.1772 -22.1423 -22.0305 -22.0151 -22.0075 -21.9857
   -21.9852 -21.9845 -21.9365 -21.9097 -21.8567 -21.4776 -21.4626 -21.2948
    -9.0059  -3.0613  -2.5121  -1.9677  -1.6357  -1.0711  -0.9445  -0.7497
    -0.7207  -0.4424  -0.4097  -0.2526  -0.0188   0.1055   0.1888   0.2588
     0.3360   0.3642   0.3779   0.5720   0.7851   0.7940   0.8323   1.0512
     1.0692   1.0803   1.1458   1.1754   1.4529   1.4699

          k = 0.0466 0.0000 0.0000 ( 29087 PWs)   bands (ev):

   -42.7497 -42.7283 -42.7231 -42.6455 -42.6186 -42.6143 -42.6065 -42.1067
   -42.0810 -42.0767 -42.0577 -41.4114 -22.7876 -22.7832 -22.7460 -22.7375
   -22.7251 -22.7225 -22.7006 -22.6927 -22.6906 -22.6689 -22.6230 -22.6179
   -22.6059 -22.5705 -22.5160 -22.5024 -22.4728 -22.4372 -22.4344 -22.4179
   -22.3553 -22.2152 -22.1793 -22.1708 -22.0324 -22.0146 -22.0058 -21.9944
   -21.9847 -21.9362 -21.9351 -21.9104 -21.8531 -21.4727 -21.4628 -21.2949
    -9.0061  -3.1861  -2.5497  -2.0413  -1.2823  -1.2560  -1.1361  -0.7919
    -0.7113  -0.4945  -0.3960  -0.1995  -0.1479  -0.0195   0.1682   0.1731
     0.2748   0.3185   0.3304   0.5516   0.7516   0.8068   0.8739   1.0876
     1.0989   1.1527   1.2612   1.2746   1.4436   1.5663

          k = 0.0466 0.0269 0.0000 ( 29058 PWs)   bands (ev):

   -42.7482 -42.7300 -42.7230 -42.6431 -42.6220 -42.6125 -42.6073 -42.1045
   -42.0837 -42.0759 -42.0581 -41.4114 -22.7818 -22.7791 -22.7484 -22.7367
   -22.7064 -22.7060 -22.7030 -22.6895 -22.6650 -22.6561 -22.6281 -22.6139
   -22.6073 -22.5771 -22.5449 -22.4926 -22.4891 -22.4684 -22.4446 -22.4089
   -22.3594 -22.2047 -22.1770 -22.1423 -22.0306 -22.0150 -22.0077 -21.9855
   -21.9853 -21.9845 -21.9365 -21.9098 -21.8567 -21.4775 -21.4626 -21.2948
    -9.0059  -3.0613  -2.5121  -1.9677  -1.6357  -1.0711  -0.9445  -0.7497
    -0.7207  -0.4424  -0.4098  -0.2526  -0.0188   0.1055   0.1888   0.2588
     0.3360   0.3642   0.3779   0.5720   0.7851   0.7940   0.8323   1.0512
     1.0692   1.0803   1.1458   1.1754   1.4529   1.4699

          k = 0.0466-0.1076 0.0000 ( 29098 PWs)   bands (ev):

   -42.7442 -42.7339 -42.7230 -42.6366 -42.6258 -42.6172 -42.6055 -42.0986
   -42.0875 -42.0779 -42.0581 -41.4114 -22.7727 -22.7560 -22.7493 -22.7361
   -22.6934 -22.6822 -22.6568 -22.6551 -22.6449 -22.6342 -22.6276 -22.6202
   -22.6063 -22.6017 -22.5656 -22.5615 -22.5070 -22.4825 -22.4596 -22.4104
   -22.3809 -22.1769 -22.1380 -22.1005 -22.0582 -22.0252 -22.0148 -22.0061
   -21.9966 -21.9840 -21.9548 -21.9109 -21.8767 -21.4813 -21.4681 -21.2946
    -9.0056  -2.7532  -2.4083  -1.9051  -1.6320  -1.3106  -1.0865  -0.7054
    -0.5973  -0.2397  -0.1926  -0.0503   0.0527   0.2360   0.2838   0.3262
     0.4777   0.5035   0.5301   0.7016   0.7247   0.8118   0.8472   0.8941
     0.9915   1.0174   1.0664   1.0991   1.2064   1.2651

          k = 0.0466-0.0807 0.0000 ( 29103 PWs)   bands (ev):

   -42.7392 -42.7388 -42.7231 -42.6293 -42.6284 -42.6230 -42.6043 -42.0922
   -42.0916 -42.0805 -42.0579 -41.4115 -22.7634 -22.7628 -22.7361 -22.7016
   -22.6962 -22.6848 -22.6431 -22.6407 -22.6344 -22.6334 -22.6271 -22.6002
   -22.5909 -22.5890 -22.5837 -22.5810 -22.5798 -22.4991 -22.4188 -22.4184
   -22.4180 -22.1343 -22.1219 -22.0766 -22.0722 -22.0699 -22.0186 -22.0139
   -22.0076 -21.9837 -21.9292 -21.9093 -21.9089 -21.4770 -21.4769 -21.2945
    -9.0054  -2.6148  -2.0240  -2.0188  -1.8609  -1.2152  -1.2107  -0.9479
    -0.2731  -0.2665  -0.0212   0.1504   0.1970   0.2024   0.2684   0.2859
     0.6146   0.6238   0.6270   0.6529   0.7080   0.8699   0.8729   0.8933
     0.9412   0.9525   1.0191   1.0456   1.1523   1.1557

          k = 0.0466-0.0538 0.0000 ( 29098 PWs)   bands (ev):

   -42.7444 -42.7335 -42.7232 -42.6366 -42.6258 -42.6171 -42.6055 -42.0986
   -42.0877 -42.0778 -42.0582 -41.4114 -22.7729 -22.7558 -22.7494 -22.7363
   -22.6934 -22.6822 -22.6567 -22.6550 -22.6447 -22.6341 -22.6275 -22.6201
   -22.6063 -22.6017 -22.5656 -22.5615 -22.5070 -22.4827 -22.4596 -22.4104
   -22.3809 -22.1768 -22.1381 -22.1005 -22.0582 -22.0251 -22.0149 -22.0060
   -21.9966 -21.9840 -21.9548 -21.9108 -21.8768 -21.4813 -21.4681 -21.2946
    -9.0056  -2.7532  -2.4083  -1.9051  -1.6320  -1.3106  -1.0865  -0.7054
    -0.5973  -0.2396  -0.1926  -0.0504   0.0527   0.2360   0.2838   0.3262
     0.4777   0.5035   0.5301   0.7016   0.7247   0.8119   0.8472   0.8941
     0.9915   1.0174   1.0664   1.0991   1.2064   1.2651

          k =-0.0699 0.0404 0.0000 ( 29048 PWs)   bands (ev):

   -42.7445 -42.7334 -42.7232 -42.6339 -42.6310 -42.6124 -42.6076 -42.0972
   -42.0906 -42.0757 -42.0586 -41.4114 -22.7729 -22.7643 -22.7540 -22.7360
   -22.6799 -22.6794 -22.6571 -22.6511 -22.6471 -22.6391 -22.6198 -22.6144
   -22.6071 -22.6052 -22.5527 -22.5490 -22.5198 -22.5157 -22.4706 -22.3850
   -22.3836 -22.1809 -22.1516 -22.0598 -22.0450 -22.0215 -22.0213 -22.0120
   -22.0012 -21.9985 -21.9841 -21.8935 -21.8732 -21.4847 -21.4647 -21.2946
    -9.0055  -2.6880  -2.3882  -2.1810  -1.5618  -1.3339  -0.6875  -0.6693
    -0.6013  -0.4221  -0.2643  -0.2096   0.0859   0.2438   0.4378   0.4384
     0.4709   0.5219   0.5878   0.6076   0.7006   0.7572   0.8211   0.8770
     0.9036   1.0028   1.0162   1.2011   1.2063   1.2210

          k =-0.0699 0.0673 0.0000 ( 29098 PWs)   bands (ev):

   -42.7444 -42.7335 -42.7232 -42.6365 -42.6260 -42.6169 -42.6056 -42.0986
   -42.0876 -42.0779 -42.0582 -41.4114 -22.7729 -22.7558 -22.7494 -22.7362
   -22.6934 -22.6823 -22.6567 -22.6551 -22.6448 -22.6342 -22.6274 -22.6201
   -22.6062 -22.6018 -22.5656 -22.5615 -22.5069 -22.4827 -22.4596 -22.4104
   -22.3809 -22.1768 -22.1381 -22.1006 -22.0580 -22.0252 -22.0149 -22.0060
   -21.9966 -21.9840 -21.9548 -21.9108 -21.8768 -21.4813 -21.4681 -21.2946
    -9.0056  -2.7532  -2.4083  -1.9051  -1.6320  -1.3106  -1.0865  -0.7053
    -0.5973  -0.2396  -0.1926  -0.0503   0.0527   0.2360   0.2838   0.3262
     0.4777   0.5034   0.5301   0.7016   0.7247   0.8119   0.8472   0.8941
     0.9914   1.0174   1.0664   1.0992   1.2063   1.2651

          k =-0.0699 0.0942 0.0000 ( 29098 PWs)   bands (ev):

   -42.7443 -42.7338 -42.7231 -42.6365 -42.6260 -42.6169 -42.6056 -42.0987
   -42.0875 -42.0780 -42.0581 -41.4114 -22.7728 -22.7559 -22.7493 -22.7361
   -22.6936 -22.6823 -22.6567 -22.6551 -22.6449 -22.6342 -22.6272 -22.6202
   -22.6062 -22.6018 -22.5657 -22.5615 -22.5069 -22.4826 -22.4596 -22.4104
   -22.3809 -22.1769 -22.1380 -22.1005 -22.0581 -22.0252 -22.0148 -22.0061
   -21.9966 -21.9840 -21.9548 -21.9109 -21.8767 -21.4813 -21.4681 -21.2946
    -9.0056  -2.7532  -2.4083  -1.9051  -1.6320  -1.3106  -1.0865  -0.7053
    -0.5973  -0.2396  -0.1926  -0.0503   0.0527   0.2360   0.2838   0.3262
     0.4778   0.5034   0.5301   0.7017   0.7247   0.8119   0.8472   0.8941
     0.9914   1.0174   1.0664   1.0992   1.2063   1.2651

          k =-0.0699-0.0404 0.0000 ( 29048 PWs)   bands (ev):

   -42.7442 -42.7340 -42.7230 -42.6340 -42.6309 -42.6125 -42.6075 -42.0974
   -42.0903 -42.0759 -42.0586 -41.4114 -22.7726 -22.7640 -22.7544 -22.7358
   -22.6798 -22.6795 -22.6570 -22.6516 -22.6470 -22.6389 -22.6197 -22.6148
   -22.6070 -22.6052 -22.5528 -22.5489 -22.5199 -22.5156 -22.4704 -22.3851
   -22.3835 -22.1811 -22.1515 -22.0597 -22.0450 -22.0216 -22.0215 -22.0117
   -22.0012 -21.9986 -21.9841 -21.8937 -21.8731 -21.4847 -21.4647 -21.2946
    -9.0055  -2.6881  -2.3881  -2.1811  -1.5617  -1.3340  -0.6875  -0.6693
    -0.6013  -0.4221  -0.2642  -0.2097   0.0858   0.2438   0.4378   0.4384
     0.4710   0.5219   0.5878   0.6076   0.7006   0.7573   0.8211   0.8770
     0.9035   1.0028   1.0162   1.2011   1.2063   1.2210

     the Fermi energy is     0.6970 ev

!    total energy              =   -1136.89277656 Ry
     Harris-Foulkes estimate   =   -1136.89278799 Ry
     estimated scf accuracy    <       0.00000223 Ry

     The total energy is the sum of the following terms:

     one-electron contribution =   -5444.46586731 Ry
     hartree contribution      =    2715.03081661 Ry
     xc contribution           =    -343.07913352 Ry
     ewald contribution        =    1935.74605627 Ry
     electric field correction =       0.00030431 Ry
     smearing contrib. (-TS)   =      -0.12495293 Ry

     convergence has been achieved in   9 iterations
 
 BEEF-vdW xc energy contributions
           1 :   -299.132270179475     
           2 :    268.552108545010     
           3 :   -215.955198508944     
           4 :    154.293293936379     
           5 :   -95.5669362549886     
           6 :    47.2978505930305     
           7 :   -12.0243952533108     
           8 :   -10.9378134142426     
           9 :    23.2592660791164     
          10 :   -26.3620687601483     
          11 :    21.5433791724017     
          12 :   -10.8030960223782     
          13 :   -2.64842195388729     
          14 :    14.8410191037530     
          15 :   -22.3060600157638     
          16 :    23.3584188896121     
          17 :   -18.5743388098305     
          18 :    10.2002161675896     
          19 :  -0.953891501500777     
          20 :   -7.01164216748742     
          21 :    12.4986924769847     
          22 :   -15.0807024483518     
          23 :    14.7615402105375     
          24 :   -11.8367351118776     
          25 :    6.98563221495658     
          26 :   -1.35279255890362     
          27 :   -3.63478887820611     
          28 :    6.73281737721982     
          29 :   -7.37721978004004     
          30 :    5.88753465680281     
          31 :   -28.7436318966235     
          32 :   -19.6586488272788     

     Forces acting on atoms (Ry/au):


     negative rho (up, down):  1.516E-04 0.000E+00
     atom    1 type  1   force =    -0.00063136   -0.00035101    0.00522159
     atom    2 type  1   force =     0.00062913   -0.00031272    0.00521333
     atom    3 type  1   force =     0.00003117    0.00070687    0.00520705
     atom    4 type  1   force =    -0.00004220   -0.00002794    0.00594993
     atom    5 type  1   force =    -0.00004531    0.00829648   -0.00338534
     atom    6 type  1   force =     0.00005309   -0.00009958    0.00442178
     atom    7 type  1   force =    -0.00725726   -0.00407165   -0.00332067
     atom    8 type  1   force =     0.00726288   -0.00412498   -0.00328665
     atom    9 type  1   force =     0.00001214    0.00001480    0.00607253
     atom   10 type  1   force =    -0.00001455   -0.00002796    0.00676989
     atom   11 type  1   force =    -0.00002550   -0.00001416    0.00679284
     atom   12 type  1   force =     0.00002993    0.00000431    0.00673419
     atom   13 type  2   force =    -0.00000059    0.00000775   -0.00749842
     atom   14 type  3   force =    -0.00000156   -0.00000022   -0.03489205

     Total force =     0.038051     Total SCF correction =     0.001417


     entering subroutine stress ...


     negative rho (up, down):  1.516E-04 0.000E+00
          total   stress  (Ry/bohr**3)                   (kbar)     P=   -5.40
  -0.00002409  -0.00000000   0.00000000         -3.54     -0.00      0.00
  -0.00000000  -0.00002409   0.00000000         -0.00     -3.54      0.00
   0.00000000   0.00000000  -0.00006188          0.00      0.00     -9.10


     number of scf cycles    =   2
     number of bfgs steps    =   1

     energy   old            =   -1136.8903857147 Ry
     energy   new            =   -1136.8927765621 Ry

     CASE: energy  _new < energy  _old

     new trust radius        =       0.0424357179 bohr
     new conv_thr            =       0.0000001000 Ry


ATOMIC_POSITIONS (crystal)
Y1       0.166666667   0.166666667   0.386999750    0   0   0
Y1       0.666666667   0.166666667   0.386999750    0   0   0
Y1       0.166666667   0.666666667   0.386999750    0   0   0
Y1       0.666666667   0.666666667   0.386999750    0   0   0
Y1       0.833333333   0.333333333   0.500000000    0   0   0
Y1       0.333333333   0.333333333   0.500000000    0   0   0
Y1       0.833333333   0.833333333   0.500000000    0   0   0
Y1       0.333333333   0.833333333   0.500000000    0   0   0
Y1      -0.000002698   0.000019173   0.613860412
Y1       0.499993447  -0.000005682   0.613370925
Y1      -0.000009422   0.499981312   0.613375688
Y1       0.500023458   0.499993161   0.613370439
C1       0.000000453   0.000000048   0.698554565
H1       0.000001034  -0.000001227   0.742200479



     Writing output data file calc.save
     Check: negative starting charge=   -0.000493
     NEW-OLD atomic charge density approx. for the potential
     Check: negative starting charge=   -0.000493

     negative rho (up, down):  1.492E-04 0.000E+00
 
     Adding external electric field

     Computed dipole along edir(3) : 
        Dipole               -0.4323 Ry au,         -1.0988 Debye
        Dipole field         -0.0007 Ry au
 
        Potential amp.        0.0670 Ry
        Total length         47.6094 bohr
 

     total cpu time spent up to now is     1232.1 secs

     per-process dynamical memory:   108.3 Mb

     Self-consistent Calculation

     iteration #  1     ecut=    36.75 Ry     beta=0.30
     Davidson diagonalization with overlap
     ethr =  1.00E-06,  avg # of iterations =  5.1

     negative rho (up, down):  1.491E-04 0.000E+00
 
     Adding external electric field

     Computed dipole along edir(3) : 
        Dipole               -0.8021 Ry au,         -2.0388 Debye
        Dipole field         -0.0013 Ry au
 
        Potential amp.        0.1242 Ry
        Total length         47.6094 bohr
 

     total cpu time spent up to now is     1271.0 secs

     total energy              =   -1136.88944710 Ry
     Harris-Foulkes estimate   =   -1136.89426743 Ry
     estimated scf accuracy    <       0.01145275 Ry

     iteration #  2     ecut=    36.75 Ry     beta=0.30
     Davidson diagonalization with overlap
     ethr =  8.36E-06,  avg # of iterations =  8.4

     negative rho (up, down):  1.447E-04 0.000E+00
 
     Adding external electric field

     Computed dipole along edir(3) : 
        Dipole               -0.4230 Ry au,         -1.0751 Debye
        Dipole field         -0.0007 Ry au
 
        Potential amp.        0.0655 Ry
        Total length         47.6094 bohr
 

     total cpu time spent up to now is     1307.3 secs

     total energy              =   -1136.82167792 Ry
     Harris-Foulkes estimate   =   -1136.95704211 Ry
     estimated scf accuracy    <       6.64598127 Ry

     iteration #  3     ecut=    36.75 Ry     beta=0.30
     Davidson diagonalization with overlap
     ethr =  8.36E-06,  avg # of iterations =  8.2

     negative rho (up, down):  1.518E-04 0.000E+00
 
     Adding external electric field

     Computed dipole along edir(3) : 
        Dipole               -0.4343 Ry au,         -1.1040 Debye
        Dipole field         -0.0007 Ry au
 
        Potential amp.        0.0673 Ry
        Total length         47.6094 bohr
 

     total cpu time spent up to now is     1343.7 secs

     total energy              =   -1136.89137575 Ry
     Harris-Foulkes estimate   =   -1136.89742803 Ry
     estimated scf accuracy    <       0.11608512 Ry

     iteration #  4     ecut=    36.75 Ry     beta=0.30
     Davidson diagonalization with overlap
     ethr =  8.36E-06,  avg # of iterations =  6.2

     negative rho (up, down):  1.566E-04 0.000E+00
 
     Adding external electric field

     Computed dipole along edir(3) : 
        Dipole               -0.4292 Ry au,         -1.0910 Debye
        Dipole field         -0.0007 Ry au
 
        Potential amp.        0.0665 Ry
        Total length         47.6094 bohr
 

     total cpu time spent up to now is     1376.1 secs

     total energy              =   -1136.89434241 Ry
     Harris-Foulkes estimate   =   -1136.89462014 Ry
     estimated scf accuracy    <       0.00300277 Ry

     iteration #  5     ecut=    36.75 Ry     beta=0.30
     Davidson diagonalization with overlap
     ethr =  2.19E-06,  avg # of iterations =  4.2

     negative rho (up, down):  1.525E-04 0.000E+00
 
     Adding external electric field

     Computed dipole along edir(3) : 
        Dipole               -0.4362 Ry au,         -1.1086 Debye
        Dipole field         -0.0007 Ry au
 
        Potential amp.        0.0676 Ry
        Total length         47.6094 bohr
 

     total cpu time spent up to now is     1405.8 secs

     total energy              =   -1136.89449331 Ry
     Harris-Foulkes estimate   =   -1136.89450532 Ry
     estimated scf accuracy    <       0.00029094 Ry

     iteration #  6     ecut=    36.75 Ry     beta=0.30
     Davidson diagonalization with overlap
     ethr =  2.12E-07,  avg # of iterations =  7.8

     negative rho (up, down):  1.509E-04 0.000E+00
 
     Adding external electric field

     Computed dipole along edir(3) : 
        Dipole               -0.4344 Ry au,         -1.1041 Debye
        Dipole field         -0.0007 Ry au
 
        Potential amp.        0.0673 Ry
        Total length         47.6094 bohr
 

     total cpu time spent up to now is     1442.1 secs

     total energy              =   -1136.89453026 Ry
     Harris-Foulkes estimate   =   -1136.89455313 Ry
     estimated scf accuracy    <       0.00014836 Ry

     iteration #  7     ecut=    36.75 Ry     beta=0.30
     Davidson diagonalization with overlap
     ethr =  1.08E-07,  avg # of iterations =  2.8

     negative rho (up, down):  1.499E-04 0.000E+00
 
     Adding external electric field

     Computed dipole along edir(3) : 
        Dipole               -0.4355 Ry au,         -1.1069 Debye
        Dipole field         -0.0007 Ry au
 
        Potential amp.        0.0675 Ry
        Total length         47.6094 bohr
 

[...]
   -21.8472 -21.8265 -21.7904 -21.7473 -21.7183 -21.0437 -21.0346 -20.9766
    -8.9709  -2.6424  -2.2417  -1.7205  -1.4652  -1.1292  -0.9127  -0.5997
    -0.4457  -0.1658  -0.0180   0.0464   0.1467   0.3055   0.4529   0.5135
     0.6537   0.6736   0.7413   0.8706   0.9145   0.9742   1.0261   1.0882
     1.1746   1.2151   1.2280   1.2761   1.3845   1.4478

          k = 0.0233-0.0673 0.0000 ( 29098 PWs)   bands (ev):

   -42.6826 -42.6721 -42.6616 -42.4638 -42.4524 -42.4440 -42.4332 -41.9660
   -41.9161 -41.9054 -41.8943 -40.9728 -22.6982 -22.6812 -22.6656 -22.6640
   -22.6156 -22.5667 -22.5491 -22.5105 -22.4902 -22.4834 -22.4784 -22.4638
   -22.4473 -22.4338 -22.4298 -22.3990 -22.3893 -22.3347 -22.2872 -22.2383
   -22.2079 -22.0246 -21.9965 -21.9510 -21.9109 -21.8844 -21.8618 -21.8502
   -21.8472 -21.8265 -21.7904 -21.7473 -21.7183 -21.0437 -21.0346 -20.9766
    -8.9709  -2.6424  -2.2417  -1.7205  -1.4652  -1.1292  -0.9127  -0.5997
    -0.4457  -0.1657  -0.0180   0.0463   0.1467   0.3055   0.4529   0.5134
     0.6537   0.6736   0.7413   0.8706   0.9146   0.9742   1.0261   1.0882
     1.1746   1.2151   1.2280   1.2761   1.3845   1.4478

          k = 0.0233-0.0404 0.0000 ( 29087 PWs)   bands (ev):

   -42.6879 -42.6669 -42.6616 -42.4726 -42.4452 -42.4411 -42.4344 -41.9682
   -41.9184 -41.9004 -41.8947 -40.9727 -22.7073 -22.6968 -22.6729 -22.6646
   -22.6466 -22.6196 -22.5504 -22.5236 -22.5189 -22.5009 -22.4970 -22.4482
   -22.4458 -22.4351 -22.4329 -22.3889 -22.3301 -22.2645 -22.2628 -22.2451
   -22.1825 -22.0630 -22.0352 -22.0213 -21.8878 -21.8702 -21.8584 -21.8474
   -21.8266 -21.7788 -21.7641 -21.7510 -21.6939 -21.0379 -21.0310 -20.9780
    -8.9718  -3.0311  -2.4125  -1.8684  -1.1062  -1.0680  -0.9895  -0.6371
    -0.5094  -0.3347  -0.2358  -0.1068  -0.0194   0.1543   0.2757   0.3427
     0.4338   0.4920   0.5089   0.7096   0.9087   0.9722   1.0488   1.2551
     1.2757   1.3187   1.3949   1.4599   1.6177   1.7094

          k = 0.0466-0.0269 0.0000 ( 29058 PWs)   bands (ev):

   -42.6864 -42.6683 -42.6616 -42.4702 -42.4488 -42.4386 -42.4357 -41.9675
   -41.9181 -41.9013 -41.8949 -40.9727 -22.7048 -22.6922 -22.6751 -22.6644
   -22.6251 -22.6138 -22.5352 -22.5293 -22.5079 -22.4936 -22.4844 -22.4607
   -22.4544 -22.4380 -22.4366 -22.3861 -22.3192 -22.3182 -22.2719 -22.2367
   -22.1866 -22.0511 -22.0342 -21.9935 -21.8871 -21.8707 -21.8572 -21.8516
   -21.8273 -21.8088 -21.7765 -21.7458 -21.6978 -21.0412 -21.0308 -20.9775
    -8.9715  -2.9133  -2.3735  -1.7983  -1.4420  -0.9424  -0.7709  -0.5636
    -0.5378  -0.2829  -0.2548  -0.0846  -0.0335   0.2174   0.3851   0.3979
     0.4993   0.5439   0.5756   0.7437   0.9528   0.9553   1.0137   1.2190
     1.2510   1.2564   1.3107   1.3334   1.6375   1.6389

          k = 0.0466 0.0000 0.0000 ( 29087 PWs)   bands (ev):

   -42.6879 -42.6669 -42.6616 -42.4726 -42.4452 -42.4411 -42.4344 -41.9682
   -41.9184 -41.9004 -41.8947 -40.9727 -22.7073 -22.6968 -22.6729 -22.6646
   -22.6466 -22.6195 -22.5504 -22.5236 -22.5189 -22.5009 -22.4970 -22.4482
   -22.4458 -22.4351 -22.4328 -22.3890 -22.3301 -22.2645 -22.2628 -22.2451
   -22.1825 -22.0630 -22.0352 -22.0213 -21.8878 -21.8702 -21.8584 -21.8473
   -21.8266 -21.7788 -21.7641 -21.7510 -21.6939 -21.0379 -21.0310 -20.9780
    -8.9718  -3.0311  -2.4125  -1.8684  -1.1063  -1.0680  -0.9895  -0.6371
    -0.5094  -0.3346  -0.2360  -0.1070  -0.0192   0.1543   0.2758   0.3428
     0.4336   0.4921   0.5090   0.7096   0.9088   0.9719   1.0488   1.2550
     1.2757   1.3187   1.3949   1.4599   1.6176   1.7096

          k = 0.0466 0.0269 0.0000 ( 29058 PWs)   bands (ev):

   -42.6865 -42.6682 -42.6617 -42.4702 -42.4488 -42.4386 -42.4357 -41.9675
   -41.9181 -41.9013 -41.8949 -40.9727 -22.7048 -22.6923 -22.6750 -22.6645
   -22.6251 -22.6137 -22.5352 -22.5293 -22.5079 -22.4936 -22.4844 -22.4607
   -22.4544 -22.4380 -22.4366 -22.3861 -22.3192 -22.3182 -22.2719 -22.2367
   -22.1866 -22.0510 -22.0342 -21.9935 -21.8871 -21.8707 -21.8572 -21.8516
   -21.8273 -21.8088 -21.7765 -21.7458 -21.6977 -21.0412 -21.0309 -20.9775
    -8.9715  -2.9133  -2.3735  -1.7983  -1.4420  -0.9425  -0.7709  -0.5636
    -0.5377  -0.2830  -0.2548  -0.0847  -0.0335   0.2174   0.3851   0.3979
     0.4993   0.5439   0.5756   0.7437   0.9528   0.9553   1.0138   1.2190
     1.2510   1.2564   1.3107   1.3334   1.6376   1.6389

          k = 0.0466-0.1076 0.0000 ( 29098 PWs)   bands (ev):

   -42.6826 -42.6720 -42.6617 -42.4637 -42.4524 -42.4440 -42.4332 -41.9660
   -41.9161 -41.9054 -41.8943 -40.9728 -22.6983 -22.6811 -22.6656 -22.6641
   -22.6156 -22.5667 -22.5491 -22.5105 -22.4902 -22.4834 -22.4784 -22.4638
   -22.4473 -22.4338 -22.4298 -22.3990 -22.3893 -22.3347 -22.2872 -22.2383
   -22.2079 -22.0245 -21.9965 -21.9510 -21.9109 -21.8844 -21.8618 -21.8503
   -21.8471 -21.8265 -21.7904 -21.7473 -21.7183 -21.0437 -21.0346 -20.9766
    -8.9709  -2.6423  -2.2417  -1.7205  -1.4652  -1.1292  -0.9126  -0.5998
    -0.4458  -0.1658  -0.0180   0.0464   0.1467   0.3057   0.4528   0.5135
     0.6537   0.6737   0.7413   0.8706   0.9145   0.9742   1.0262   1.0882
     1.1746   1.2150   1.2279   1.2760   1.3845   1.4478

          k = 0.0466-0.0807 0.0000 ( 29103 PWs)   bands (ev):

   -42.6781 -42.6766 -42.6617 -42.4579 -42.4518 -42.4518 -42.4318 -41.9653
   -41.9119 -41.9110 -41.8937 -40.9728 -22.6903 -22.6888 -22.6640 -22.6144
   -22.6143 -22.6127 -22.5143 -22.5141 -22.4670 -22.4653 -22.4649 -22.4615
   -22.4553 -22.4268 -22.4131 -22.4106 -22.4099 -22.4087 -22.2487 -22.2486
   -22.2407 -21.9871 -21.9662 -21.9497 -21.9306 -21.8964 -21.8820 -21.8467
   -21.8461 -21.8457 -21.7552 -21.7544 -21.7527 -21.0412 -21.0402 -20.9761
    -8.9706  -2.5293  -1.8420  -1.8418  -1.6556  -1.0760  -1.0692  -0.7373
    -0.2668  -0.2656   0.1340   0.3158   0.3688   0.3785   0.3893   0.3934
     0.7614   0.7981   0.8303   0.8848   0.9245   0.9876   1.0474   1.1055
     1.1135   1.1286   1.2081   1.2327   1.3464   1.3835

          k = 0.0466-0.0538 0.0000 ( 29098 PWs)   bands (ev):

   -42.6826 -42.6721 -42.6616 -42.4638 -42.4524 -42.4440 -42.4332 -41.9660
   -41.9161 -41.9054 -41.8943 -40.9728 -22.6982 -22.6812 -22.6656 -22.6640
   -22.6156 -22.5667 -22.5491 -22.5105 -22.4903 -22.4834 -22.4784 -22.4638
   -22.4473 -22.4338 -22.4298 -22.3989 -22.3893 -22.3347 -22.2872 -22.2383
   -22.2079 -22.0246 -21.9965 -21.9510 -21.9109 -21.8844 -21.8618 -21.8503
   -21.8472 -21.8265 -21.7904 -21.7473 -21.7183 -21.0437 -21.0346 -20.9766
    -8.9709  -2.6424  -2.2417  -1.7205  -1.4652  -1.1292  -0.9126  -0.5998
    -0.4458  -0.1657  -0.0180   0.0463   0.1467   0.3056   0.4528   0.5134
     0.6537   0.6737   0.7413   0.8706   0.9145   0.9742   1.0262   1.0882
     1.1746   1.2151   1.2280   1.2761   1.3845   1.4478

          k =-0.0699 0.0404 0.0000 ( 29048 PWs)   bands (ev):

   -42.6826 -42.6722 -42.6616 -42.4616 -42.4572 -42.4389 -42.4357 -41.9659
   -41.9169 -41.9040 -41.8949 -40.9728 -22.6982 -22.6817 -22.6791 -22.6642
   -22.5775 -22.5703 -22.5414 -22.5270 -22.5100 -22.5031 -22.4750 -22.4731
   -22.4372 -22.4357 -22.3887 -22.3806 -22.3777 -22.3454 -22.3447 -22.2155
   -22.2080 -22.0254 -22.0125 -21.9186 -21.8940 -21.8801 -21.8716 -21.8603
   -21.8498 -21.8294 -21.8223 -21.7283 -21.7166 -21.0461 -21.0323 -20.9766
    -8.9709  -2.5965  -2.2065  -1.9860  -1.4184  -1.1371  -0.5486  -0.4967
    -0.4893  -0.2368  -0.1145  -0.0242   0.0076   0.2868   0.6136   0.6255
     0.6546   0.6882   0.7927   0.7997   0.8714   0.9326   0.9947   1.0111
     1.0985   1.2004   1.2279   1.3708   1.4199   1.4208

          k =-0.0699 0.0673 0.0000 ( 29098 PWs)   bands (ev):

   -42.6826 -42.6721 -42.6616 -42.4637 -42.4524 -42.4440 -42.4332 -41.9660
   -41.9161 -41.9054 -41.8943 -40.9728 -22.6982 -22.6812 -22.6656 -22.6640
   -22.6156 -22.5667 -22.5491 -22.5105 -22.4903 -22.4834 -22.4784 -22.4638
   -22.4473 -22.4338 -22.4298 -22.3990 -22.3893 -22.3347 -22.2872 -22.2383
   -22.2079 -22.0245 -21.9965 -21.9510 -21.9109 -21.8844 -21.8618 -21.8502
   -21.8472 -21.8265 -21.7904 -21.7473 -21.7183 -21.0437 -21.0346 -20.9766
    -8.9709  -2.6423  -2.2417  -1.7205  -1.4652  -1.1292  -0.9127  -0.5997
    -0.4457  -0.1658  -0.0180   0.0464   0.1467   0.3057   0.4529   0.5135
     0.6537   0.6736   0.7413   0.8707   0.9146   0.9742   1.0262   1.0882
     1.1746   1.2150   1.2279   1.2760   1.3845   1.4478

          k =-0.0699 0.0942 0.0000 ( 29098 PWs)   bands (ev):

   -42.6826 -42.6720 -42.6617 -42.4637 -42.4524 -42.4440 -42.4332 -41.9660
   -41.9161 -41.9054 -41.8943 -40.9728 -22.6983 -22.6811 -22.6656 -22.6640
   -22.6156 -22.5667 -22.5491 -22.5105 -22.4902 -22.4834 -22.4784 -22.4638
   -22.4473 -22.4338 -22.4298 -22.3990 -22.3893 -22.3347 -22.2872 -22.2383
   -22.2079 -22.0245 -21.9965 -21.9510 -21.9109 -21.8844 -21.8618 -21.8502
   -21.8472 -21.8265 -21.7904 -21.7473 -21.7183 -21.0437 -21.0346 -20.9766
    -8.9709  -2.6423  -2.2417  -1.7205  -1.4652  -1.1292  -0.9126  -0.5997
    -0.4458  -0.1658  -0.0180   0.0464   0.1467   0.3057   0.4529   0.5135
     0.6537   0.6737   0.7413   0.8707   0.9145   0.9742   1.0262   1.0882
     1.1746   1.2150   1.2279   1.2760   1.3845   1.4478

          k =-0.0699-0.0404 0.0000 ( 29048 PWs)   bands (ev):

   -42.6826 -42.6721 -42.6617 -42.4616 -42.4572 -42.4389 -42.4357 -41.9659
   -41.9169 -41.9040 -41.8949 -40.9728 -22.6983 -22.6816 -22.6792 -22.6642
   -22.5774 -22.5704 -22.5414 -22.5270 -22.5100 -22.5031 -22.4750 -22.4731
   -22.4372 -22.4357 -22.3887 -22.3806 -22.3777 -22.3454 -22.3447 -22.2155
   -22.2080 -22.0254 -22.0125 -21.9186 -21.8940 -21.8801 -21.8716 -21.8603
   -21.8498 -21.8294 -21.8223 -21.7283 -21.7166 -21.0461 -21.0323 -20.9766
    -8.9709  -2.5965  -2.2065  -1.9860  -1.4184  -1.1371  -0.5486  -0.4967
    -0.4893  -0.2368  -0.1145  -0.0242   0.0075   0.2869   0.6136   0.6255
     0.6546   0.6882   0.7927   0.7997   0.8714   0.9326   0.9946   1.0111
     1.0986   1.2003   1.2279   1.3708   1.4199   1.4208

     the Fermi energy is     0.8694 ev

!    total energy              =   -1136.91156053 Ry
     Harris-Foulkes estimate   =   -1136.91156148 Ry
     estimated scf accuracy    <       0.00000008 Ry

     The total energy is the sum of the following terms:

     one-electron contribution =   -5486.85131452 Ry
     hartree contribution      =    2736.92143563 Ry
     xc contribution           =    -343.16066920 Ry
     ewald contribution        =    1956.30175240 Ry
     electric field correction =       0.00008148 Ry
     smearing contrib. (-TS)   =      -0.12284632 Ry

     convergence has been achieved in   7 iterations
 
 BEEF-vdW xc energy contributions
           1 :   -299.211108407480     
           2 :    268.650985395992     
           3 :   -216.075993973480     
           4 :    154.420053288081     
           5 :   -95.6723773821053     
           6 :    47.3551592426484     
           7 :   -12.0257641408760     
           8 :   -10.9738733962711     
           9 :    23.3005603690149     
          10 :   -26.3826095543923     
          11 :    21.5345657162908     
          12 :   -10.7730220862823     
          13 :   -2.68189293228716     
          14 :    14.8603466616224     
          15 :   -22.3050193187182     
          16 :    23.3456350507989     
          17 :   -18.5644335566983     
          18 :    10.2021044940818     
          19 :  -0.967750025867076     
          20 :   -6.98933028536999     
          21 :    12.4704844643447     
          22 :   -15.0489810600678     
          23 :    14.7305635249207     
          24 :   -11.8115095684826     
          25 :    6.96977547762106     
          26 :   -1.34797979244740     
          27 :   -3.62893192796173     
          28 :    6.71913334357646     
          29 :   -7.35996004657250     
          30 :    5.86914394891414     
          31 :   -28.7498696811318     
          32 :   -19.6703358118446     

     Forces acting on atoms (Ry/au):


     negative rho (up, down):  1.531E-04 0.000E+00
     atom    1 type  1   force =     0.00027898    0.00015984    0.00582770
     atom    2 type  1   force =    -0.00027833    0.00015807    0.00582767
     atom    3 type  1   force =    -0.00000127   -0.00031968    0.00583041
     atom    4 type  1   force =     0.00000184    0.00000333    0.00843011
     atom    5 type  1   force =     0.00000002    0.01789977   -0.01329025
     atom    6 type  1   force =    -0.00000170   -0.00000269    0.01426924
     atom    7 type  1   force =    -0.01552198   -0.00896182   -0.01329777
     atom    8 type  1   force =     0.01551573   -0.00895809   -0.01329881
     atom    9 type  1   force =     0.00001570    0.00001958    0.00029195
     atom   10 type  1   force =    -0.00002375    0.00048932   -0.00003838
     atom   11 type  1   force =     0.00040119   -0.00027958   -0.00003895
     atom   12 type  1   force =    -0.00039948   -0.00025102   -0.00002978
     atom   13 type  2   force =     0.00000442    0.00002591    0.00055843
     atom   14 type  3   force =     0.00000863    0.00001707   -0.00104158

     Total force =     0.001480     Total SCF correction =     0.001028
     SCF correction compared to forces is large: reduce conv_thr to get better values


     entering subroutine stress ...


     negative rho (up, down):  1.531E-04 0.000E+00
          total   stress  (Ry/bohr**3)                   (kbar)     P=   -4.47
  -0.00003531   0.00000000   0.00000001         -5.19      0.00      0.00
   0.00000000  -0.00003532   0.00000003          0.00     -5.20      0.00
   0.00000001   0.00000003  -0.00002049          0.00      0.00     -3.01


     bfgs converged in  18 scf cycles and  17 bfgs steps
     (criteria: energy <  1.0E+00, force <  1.9E-03)

     End of BFGS Geometry Optimization

     Final energy   =   -1136.9115605258 Ry
Begin final coordinates

ATOMIC_POSITIONS (crystal)
Y1       0.166666667   0.166666667   0.386999750    0   0   0
Y1       0.666666667   0.166666667   0.386999750    0   0   0
Y1       0.166666667   0.666666667   0.386999750    0   0   0
Y1       0.666666667   0.666666667   0.386999750    0   0   0
Y1       0.833333333   0.333333333   0.500000000    0   0   0
Y1       0.333333333   0.333333333   0.500000000    0   0   0
Y1       0.833333333   0.833333333   0.500000000    0   0   0
Y1       0.333333333   0.833333333   0.500000000    0   0   0
Y1       0.000011010  -0.000067528   0.601322467
Y1       0.500635957  -0.001285781   0.617252008
Y1      -0.001241791   0.500575843   0.617255738
Y1       0.500640943   0.500566545   0.617251800
C1      -0.000004286   0.000091388   0.683715831
H1      -0.000008154   0.000086720   0.726332236
End final coordinates



     Writing output data file calc.save
 
     init_run     :     19.39s CPU     19.93s WALL (       1 calls)
     electrons    :   8271.20s CPU   8915.84s WALL (      18 calls)
     update_pot   :     85.91s CPU     91.37s WALL (      17 calls)
     forces       :    436.17s CPU    466.27s WALL (      18 calls)
     stress       :   1293.19s CPU   1366.51s WALL (      18 calls)

     Called by init_run:
     wfcinit      :      8.11s CPU      8.27s WALL (       1 calls)
     potinit      :      3.30s CPU      3.46s WALL (       1 calls)

     Called by electrons:
     c_bands      :   3094.00s CPU   3332.72s WALL (     206 calls)
     sum_band     :   1611.94s CPU   1736.00s WALL (     206 calls)
     v_of_rho     :    570.46s CPU    617.71s WALL (     222 calls)
     newd         :   1391.73s CPU   1408.81s WALL (     222 calls)
     mix_rho      :     20.82s CPU     21.29s WALL (     206 calls)
     vdW_energy   :    310.50s CPU    344.25s WALL (     870 calls)
     vdW_ffts     :    846.08s CPU    877.22s WALL (    1776 calls)
     vdW_v        :    307.76s CPU    316.08s WALL (     870 calls)

     Called by c_bands:
     init_us_2    :     20.67s CPU     20.73s WALL (    2245 calls)
     cegterg      :   2607.39s CPU   2670.97s WALL (    1030 calls)

     Called by *egterg:
     h_psi        :   1825.77s CPU   1859.04s WALL (    6424 calls)
     s_psi        :    160.67s CPU    160.94s WALL (    6424 calls)
     g_psi        :     10.47s CPU     10.47s WALL (    5389 calls)
     cdiaghg      :    169.78s CPU    171.00s WALL (    6324 calls)

     Called by h_psi:
     add_vuspsi   :    164.87s CPU    165.30s WALL (    6424 calls)

     General routines
     calbec       :    244.44s CPU    248.59s WALL (    7634 calls)
     fft          :   1305.47s CPU   1387.72s WALL (   52531 calls)
     ffts         :      1.37s CPU      1.45s WALL (     428 calls)
     fftw         :   1054.96s CPU   1093.72s WALL (  516242 calls)
     interpolate  :     13.27s CPU     13.96s WALL (     428 calls)
     davcio       :      0.00s CPU      0.03s WALL (       5 calls)
 
     Parallel routines
     fft_scatter  :   1386.14s CPU   1502.00s WALL (  569201 calls)
 
     PWSCF        :     2h50m CPU        3h 3m WALL

 
   This run was terminated on:  21:51:45  24Apr2018            

=------------------------------------------------------------------------------=
   JOB DONE.
=------------------------------------------------------------------------------=
Job  /afs/slac/g/suncat/bin/suncat-tsmpirun -x LD_LIBRARY_PATH -wdir /scratch/qe163007_TuyRD pw.x -npool 4 -in pw.inp

TID   HOST_NAME   COMMAND_LINE            STATUS            TERMINATION_TIME
===== ========== ================  =======================  ===================
00000 suncat0247 pw.x -npool 4 -i  Done                     04/24/2018 21:51:45
00001 suncat0247 pw.x -npool 4 -i  Done                     04/24/2018 21:51:45
00002 suncat0247 pw.x -npool 4 -i  Done                     04/24/2018 21:51:45
00003 suncat0247 pw.x -npool 4 -i  Done                     04/24/2018 21:51:45
00004 suncat0247 pw.x -npool 4 -i  Done                     04/24/2018 21:51:45
00005 suncat0247 pw.x -npool 4 -i  Done                     04/24/2018 21:51:45
00006 suncat0247 pw.x -npool 4 -i  Done                     04/24/2018 21:51:45
00007 suncat0247 pw.x -npool 4 -i  Done                     04/24/2018 21:51:45
00008 suncat0226 pw.x -npool 4 -i  Done                     04/24/2018 21:51:45
00009 suncat0226 pw.x -npool 4 -i  Done                     04/24/2018 21:51:45
00010 suncat0226 pw.x -npool 4 -i  Done                     04/24/2018 21:51:45
00011 suncat0226 pw.x -npool 4 -i  Done                     04/24/2018 21:51:45
00012 suncat0226 pw.x -npool 4 -i  Done                     04/24/2018 21:51:45
00013 suncat0226 pw.x -npool 4 -i  Done                     04/24/2018 21:51:45
00014 suncat0226 pw.x -npool 4 -i  Done                     04/24/2018 21:51:45
00015 suncat0226 pw.x -npool 4 -i  Done                     04/24/2018 21:51:45
00016 suncat0221 pw.x -npool 4 -i  Done                     04/24/2018 21:51:45
00017 suncat0221 pw.x -npool 4 -i  Done                     04/24/2018 21:51:45
00018 suncat0221 pw.x -npool 4 -i  Done                     04/24/2018 21:51:45
00019 suncat0221 pw.x -npool 4 -i  Done                     04/24/2018 21:51:45
00020 suncat0221 pw.x -npool 4 -i  Done                     04/24/2018 21:51:45
00021 suncat0221 pw.x -npool 4 -i  Done                     04/24/2018 21:51:45
00022 suncat0221 pw.x -npool 4 -i  Done                     04/24/2018 21:51:45
00023 suncat0221 pw.x -npool 4 -i  Done                     04/24/2018 21:51:45
00024 suncat0219 pw.x -npool 4 -i  Done                     04/24/2018 21:51:45
00025 suncat0219 pw.x -npool 4 -i  Done                     04/24/2018 21:51:45
00026 suncat0219 pw.x -npool 4 -i  Done                     04/24/2018 21:51:45
00027 suncat0219 pw.x -npool 4 -i  Done                     04/24/2018 21:51:45
00028 suncat0219 pw.x -npool 4 -i  Done                     04/24/2018 21:51:45
00029 suncat0219 pw.x -npool 4 -i  Done                     04/24/2018 21:51:45
00030 suncat0219 pw.x -npool 4 -i  Done                     04/24/2018 21:51:45
00031 suncat0219 pw.x -npool 4 -i  Done                     04/24/2018 21:51:45
