  python dir          : /home/mamunm/src/espresso
  espresso dir        : /home/vossj/suncat/esdld/espresso-dynpy-beef/bin
  pseudo dir          : /home/mamunm/src/pseudo/gbrv1.5pbe
  ase-espresso py git : GITVERSION



     Program PWSCF v.5.1rc2 (svn rev. ) starts on 23Apr2018 at  3:18:59 

     This program is part of the open-source Quantum ESPRESSO suite
     for quantum simulation of materials; please cite
         "P. Giannozzi et al., J. Phys.:Condens. Matter 21 395502 (2009);
          URL http://www.quantum-espresso.org", 
     in publications or presentations arising from this work. More details at
     http://www.quantum-espresso.org/quote

     Parallel version (MPI), running on    16 processors
     R & G space division:  proc/nbgrp/npool/nimage =      16
     Reading input from pw.inp
     Message from routine read_cards :
     DEPRECATED: no units specified in CELL_PARAMETERS card

     Current dimensions of program PWSCF are:
     Max number of different atomic species (ntypx) = 10
     Max number of k-points (npk) =  40000
     Max angular momentum in pseudopotentials (lmaxx) =  3
     Presently stress not available with electric field


     **************************************************************************
     Initializing libbeef V0.1.1 with the BEEF-vdW functional.
     Citation: Wellendorff et al., PRB 85, 235149 (2012).
     **************************************************************************


     IMPORTANT: XC functional enforced from input :
     Exchange-correlation      = BEEF-VDW ( 1  4 27 13 2)
     Any further DFT definition will be discarded
     Please, verify this is what you really want


     Subspace diagonalization in iterative solution of the eigenvalue problem:
     a serial algorithm will be used

 
     Parallelization info
     --------------------
     sticks:   dense  smooth     PW     G-vecs:    dense   smooth      PW
     Min         255     102     28                50117    12676    1926
     Max         256     103     29                50136    12713    1935
     Sum        4081    1639    463               801953   203051   30885
 


     bravais-lattice index     =            0
     lattice parameter (alat)  =       1.8897  a.u.
     unit-cell volume          =    6741.9070 (a.u.)^3
     number of atoms/cell      =           14
     number of atomic types    =            3
     number of electrons       =       175.00
     number of Kohn-Sham states=           97
     kinetic-energy cutoff     =      36.7493  Ry
     charge density cutoff     =     367.4932  Ry
     convergence threshold     =      1.0E-05
     mixing beta               =       0.3000
     number of iterations used =           10  plain     mixing
     Exchange-correlation      = BEEF-VDW ( 1  4 27 13 2)
     nstep                     =           50


     celldm(1)=   1.889726  celldm(2)=   0.000000  celldm(3)=   0.000000
     celldm(4)=   0.000000  celldm(5)=   0.000000  celldm(6)=   0.000000

     crystal axes: (cart. coord. in units of alat)
               a(1) = (   6.726993   0.000000   0.000000 )  
               a(2) = (   3.363497   5.825747   0.000000 )  
               a(3) = (   0.000000   0.000000  25.492567 )  

     reciprocal axes: (cart. coord. in units 2 pi/alat)
               b(1) = (  0.148655 -0.085826  0.000000 )  
               b(2) = (  0.000000  0.171652  0.000000 )  
               b(3) = (  0.000000  0.000000  0.039227 )  


     PseudoPot. # 1 for Sn read from file:
     /home/mamunm/src/pseudo/gbrv1.5pbe/Sn.UPF
     MD5 check sum: 469debedee59599fedebd795477fea03
     Pseudo is Ultrasoft + core correction, Zval = 14.0
     Generated by new atomic code, or converted to UPF format
     Using radial grid of  891 points,  6 beta functions with: 
                l(1) =   0
                l(2) =   0
                l(3) =   1
                l(4) =   1
                l(5) =   2
                l(6) =   2
     Q(r) pseudized with  8 coefficients,  rinner =    1.350   1.350   1.350
                                                       1.350   1.350

     PseudoPot. # 2 for O  read from file:
     /home/mamunm/src/pseudo/gbrv1.5pbe/O.UPF
     MD5 check sum: 734c27235a0248c51dbae37a1fbe46ec
     Pseudo is Ultrasoft + core correction, Zval =  6.0
     Generated by new atomic code, or converted to UPF format
     Using radial grid of  737 points,  5 beta functions with: 
                l(1) =   0
                l(2) =   0
                l(3) =   1
                l(4) =   1
                l(5) =   2
     Q(r) pseudized with  8 coefficients,  rinner =    0.900   0.900   0.900
                                                       0.900   0.900

     PseudoPot. # 3 for H  read from file:
     /home/mamunm/src/pseudo/gbrv1.5pbe/H.UPF
     MD5 check sum: 761ae9a214b05c3daf00ab9f6b793d6f
     Pseudo is Ultrasoft, Zval =  1.0
     Generated by new atomic code, or converted to UPF format
     Using radial grid of  615 points,  2 beta functions with: 
                l(1) =   0
                l(2) =   0
     Q(r) pseudized with  8 coefficients,  rinner =    0.700

     vdW kernel table read from file vdW_kernel_table
     MD5 check sum: 095c7af220d748ca6e76c0b4c6cfb241

     atomic species   valence    mass     pseudopotential
        Sn1           14.00   118.71000     Sn( 1.00)
        O1             6.00    15.99900     O ( 1.00)
        H1             1.00     1.00800     H ( 1.00)

     No symmetry found



   Cartesian axes

     site n.     atom                  positions (alat units)
         1           Sn1 tau(   1) = (   1.6817483   0.9709578  10.0000000  )
         2           Sn1 tau(   2) = (   5.0452448   0.9709578  10.0000000  )
         3           Sn1 tau(   3) = (   3.3634965   3.8838312  10.0000000  )
         4           Sn1 tau(   4) = (   6.7269931   3.8838312  10.0000000  )
         5           Sn1 tau(   5) = (   6.7269931   1.9419156  12.7462834  )
         6           Sn1 tau(   6) = (   3.3634965   1.9419156  12.7462834  )
         7           Sn1 tau(   7) = (   8.4087413   4.8547891  12.7462834  )
         8           Sn1 tau(   8) = (   5.0452448   4.8547891  12.7462834  )
         9           Sn1 tau(   9) = (   0.0000000   0.0000000  15.4925668  )
        10           Sn1 tau(  10) = (   3.3634965   0.0000000  15.4925668  )
        11           Sn1 tau(  11) = (   1.6817483   2.9128734  15.4925668  )
        12           Sn1 tau(  12) = (   5.0452448   2.9128734  15.4925668  )
        13           O1  tau(  13) = (   3.3634965   1.9419156  16.8250668  )
        14           H1  tau(  14) = (   3.3634965   1.9419156  17.7750668  )

     number of k points=    20  Fermi-Dirac smearing, width (Ry)=  0.0110
                       cart. coord. in units 2pi/alat
        k(    1) = (   0.0000000   0.0000000   0.0000000), wk =   0.0555556
        k(    2) = (   0.0000000   0.0286086   0.0000000), wk =   0.1111111
        k(    3) = (   0.0000000   0.0572173   0.0000000), wk =   0.1111111
        k(    4) = (   0.0000000  -0.0858259   0.0000000), wk =   0.0555556
        k(    5) = (   0.0247758  -0.0143043   0.0000000), wk =   0.1111111
        k(    6) = (   0.0247758   0.0143043   0.0000000), wk =   0.1111111
        k(    7) = (   0.0247758   0.0429130   0.0000000), wk =   0.1111111
        k(    8) = (   0.0247758  -0.1001302   0.0000000), wk =   0.1111111
        k(    9) = (   0.0247758  -0.0715216   0.0000000), wk =   0.1111111
        k(   10) = (   0.0247758  -0.0429130   0.0000000), wk =   0.1111111
        k(   11) = (   0.0495516  -0.0286086   0.0000000), wk =   0.1111111
        k(   12) = (   0.0495516   0.0000000   0.0000000), wk =   0.1111111
        k(   13) = (   0.0495516   0.0286086   0.0000000), wk =   0.1111111
        k(   14) = (   0.0495516  -0.1144345   0.0000000), wk =   0.1111111
        k(   15) = (   0.0495516  -0.0858259   0.0000000), wk =   0.1111111
        k(   16) = (   0.0495516  -0.0572173   0.0000000), wk =   0.1111111
        k(   17) = (  -0.0743274   0.0429130   0.0000000), wk =   0.0555556
        k(   18) = (  -0.0743274   0.0715216   0.0000000), wk =   0.1111111
        k(   19) = (  -0.0743274   0.1001302   0.0000000), wk =   0.1111111
        k(   20) = (  -0.0743274  -0.0429130   0.0000000), wk =   0.0555556

     Dense  grid:   801953 G-vectors     FFT dimensions: (  80,  80, 300)

     Smooth grid:   203051 G-vectors     FFT dimensions: (  50,  50, 192)

     Largest allocated arrays     est. size (Mb)     dimensions
        Kohn-Sham Wavefunctions         2.44 Mb     (    1647,   97)
        NL pseudopotentials             5.81 Mb     (    1647,  231)
        Each V/rho on FFT grid          1.86 Mb     (  121600)
        Each G-vector array             0.38 Mb     (   50119)
        G-vector shells                 0.15 Mb     (   20260)
     Largest temporary arrays     est. size (Mb)     dimensions
        Auxiliary wavefunctions         9.75 Mb     (    1647,  388)
        Each subspace H/S matrix        2.30 Mb     (     388,  388)
        Each <psi_i|beta_j> matrix      0.34 Mb     (     231,   97)
        Arrays for rho mixing          18.55 Mb     (  121600,   10)

     Initial potential from superposition of free atoms
     Check: negative starting charge=   -0.001460

     starting charge  162.99945, renormalised to  175.00000

     negative rho (up, down):  1.567E-03 0.000E+00


     ************************************************************************
     *
     * You are using vdW-DF for exchange-correlation in this calculation.
     * Please cite the following three references that made this development
     * possible:
     *
     *   M. Dion, H. Rydberg, E. Schroder, D. C. Langreth, and
     *   B. I. Lundqvist, Phys. Rev. Lett. 92, 246401 (2004).
     *
     *   T. Thonhauser, V. R. Cooper, S. Li, A. Puzder, P. Hyldgaard, and
     *   D. C. Langreth, Phys. Rev. B 76, 125112 (2007).
     *
     *   G. Roman-Perez and J. M. Soler, Phys. Rev. Lett. 103, 096102 (2009).
     *
     *
     * If you are using vdW-DF2, please also cite:
     *
     *   K. Lee, E. D. Murray, L. Kong, B. I. Lundqvist, and
     *   D. C. Langreth, Phys. Rev. B 82, 081101(R) (2010).
     *
     *
     * If you are calculating the stress with vdW-DF, please also cite:
     *
     *   R. Sabatini, E. Kucukbenli, B. Kolb, T. Thonhauser, and
     *   S. de Gironcoli, J. Phys.: Condens. Matter 24, 424209 (2012).
     *
     ************************************************************************

     Carrying out vdW-DF run using the following parameters:

     Nqs =      20    Nr_points =    1024   r_max =   100.000
     q_mesh =
               0.00001000     0.04494208     0.09755937     0.15916263
               0.23128650     0.31572767     0.41458969     0.53033537
               0.66584808     0.82450364     1.01025438     1.22772762
               1.48234092     1.78043706     2.12944203     2.53805004
               3.01644009     3.57652955     4.23227104     5.00000000

     Gradients computed in reciprocal space

     ************************************************************************


 
     Adding external electric field

     Computed dipole along edir(3) : 
        Dipole               -4.1044 Ry au,        -10.4323 Debye
        Dipole field         -0.0077 Ry au
 
        Potential amp.        0.7187 Ry
        Total length         46.9696 bohr
 
     Starting wfc are  113 randomized atomic wfcs

     total cpu time spent up to now is       10.7 secs

     Self-consistent Calculation

     iteration #  1     ecut=    36.75 Ry     beta=0.30
     Davidson diagonalization with overlap
     ethr =  1.00E-02,  avg # of iterations =  8.3

     negative rho (up, down):  4.436E-04 0.000E+00
 
     Adding external electric field

     Computed dipole along edir(3) : 
        Dipole               49.6330 Ry au,        126.1545 Debye
        Dipole field          0.0925 Ry au
 
        Potential amp.       -8.6905 Ry
        Total length         46.9696 bohr
 

     total cpu time spent up to now is       49.8 secs

     total energy              =   -1890.15021495 Ry
     Harris-Foulkes estimate   =   -1965.63852606 Ry
     estimated scf accuracy    <     160.42083869 Ry

     iteration #  2     ecut=    36.75 Ry     beta=0.30
     Davidson diagonalization with overlap
     c_bands:  1 eigenvalues not converged
     c_bands:  1 eigenvalues not converged
     c_bands:  1 eigenvalues not converged
     c_bands:  2 eigenvalues not converged
     c_bands:  1 eigenvalues not converged
     c_bands:  4 eigenvalues not converged
     ethr =  1.00E-02,  avg # of iterations = 18.6
 
     Adding external electric field

     Computed dipole along edir(3) : 
        Dipole                9.5494 Ry au,         24.2721 Debye
        Dipole field          0.0178 Ry au
 
        Potential amp.       -1.6721 Ry
        Total length         46.9696 bohr
 

     total cpu time spent up to now is      145.7 secs

     total energy              =   -1732.40373083 Ry
     Harris-Foulkes estimate   =   -2302.45137700 Ry
     estimated scf accuracy    <   13994.86039637 Ry

     iteration #  3     ecut=    36.75 Ry     beta=0.30
     Davidson diagonalization with overlap
     ethr =  1.00E-02,  avg # of iterations =  8.6
 
     Adding external electric field

     Computed dipole along edir(3) : 
        Dipole                8.4946 Ry au,         21.5912 Debye
        Dipole field          0.0158 Ry au
 
        Potential amp.       -1.4874 Ry
        Total length         46.9696 bohr
 

     total cpu time spent up to now is      200.9 secs

     total energy              =   -1922.57808242 Ry
     Harris-Foulkes estimate   =   -1999.70095631 Ry
     estimated scf accuracy    <     874.63184862 Ry

     iteration #  4     ecut=    36.75 Ry     beta=0.30
     Davidson diagonalization with overlap
     ethr =  1.00E-02,  avg # of iterations =  6.0
 
     Adding external electric field

     Computed dipole along edir(3) : 
        Dipole                5.2606 Ry au,         13.3712 Debye
        Dipole field          0.0098 Ry au
 
        Potential amp.       -0.9211 Ry
        Total length         46.9696 bohr
 

     total cpu time spent up to now is      238.3 secs

     total energy              =   -1962.44222336 Ry
     Harris-Foulkes estimate   =   -1965.85644785 Ry
     estimated scf accuracy    <      19.77493870 Ry

     iteration #  5     ecut=    36.75 Ry     beta=0.30
     Davidson diagonalization with overlap
     ethr =  1.00E-02,  avg # of iterations =  2.0
 
     Adding external electric field

     Computed dipole along edir(3) : 
        Dipole                3.0365 Ry au,          7.7181 Debye
        Dipole field          0.0057 Ry au
 
        Potential amp.       -0.5317 Ry
        Total length         46.9696 bohr
 

     total cpu time spent up to now is      258.7 secs

     total energy              =   -1961.82259586 Ry
     Harris-Foulkes estimate   =   -1963.10079652 Ry
     estimated scf accuracy    <       7.32025578 Ry

     iteration #  6     ecut=    36.75 Ry     beta=0.30
     Davidson diagonalization with overlap
     ethr =  4.18E-03,  avg # of iterations =  3.0
 
     Adding external electric field

     Computed dipole along edir(3) : 
        Dipole                1.8507 Ry au,          4.7041 Debye
        Dipole field          0.0034 Ry au
 
        Potential amp.       -0.3241 Ry
        Total length         46.9696 bohr
 

     total cpu time spent up to now is      280.4 secs

     total energy              =   -1962.13736561 Ry
     Harris-Foulkes estimate   =   -1962.33342408 Ry
     estimated scf accuracy    <       0.60789484 Ry

     iteration #  7     ecut=    36.75 Ry     beta=0.30
     Davidson diagonalization with overlap
     ethr =  3.47E-04,  avg # of iterations =  4.2
 
     Adding external electric field

     Computed dipole along edir(3) : 
        Dipole                0.8519 Ry au,          2.1653 Debye
        Dipole field          0.0016 Ry au
 
        Potential amp.       -0.1492 Ry
        Total length         46.9696 bohr
 

     total cpu time spent up to now is      304.5 secs

     total energy              =   -1962.09520905 Ry
     Harris-Foulkes estimate   =   -1962.21504463 Ry
     estimated scf accuracy    <       0.31155919 Ry

     iteration #  8     ecut=    36.75 Ry     beta=0.30
     Davidson diagonalization with overlap
     ethr =  1.78E-04,  avg # of iterations =  4.2
 
     Adding external electric field

     Computed dipole along edir(3) : 
        Dipole               -0.2005 Ry au,         -0.5097 Debye
        Dipole field         -0.0004 Ry au
 
        Potential amp.        0.0351 Ry
        Total length         46.9696 bohr
 

     total cpu time spent up to now is      328.8 secs

     total energy              =   -1962.02000835 Ry
     Harris-Foulkes estimate   =   -1962.14498428 Ry
     estimated scf accuracy    <       0.61460791 Ry

     iteration #  9     ecut=    36.75 Ry     beta=0.30
     Davidson diagonalization with overlap
     ethr =  1.78E-04,  avg # of iterations =  5.0
 
     Adding external electric field

     Computed dipole along edir(3) : 
        Dipole               -0.2081 Ry au,         -0.5289 Debye
        Dipole field         -0.0004 Ry au
 
        Potential amp.        0.0364 Ry
        Total length         46.9696 bohr
 

     total cpu time spent up to now is      354.4 secs

     total energy              =   -1962.08912231 Ry
     Harris-Foulkes estimate   =   -1962.09240477 Ry
     estimated scf accuracy    <       0.16320854 Ry

     iteration # 10     ecut=    36.75 Ry     beta=0.30
     Davidson diagonalization with overlap
     ethr =  9.33E-05,  avg # of iterations =  1.2
 
     Adding external electric field

     Computed dipole along edir(3) : 
        Dipole               -0.1348 Ry au,         -0.3425 Debye
        Dipole field         -0.0003 Ry au
 
        Potential amp.        0.0236 Ry
        Total length         46.9696 bohr
 

     total cpu time spent up to now is      373.7 secs

     total energy              =   -1962.08042767 Ry
     Harris-Foulkes estimate   =   -1962.09019247 Ry
     estimated scf accuracy    <       0.13181070 Ry

     iteration # 11     ecut=    36.75 Ry     beta=0.30
     Davidson diagonalization with overlap
     ethr =  7.53E-05,  avg # of iterations =  1.9

     negative rho (up, down):  9.029E-07 0.000E+00
 
     Adding external electric field

     Computed dipole along edir(3) : 
        Dipole               -0.1265 Ry au,         -0.3215 Debye
        Dipole field         -0.0002 Ry au
 
        Potential amp.        0.0221 Ry
        Total length         46.9696 bohr
 

     total cpu time spent up to now is      393.7 secs

     total energy              =   -1962.07835957 Ry
     Harris-Foulkes estimate   =   -1962.08272033 Ry
     estimated scf accuracy    <       0.04010079 Ry

     iteration # 12     ecut=    36.75 Ry     beta=0.30
     Davidson diagonalization with overlap
     ethr =  2.29E-05,  avg # of iterations =  3.5

     negative rho (up, down):  1.944E-05 0.000E+00
 
     Adding external electric field

     Computed dipole along edir(3) : 
        Dipole               -0.1297 Ry au,         -0.3297 Debye
        Dipole field         -0.0002 Ry au
 
        Potential amp.        0.0227 Ry
        Total length         46.9696 bohr
 

     total cpu time spent up to now is      416.0 secs

     total energy              =   -1962.08042222 Ry
     Harris-Foulkes estimate   =   -1962.08072053 Ry
     estimated scf accuracy    <       0.00365526 Ry

     iteration # 13     ecut=    36.75 Ry     beta=0.30
     Davidson diagonalization with overlap
     ethr =  2.09E-06,  avg # of iterations =  6.9

     negative rho (up, down):  3.363E-03 0.000E+00
 
     Adding external electric field

     Computed dipole along edir(3) : 
        Dipole                0.1226 Ry au,          0.3117 Debye
        Dipole field          0.0002 Ry au
 
        Potential amp.       -0.0215 Ry
        Total length         46.9696 bohr
 

     total cpu time spent up to now is      442.2 secs

     total energy              =   -1962.08009782 Ry
     Harris-Foulkes estimate   =   -1962.08071986 Ry
     estimated scf accuracy    <       0.00261958 Ry

     iteration # 14     ecut=    36.75 Ry     beta=0.30
     Davidson diagonalization with overlap
     ethr =  1.50E-06,  avg # of iterations =  5.0

     negative rho (up, down):  2.477E-03 0.000E+00
 
     Adding external electric field

     Computed dipole along edir(3) : 
        Dipole                0.1717 Ry au,          0.4365 Debye
        Dipole field          0.0003 Ry au
 
        Potential amp.       -0.0301 Ry
        Total length         46.9696 bohr
 

     total cpu time spent up to now is      468.7 secs

     total energy              =   -1962.08007212 Ry
     Harris-Foulkes estimate   =   -1962.08056431 Ry
     estimated scf accuracy    <       0.00136934 Ry

     iteration # 15     ecut=    36.75 Ry     beta=0.30
     Davidson diagonalization with overlap
     ethr =  7.82E-07,  avg # of iterations =  3.2

     negative rho (up, down):  6.239E-04 0.000E+00
 
     Adding external electric field

     Computed dipole along edir(3) : 
        Dipole                0.2571 Ry au,          0.6534 Debye
        Dipole field          0.0005 Ry au
 
        Potential amp.       -0.0450 Ry
        Total length         46.9696 bohr
 

     total cpu time spent up to now is      492.4 secs

     total energy              =   -1962.08033029 Ry
     Harris-Foulkes estimate   =   -1962.08036103 Ry
     estimated scf accuracy    <       0.00122721 Ry

     iteration # 16     ecut=    36.75 Ry     beta=0.30
     Davidson diagonalization with overlap
     ethr =  7.01E-07,  avg # of iterations =  2.6

     negative rho (up, down):  5.498E-04 0.000E+00
 
     Adding external electric field

     Computed dipole along edir(3) : 
        Dipole                0.2735 Ry au,          0.6951 Debye
        Dipole field          0.0005 Ry au
 
        Potential amp.       -0.0479 Ry
        Total length         46.9696 bohr
 

     total cpu time spent up to now is      513.3 secs

     total energy              =   -1962.08039241 Ry
     Harris-Foulkes estimate   =   -1962.08038311 Ry
     estimated scf accuracy    <       0.00002302 Ry

     iteration # 17     ecut=    36.75 Ry     beta=0.30
     Davidson diagonalization with overlap
     ethr =  1.32E-08,  avg # of iterations =  4.4

     negative rho (up, down):  5.119E-04 0.000E+00
 
     Adding external electric field

     Computed dipole along edir(3) : 
        Dipole                0.2760 Ry au,          0.7015 Debye
        Dipole field          0.0005 Ry au
 
        Potential amp.       -0.0483 Ry
        Total length         46.9696 bohr
 

     total cpu time spent up to now is      546.9 secs

     total energy              =   -1962.08040604 Ry
     Harris-Foulkes estimate   =   -1962.08041130 Ry
     estimated scf accuracy    <       0.00006401 Ry

     iteration # 18     ecut=    36.75 Ry     beta=0.30
     Davidson diagonalization with overlap
     ethr =  1.32E-08,  avg # of iterations =  2.8

     negative rho (up, down):  5.182E-04 0.000E+00
 
     Adding external electric field

     Computed dipole along edir(3) : 
        Dipole                0.2837 Ry au,          0.7212 Debye
        Dipole field          0.0005 Ry au
 
        Potential amp.       -0.0497 Ry
        Total length         46.9696 bohr
 

     total cpu time spent up to now is      568.7 secs

     total energy              =   -1962.08040384 Ry
     Harris-Foulkes estimate   =   -1962.08039987 Ry
     estimated scf accuracy    <       0.00002097 Ry

     iteration # 19     ecut=    36.75 Ry     beta=0.30
     Davidson diagonalization with overlap
     ethr =  1.20E-08,  avg # of iterations =  3.2

     negative rho (up, down):  5.324E-04 0.000E+00

     negative rho (up, down):  5.324E-04 0.000E+00

     negative rho (up, down):  5.324E-04 0.000E+00

     negative rho (up, down):  5.324E-04 0.000E+00

     negative rho (up, down):  5.324E-04 0.000E+00

     negative rho (up, down):  5.324E-04 0.000E+00

     negative rho (up, down):  5.324E-04 0.000E+00

     negative rho (up, down):  5.324E-04 0.000E+00

     negative rho (up, down):  5.324E-04 0.000E+00

     negative rho (up, down):  5.324E-04 0.000E+00

     negative rho (up, down):  5.324E-04 0.000E+00

     negative rho (up, down):  5.324E-04 0.000E+00

     negative rho (up, down):  5.324E-04 0.000E+00

     negative rho (up, down):  5.324E-04 0.000E+00

     negative rho (up, down):  5.324E-04 0.000E+00

     negative rho (up, down):  5.324E-04 0.000E+00

     negative rho (up, down):  5.324E-04 0.000E+00

     negative rho (up, down):  5.324E-04 0.000E+00

     negative rho (up, down):  5.324E-04 0.000E+00

     negative rho (up, down):  5.324E-04 0.000E+00

     negative rho (up, down):  5.324E-04 0.000E+00

     negative rho (up, down):  5.324E-04 0.000E+00

     negative rho (up, down):  5.324E-04 0.000E+00

     negative rho (up, down):  5.324E-04 0.000E+00

     negative rho (up, down):  5.324E-04 0.000E+00

     negative rho (up, down):  5.324E-04 0.000E+00

     negative rho (up, down):  5.324E-04 0.000E+00

     negative rho (up, down):  5.324E-04 0.000E+00

     negative rho (up, down):  5.324E-04 0.000E+00

     negative rho (up, down):  5.324E-04 0.000E+00

     negative rho (up, down):  5.324E-04 0.000E+00

     negative rho (up, down):  5.324E-04 0.000E+00

     negative rho (up, down):  5.324E-04 0.000E+00

     negative rho (up, down):  5.324E-04 0.000E+00

     negative rho (up, down):  5.324E-04 0.000E+00
 
     Adding external electric field

     Computed dipole along edir(3) : 
        Dipole                0.2703 Ry au,          0.6870 Debye
        Dipole field          0.0005 Ry au
 
        Potential amp.       -0.0473 Ry
        Total length         46.9696 bohr
 

     total cpu time spent up to now is      617.3 secs

     End of self-consistent calculation

          k = 0.0000 0.0000 0.0000 ( 25377 PWs)   bands (ev):

   -21.3054 -21.1129 -21.1067 -21.1067 -21.0506 -21.0506 -21.0358 -21.0182
   -21.0182 -21.0078 -20.9988 -20.9988 -20.9869 -20.9869 -20.9680 -20.9639
   -20.9638 -20.9307 -20.9242 -20.9188 -20.9159 -20.9159 -20.9096 -20.9059
   -20.9059 -20.9010 -20.9010 -20.8772 -20.8772 -20.8764 -20.8727 -20.8705
   -20.8705 -20.8696 -20.8604 -20.8604 -20.8327 -20.8327 -20.8105 -20.8105
   -20.8005 -20.7973 -20.7973 -20.7847 -20.7773 -20.7773 -20.7713 -20.7676
   -20.7660 -20.7660 -20.7603 -20.7603 -20.7561 -20.7561 -20.7388 -20.7388
   -20.7377 -20.7318 -20.7268 -20.7268 -19.6642  -9.7349  -8.7750  -7.5651
    -6.3457  -5.8543  -5.8543  -5.4537  -5.4537  -5.4334  -4.9723  -4.6308
    -4.6308  -4.2032  -3.0725  -3.0725  -2.8880  -2.8880  -2.6380  -2.2104
    -1.6148  -1.5101  -1.5101  -1.0547  -1.0547  -0.5423   0.6508   2.0445
     2.0445   2.1091   2.4394   2.4394   2.6373   3.0573   3.6180   3.6909
     3.6909

          k = 0.0000 0.0286 0.0000 ( 25365 PWs)   bands (ev):

   -21.2989 -21.1089 -21.1021 -21.0972 -21.0528 -21.0479 -21.0318 -21.0203
   -21.0160 -21.0100 -21.0023 -20.9976 -20.9918 -20.9859 -20.9628 -20.9563
   -20.9538 -20.9273 -20.9265 -20.9209 -20.9149 -20.9124 -20.9061 -20.9017
   -20.8984 -20.8966 -20.8921 -20.8806 -20.8778 -20.8734 -20.8718 -20.8701
   -20.8680 -20.8641 -20.8601 -20.8584 -20.8350 -20.8319 -20.8115 -20.8113
   -20.8044 -20.8001 -20.7991 -20.7899 -20.7834 -20.7809 -20.7761 -20.7713
   -20.7690 -20.7690 -20.7642 -20.7636 -20.7607 -20.7597 -20.7456 -20.7432
   -20.7430 -20.7366 -20.7353 -20.7308 -19.6629  -9.6149  -8.6862  -7.5622
    -6.6182  -6.2698  -6.0709  -5.8159  -5.5595  -5.4657  -4.9630  -4.5497
    -4.5056  -4.1439  -3.0589  -3.0376  -2.5899  -2.4837  -2.2951  -2.0679
    -1.4830  -1.4539  -1.2494  -0.6535  -0.5419   0.1686   0.8108   1.1942
     1.7630   1.8134   2.4951   2.7365   2.8104   2.9763   3.0683   3.1822
     3.7064

          k = 0.0000 0.0572 0.0000 ( 25367 PWs)   bands (ev):

   -21.2848 -21.1055 -21.0835 -21.0725 -21.0591 -21.0422 -21.0308 -21.0223
   -21.0218 -21.0094 -21.0084 -21.0019 -20.9952 -20.9825 -20.9548 -20.9435
   -20.9322 -20.9269 -20.9258 -20.9149 -20.9089 -20.9054 -20.9010 -20.8923
   -20.8885 -20.8863 -20.8804 -20.8776 -20.8738 -20.8697 -20.8691 -20.8645
   -20.8620 -20.8605 -20.8548 -20.8466 -20.8362 -20.8239 -20.8167 -20.8151
   -20.8128 -20.8112 -20.8030 -20.8008 -20.7954 -20.7906 -20.7891 -20.7839
   -20.7799 -20.7768 -20.7736 -20.7730 -20.7693 -20.7664 -20.7636 -20.7617
   -20.7588 -20.7523 -20.7368 -20.7322 -19.6603  -9.2640  -8.4745  -7.7715
    -7.3031  -6.5173  -6.3376  -6.1965  -5.7673  -5.5811  -5.1272  -4.7173
    -4.3826  -4.0811  -3.2427  -2.8294  -1.9539  -1.8979  -1.6230  -1.0062
    -0.9719  -0.7630  -0.3292  -0.0277   0.2248   0.5556   0.8916   1.0241
     1.1805   1.7854   1.8563   2.0301   2.1584   2.4201   2.7263   3.1903
     3.2531

          k = 0.0000-0.0858 0.0000 ( 25386 PWs)   bands (ev):

   -21.2772 -21.1044 -21.0656 -21.0592 -21.0498 -21.0464 -21.0406 -21.0375
   -21.0157 -21.0100 -21.0082 -21.0072 -20.9958 -20.9800 -20.9519 -20.9487
   -20.9317 -20.9155 -20.9046 -20.9036 -20.9007 -20.8995 -20.8977 -20.8946
   -20.8890 -20.8878 -20.8819 -20.8798 -20.8769 -20.8689 -20.8680 -20.8555
   -20.8498 -20.8475 -20.8466 -20.8416 -20.8303 -20.8248 -20.8228 -20.8182
   -20.8142 -20.8125 -20.8081 -20.7983 -20.7978 -20.7959 -20.7958 -20.7930
   -20.7914 -20.7910 -20.7885 -20.7854 -20.7812 -20.7797 -20.7688 -20.7641
   -20.7618 -20.7552 -20.7366 -20.7322 -19.6590  -8.8443  -8.5414  -8.0765
    -7.4223  -6.7848  -6.4382  -6.1761  -5.8184  -5.6420  -5.4010  -4.6744
    -4.3665  -4.0527  -3.4153  -2.7431  -1.1728  -1.0969  -1.0837  -0.9029
    -0.8930  -0.5682   0.0427   0.2322   0.4253   0.5568   1.0351   1.1469
     1.3986   1.6261   1.7587   1.8926   2.2221   2.2891   2.3365   2.4826
     2.5839

          k = 0.0248-0.0143 0.0000 ( 25365 PWs)   bands (ev):

   -21.2989 -21.1089 -21.1021 -21.0972 -21.0528 -21.0479 -21.0318 -21.0203
   -21.0160 -21.0100 -21.0023 -20.9976 -20.9918 -20.9859 -20.9628 -20.9563
   -20.9538 -20.9273 -20.9265 -20.9209 -20.9150 -20.9124 -20.9061 -20.9017
   -20.8984 -20.8966 -20.8922 -20.8805 -20.8778 -20.8734 -20.8718 -20.8701
   -20.8680 -20.8641 -20.8601 -20.8584 -20.8350 -20.8319 -20.8115 -20.8113
   -20.8044 -20.8001 -20.7991 -20.7899 -20.7834 -20.7809 -20.7761 -20.7713
   -20.7690 -20.7690 -20.7642 -20.7636 -20.7607 -20.7598 -20.7456 -20.7432
   -20.7430 -20.7367 -20.7354 -20.7308 -19.6629  -9.6149  -8.6862  -7.5622
    -6.6182  -6.2698  -6.0709  -5.8159  -5.5595  -5.4658  -4.9630  -4.5497
    -4.5056  -4.1439  -3.0589  -3.0376  -2.5899  -2.4837  -2.2951  -2.0679
    -1.4830  -1.4539  -1.2494  -0.6535  -0.5419   0.1686   0.8108   1.1942
     1.7630   1.8134   2.4951   2.7365   2.8104   2.9763   3.0683   3.1822
     3.7064

          k = 0.0248 0.0143 0.0000 ( 25365 PWs)   bands (ev):

   -21.2989 -21.1089 -21.1021 -21.0972 -21.0528 -21.0479 -21.0318 -21.0203
   -21.0160 -21.0100 -21.0023 -20.9976 -20.9918 -20.9859 -20.9628 -20.9563
   -20.9538 -20.9273 -20.9265 -20.9209 -20.9150 -20.9124 -20.9061 -20.9017
   -20.8984 -20.8966 -20.8921 -20.8805 -20.8778 -20.8734 -20.8718 -20.8701
   -20.8680 -20.8641 -20.8601 -20.8584 -20.8350 -20.8319 -20.8114 -20.8113
   -20.8044 -20.8001 -20.7991 -20.7899 -20.7834 -20.7809 -20.7761 -20.7713
   -20.7690 -20.7690 -20.7642 -20.7636 -20.7607 -20.7597 -20.7456 -20.7432
   -20.7430 -20.7366 -20.7353 -20.7308 -19.6629  -9.6149  -8.6862  -7.5622
    -6.6182  -6.2698  -6.0709  -5.8159  -5.5595  -5.4657  -4.9630  -4.5497
    -4.5056  -4.1439  -3.0589  -3.0376  -2.5899  -2.4837  -2.2951  -2.0679
    -1.4830  -1.4539  -1.2494  -0.6535  -0.5419   0.1686   0.8108   1.1942
     1.7630   1.8134   2.4951   2.7365   2.8104   2.9763   3.0683   3.1822
     3.7064

          k = 0.0248 0.0429 0.0000 ( 25362 PWs)   bands (ev):

   -21.2885 -21.1007 -21.0977 -21.0775 -21.0569 -21.0441 -21.0281 -21.0246
   -21.0144 -21.0136 -21.0063 -20.9996 -20.9955 -20.9831 -20.9507 -20.9496
   -20.9396 -20.9314 -20.9221 -20.9150 -20.9125 -20.9075 -20.9067 -20.8930
   -20.8899 -20.8850 -20.8821 -20.8805 -20.8757 -20.8741 -20.8671 -20.8665
   -20.8647 -20.8623 -20.8590 -20.8477 -20.8383 -20.8272 -20.8160 -20.8130
   -20.8094 -20.8072 -20.8009 -20.7987 -20.7911 -20.7881 -20.7871 -20.7800
   -20.7768 -20.7740 -20.7721 -20.7692 -20.7661 -20.7645 -20.7613 -20.7552
   -20.7497 -20.7430 -20.7395 -20.7386 -19.6610  -9.3789  -8.5307  -7.5986
    -7.0529  -6.8759  -6.3025  -6.0719  -5.6265  -5.2149  -5.0994  -4.7483
    -4.4410  -4.1785  -3.1679  -2.9060  -2.3945  -1.8621  -1.6254  -1.4882
    -1.1008  -0.8531  -0.6276  -0.4282   0.3167   0.5543   0.9327   0.9425
     1.2169   1.4160   1.9281   2.5166   2.7212   2.8500   3.0075   3.1211
     3.2041

          k = 0.0248-0.1001 0.0000 ( 25368 PWs)   bands (ev):

   -21.2771 -21.0972 -21.0783 -21.0633 -21.0498 -21.0479 -21.0394 -21.0249
   -21.0160 -21.0115 -21.0096 -21.0066 -20.9914 -20.9809 -20.9562 -20.9421
   -20.9250 -20.9216 -20.9134 -20.9059 -20.9020 -20.9014 -20.8993 -20.8917
   -20.8905 -20.8855 -20.8798 -20.8765 -20.8722 -20.8682 -20.8676 -20.8585
   -20.8569 -20.8507 -20.8462 -20.8385 -20.8324 -20.8271 -20.8243 -20.8184
   -20.8152 -20.8101 -20.8072 -20.8039 -20.8014 -20.7971 -20.7944 -20.7926
   -20.7915 -20.7874 -20.7845 -20.7778 -20.7752 -20.7711 -20.7673 -20.7653
   -20.7598 -20.7572 -20.7424 -20.7392 -19.6590  -8.9457  -8.3897  -7.9347
    -7.4310  -7.1720  -6.6250  -6.1847  -5.6931  -5.3369  -5.0613  -4.8454
    -4.3465  -4.0386  -3.5139  -2.8439  -1.7643  -1.2750  -0.9196  -0.7383
    -0.5508  -0.4148  -0.0802   0.1123   0.2281   0.5997   0.8736   1.1768
     1.2635   1.5921   1.7885   2.1387   2.4328   2.5364   2.6956   2.8014
     2.9510

          k = 0.0248-0.0715 0.0000 ( 25368 PWs)   bands (ev):

   -21.2771 -21.0972 -21.0783 -21.0633 -21.0498 -21.0480 -21.0394 -21.0249
   -21.0160 -21.0115 -21.0096 -21.0066 -20.9914 -20.9809 -20.9562 -20.9421
   -20.9250 -20.9216 -20.9134 -20.9059 -20.9020 -20.9014 -20.8993 -20.8917
   -20.8905 -20.8855 -20.8798 -20.8765 -20.8722 -20.8682 -20.8676 -20.8585
   -20.8569 -20.8507 -20.8462 -20.8385 -20.8324 -20.8271 -20.8243 -20.8184
   -20.8152 -20.8101 -20.8072 -20.8039 -20.8014 -20.7971 -20.7944 -20.7926
   -20.7915 -20.7874 -20.7845 -20.7778 -20.7752 -20.7711 -20.7673 -20.7653
   -20.7598 -20.7572 -20.7424 -20.7392 -19.6590  -8.9457  -8.3897  -7.9347
    -7.4310  -7.1720  -6.6250  -6.1847  -5.6931  -5.3369  -5.0613  -4.8454
    -4.3465  -4.0386  -3.5139  -2.8439  -1.7643  -1.2750  -0.9196  -0.7383
    -0.5508  -0.4148  -0.0802   0.1123   0.2281   0.5997   0.8736   1.1768
     1.2635   1.5921   1.7885   2.1387   2.4328   2.5364   2.6956   2.8014
     2.9510

          k = 0.0248-0.0429 0.0000 ( 25362 PWs)   bands (ev):

   -21.2885 -21.1007 -21.0977 -21.0775 -21.0569 -21.0441 -21.0281 -21.0246
   -21.0144 -21.0136 -21.0063 -20.9996 -20.9955 -20.9831 -20.9507 -20.9496
   -20.9396 -20.9314 -20.9221 -20.9150 -20.9125 -20.9075 -20.9067 -20.8930
   -20.8899 -20.8850 -20.8821 -20.8805 -20.8757 -20.8741 -20.8671 -20.8665
   -20.8647 -20.8623 -20.8590 -20.8477 -20.8383 -20.8272 -20.8160 -20.8130
   -20.8094 -20.8072 -20.8009 -20.7987 -20.7911 -20.7881 -20.7871 -20.7800
   -20.7767 -20.7740 -20.7721 -20.7692 -20.7661 -20.7645 -20.7613 -20.7552
   -20.7497 -20.7430 -20.7395 -20.7386 -19.6610  -9.3789  -8.5307  -7.5986
    -7.0529  -6.8759  -6.3025  -6.0719  -5.6265  -5.2149  -5.0994  -4.7483
    -4.4410  -4.1785  -3.1679  -2.9060  -2.3945  -1.8621  -1.6254  -1.4882
    -1.1008  -0.8531  -0.6276  -0.4282   0.3167   0.5543   0.9327   0.9425
     1.2169   1.4160   1.9281   2.5166   2.7212   2.8500   3.0075   3.1211
     3.2041

          k = 0.0496-0.0286 0.0000 ( 25367 PWs)   bands (ev):

   -21.2848 -21.1055 -21.0835 -21.0725 -21.0591 -21.0422 -21.0308 -21.0223
   -21.0218 -21.0094 -21.0084 -21.0019 -20.9952 -20.9825 -20.9548 -20.9435
   -20.9322 -20.9269 -20.9258 -20.9149 -20.9089 -20.9053 -20.9010 -20.8923
   -20.8885 -20.8863 -20.8804 -20.8776 -20.8738 -20.8697 -20.8691 -20.8645
   -20.8620 -20.8605 -20.8547 -20.8466 -20.8361 -20.8239 -20.8167 -20.8151
   -20.8128 -20.8112 -20.8030 -20.8008 -20.7954 -20.7906 -20.7891 -20.7839
   -20.7799 -20.7768 -20.7736 -20.7730 -20.7693 -20.7664 -20.7636 -20.7617
   -20.7588 -20.7523 -20.7368 -20.7322 -19.6603  -9.2640  -8.4745  -7.7715
    -7.3031  -6.5173  -6.3376  -6.1965  -5.7673  -5.5811  -5.1272  -4.7173
    -4.3826  -4.0811  -3.2427  -2.8294  -1.9539  -1.8979  -1.6230  -1.0062
    -0.9719  -0.7630  -0.3292  -0.0277   0.2248   0.5556   0.8916   1.0241
     1.1805   1.7854   1.8563   2.0301   2.1584   2.4201   2.7263   3.1904
     3.2531

          k = 0.0496 0.0000 0.0000 ( 25362 PWs)   bands (ev):

   -21.2885 -21.1007 -21.0977 -21.0775 -21.0569 -21.0441 -21.0281 -21.0246
   -21.0144 -21.0136 -21.0063 -20.9996 -20.9955 -20.9831 -20.9507 -20.9496
   -20.9396 -20.9314 -20.9221 -20.9150 -20.9125 -20.9074 -20.9067 -20.8930
   -20.8899 -20.8850 -20.8821 -20.8805 -20.8757 -20.8741 -20.8671 -20.8665
   -20.8647 -20.8623 -20.8590 -20.8477 -20.8383 -20.8272 -20.8160 -20.8130
   -20.8094 -20.8072 -20.8009 -20.7987 -20.7911 -20.7881 -20.7871 -20.7800
   -20.7767 -20.7740 -20.7721 -20.7692 -20.7661 -20.7645 -20.7613 -20.7552
   -20.7497 -20.7430 -20.7395 -20.7386 -19.6610  -9.3789  -8.5307  -7.5986
    -7.0529  -6.8759  -6.3025  -6.0719  -5.6265  -5.2149  -5.0994  -4.7483
    -4.4410  -4.1785  -3.1679  -2.9060  -2.3945  -1.8621  -1.6254  -1.4882
    -1.1008  -0.8531  -0.6276  -0.4282   0.3167   0.5543   0.9327   0.9425
     1.2169   1.4160   1.9281   2.5166   2.7212   2.8500   3.0075   3.1211
     3.2041

          k = 0.0496 0.0286 0.0000 ( 25367 PWs)   bands (ev):

   -21.2848 -21.1055 -21.0835 -21.0725 -21.0591 -21.0422 -21.0308 -21.0223
   -21.0218 -21.0094 -21.0084 -21.0019 -20.9952 -20.9825 -20.9548 -20.9435
   -20.9322 -20.9269 -20.9258 -20.9149 -20.9089 -20.9053 -20.9010 -20.8923
   -20.8885 -20.8863 -20.8804 -20.8776 -20.8738 -20.8697 -20.8691 -20.8645
   -20.8620 -20.8605 -20.8547 -20.8466 -20.8362 -20.8239 -20.8167 -20.8151
   -20.8128 -20.8112 -20.8030 -20.8008 -20.7954 -20.7906 -20.7891 -20.7839
   -20.7799 -20.7768 -20.7736 -20.7730 -20.7693 -20.7664 -20.7636 -20.7617
   -20.7588 -20.7523 -20.7368 -20.7322 -19.6603  -9.2640  -8.4745  -7.7715
    -7.3031  -6.5173  -6.3376  -6.1965  -5.7673  -5.5811  -5.1272  -4.7173
    -4.3826  -4.0811  -3.2427  -2.8294  -1.9539  -1.8979  -1.6230  -1.0062
    -0.9719  -0.7630  -0.3292  -0.0277   0.2248   0.5556   0.8916   1.0241
     1.1805   1.7854   1.8563   2.0301   2.1584   2.4201   2.7263   3.1903
     3.2531

          k = 0.0496-0.1144 0.0000 ( 25368 PWs)   bands (ev):

   -21.2771 -21.0972 -21.0783 -21.0633 -21.0498 -21.0479 -21.0394 -21.0249
   -21.0160 -21.0115 -21.0096 -21.0066 -20.9914 -20.9809 -20.9562 -20.9422
   -20.9250 -20.9216 -20.9134 -20.9059 -20.9021 -20.9013 -20.8993 -20.8917
   -20.8905 -20.8855 -20.8798 -20.8765 -20.8722 -20.8682 -20.8676 -20.8585
   -20.8569 -20.8507 -20.8462 -20.8385 -20.8324 -20.8271 -20.8243 -20.8184
   -20.8152 -20.8101 -20.8072 -20.8039 -20.8014 -20.7971 -20.7944 -20.7926
   -20.7915 -20.7874 -20.7845 -20.7778 -20.7752 -20.7711 -20.7673 -20.7653
   -20.7598 -20.7572 -20.7424 -20.7392 -19.6590  -8.9457  -8.3897  -7.9347
    -7.4310  -7.1720  -6.6250  -6.1847  -5.6931  -5.3369  -5.0613  -4.8454
    -4.3465  -4.0386  -3.5139  -2.8439  -1.7643  -1.2750  -0.9196  -0.7383
    -0.5508  -0.4148  -0.0802   0.1123   0.2281   0.5997   0.8736   1.1768
     1.2635   1.5921   1.7885   2.1387   2.4328   2.5364   2.6956   2.8014
     2.9510

          k = 0.0496-0.0858 0.0000 ( 25314 PWs)   bands (ev):

   -21.2730 -21.0786 -21.0782 -21.0753 -21.0616 -21.0380 -21.0305 -21.0267
   -21.0188 -21.0113 -21.0097 -21.0077 -20.9827 -20.9775 -20.9742 -20.9213
   -20.9197 -20.9171 -20.9127 -20.9063 -20.9059 -20.9046 -20.9002 -20.8930
   -20.8906 -20.8867 -20.8769 -20.8717 -20.8674 -20.8671 -20.8597 -20.8520
   -20.8494 -20.8487 -20.8460 -20.8433 -20.8331 -20.8270 -20.8255 -20.8216
   -20.8200 -20.8168 -20.8085 -20.8054 -20.8037 -20.8014 -20.7973 -20.7972
   -20.7932 -20.7874 -20.7871 -20.7768 -20.7732 -20.7699 -20.7692 -20.7646
   -20.7628 -20.7587 -20.7572 -20.7455 -19.6584  -8.6968  -8.1721  -8.1540
    -7.7670  -7.0878  -7.0328  -6.2375  -5.5266  -5.5200  -4.8019  -4.6035
    -4.3074  -4.1378  -3.6922  -2.8880  -1.2503  -1.2397  -1.1618  -0.6826
    -0.6116  -0.5826   0.3931   0.4852   0.5031   0.9847   1.0039   1.2480
     1.6257   1.6726   1.7780   2.0721   2.1479   2.3451   2.6666   2.6724
     2.7591

          k = 0.0496-0.0572 0.0000 ( 25368 PWs)   bands (ev):

   -21.2771 -21.0972 -21.0783 -21.0633 -21.0498 -21.0480 -21.0394 -21.0249
   -21.0160 -21.0115 -21.0096 -21.0066 -20.9914 -20.9809 -20.9562 -20.9422
   -20.9250 -20.9216 -20.9134 -20.9059 -20.9021 -20.9013 -20.8993 -20.8917
   -20.8905 -20.8855 -20.8798 -20.8765 -20.8722 -20.8682 -20.8676 -20.8585
   -20.8569 -20.8507 -20.8462 -20.8385 -20.8324 -20.8271 -20.8243 -20.8184
   -20.8152 -20.8101 -20.8072 -20.8039 -20.8014 -20.7971 -20.7944 -20.7926
   -20.7915 -20.7874 -20.7845 -20.7778 -20.7752 -20.7711 -20.7673 -20.7653
   -20.7598 -20.7572 -20.7424 -20.7392 -19.6590  -8.9457  -8.3897  -7.9347
    -7.4310  -7.1720  -6.6250  -6.1847  -5.6931  -5.3369  -5.0613  -4.8454
    -4.3465  -4.0386  -3.5139  -2.8439  -1.7643  -1.2750  -0.9196  -0.7383
    -0.5508  -0.4148  -0.0802   0.1123   0.2281   0.5997   0.8736   1.1768
     1.2635   1.5921   1.7885   2.1387   2.4328   2.5364   2.6956   2.8014
     2.9510

          k =-0.0743 0.0429 0.0000 ( 25386 PWs)   bands (ev):

   -21.2772 -21.1044 -21.0656 -21.0592 -21.0498 -21.0464 -21.0406 -21.0375
   -21.0157 -21.0100 -21.0082 -21.0072 -20.9958 -20.9800 -20.9519 -20.9487
   -20.9316 -20.9155 -20.9046 -20.9036 -20.9007 -20.8994 -20.8977 -20.8946
   -20.8890 -20.8879 -20.8819 -20.8798 -20.8769 -20.8689 -20.8680 -20.8555
   -20.8498 -20.8476 -20.8466 -20.8416 -20.8303 -20.8248 -20.8228 -20.8182
   -20.8142 -20.8125 -20.8081 -20.7983 -20.7978 -20.7959 -20.7958 -20.7930
   -20.7914 -20.7910 -20.7885 -20.7854 -20.7812 -20.7797 -20.7688 -20.7641
   -20.7618 -20.7552 -20.7367 -20.7322 -19.6590  -8.8443  -8.5414  -8.0765
    -7.4223  -6.7848  -6.4382  -6.1761  -5.8184  -5.6420  -5.4010  -4.6744
    -4.3665  -4.0527  -3.4153  -2.7432  -1.1728  -1.0969  -1.0837  -0.9029
    -0.8930  -0.5682   0.0427   0.2322   0.4253   0.5568   1.0351   1.1469
     1.3986   1.6261   1.7587   1.8926   2.2221   2.2891   2.3365   2.4826
     2.5839

          k =-0.0743 0.0715 0.0000 ( 25368 PWs)   bands (ev):

   -21.2771 -21.0972 -21.0783 -21.0633 -21.0498 -21.0479 -21.0394 -21.0249
   -21.0160 -21.0115 -21.0096 -21.0066 -20.9914 -20.9809 -20.9562 -20.9422
   -20.9250 -20.9216 -20.9134 -20.9059 -20.9020 -20.9013 -20.8993 -20.8917
   -20.8905 -20.8855 -20.8798 -20.8765 -20.8722 -20.8682 -20.8676 -20.8585
   -20.8569 -20.8508 -20.8462 -20.8385 -20.8324 -20.8271 -20.8243 -20.8184
   -20.8152 -20.8101 -20.8072 -20.8039 -20.8014 -20.7971 -20.7944 -20.7926
   -20.7915 -20.7874 -20.7845 -20.7778 -20.7752 -20.7711 -20.7673 -20.7653
   -20.7598 -20.7572 -20.7424 -20.7392 -19.6590  -8.9457  -8.3897  -7.9347
    -7.4310  -7.1720  -6.6250  -6.1847  -5.6931  -5.3369  -5.0613  -4.8454
    -4.3465  -4.0386  -3.5139  -2.8439  -1.7643  -1.2750  -0.9196  -0.7383
    -0.5508  -0.4148  -0.0802   0.1123   0.2281   0.5997   0.8736   1.1768
     1.2635   1.5921   1.7885   2.1387   2.4328   2.5364   2.6956   2.8014
     2.9510

          k =-0.0743 0.1001 0.0000 ( 25368 PWs)   bands (ev):

   -21.2771 -21.0972 -21.0783 -21.0633 -21.0498 -21.0479 -21.0394 -21.0249
   -21.0160 -21.0115 -21.0096 -21.0066 -20.9914 -20.9809 -20.9562 -20.9422
   -20.9250 -20.9216 -20.9134 -20.9059 -20.9020 -20.9013 -20.8993 -20.8917
   -20.8905 -20.8855 -20.8798 -20.8765 -20.8722 -20.8682 -20.8676 -20.8585
   -20.8569 -20.8508 -20.8462 -20.8385 -20.8324 -20.8271 -20.8243 -20.8184
   -20.8152 -20.8101 -20.8072 -20.8039 -20.8014 -20.7971 -20.7944 -20.7926
   -20.7915 -20.7874 -20.7845 -20.7778 -20.7752 -20.7711 -20.7673 -20.7653
   -20.7598 -20.7572 -20.7424 -20.7392 -19.6590  -8.9457  -8.3897  -7.9347
    -7.4310  -7.1720  -6.6250  -6.1847  -5.6931  -5.3369  -5.0613  -4.8454
    -4.3465  -4.0386  -3.5139  -2.8439  -1.7643  -1.2750  -0.9196  -0.7383
    -0.5508  -0.4148  -0.0802   0.1123   0.2281   0.5997   0.8736   1.1768
     1.2635   1.5921   1.7885   2.1387   2.4328   2.5364   2.6956   2.8014
     2.9510

          k =-0.0743-0.0429 0.0000 ( 25386 PWs)   bands (ev):

   -21.2772 -21.1044 -21.0656 -21.0592 -21.0497 -21.0464 -21.0406 -21.0375
   -21.0157 -21.0100 -21.0082 -21.0072 -20.9958 -20.9800 -20.9519 -20.9487
   -20.9316 -20.9155 -20.9046 -20.9036 -20.9007 -20.8994 -20.8977 -20.8946
   -20.8890 -20.8879 -20.8819 -20.8798 -20.8769 -20.8689 -20.8680 -20.8555
   -20.8498 -20.8476 -20.8466 -20.8416 -20.8303 -20.8248 -20.8228 -20.8182
   -20.8142 -20.8125 -20.8081 -20.7983 -20.7978 -20.7959 -20.7958 -20.7930
   -20.7914 -20.7910 -20.7885 -20.7854 -20.7812 -20.7797 -20.7688 -20.7641
   -20.7618 -20.7552 -20.7366 -20.7322 -19.6590  -8.8443  -8.5414  -8.0765
    -7.4223  -6.7848  -6.4382  -6.1761  -5.8184  -5.6420  -5.4010  -4.6744
    -4.3665  -4.0527  -3.4153  -2.7432  -1.1728  -1.0969  -1.0837  -0.9029
    -0.8930  -0.5682   0.0427   0.2322   0.4253   0.5568   1.0351   1.1469
     1.3986   1.6261   1.7587   1.8926   2.2221   2.2891   2.3365   2.4826
     2.5839

     the Fermi energy is     1.1095 ev

!    total energy              =   -1962.08040384 Ry
     Harris-Foulkes estimate   =   -1962.08042056 Ry
     estimated scf accuracy    <       0.00000294 Ry

     The total energy is the sum of the following terms:

     one-electron contribution =  -10775.08299964 Ry
     hartree contribution      =    5455.31755390 Ry
     xc contribution           =    -542.36127228 Ry
     ewald contribution        =    3900.08898675 Ry
     electric field correction =       0.00013616 Ry
     smearing contrib. (-TS)   =      -0.04280872 Ry

     convergence has been achieved in  19 iterations
 
 BEEF-vdW xc energy contributions
           1 :   -476.385280458638     
           2 :    435.835387585212     
           3 :   -367.110557146364     
           4 :    289.383032823145     
           5 :   -220.784639008633     
           6 :    172.049299903207     
           7 :   -144.158979118241     
           8 :    130.444746942045     
           9 :   -121.584717892072     
          10 :    110.707688911635     
          11 :   -96.1072308749331     
          12 :    80.6136835195468     
          13 :   -68.5924531886403     
          14 :    62.6697953462769     
          15 :   -62.1210906541091     
          16 :    63.5972123027851     
          17 :   -63.4052286894141     
          18 :    59.7370176904990     
          19 :   -53.4933633264375     
          20 :    47.3593634074019     
          21 :   -43.8907027118693     
          22 :    43.8880301765448     
          23 :   -46.0391445257919     
          24 :    47.9212134639341     
          25 :   -47.6040450930275     
          26 :    44.7912733801381     
          27 :   -40.8322799709695     
          28 :    37.7044397096109     
          29 :   -36.7047882495744     
          30 :    37.6995580616097     
          31 :   -41.8307698204862     
          32 :   -30.4030546595078     

     Forces acting on atoms (Ry/au):


     negative rho (up, down):  5.324E-04 0.000E+00
     atom    1 type  1   force =    -0.00023324   -0.00013371   -0.00180031
     atom    2 type  1   force =     0.00023142   -0.00012847   -0.00179696
     atom    3 type  1   force =     0.00000698    0.00026989   -0.00179560
     atom    4 type  1   force =    -0.00000730   -0.00000091    0.00052868
     atom    5 type  1   force =    -0.00001251    0.00009775   -0.00877254
     atom    6 type  1   force =     0.00001300   -0.00000530    0.00467449
     atom    7 type  1   force =    -0.00008518   -0.00003985   -0.00876890
     atom    8 type  1   force =     0.00008649   -0.00005133   -0.00877382
     atom    9 type  1   force =    -0.00000142   -0.00000214   -0.00026903
     atom   10 type  1   force =     0.00000284   -0.01597703   -0.00656449
     atom   11 type  1   force =    -0.01383513    0.00798853   -0.00656565
     atom   12 type  1   force =     0.01383573    0.00798620   -0.00656943
     atom   13 type  2   force =    -0.00000080   -0.00000177   -0.01896161
     atom   14 type  3   force =    -0.00000090   -0.00000185    0.06543517

     Total force =     0.074407     Total SCF correction =     0.001653


     entering subroutine stress ...


     negative rho (up, down):  5.324E-04 0.000E+00
          total   stress  (Ry/bohr**3)                   (kbar)     P=    8.65
   0.00006166   0.00000000   0.00000000          9.07      0.00      0.00
   0.00000000   0.00006166   0.00000000          0.00      9.07      0.00
   0.00000000   0.00000000   0.00005307          0.00      0.00      7.81


     BFGS Geometry Optimization

     number of scf cycles    =   1
     number of bfgs steps    =   0

     energy   new            =   -1962.0804038416 Ry

     new trust radius        =       0.0654351701 bohr
     new conv_thr            =       0.0000099958 Ry


ATOMIC_POSITIONS (crystal)
Sn1      0.166666667   0.166666667   0.392271209    0   0   0
Sn1      0.666666667   0.166666667   0.392271209    0   0   0
Sn1      0.166666667   0.666666667   0.392271209    0   0   0
Sn1      0.666666667   0.666666667   0.392271209    0   0   0
Sn1      0.833333333   0.333333333   0.500000000    0   0   0
Sn1      0.333333333   0.333333333   0.500000000    0   0   0
Sn1      0.833333333   0.833333333   0.500000000    0   0   0
Sn1      0.333333333   0.833333333   0.500000000    0   0   0
Sn1     -0.000000015  -0.000000194   0.607723207
Sn1      0.500725854  -0.001451261   0.607592525
Sn1     -0.001451153   0.500725632   0.607592501
Sn1      0.500725674   0.500725420   0.607592423
O1       0.333333351   0.333333172   0.659605323
H1       0.333333347   0.333333165   0.698623004



     Writing output data file calc.save
     Check: negative starting charge=   -0.001460
     NEW-OLD atomic charge density approx. for the potential
     Check: negative starting charge=   -0.001453

     negative rho (up, down):  5.598E-04 0.000E+00
 
     Adding external electric field

     Computed dipole along edir(3) : 
        Dipole                0.2503 Ry au,          0.6362 Debye
        Dipole field          0.0005 Ry au
 
        Potential amp.       -0.0438 Ry
        Total length         46.9696 bohr
 

     total cpu time spent up to now is      652.5 secs

     Self-consistent Calculation

     iteration #  1     ecut=    36.75 Ry     beta=0.30
     Davidson diagonalization with overlap
     ethr =  1.00E-06,  avg # of iterations =  4.5

     negative rho (up, down):  5.453E-04 0.000E+00
 
     Adding external electric field

     Computed dipole along edir(3) : 
        Dipole                0.5579 Ry au,          1.4179 Debye
        Dipole field          0.0010 Ry au
 
        Potential amp.       -0.0977 Ry
        Total length         46.9696 bohr
 

     total cpu time spent up to now is      689.8 secs

     total energy              =   -1962.07827537 Ry
     Harris-Foulkes estimate   =   -1962.08218848 Ry
     estimated scf accuracy    <       0.00912651 Ry

     iteration #  2     ecut=    36.75 Ry     beta=0.30
     Davidson diagonalization with overlap
     ethr =  5.22E-06,  avg # of iterations =  6.8

     negative rho (up, down):  5.420E-04 0.000E+00
 
     Adding external electric field

     Computed dipole along edir(3) : 
        Dipole                0.2754 Ry au,          0.7000 Debye
        Dipole field          0.0005 Ry au
 
        Potential amp.       -0.0482 Ry
        Total length         46.9696 bohr
 

     total cpu time spent up to now is      720.2 secs

     total energy              =   -1962.06600661 Ry
     Harris-Foulkes estimate   =   -1962.09739232 Ry
     estimated scf accuracy    <       0.50276711 Ry

     iteration #  3     ecut=    36.75 Ry     beta=0.30
     Davidson diagonalization with overlap
     ethr =  5.22E-06,  avg # of iterations =  6.6

     negative rho (up, down):  5.386E-04 0.000E+00
 
     Adding external electric field

     Computed dipole along edir(3) : 
        Dipole                0.2843 Ry au,          0.7227 Debye
        Dipole field          0.0005 Ry au
 
        Potential amp.       -0.0498 Ry
        Total length         46.9696 bohr
 

     total cpu time spent up to now is      749.1 secs

     total energy              =   -1962.08174800 Ry
     Harris-Foulkes estimate   =   -1962.08195793 Ry
     estimated scf accuracy    <       0.00155253 Ry

     iteration #  4     ecut=    36.75 Ry     beta=0.30
     Davidson diagonalization with overlap
     ethr =  8.87E-07,  avg # of iterations =  2.8

     negative rho (up, down):  5.374E-04 0.000E+00
 
     Adding external electric field

     Computed dipole along edir(3) : 
        Dipole                0.2845 Ry au,          0.7231 Debye
        Dipole field          0.0005 Ry au
 
        Potential amp.       -0.0498 Ry
        Total length         46.9696 bohr
 

     total cpu time spent up to now is      770.9 secs

     total energy              =   -1962.08183402 Ry
     Harris-Foulkes estimate   =   -1962.08188128 Ry
     estimated scf accuracy    <       0.00021084 Ry

     iteration #  5     ecut=    36.75 Ry     beta=0.30
     Davidson diagonalization with overlap
     ethr =  1.20E-07,  avg # of iterations =  3.0

     negative rho (up, down):  5.359E-04 0.000E+00
 
     Adding external electric field

     Computed dipole along edir(3) : 
        Dipole                0.2857 Ry au,          0.7262 Debye
        Dipole field          0.0005 Ry au
 
        Potential amp.       -0.0500 Ry
        Total length         46.9696 bohr
 

     total cpu time spent up to now is      792.8 secs

     total energy              =   -1962.08185210 Ry
     Harris-Foulkes estimate   =   -1962.08186216 Ry
     estimated scf accuracy    <       0.00005552 Ry

     iteration #  6     ecut=    36.75 Ry     beta=0.30
     Davidson diagonalization with overlap
     ethr =  3.17E-08,  avg # of iterations =  2.0

     negative rho (up, down):  5.364E-04 0.000E+00

     negative rho (up, down):  5.364E-04 0.000E+00

     negative rho (up, down):  5.364E-04 0.000E+00

     negative rho (up, down):  5.364E-04 0.000E+00

     negative rho (up, down):  5.364E-04 0.000E+00

     negative rho (up, down):  5.364E-04 0.000E+00

     negative rho (up, down):  5.364E-04 0.000E+00

     negative rho (up, down):  5.364E-04 0.000E+00

     negative rho (up, down):  5.364E-04 0.000E+00

     negative rho (up, down):  5.364E-04 0.000E+00

     negative rho (up, down):  5.364E-04 0.000E+00

     negative rho (up, down):  5.364E-04 0.000E+00

     negative rho (up, down):  5.364E-04 0.000E+00

     negative rho (up, down):  5.364E-04 0.000E+00

     negative rho (up, down):  5.364E-04 0.000E+00

     negative rho (up, down):  5.364E-04 0.000E+00

     negative rho (up, down):  5.364E-04 0.000E+00

     negative rho (up, down):  5.364E-04 0.000E+00

     negative rho (up, down):  5.364E-04 0.000E+00

     negative rho (up, down):  5.364E-04 0.000E+00

     negative rho (up, down):  5.364E-04 0.000E+00

     negative rho (up, down):  5.364E-04 0.000E+00

     negative rho (up, down):  5.364E-04 0.000E+00

     negative rho (up, down):  5.364E-04 0.000E+00

     negative rho (up, down):  5.364E-04 0.000E+00

     negative rho (up, down):  5.364E-04 0.000E+00

     negative rho (up, down):  5.364E-04 0.000E+00

     negative rho (up, down):  5.364E-04 0.000E+00

     negative rho (up, down):  5.364E-04 0.000E+00

     negative rho (up, down):  5.364E-04 0.000E+00

     negative rho (up, down):  5.364E-04 0.000E+00

     negative rho (up, down):  5.364E-04 0.000E+00

     negative rho (up, down):  5.364E-04 0.000E+00

     negative rho (up, down):  5.364E-04 0.000E+00

     negative rho (up, down):  5.364E-04 0.000E+00
 
     Adding external electric field

     Computed dipole along edir(3) : 
        Dipole                0.2799 Ry au,          0.7114 Debye
        Dipole field          0.0005 Ry au
 
        Potential amp.       -0.0490 Ry
        Total length         46.9696 bohr
 

     total cpu time spent up to now is      839.9 secs

     End of self-consistent calculation

          k = 0.0000 0.0000 0.0000 ( 25377 PWs)   bands (ev):

   -21.2713 -21.1059 -21.1013 -21.1013 -21.0447 -21.0447 -21.0319 -21.0138
   -21.0138 -21.0029 -20.9943 -20.9943 -20.9824 -20.9824 -20.9651 -20.9607
   -20.9607 -20.9276 -20.9211 -20.9144 -20.9127 -20.9127 -20.9060 -20.9028
   -20.9028 -20.8978 -20.8978 -20.8739 -20.8739 -20.8732 -20.8693 -20.8672
   -20.8672 -20.8664 -20.8573 -20.8573 -20.8298 -20.8298 -20.8079 -20.8079
   -20.7979 -20.7942 -20.7942 -20.7813 -20.7747 -20.7747 -20.7680 -20.7643
   -20.7630 -20.7630 -20.7570 -20.7570 -20.7529 -20.7529 -20.7354 -20.7354
   -20.7346 -20.7279 -20.7236 -20.7236 -19.3902  -9.7168  -8.7020  -7.4707
    -6.3359  -5.8426  -5.8426  -5.4460  -5.4460  -5.4247  -4.9743  -4.6225
    -4.6225  -4.2134  -3.0523  -3.0523  -2.8833  -2.8833  -2.6286  -2.2145
    -1.6163  -1.5096  -1.5096  -1.0310  -1.0310  -0.5329   0.6478   2.0459
     2.0459   2.1053   2.4437   2.4437   2.6160   3.0568   3.6176   3.6928
     3.6928

          k = 0.0000 0.0286 0.0000 ( 25365 PWs)   bands (ev):

   -21.2643 -21.1024 -21.0964 -21.0918 -21.0469 -21.0420 -21.0279 -21.0158
   -21.0113 -21.0050 -20.9979 -20.9932 -20.9875 -20.9814 -20.9597 -20.9533
   -20.9506 -20.9242 -20.9222 -20.9178 -20.9118 -20.9092 -20.9030 -20.8983
   -20.8952 -20.8932 -20.8889 -20.8773 -20.8745 -20.8701 -20.8686 -20.8667
   -20.8647 -20.8608 -20.8570 -20.8553 -20.8320 -20.8289 -20.8088 -20.8086
   -20.8018 -20.7970 -20.7960 -20.7867 -20.7808 -20.7783 -20.7727 -20.7681
   -20.7660 -20.7660 -20.7609 -20.7606 -20.7574 -20.7563 -20.7422 -20.7399
   -20.7396 -20.7332 -20.7319 -20.7277 -19.3890  -9.5950  -8.6061  -7.4758
    -6.6180  -6.2643  -6.0640  -5.8105  -5.5437  -5.4522  -4.9562  -4.5393
    -4.4985  -4.1512  -3.0310  -3.0111  -2.5912  -2.4829  -2.2913  -2.0711
    -1.4721  -1.4464  -1.2462  -0.6411  -0.5396   0.1850   0.8073   1.1940
     1.7657   1.8096   2.4980   2.7286   2.8142   2.9780   3.0520   3.1865
     3.7064

          k = 0.0000 0.0572 0.0000 ( 25367 PWs)   bands (ev):

   -21.2488 -21.0993 -21.0777 -21.0671 -21.0534 -21.0361 -21.0257 -21.0186
   -21.0165 -21.0044 -21.0044 -20.9980 -20.9909 -20.9785 -20.9518 -20.9393
   -20.9292 -20.9238 -20.9227 -20.9119 -20.9056 -20.9022 -20.8979 -20.8890
   -20.8853 -20.8831 -20.8771 -20.8746 -20.8704 -20.8665 -20.8660 -20.8613
   -20.8586 -20.8575 -20.8515 -20.8434 -20.8331 -20.8208 -20.8141 -20.8121
   -20.8099 -20.8084 -20.8001 -20.7982 -20.7923 -20.7876 -20.7864 -20.7808
   -20.7765 -20.7736 -20.7704 -20.7695 -20.7661 -20.7631 -20.7604 -20.7584
   -20.7556 -20.7489 -20.7332 -20.7292 -19.3868  -9.2346  -8.3678  -7.7669
    -7.2586  -6.5141  -6.3333  -6.1979  -5.7549  -5.5667  -5.1173  -4.7026
    -4.3723  -4.0750  -3.2158  -2.7981  -1.9552  -1.8946  -1.6244  -0.9982
    -0.9713  -0.7623  -0.3275  -0.0212   0.2294   0.5615   0.8936   1.0255
     1.1780   1.7889   1.8605   2.0309   2.1637   2.4234   2.7185   3.1795
     3.2548

          k = 0.0000-0.0858 0.0000 ( 25386 PWs)   bands (ev):

   -21.2402 -21.0982 -21.0597 -21.0539 -21.0446 -21.0415 -21.0346 -21.0311
   -21.0123 -21.0058 -21.0045 -21.0019 -20.9921 -20.9762 -20.9476 -20.9457
   -20.9285 -20.9125 -20.9014 -20.9004 -20.8974 -20.8962 -20.8945 -20.8916
   -20.8859 -20.8848 -20.8788 -20.8768 -20.8735 -20.8657 -20.8649 -20.8526
   -20.8467 -20.8441 -20.8436 -20.8383 -20.8276 -20.8217 -20.8197 -20.8152
   -20.8116 -20.8091 -20.8056 -20.7949 -20.7947 -20.7929 -20.7924 -20.7897
   -20.7884 -20.7877 -20.7857 -20.7825 -20.7784 -20.7762 -20.7657 -20.7610
   -20.7587 -20.7517 -20.7331 -20.7292 -19.3857  -8.7527  -8.5457  -7.9971
    -7.4262  -6.7628  -6.4344  -6.1670  -5.8120  -5.6279  -5.4020  -4.6562
    -4.3547  -4.0312  -3.3971  -2.7092  -1.1705  -1.0981  -1.0871  -0.9002
    -0.8905  -0.5669   0.0497   0.2340   0.4323   0.5626   1.0358   1.1411
     1.3992   1.6299   1.7651   1.8930   2.2136   2.2911   2.3363   2.4946
     2.5926

          k = 0.0248-0.0143 0.0000 ( 25365 PWs)   bands (ev):

   -21.2643 -21.1024 -21.0964 -21.0918 -21.0469 -21.0420 -21.0279 -21.0158
   -21.0113 -21.0050 -20.9979 -20.9932 -20.9875 -20.9814 -20.9597 -20.9533
   -20.9506 -20.9242 -20.9222 -20.9178 -20.9118 -20.9092 -20.9030 -20.8983
   -20.8952 -20.8932 -20.8889 -20.8773 -20.8745 -20.8701 -20.8686 -20.8667
   -20.8647 -20.8608 -20.8570 -20.8553 -20.8320 -20.8289 -20.8088 -20.8086
   -20.8018 -20.7970 -20.7960 -20.7867 -20.7808 -20.7783 -20.7727 -20.7681
   -20.7660 -20.7660 -20.7609 -20.7606 -20.7574 -20.7563 -20.7422 -20.7399
   -20.7396 -20.7332 -20.7319 -20.7277 -19.3890  -9.5950  -8.6061  -7.4758
    -6.6180  -6.2643  -6.0640  -5.8105  -5.5437  -5.4522  -4.9562  -4.5393
    -4.4985  -4.1512  -3.0310  -3.0111  -2.5912  -2.4829  -2.2913  -2.0711
    -1.4721  -1.4464  -1.2462  -0.6411  -0.5396   0.1850   0.8073   1.1940
     1.7657   1.8096   2.4980   2.7286   2.8142   2.9780   3.0520   3.1865
     3.7064

          k = 0.0248 0.0143 0.0000 ( 25365 PWs)   bands (ev):

   -21.2643 -21.1024 -21.0964 -21.0918 -21.0469 -21.0420 -21.0279 -21.0158
   -21.0113 -21.0050 -20.9979 -20.9932 -20.9875 -20.9814 -20.9597 -20.9533
   -20.9506 -20.9242 -20.9222 -20.9178 -20.9118 -20.9092 -20.9030 -20.8983
   -20.8952 -20.8932 -20.8889 -20.8773 -20.8745 -20.8701 -20.8686 -20.8667
   -20.8647 -20.8608 -20.8570 -20.8553 -20.8320 -20.8289 -20.8088 -20.8086
   -20.8018 -20.7970 -20.7960 -20.7867 -20.7808 -20.7783 -20.7727 -20.7681
   -20.7660 -20.7660 -20.7609 -20.7606 -20.7574 -20.7563 -20.7422 -20.7399
   -20.7396 -20.7332 -20.7319 -20.7277 -19.3890  -9.5950  -8.6061  -7.4758
    -6.6180  -6.2643  -6.0640  -5.8105  -5.5437  -5.4522  -4.9562  -4.5393
    -4.4985  -4.1512  -3.0310  -3.0111  -2.5912  -2.4829  -2.2913  -2.0711
    -1.4721  -1.4464  -1.2462  -0.6411  -0.5396   0.1850   0.8073   1.1940
     1.7657   1.8096   2.4980   2.7286   2.8142   2.9780   3.0520   3.1865
     3.7064

          k = 0.0248 0.0429 0.0000 ( 25362 PWs)   bands (ev):

   -21.2528 -21.0943 -21.0920 -21.0721 -21.0511 -21.0381 -21.0231 -21.0207
   -21.0096 -21.0086 -21.0021 -20.9956 -20.9913 -20.9789 -20.9477 -20.9465
   -20.9354 -20.9283 -20.9190 -20.9118 -20.9094 -20.9043 -20.9036 -20.8896
   -20.8864 -20.8819 -20.8789 -20.8774 -20.8724 -20.8708 -20.8640 -20.8633
   -20.8615 -20.8589 -20.8558 -20.8445 -20.8353 -20.8242 -20.8132 -20.8104
   -20.8065 -20.8043 -20.7980 -20.7957 -20.7882 -20.7853 -20.7842 -20.7767
   -20.7737 -20.7708 -20.7688 -20.7659 -20.7629 -20.7614 -20.7580 -20.7518
   -20.7460 -20.7395 -20.7364 -20.7355 -19.3874  -9.3536  -8.4331  -7.5485
    -7.0558  -6.8571  -6.2987  -6.0654  -5.6157  -5.1982  -5.0930  -4.7318
    -4.4345  -4.1804  -3.1372  -2.8760  -2.3923  -1.8630  -1.6264  -1.4870
    -1.0985  -0.8482  -0.6244  -0.4151   0.3174   0.5609   0.9298   0.9448
     1.2241   1.4128   1.9350   2.5196   2.7230   2.8477   3.0106   3.0988
     3.2025

          k = 0.0248-0.1001 0.0000 ( 25368 PWs)   bands (ev):

   -21.2401 -21.0913 -21.0725 -21.0578 -21.0446 -21.0425 -21.0331 -21.0196
   -21.0123 -21.0070 -21.0054 -21.0024 -20.9875 -20.9770 -20.9521 -20.9391
   -20.9219 -20.9186 -20.9103 -20.9028 -20.8989 -20.8982 -20.8962 -20.8885
   -20.8873 -20.8823 -20.8765 -20.8734 -20.8688 -20.8650 -20.8645 -20.8553
   -20.8537 -20.8477 -20.8432 -20.8351 -20.8293 -20.8241 -20.8212 -20.8155
   -20.8123 -20.8071 -20.8046 -20.8009 -20.7985 -20.7938 -20.7913 -20.7896
   -20.7884 -20.7842 -20.7813 -20.7748 -20.7718 -20.7679 -20.7641 -20.7622
   -20.7566 -20.7537 -20.7390 -20.7361 -19.3857  -8.8923  -8.3023  -7.9187
    -7.4264  -7.1617  -6.6094  -6.1747  -5.6826  -5.3290  -5.0497  -4.8343
    -4.3336  -4.0332  -3.4853  -2.8120  -1.7614  -1.2754  -0.9176  -0.7353
    -0.5502  -0.4099  -0.0786   0.1154   0.2291   0.6016   0.8792   1.1809
     1.2656   1.5904   1.7917   2.1436   2.4295   2.5395   2.6993   2.8045
     2.9504

          k = 0.0248-0.0715 0.0000 ( 25368 PWs)   bands (ev):

   -21.2401 -21.0913 -21.0725 -21.0578 -21.0446 -21.0425 -21.0331 -21.0196
   -21.0123 -21.0070 -21.0054 -21.0024 -20.9875 -20.9770 -20.9521 -20.9391
   -20.9219 -20.9186 -20.9103 -20.9028 -20.8989 -20.8982 -20.8962 -20.8885
   -20.8873 -20.8823 -20.8765 -20.8734 -20.8688 -20.8650 -20.8645 -20.8553
   -20.8537 -20.8477 -20.8432 -20.8351 -20.8293 -20.8241 -20.8212 -20.8155
   -20.8123 -20.8071 -20.8046 -20.8009 -20.7985 -20.7938 -20.7913 -20.7896
   -20.7884 -20.7842 -20.7813 -20.7748 -20.7718 -20.7679 -20.7641 -20.7622
   -20.7566 -20.7537 -20.7390 -20.7361 -19.3857  -8.8923  -8.3023  -7.9187
    -7.4264  -7.1617  -6.6094  -6.1747  -5.6826  -5.3290  -5.0497  -4.8343
    -4.3336  -4.0332  -3.4853  -2.8120  -1.7614  -1.2754  -0.9176  -0.7353
    -0.5502  -0.4099  -0.0786   0.1154   0.2291   0.6016   0.8792   1.1809
     1.2656   1.5904   1.7917   2.1436   2.4295   2.5395   2.6993   2.8045
     2.9504

          k = 0.0248-0.0429 0.0000 ( 25362 PWs)   bands (ev):

   -21.2528 -21.0943 -21.0920 -21.0721 -21.0511 -21.0381 -21.0231 -21.0207
   -21.0096 -21.0086 -21.0021 -20.9956 -20.9913 -20.9789 -20.9477 -20.9465
   -20.9354 -20.9283 -20.9190 -20.9118 -20.9094 -20.9043 -20.9036 -20.8896
   -20.8864 -20.8819 -20.8789 -20.8774 -20.8724 -20.8708 -20.8640 -20.8633
   -20.8615 -20.8590 -20.8558 -20.8445 -20.8353 -20.8242 -20.8132 -20.8104
   -20.8065 -20.8043 -20.7980 -20.7957 -20.7882 -20.7853 -20.7842 -20.7767
   -20.7737 -20.7708 -20.7688 -20.7659 -20.7629 -20.7614 -20.7580 -20.7518
   -20.7460 -20.7395 -20.7364 -20.7355 -19.3874  -9.3536  -8.4331  -7.5485
    -7.0558  -6.8571  -6.2987  -6.0654  -5.6157  -5.1982  -5.0930  -4.7318
    -4.4345  -4.1804  -3.1372  -2.8760  -2.3923  -1.8630  -1.6264  -1.4870
    -1.0985  -0.8482  -0.6244  -0.4151   0.3174   0.5609   0.9298   0.9448
     1.2241   1.4128   1.9350   2.5196   2.7230   2.8477   3.0106   3.0988
     3.2025

          k = 0.0496-0.0286 0.0000 ( 25367 PWs)   bands (ev):

   -21.2488 -21.0993 -21.0777 -21.0671 -21.0534 -21.0361 -21.0257 -21.0186
   -21.0165 -21.0044 -21.0044 -20.9980 -20.9909 -20.9785 -20.9518 -20.9393
   -20.9292 -20.9238 -20.9227 -20.9119 -20.9056 -20.9022 -20.8979 -20.8890
   -20.8853 -20.8831 -20.8771 -20.8746 -20.8704 -20.8665 -20.8660 -20.8613
   -20.8586 -20.8575 -20.8515 -20.8434 -20.8331 -20.8208 -20.8141 -20.8121
   -20.8099 -20.8084 -20.8001 -20.7982 -20.7923 -20.7876 -20.7864 -20.7808
   -20.7765 -20.7736 -20.7704 -20.7695 -20.7661 -20.7631 -20.7604 -20.7584
   -20.7556 -20.7489 -20.7332 -20.7292 -19.3868  -9.2346  -8.3678  -7.7669
    -7.2586  -6.5141  -6.3333  -6.1979  -5.7549  -5.5667  -5.1173  -4.7026
    -4.3723  -4.0750  -3.2158  -2.7981  -1.9552  -1.8946  -1.6244  -0.9982
    -0.9713  -0.7623  -0.3275  -0.0212   0.2294   0.5615   0.8936   1.0255
     1.1780   1.7889   1.8605   2.0309   2.1637   2.4234   2.7185   3.1795
     3.2548

          k = 0.0496 0.0000 0.0000 ( 25362 PWs)   bands (ev):

   -21.2528 -21.0943 -21.0920 -21.0721 -21.0511 -21.0381 -21.0231 -21.0207
   -21.0096 -21.0086 -21.0021 -20.9956 -20.9913 -20.9789 -20.9477 -20.9465
   -20.9354 -20.9283 -20.9190 -20.9118 -20.9094 -20.9043 -20.9036 -20.8896
   -20.8864 -20.8819 -20.8789 -20.8774 -20.8724 -20.8708 -20.8640 -20.8633
   -20.8615 -20.8589 -20.8558 -20.8445 -20.8353 -20.8242 -20.8132 -20.8104
   -20.8065 -20.8043 -20.7980 -20.7957 -20.7882 -20.7853 -20.7842 -20.7767
   -20.7737 -20.7708 -20.7688 -20.7659 -20.7629 -20.7614 -20.7580 -20.7518
   -20.7460 -20.7395 -20.7364 -20.7355 -19.3874  -9.3536  -8.4331  -7.5485
    -7.0558  -6.8571  -6.2987  -6.0654  -5.6157  -5.1982  -5.0930  -4.7318
    -4.4345  -4.1804  -3.1372  -2.8760  -2.3923  -1.8630  -1.6264  -1.4870
    -1.0985  -0.8482  -0.6244  -0.4151   0.3174   0.5609   0.9298   0.9448
     1.2241   1.4128   1.9350   2.5196   2.7230   2.8477   3.0106   3.0988
     3.2025

          k = 0.0496 0.0286 0.0000 ( 25367 PWs)   bands (ev):

   -21.2488 -21.0993 -21.0777 -21.0671 -21.0534 -21.0361 -21.0257 -21.0186
   -21.0165 -21.0044 -21.0044 -20.9980 -20.9909 -20.9785 -20.9518 -20.9393
   -20.9292 -20.9238 -20.9227 -20.9119 -20.9056 -20.9022 -20.8979 -20.8890
   -20.8853 -20.8831 -20.8771 -20.8746 -20.8704 -20.8665 -20.8660 -20.8613
   -20.8586 -20.8575 -20.8515 -20.8434 -20.8331 -20.8208 -20.8141 -20.8121
   -20.8099 -20.8084 -20.8001 -20.7982 -20.7923 -20.7876 -20.7864 -20.7808
   -20.7765 -20.7736 -20.7704 -20.7695 -20.7661 -20.7631 -20.7604 -20.7584
   -20.7556 -20.7489 -20.7332 -20.7292 -19.3868  -9.2346  -8.3678  -7.7669
    -7.2586  -6.5141  -6.3333  -6.1979  -5.7549  -5.5667  -5.1173  -4.7026
    -4.3723  -4.0750  -3.2158  -2.7981  -1.9552  -1.8946  -1.6244  -0.9982
    -0.9713  -0.7623  -0.3275  -0.0212   0.2294   0.5615   0.8936   1.0255
     1.1780   1.7889   1.8605   2.0309   2.1637   2.4234   2.7185   3.1795
     3.2548

          k = 0.0496-0.1144 0.0000 ( 25368 PWs)   bands (ev):

   -21.2401 -21.0913 -21.0725 -21.0578 -21.0446 -21.0425 -21.0331 -21.0196
   -21.0123 -21.0070 -21.0054 -21.0024 -20.9875 -20.9770 -20.9521 -20.9391
   -20.9219 -20.9186 -20.9103 -20.9028 -20.8989 -20.8982 -20.8962 -20.8885
   -20.8873 -20.8823 -20.8765 -20.8734 -20.8688 -20.8650 -20.8645 -20.8553
   -20.8537 -20.8477 -20.8432 -20.8351 -20.8293 -20.8241 -20.8212 -20.8155
   -20.8123 -20.8071 -20.8046 -20.8009 -20.7985 -20.7938 -20.7913 -20.7896
   -20.7884 -20.7842 -20.7813 -20.7748 -20.7718 -20.7679 -20.7641 -20.7622
   -20.7566 -20.7537 -20.7390 -20.7361 -19.3857  -8.8923  -8.3023  -7.9187
    -7.4264  -7.1617  -6.6094  -6.1747  -5.6826  -5.3290  -5.0497  -4.8343
    -4.3336  -4.0332  -3.4853  -2.8120  -1.7614  -1.2754  -0.9176  -0.7353
    -0.5502  -0.4099  -0.0786   0.1154   0.2291   0.6016   0.8792   1.1809
     1.2656   1.5904   1.7917   2.1436   2.4295   2.5395   2.6993   2.8045
     2.9504

          k = 0.0496-0.0858 0.0000 ( 25314 PWs)   bands (ev):

   -21.2353 -21.0739 -21.0727 -21.0682 -21.0565 -21.0316 -21.0260 -21.0211
   -21.0132 -21.0076 -21.0068 -21.0028 -20.9787 -20.9719 -20.9719 -20.9182
   -20.9167 -20.9140 -20.9097 -20.9032 -20.9028 -20.9014 -20.8971 -20.8899
   -20.8874 -20.8836 -20.8736 -20.8686 -20.8641 -20.8635 -20.8566 -20.8489
   -20.8461 -20.8455 -20.8430 -20.8403 -20.8301 -20.8239 -20.8222 -20.8184
   -20.8170 -20.8138 -20.8060 -20.8024 -20.8011 -20.7987 -20.7944 -20.7941
   -20.7899 -20.7842 -20.7840 -20.7736 -20.7699 -20.7667 -20.7659 -20.7609
   -20.7594 -20.7555 -20.7541 -20.7423 -19.3851  -8.5638  -8.1821  -8.1528
    -7.7166  -7.0954  -7.0290  -6.2083  -5.5187  -5.5060  -4.7892  -4.5982
    -4.2960  -4.1359  -3.6612  -2.8567  -1.2465  -1.2355  -1.1577  -0.6776
    -0.6172  -0.5796   0.3970   0.4997   0.5002   0.9864   1.0009   1.2482
     1.6264   1.6744   1.7785   2.0740   2.1606   2.3434   2.6672   2.6783
     2.7520

          k = 0.0496-0.0572 0.0000 ( 25368 PWs)   bands (ev):

   -21.2401 -21.0913 -21.0725 -21.0578 -21.0446 -21.0425 -21.0331 -21.0196
   -21.0123 -21.0070 -21.0054 -21.0024 -20.9875 -20.9770 -20.9521 -20.9391
   -20.9219 -20.9186 -20.9103 -20.9028 -20.8989 -20.8982 -20.8962 -20.8885
   -20.8873 -20.8823 -20.8765 -20.8734 -20.8688 -20.8650 -20.8645 -20.8553
   -20.8537 -20.8477 -20.8432 -20.8351 -20.8293 -20.8241 -20.8212 -20.8155
   -20.8123 -20.8071 -20.8046 -20.8009 -20.7985 -20.7938 -20.7913 -20.7896
   -20.7884 -20.7842 -20.7813 -20.7748 -20.7718 -20.7679 -20.7641 -20.7622
   -20.7566 -20.7537 -20.7390 -20.7361 -19.3857  -8.8923  -8.3023  -7.9187
    -7.4264  -7.1617  -6.6094  -6.1747  -5.6826  -5.3290  -5.0497  -4.8343
    -4.3336  -4.0332  -3.4853  -2.8120  -1.7614  -1.2754  -0.9176  -0.7353
    -0.5502  -0.4099  -0.0786   0.1154   0.2291   0.6016   0.8792   1.1809
     1.2656   1.5904   1.7917   2.1436   2.4295   2.5395   2.6993   2.8045
     2.9504

          k =-0.0743 0.0429 0.0000 ( 25386 PWs)   bands (ev):

   -21.2402 -21.0982 -21.0597 -21.0539 -21.0446 -21.0415 -21.0346 -21.0311
   -21.0123 -21.0058 -21.0045 -21.0019 -20.9921 -20.9762 -20.9476 -20.9457
   -20.9285 -20.9125 -20.9014 -20.9004 -20.8974 -20.8962 -20.8945 -20.8916
   -20.8859 -20.8848 -20.8788 -20.8768 -20.8735 -20.8657 -20.8649 -20.8526
   -20.8467 -20.8441 -20.8436 -20.8383 -20.8276 -20.8217 -20.8197 -20.8152
   -20.8116 -20.8091 -20.8056 -20.7949 -20.7947 -20.7929 -20.7924 -20.7897
   -20.7884 -20.7877 -20.7857 -20.7825 -20.7784 -20.7762 -20.7657 -20.7610
   -20.7587 -20.7517 -20.7331 -20.7292 -19.3857  -8.7527  -8.5457  -7.9971
    -7.4262  -6.7628  -6.4344  -6.1670  -5.8120  -5.6279  -5.4020  -4.6562
    -4.3547  -4.0312  -3.3971  -2.7092  -1.1705  -1.0981  -1.0871  -0.9002
    -0.8905  -0.5669   0.0497   0.2340   0.4323   0.5626   1.0358   1.1411
     1.3992   1.6299   1.7651   1.8930   2.2136   2.2911   2.3363   2.4946
     2.5926

          k =-0.0743 0.0715 0.0000 ( 25368 PWs)   bands (ev):

   -21.2401 -21.0913 -21.0725 -21.0578 -21.0446 -21.0426 -21.0331 -21.0196
   -21.0123 -21.0070 -21.0054 -21.0024 -20.9875 -20.9770 -20.9521 -20.9391
   -20.9219 -20.9186 -20.9103 -20.9028 -20.8989 -20.8982 -20.8962 -20.8885
   -20.8873 -20.8823 -20.8765 -20.8734 -20.8688 -20.8650 -20.8645 -20.8553
   -20.8537 -20.8477 -20.8432 -20.8351 -20.8293 -20.8241 -20.8212 -20.8155
   -20.8123 -20.8071 -20.8046 -20.8009 -20.7985 -20.7938 -20.7913 -20.7896
   -20.7884 -20.7842 -20.7813 -20.7748 -20.7718 -20.7679 -20.7641 -20.7622
   -20.7566 -20.7537 -20.7390 -20.7361 -19.3857  -8.8923  -8.3023  -7.9187
    -7.4264  -7.1617  -6.6094  -6.1747  -5.6826  -5.3290  -5.0497  -4.8343
    -4.3336  -4.0332  -3.4853  -2.8120  -1.7614  -1.2754  -0.9176  -0.7353
    -0.5502  -0.4099  -0.0786   0.1154   0.2291   0.6016   0.8792   1.1809
     1.2656   1.5904   1.7917   2.1436   2.4295   2.5395   2.6993   2.8045
     2.9504

          k =-0.0743 0.1001 0.0000 ( 25368 PWs)   bands (ev):

   -21.2401 -21.0913 -21.0725 -21.0578 -21.0446 -21.0426 -21.0331 -21.0196
   -21.0123 -21.0070 -21.0054 -21.0024 -20.9875 -20.9770 -20.9521 -20.9391
   -20.9219 -20.9186 -20.9103 -20.9028 -20.8989 -20.8982 -20.8962 -20.8885
   -20.8873 -20.8823 -20.8765 -20.8734 -20.8688 -20.8650 -20.8645 -20.8553
   -20.8537 -20.8477 -20.8432 -20.8351 -20.8293 -20.8241 -20.8212 -20.8155
   -20.8123 -20.8071 -20.8046 -20.8009 -20.7985 -20.7938 -20.7913 -20.7896
   -20.7884 -20.7842 -20.7813 -20.7748 -20.7718 -20.7679 -20.7641 -20.7622
   -20.7566 -20.7537 -20.7390 -20.7361 -19.3857  -8.8923  -8.3023  -7.9187
    -7.4264  -7.1617  -6.6094  -6.1747  -5.6826  -5.3290  -5.0497  -4.8343
    -4.3336  -4.0332  -3.4853  -2.8120  -1.7614  -1.2754  -0.9176  -0.7353
    -0.5502  -0.4099  -0.0786   0.1154   0.2291   0.6016   0.8792   1.1809
     1.2656   1.5904   1.7917   2.1436   2.4295   2.5395   2.6993   2.8045
     2.9504

          k =-0.0743-0.0429 0.0000 ( 25386 PWs)   bands (ev):

   -21.2402 -21.0982 -21.0597 -21.0539 -21.0446 -21.0415 -21.0346 -21.0311
   -21.0123 -21.0058 -21.0045 -21.0019 -20.9921 -20.9762 -20.9476 -20.9457
   -20.9285 -20.9125 -20.9014 -20.9004 -20.8974 -20.8962 -20.8945 -20.8916
   -20.8859 -20.8848 -20.8788 -20.8768 -20.8735 -20.8657 -20.8649 -20.8526
   -20.8467 -20.8441 -20.8436 -20.8383 -20.8276 -20.8217 -20.8198 -20.8152
   -20.8116 -20.8091 -20.8056 -20.7949 -20.7947 -20.7929 -20.7924 -20.7897
   -20.7884 -20.7877 -20.7857 -20.7825 -20.7784 -20.7762 -20.7657 -20.7610
   -20.7587 -20.7517 -20.7331 -20.7292 -19.3857  -8.7527  -8.5457  -7.9971
    -7.4262  -6.7628  -6.4344  -6.1670  -5.8120  -5.6279  -5.4020  -4.6562
    -4.3547  -4.0312  -3.3971  -2.7092  -1.1705  -1.0981  -1.0871  -0.9002
    -0.8905  -0.5669   0.0497   0.2340   0.4323   0.5626   1.0358   1.1411
     1.3992   1.6299   1.7651   1.8930   2.2136   2.2911   2.3363   2.4946
     2.5926

     the Fermi energy is     1.1109 ev

!    total energy              =   -1962.08185673 Ry
     Harris-Foulkes estimate   =   -1962.08186350 Ry
     estimated scf accuracy    <       0.00000477 Ry

     The total energy is the sum of the following terms:

     one-electron contribution =  -10778.36986248 Ry
     hartree contribution      =    5456.89579023 Ry
     xc contribution           =    -542.31559046 Ry
     ewald contribution        =    3901.75051797 Ry
     electric field correction =       0.00014601 Ry
     smearing contrib. (-TS)   =      -0.04285800 Ry

     convergence has been achieved in   6 iterations
 
 BEEF-vdW xc energy contributions
           1 :   -476.344284677301     
           2 :    435.798224263855     
           3 :   -367.076988723117     
           4 :    289.350647432604     
           5 :   -220.752503915203     
           6 :    172.018267349369     
           7 :   -144.130322915965     
           8 :    130.419578751047     
           9 :   -121.564074591659     
          10 :    110.692609788223     
          11 :   -96.0985137202703     
          12 :    80.6111307475028     
          13 :   -68.5944932513861     
          14 :    62.6747666568294     
          15 :   -62.1285797999664     
          16 :    63.6070006337244     
          17 :   -63.4161368958361     
          18 :    59.7479948671596     
          19 :   -53.5043935948172     
          20 :    47.3706395211966     
          21 :   -43.9020448287746     
          22 :    43.8992686254627     
          23 :   -46.0500497188840     
          24 :    47.9311156542620     
          25 :   -47.6121773948599     
          26 :    44.7971991500236     
          27 :   -40.8358577816658     
          28 :    37.7060229600310     
          29 :   -36.7051976872270     
          30 :    37.6992203537824     
          31 :   -41.8286293936992     
          32 :   -30.4013459808580     

     Forces acting on atoms (Ry/au):


     negative rho (up, down):  5.364E-04 0.000E+00
     atom    1 type  1   force =    -0.00003053   -0.00001607    0.00137983
     atom    2 type  1   force =     0.00003143   -0.00001833    0.00137982
     atom    3 type  1   force =    -0.00000063    0.00003611    0.00137308
     atom    4 type  1   force =     0.00000037   -0.00000134    0.00332904
     atom    5 type  1   force =     0.00000099   -0.00060357   -0.00947107
     atom    6 type  1   force =     0.00000106   -0.00000110    0.00364272
     atom    7 type  1   force =     0.00052077    0.00030173   -0.00947758
     atom    8 type  1   force =    -0.00052040    0.00030300   -0.00947399
     atom    9 type  1   force =    -0.00000011    0.00000331   -0.00341584
     atom   10 type  1   force =    -0.00000438   -0.01196125   -0.00712400
     atom   11 type  1   force =    -0.01035792    0.00598038   -0.00712266
     atom   12 type  1   force =     0.01035940    0.00597766   -0.00712099
     atom   13 type  2   force =     0.00000005   -0.00000014    0.06746044
     atom   14 type  3   force =    -0.00000010   -0.00000039   -0.02535880

     Total force =     0.076072     Total SCF correction =     0.005306


     entering subroutine stress ...


     negative rho (up, down):  5.364E-04 0.000E+00
          total   stress  (Ry/bohr**3)                   (kbar)     P=    0.66
   0.00001559   0.00000000  -0.00000000          2.29      0.00     -0.00
   0.00000000   0.00001559  -0.00000000          0.00      2.29     -0.00
  -0.00000000  -0.00000000  -0.00001775         -0.00     -0.00     -2.61


     number of scf cycles    =   2
     number of bfgs steps    =   1

     energy   old            =   -1962.0804038416 Ry
     energy   new            =   -1962.0818567346 Ry

[...]
     1.0669   1.2262   1.7800   2.4167   2.6182   2.7257   2.9361   3.0134
     3.0933

          k = 0.0248-0.1001 0.0000 ( 25368 PWs)   bands (ev):

   -21.1968 -21.1717 -21.1543 -21.1349 -21.1304 -21.1254 -21.1181 -21.1085
   -21.1038 -21.1012 -21.0955 -21.0924 -21.0776 -21.0606 -21.0465 -21.0364
   -21.0325 -21.0287 -21.0178 -21.0110 -21.0085 -21.0074 -21.0056 -20.9975
   -20.9955 -20.9930 -20.9883 -20.9842 -20.9810 -20.9757 -20.9727 -20.9718
   -20.9681 -20.9640 -20.9581 -20.9510 -20.9461 -20.9415 -20.9362 -20.9321
   -20.9295 -20.9240 -20.9189 -20.9158 -20.9130 -20.9084 -20.9060 -20.9025
   -20.9018 -20.8999 -20.8938 -20.8891 -20.8840 -20.8802 -20.8799 -20.8782
   -20.8711 -20.8657 -20.8505 -20.8497 -18.7380  -8.8402  -8.1253  -7.8768
    -7.3746  -7.1465  -6.5677  -6.1461  -5.6686  -5.2845  -5.0634  -4.7819
    -4.3756  -4.0440  -2.8879  -2.4562  -1.8337  -1.3529  -1.0031  -0.8451
    -0.6045  -0.5277  -0.1622   0.0005   0.1615   0.4847   0.7448   1.0658
     1.1965   1.4999   1.6161   2.0298   2.3672   2.4420   2.5519   2.6870
     2.8128

          k = 0.0248-0.0715 0.0000 ( 25368 PWs)   bands (ev):

   -21.1968 -21.1717 -21.1543 -21.1349 -21.1304 -21.1254 -21.1181 -21.1085
   -21.1038 -21.1012 -21.0955 -21.0924 -21.0776 -21.0606 -21.0465 -21.0364
   -21.0325 -21.0287 -21.0178 -21.0110 -21.0085 -21.0074 -21.0056 -20.9975
   -20.9955 -20.9930 -20.9883 -20.9842 -20.9810 -20.9757 -20.9727 -20.9718
   -20.9681 -20.9640 -20.9581 -20.9510 -20.9461 -20.9415 -20.9362 -20.9321
   -20.9295 -20.9240 -20.9189 -20.9158 -20.9130 -20.9084 -20.9060 -20.9025
   -20.9018 -20.8999 -20.8938 -20.8891 -20.8840 -20.8802 -20.8799 -20.8782
   -20.8711 -20.8657 -20.8505 -20.8497 -18.7380  -8.8402  -8.1253  -7.8768
    -7.3746  -7.1465  -6.5677  -6.1461  -5.6686  -5.2845  -5.0634  -4.7819
    -4.3756  -4.0440  -2.8879  -2.4562  -1.8337  -1.3529  -1.0031  -0.8451
    -0.6045  -0.5277  -0.1622   0.0005   0.1615   0.4847   0.7448   1.0659
     1.1965   1.4999   1.6162   2.0298   2.3672   2.4420   2.5519   2.6870
     2.8128

          k = 0.0248-0.0429 0.0000 ( 25362 PWs)   bands (ev):

   -21.2094 -21.1754 -21.1733 -21.1546 -21.1321 -21.1242 -21.1151 -21.1089
   -21.1021 -21.0968 -21.0945 -21.0836 -21.0800 -21.0610 -21.0563 -21.0559
   -21.0381 -21.0281 -21.0203 -21.0199 -21.0187 -21.0154 -21.0140 -20.9999
   -20.9981 -20.9917 -20.9889 -20.9868 -20.9859 -20.9824 -20.9782 -20.9759
   -20.9735 -20.9720 -20.9696 -20.9620 -20.9487 -20.9400 -20.9340 -20.9289
   -20.9259 -20.9164 -20.9096 -20.9037 -20.9012 -20.8999 -20.8991 -20.8922
   -20.8881 -20.8860 -20.8834 -20.8789 -20.8788 -20.8767 -20.8711 -20.8661
   -20.8585 -20.8535 -20.8487 -20.8477 -18.7385  -9.3390  -8.3147  -7.3074
    -7.0629  -6.8531  -6.2981  -6.0133  -5.5044  -5.2342  -5.0084  -4.6390
    -4.4286  -4.1913  -2.7333  -2.5221  -2.4653  -1.9150  -1.6892  -1.5647
    -1.2052  -1.0235  -0.7119  -0.5732   0.2122   0.4049   0.8052   0.8958
     1.0669   1.2262   1.7800   2.4167   2.6181   2.7257   2.9361   3.0133
     3.0933

          k = 0.0496-0.0286 0.0000 ( 25367 PWs)   bands (ev):

   -21.2062 -21.1790 -21.1598 -21.1499 -21.1338 -21.1212 -21.1130 -21.1098
   -21.1064 -21.0980 -21.0941 -21.0839 -21.0825 -21.0617 -21.0604 -21.0377
   -21.0347 -21.0341 -21.0231 -21.0186 -21.0157 -21.0118 -21.0077 -20.9991
   -20.9958 -20.9912 -20.9902 -20.9835 -20.9828 -20.9771 -20.9765 -20.9746
   -20.9740 -20.9701 -20.9662 -20.9628 -20.9475 -20.9373 -20.9334 -20.9298
   -20.9277 -20.9201 -20.9145 -20.9115 -20.9062 -20.9024 -20.9005 -20.8951
   -20.8899 -20.8860 -20.8854 -20.8811 -20.8809 -20.8785 -20.8758 -20.8721
   -20.8702 -20.8606 -20.8444 -20.8437 -18.7384  -9.2137  -8.2127  -7.7231
    -7.0961  -6.5084  -6.2545  -6.2418  -5.7868  -5.4044  -5.1310  -4.7280
    -4.2869  -4.0310  -2.7864  -2.4727  -1.9911  -1.9753  -1.7157  -1.0897
    -1.0810  -0.8303  -0.4210  -0.1506   0.0671   0.4234   0.7908   0.9693
     1.0953   1.6771   1.7196   1.8026   2.1077   2.2491   2.5810   3.0446
     3.1334

          k = 0.0496 0.0000 0.0000 ( 25362 PWs)   bands (ev):

   -21.2094 -21.1754 -21.1733 -21.1546 -21.1321 -21.1242 -21.1151 -21.1089
   -21.1021 -21.0968 -21.0945 -21.0836 -21.0800 -21.0610 -21.0563 -21.0559
   -21.0381 -21.0281 -21.0203 -21.0199 -21.0187 -21.0154 -21.0140 -20.9999
   -20.9981 -20.9917 -20.9889 -20.9868 -20.9859 -20.9824 -20.9782 -20.9759
   -20.9735 -20.9720 -20.9696 -20.9620 -20.9487 -20.9400 -20.9340 -20.9289
   -20.9259 -20.9164 -20.9096 -20.9037 -20.9012 -20.8999 -20.8991 -20.8922
   -20.8881 -20.8860 -20.8834 -20.8789 -20.8788 -20.8767 -20.8711 -20.8661
   -20.8585 -20.8535 -20.8487 -20.8477 -18.7385  -9.3390  -8.3147  -7.3074
    -7.0629  -6.8531  -6.2981  -6.0133  -5.5044  -5.2342  -5.0084  -4.6390
    -4.4286  -4.1914  -2.7333  -2.5221  -2.4653  -1.9150  -1.6892  -1.5647
    -1.2052  -1.0235  -0.7119  -0.5732   0.2122   0.4049   0.8052   0.8958
     1.0669   1.2262   1.7800   2.4167   2.6182   2.7257   2.9361   3.0133
     3.0933

          k = 0.0496 0.0286 0.0000 ( 25367 PWs)   bands (ev):

   -21.2062 -21.1790 -21.1598 -21.1499 -21.1338 -21.1212 -21.1130 -21.1098
   -21.1064 -21.0980 -21.0941 -21.0839 -21.0825 -21.0616 -21.0604 -21.0377
   -21.0347 -21.0341 -21.0231 -21.0186 -21.0157 -21.0118 -21.0077 -20.9991
   -20.9958 -20.9912 -20.9902 -20.9835 -20.9828 -20.9771 -20.9765 -20.9746
   -20.9740 -20.9701 -20.9662 -20.9628 -20.9475 -20.9373 -20.9334 -20.9298
   -20.9277 -20.9201 -20.9145 -20.9115 -20.9062 -20.9024 -20.9005 -20.8951
   -20.8899 -20.8860 -20.8854 -20.8811 -20.8809 -20.8785 -20.8758 -20.8721
   -20.8702 -20.8606 -20.8444 -20.8437 -18.7384  -9.2137  -8.2127  -7.7231
    -7.0961  -6.5084  -6.2545  -6.2418  -5.7869  -5.4044  -5.1310  -4.7280
    -4.2869  -4.0310  -2.7864  -2.4727  -1.9911  -1.9753  -1.7157  -1.0897
    -1.0810  -0.8303  -0.4210  -0.1506   0.0671   0.4234   0.7908   0.9693
     1.0953   1.6771   1.7196   1.8026   2.1077   2.2491   2.5810   3.0446
     3.1334

          k = 0.0496-0.1144 0.0000 ( 25368 PWs)   bands (ev):

   -21.1968 -21.1717 -21.1543 -21.1349 -21.1304 -21.1254 -21.1181 -21.1085
   -21.1038 -21.1012 -21.0955 -21.0924 -21.0776 -21.0606 -21.0465 -21.0364
   -21.0325 -21.0287 -21.0178 -21.0110 -21.0085 -21.0074 -21.0056 -20.9975
   -20.9955 -20.9930 -20.9883 -20.9842 -20.9810 -20.9757 -20.9727 -20.9718
   -20.9681 -20.9640 -20.9581 -20.9510 -20.9461 -20.9415 -20.9362 -20.9321
   -20.9295 -20.9240 -20.9189 -20.9158 -20.9130 -20.9084 -20.9060 -20.9025
   -20.9018 -20.8999 -20.8938 -20.8891 -20.8840 -20.8802 -20.8799 -20.8782
   -20.8711 -20.8657 -20.8505 -20.8497 -18.7380  -8.8402  -8.1253  -7.8768
    -7.3746  -7.1465  -6.5677  -6.1461  -5.6686  -5.2845  -5.0634  -4.7819
    -4.3756  -4.0440  -2.8879  -2.4562  -1.8337  -1.3529  -1.0031  -0.8451
    -0.6045  -0.5277  -0.1622   0.0005   0.1615   0.4847   0.7448   1.0659
     1.1965   1.4999   1.6161   2.0298   2.3672   2.4420   2.5519   2.6870
     2.8128

          k = 0.0496-0.0858 0.0000 ( 25314 PWs)   bands (ev):

   -21.1905 -21.1540 -21.1527 -21.1517 -21.1356 -21.1164 -21.1126 -21.1117
   -21.1025 -21.0994 -21.0991 -21.0956 -21.0619 -21.0614 -21.0549 -21.0249
   -21.0239 -21.0221 -21.0172 -21.0140 -21.0131 -21.0109 -21.0050 -20.9989
   -20.9964 -20.9943 -20.9896 -20.9764 -20.9760 -20.9758 -20.9716 -20.9659
   -20.9641 -20.9585 -20.9517 -20.9496 -20.9435 -20.9434 -20.9381 -20.9356
   -20.9334 -20.9288 -20.9244 -20.9210 -20.9169 -20.9139 -20.9087 -20.9075
   -20.9048 -20.8970 -20.8968 -20.8858 -20.8836 -20.8814 -20.8813 -20.8777
   -20.8723 -20.8701 -20.8649 -20.8536 -18.7379  -8.2947  -8.2357  -8.1443
    -7.5998  -7.0664  -7.0639  -6.1452  -5.5419  -5.4685  -4.7275  -4.5167
    -4.4194  -4.2453  -2.9365  -2.4713  -1.3539  -1.3176  -1.2188  -0.7825
    -0.6862  -0.6859   0.2732   0.3054   0.3109   0.9459   0.9477   1.1269
     1.5806   1.6130   1.6821   2.0198   2.1054   2.1748   2.5280   2.6314
     2.6413

          k = 0.0496-0.0572 0.0000 ( 25368 PWs)   bands (ev):

   -21.1968 -21.1717 -21.1543 -21.1349 -21.1304 -21.1254 -21.1181 -21.1085
   -21.1038 -21.1012 -21.0955 -21.0924 -21.0776 -21.0606 -21.0465 -21.0364
   -21.0325 -21.0287 -21.0178 -21.0110 -21.0085 -21.0074 -21.0056 -20.9975
   -20.9955 -20.9930 -20.9883 -20.9842 -20.9810 -20.9757 -20.9727 -20.9718
   -20.9681 -20.9640 -20.9581 -20.9510 -20.9461 -20.9415 -20.9362 -20.9321
   -20.9295 -20.9240 -20.9189 -20.9158 -20.9130 -20.9084 -20.9060 -20.9025
   -20.9018 -20.8999 -20.8938 -20.8891 -20.8840 -20.8802 -20.8799 -20.8782
   -20.8711 -20.8657 -20.8505 -20.8497 -18.7380  -8.8402  -8.1253  -7.8768
    -7.3746  -7.1465  -6.5677  -6.1461  -5.6686  -5.2845  -5.0634  -4.7819
    -4.3756  -4.0440  -2.8879  -2.4562  -1.8337  -1.3529  -1.0031  -0.8451
    -0.6045  -0.5277  -0.1623   0.0005   0.1615   0.4847   0.7448   1.0659
     1.1965   1.5000   1.6162   2.0298   2.3672   2.4420   2.5519   2.6870
     2.8128

          k =-0.0743 0.0429 0.0000 ( 25386 PWs)   bands (ev):

   -21.1986 -21.1769 -21.1382 -21.1361 -21.1272 -21.1261 -21.1214 -21.1155
   -21.1019 -21.1009 -21.0959 -21.0918 -21.0832 -21.0618 -21.0517 -21.0432
   -21.0313 -21.0184 -21.0116 -21.0090 -21.0080 -21.0064 -21.0045 -20.9994
   -20.9949 -20.9925 -20.9870 -20.9842 -20.9833 -20.9822 -20.9718 -20.9694
   -20.9679 -20.9603 -20.9540 -20.9496 -20.9492 -20.9390 -20.9358 -20.9342
   -20.9324 -20.9225 -20.9186 -20.9129 -20.9108 -20.9058 -20.9045 -20.9035
   -20.9025 -20.9010 -20.9001 -20.8949 -20.8931 -20.8850 -20.8783 -20.8777
   -20.8760 -20.8632 -20.8443 -20.8440 -18.7380  -8.6243  -8.5588  -7.8140
    -7.4326  -6.6591  -6.3499  -6.2176  -5.8482  -5.4737  -5.4662  -4.7902
    -4.2607  -3.9372  -2.8885  -2.3869  -1.2449  -1.1402  -1.1048  -1.0113
    -0.9535  -0.6900  -0.0402   0.1468   0.2488   0.4488   0.9861   1.1197
     1.3498   1.5285   1.6342   1.7867   2.1398   2.1421   2.2416   2.3088
     2.3812

          k =-0.0743 0.0715 0.0000 ( 25368 PWs)   bands (ev):

   -21.1968 -21.1717 -21.1543 -21.1349 -21.1304 -21.1254 -21.1181 -21.1085
   -21.1038 -21.1012 -21.0955 -21.0924 -21.0776 -21.0606 -21.0465 -21.0364
   -21.0325 -21.0287 -21.0178 -21.0110 -21.0085 -21.0074 -21.0056 -20.9975
   -20.9955 -20.9930 -20.9883 -20.9842 -20.9810 -20.9757 -20.9727 -20.9718
   -20.9681 -20.9640 -20.9581 -20.9510 -20.9461 -20.9415 -20.9362 -20.9321
   -20.9295 -20.9240 -20.9189 -20.9158 -20.9130 -20.9084 -20.9060 -20.9025
   -20.9018 -20.8999 -20.8938 -20.8891 -20.8840 -20.8802 -20.8799 -20.8782
   -20.8711 -20.8657 -20.8505 -20.8497 -18.7380  -8.8402  -8.1253  -7.8768
    -7.3746  -7.1465  -6.5677  -6.1461  -5.6686  -5.2845  -5.0634  -4.7819
    -4.3756  -4.0440  -2.8879  -2.4562  -1.8337  -1.3529  -1.0031  -0.8451
    -0.6045  -0.5277  -0.1622   0.0005   0.1615   0.4847   0.7448   1.0658
     1.1965   1.5000   1.6161   2.0298   2.3672   2.4420   2.5519   2.6870
     2.8128

          k =-0.0743 0.1001 0.0000 ( 25368 PWs)   bands (ev):

   -21.1968 -21.1717 -21.1543 -21.1349 -21.1304 -21.1254 -21.1181 -21.1085
   -21.1038 -21.1012 -21.0955 -21.0924 -21.0776 -21.0606 -21.0465 -21.0364
   -21.0325 -21.0287 -21.0178 -21.0110 -21.0085 -21.0074 -21.0056 -20.9975
   -20.9955 -20.9930 -20.9883 -20.9842 -20.9810 -20.9757 -20.9727 -20.9718
   -20.9681 -20.9640 -20.9581 -20.9510 -20.9461 -20.9415 -20.9362 -20.9321
   -20.9295 -20.9240 -20.9189 -20.9158 -20.9130 -20.9084 -20.9060 -20.9025
   -20.9018 -20.8999 -20.8938 -20.8891 -20.8840 -20.8802 -20.8799 -20.8782
   -20.8711 -20.8657 -20.8505 -20.8497 -18.7380  -8.8402  -8.1253  -7.8768
    -7.3746  -7.1465  -6.5677  -6.1461  -5.6686  -5.2845  -5.0634  -4.7819
    -4.3756  -4.0440  -2.8879  -2.4562  -1.8337  -1.3529  -1.0031  -0.8451
    -0.6045  -0.5277  -0.1622   0.0005   0.1615   0.4847   0.7448   1.0659
     1.1965   1.4999   1.6162   2.0298   2.3672   2.4420   2.5519   2.6870
     2.8128

          k =-0.0743-0.0429 0.0000 ( 25386 PWs)   bands (ev):

   -21.1986 -21.1769 -21.1382 -21.1361 -21.1272 -21.1261 -21.1214 -21.1155
   -21.1019 -21.1009 -21.0959 -21.0918 -21.0832 -21.0618 -21.0517 -21.0432
   -21.0313 -21.0184 -21.0116 -21.0090 -21.0080 -21.0064 -21.0045 -20.9994
   -20.9949 -20.9925 -20.9870 -20.9842 -20.9833 -20.9822 -20.9718 -20.9694
   -20.9679 -20.9603 -20.9540 -20.9496 -20.9492 -20.9390 -20.9358 -20.9342
   -20.9324 -20.9225 -20.9186 -20.9129 -20.9108 -20.9058 -20.9045 -20.9035
   -20.9025 -20.9010 -20.9001 -20.8949 -20.8931 -20.8850 -20.8783 -20.8777
   -20.8760 -20.8632 -20.8443 -20.8440 -18.7380  -8.6243  -8.5588  -7.8140
    -7.4326  -6.6592  -6.3499  -6.2176  -5.8482  -5.4737  -5.4662  -4.7902
    -4.2607  -3.9372  -2.8885  -2.3869  -1.2449  -1.1401  -1.1048  -1.0113
    -0.9534  -0.6900  -0.0402   0.1468   0.2487   0.4488   0.9861   1.1197
     1.3498   1.5285   1.6342   1.7867   2.1398   2.1421   2.2416   2.3088
     2.3812

     the Fermi energy is     1.0108 ev

!    total energy              =   -1962.09492832 Ry
     Harris-Foulkes estimate   =   -1962.09492839 Ry
     estimated scf accuracy    <       0.00000003 Ry

     The total energy is the sum of the following terms:

     one-electron contribution =  -10571.15639340 Ry
     hartree contribution      =    5352.94204554 Ry
     xc contribution           =    -542.19644853 Ry
     ewald contribution        =    3798.35871026 Ry
     electric field correction =       0.00005530 Ry
     smearing contrib. (-TS)   =      -0.04289749 Ry

     convergence has been achieved in   9 iterations
 
 BEEF-vdW xc energy contributions
           1 :   -476.214667999468     
           2 :    435.591313936183     
           3 :   -366.791423482795     
           4 :    289.059136713388     
           5 :   -220.547795307255     
           6 :    171.957107321785     
           7 :   -144.200884771013     
           8 :    130.548327771321     
           9 :   -121.658020352922     
          10 :    110.692245080413     
          11 :   -96.0093064933471     
          12 :    80.4948998207520     
          13 :   -68.5268659043871     
          14 :    62.6955594140945     
          15 :   -62.2165599847430     
          16 :    63.6966235066984     
          17 :   -63.4430456944347     
          18 :    59.6903878645362     
          19 :   -53.3960915436988     
          20 :    47.2795536121003     
          21 :   -43.8865189179501     
          22 :    43.9705407186299     
          23 :   -46.1655840742333     
          24 :    48.0221471360365     
          25 :   -47.6261271683530     
          26 :    44.7281125504766     
          27 :   -40.7253057674067     
          28 :    37.6149383364983     
          29 :   -36.6760922942462     
          30 :    37.7340482183116     
          31 :   -41.8184473334243     
          32 :   -30.3733027971998     

     Forces acting on atoms (Ry/au):


     negative rho (up, down):  5.579E-04 0.000E+00
     atom    1 type  1   force =     0.00036145    0.00020875    0.00092317
     atom    2 type  1   force =    -0.00036038    0.00020907    0.00092426
     atom    3 type  1   force =     0.00000032   -0.00041723    0.00092399
     atom    4 type  1   force =     0.00000014   -0.00000070    0.00348907
     atom    5 type  1   force =     0.00000053    0.00339995   -0.00457416
     atom    6 type  1   force =     0.00000031   -0.00000124    0.00326408
     atom    7 type  1   force =    -0.00294463   -0.00169947   -0.00456925
     atom    8 type  1   force =     0.00294457   -0.00169988   -0.00457441
     atom    9 type  1   force =     0.00000176   -0.00000075    0.00131649
     atom   10 type  1   force =    -0.00000242    0.00105195    0.00105881
     atom   11 type  1   force =     0.00090948   -0.00052571    0.00105918
     atom   12 type  1   force =    -0.00091249   -0.00052455    0.00105815
     atom   13 type  2   force =     0.00000035   -0.00000018   -0.00038498
     atom   14 type  3   force =     0.00000101   -0.00000002    0.00008559

     Total force =     0.002927     Total SCF correction =     0.000460
     SCF correction compared to forces is large: reduce conv_thr to get better values


     entering subroutine stress ...


     negative rho (up, down):  5.579E-04 0.000E+00
          total   stress  (Ry/bohr**3)                   (kbar)     P=   -0.19
   0.00000824   0.00000000   0.00000000          1.21      0.00      0.00
   0.00000000   0.00000824  -0.00000000          0.00      1.21     -0.00
   0.00000000  -0.00000000  -0.00002037          0.00     -0.00     -3.00


     bfgs converged in  19 scf cycles and  18 bfgs steps
     (criteria: energy <  1.0E+00, force <  1.9E-03)

     End of BFGS Geometry Optimization

     Final energy   =   -1962.0949283211 Ry
Begin final coordinates

ATOMIC_POSITIONS (crystal)
Sn1      0.166666667   0.166666667   0.392271209    0   0   0
Sn1      0.666666667   0.166666667   0.392271209    0   0   0
Sn1      0.166666667   0.666666667   0.392271209    0   0   0
Sn1      0.666666667   0.666666667   0.392271209    0   0   0
Sn1      0.833333333   0.333333333   0.500000000    0   0   0
Sn1      0.333333333   0.333333333   0.500000000    0   0   0
Sn1      0.833333333   0.833333333   0.500000000    0   0   0
Sn1      0.333333333   0.833333333   0.500000000    0   0   0
Sn1     -0.000000545   0.000000741   0.605438459
Sn1      0.498978616   0.002043568   0.612687403
Sn1      0.002043709   0.498980767   0.612685711
Sn1      0.498977165   0.498973760   0.612687344
O1       0.333334751   0.333331322   0.675293428
H1       0.333334912   0.333331260   0.713654406
End final coordinates



     Writing output data file calc.save
 
     init_run     :      8.84s CPU     10.39s WALL (       1 calls)
     electrons    :   4169.04s CPU   4993.45s WALL (      19 calls)
     update_pot   :     36.32s CPU     40.37s WALL (      18 calls)
     forces       :    145.25s CPU    154.39s WALL (      19 calls)
     stress       :    414.44s CPU    438.90s WALL (      19 calls)

     Called by init_run:
     wfcinit      :      5.60s CPU      6.83s WALL (       1 calls)
     potinit      :      1.10s CPU      1.27s WALL (       1 calls)

     Called by electrons:
     c_bands      :   2965.21s CPU   3524.55s WALL (     166 calls)
     sum_band     :    540.68s CPU    650.09s WALL (     166 calls)
     v_of_rho     :    121.33s CPU    151.56s WALL (     185 calls)
     newd         :    181.26s CPU    209.20s WALL (     185 calls)
     mix_rho      :      3.43s CPU      4.32s WALL (     166 calls)
     vdW_energy   :    131.41s CPU    154.71s WALL (     869 calls)
     vdW_ffts     :    170.06s CPU    218.37s WALL (    1776 calls)
     vdW_v        :     67.83s CPU     77.95s WALL (     869 calls)

     Called by c_bands:
     init_us_2    :     22.09s CPU     24.84s WALL (    7420 calls)
     cegterg      :   2850.88s CPU   3404.02s WALL (    3321 calls)

     Called by *egterg:
     h_psi        :   1655.95s CPU   2093.32s WALL (   17806 calls)
     s_psi        :    160.32s CPU    166.77s WALL (   17806 calls)
     g_psi        :     10.69s CPU     11.14s WALL (   14465 calls)
     cdiaghg      :    461.22s CPU    475.35s WALL (   17426 calls)

     Called by h_psi:
     add_vuspsi   :    164.91s CPU    171.54s WALL (   17806 calls)

     General routines
     calbec       :    251.41s CPU    258.65s WALL (   21886 calls)
     fft          :    257.84s CPU    330.34s WALL (   52185 calls)
     ffts         :      0.28s CPU      0.43s WALL (     351 calls)
     fftw         :   1111.34s CPU   1605.03s WALL ( 2072220 calls)
     interpolate  :      1.97s CPU      3.20s WALL (     351 calls)
     davcio       :      0.02s CPU      0.30s WALL (      20 calls)
 
     Parallel routines
     fft_scatter  :    731.75s CPU   1061.24s WALL ( 2124756 calls)
 
     PWSCF        :     1h19m CPU        1h34m WALL

 
   This run was terminated on:   4:53:29  23Apr2018            

=------------------------------------------------------------------------------=
   JOB DONE.
=------------------------------------------------------------------------------=
