  python dir          : /nfs/slac/g/suncatfs/sw/espv20/lib/python2.7/site-packages/espresso
  espresso dir        : /nfs/slac/g/suncatfs/sw/espv18/espresso-dynpy-beef/bin
  pseudo dir          : /afs/slac.stanford.edu/u/if/mamunm/psp/gbrv1.5pbe
  ase-espresso py git : ffa2778-git



     Program PWSCF v.5.1rc2 (svn rev. 11289) starts on 30Jan2018 at 22: 7:29 

     This program is part of the open-source Quantum ESPRESSO suite
     for quantum simulation of materials; please cite
         "P. Giannozzi et al., J. Phys.:Condens. Matter 21 395502 (2009);
          URL http://www.quantum-espresso.org", 
     in publications or presentations arising from this work. More details at
     http://www.quantum-espresso.org/quote

     Parallel version (MPI), running on    32 processors
     R & G space division:  proc/nbgrp/npool/nimage =      32
     Reading input from pw.inp
     Message from routine read_cards :
     DEPRECATED: no units specified in CELL_PARAMETERS card

     Current dimensions of program PWSCF are:
     Max number of different atomic species (ntypx) = 10
     Max number of k-points (npk) =  40000
     Max angular momentum in pseudopotentials (lmaxx) =  3
     Presently stress not available with electric field


     **************************************************************************
     Initializing libbeef V0.1.1 with the BEEF-vdW functional.
     Citation: Wellendorff et al., PRB 85, 235149 (2012).
     **************************************************************************


     IMPORTANT: XC functional enforced from input :
     Exchange-correlation      = BEEF-VDW ( 1  4 27 13 2)
     Any further DFT definition will be discarded
     Please, verify this is what you really want


     Subspace diagonalization in iterative solution of the eigenvalue problem:
     a serial algorithm will be used

 
     Parallelization info
     --------------------
     sticks:   dense  smooth     PW     G-vecs:    dense   smooth      PW
     Min         117      47     13                22737     5739     877
     Max         118      48     14                22752     5784     896
     Sum        3757    1507    433               727647   184247   28311
 


     bravais-lattice index     =            0
     lattice parameter (alat)  =       1.8897  a.u.
     unit-cell volume          =    6117.3319 (a.u.)^3
     number of atoms/cell      =           13
     number of atomic types    =            2
     number of electrons       =       150.00
     number of Kohn-Sham states=           85
     kinetic-energy cutoff     =      36.7493  Ry
     charge density cutoff     =     367.4932  Ry
     convergence threshold     =      1.0E-05
     mixing beta               =       0.3000
     number of iterations used =           10  plain     mixing
     Exchange-correlation      = BEEF-VDW ( 1  4 27 13 2)
     nstep                     =           50


     celldm(1)=   1.889726  celldm(2)=   0.000000  celldm(3)=   0.000000
     celldm(4)=   0.000000  celldm(5)=   0.000000  celldm(6)=   0.000000

     crystal axes: (cart. coord. in units of alat)
               a(1) = (   6.437717   0.000000   0.000000 )  
               a(2) = (   3.218859   5.575227   0.000000 )  
               a(3) = (   0.000000   0.000000  25.256374 )  

     reciprocal axes: (cart. coord. in units 2 pi/alat)
               b(1) = (  0.155335 -0.089682  0.000000 )  
               b(2) = (  0.000000  0.179365  0.000000 )  
               b(3) = (  0.000000  0.000000  0.039594 )  


     PseudoPot. # 1 for Hg read from file:
     /afs/slac.stanford.edu/u/if/mamunm/psp/gbrv1.5pbe/Hg.UPF
     MD5 check sum: 8f42caffe07f7fd9c0a564347f8c5498
     Pseudo is Ultrasoft + core correction, Zval = 12.0
     Generated by new atomic code, or converted to UPF format
     Using radial grid of  985 points,  6 beta functions with: 
                l(1) =   0
                l(2) =   0
                l(3) =   1
                l(4) =   1
                l(5) =   2
                l(6) =   2
     Q(r) pseudized with  8 coefficients,  rinner =    2.000   2.000   2.000
                                                       2.000   2.000

     PseudoPot. # 2 for S  read from file:
     /afs/slac.stanford.edu/u/if/mamunm/psp/gbrv1.5pbe/S.UPF
     MD5 check sum: 88d86576ff6df21479756cfb9bdac1df
     Pseudo is Ultrasoft + core correction, Zval =  6.0
     Generated by new atomic code, or converted to UPF format
     Using radial grid of  907 points,  6 beta functions with: 
                l(1) =   0
                l(2) =   0
                l(3) =   1
                l(4) =   1
                l(5) =   2
                l(6) =   2
     Q(r) pseudized with  8 coefficients,  rinner =    1.300   1.300   1.300
                                                       1.300   1.300

     vdW kernel table read from file vdW_kernel_table
     MD5 check sum: 095c7af220d748ca6e76c0b4c6cfb241

     atomic species   valence    mass     pseudopotential
        Hg1           12.00   200.59200     Hg( 1.00)
        S1             6.00    32.06000     S ( 1.00)

     No symmetry found



   Cartesian axes

     site n.     atom                  positions (alat units)
         1           Hg1 tau(   1) = (   1.6094293   0.9292045  10.0000000  )
         2           Hg1 tau(   2) = (   4.8282880   0.9292045  10.0000000  )
         3           Hg1 tau(   3) = (   3.2188587   3.7168178  10.0000000  )
         4           Hg1 tau(   4) = (   6.4377173   3.7168178  10.0000000  )
         5           Hg1 tau(   5) = (   6.4377173   1.8584089  12.6281871  )
         6           Hg1 tau(   6) = (   3.2188587   1.8584089  12.6281871  )
         7           Hg1 tau(   7) = (   8.0471466   4.6460223  12.6281871  )
         8           Hg1 tau(   8) = (   4.8282880   4.6460223  12.6281871  )
         9           Hg1 tau(   9) = (   0.0000000   0.0000000  15.2563742  )
        10           Hg1 tau(  10) = (   3.2188587   0.0000000  15.2563742  )
        11           Hg1 tau(  11) = (   1.6094293   2.7876134  15.2563742  )
        12           Hg1 tau(  12) = (   4.8282880   2.7876134  15.2563742  )
        13           S1  tau(  13) = (   3.2188587   1.8584089  17.6263742  )

     number of k points=    20  Fermi-Dirac smearing, width (Ry)=  0.0110
                       cart. coord. in units 2pi/alat
        k(    1) = (   0.0000000   0.0000000   0.0000000), wk =   0.0555556
        k(    2) = (   0.0000000   0.0298942   0.0000000), wk =   0.1111111
        k(    3) = (   0.0000000   0.0597883   0.0000000), wk =   0.1111111
        k(    4) = (   0.0000000  -0.0896825   0.0000000), wk =   0.0555556
        k(    5) = (   0.0258891  -0.0149471   0.0000000), wk =   0.1111111
        k(    6) = (   0.0258891   0.0149471   0.0000000), wk =   0.1111111
        k(    7) = (   0.0258891   0.0448412   0.0000000), wk =   0.1111111
        k(    8) = (   0.0258891  -0.1046295   0.0000000), wk =   0.1111111
        k(    9) = (   0.0258891  -0.0747354   0.0000000), wk =   0.1111111
        k(   10) = (   0.0258891  -0.0448412   0.0000000), wk =   0.1111111
        k(   11) = (   0.0517782  -0.0298942   0.0000000), wk =   0.1111111
        k(   12) = (   0.0517782   0.0000000   0.0000000), wk =   0.1111111
        k(   13) = (   0.0517782   0.0298942   0.0000000), wk =   0.1111111
        k(   14) = (   0.0517782  -0.1195766   0.0000000), wk =   0.1111111
        k(   15) = (   0.0517782  -0.0896825   0.0000000), wk =   0.1111111
        k(   16) = (   0.0517782  -0.0597883   0.0000000), wk =   0.1111111
        k(   17) = (  -0.0776673   0.0448412   0.0000000), wk =   0.0555556
        k(   18) = (  -0.0776673   0.0747354   0.0000000), wk =   0.1111111
        k(   19) = (  -0.0776673   0.1046295   0.0000000), wk =   0.1111111
        k(   20) = (  -0.0776673  -0.0448412   0.0000000), wk =   0.0555556

     Dense  grid:   727647 G-vectors     FFT dimensions: (  75,  75, 300)

     Smooth grid:   184247 G-vectors     FFT dimensions: (  48,  48, 192)

     Largest allocated arrays     est. size (Mb)     dimensions
        Kohn-Sham Wavefunctions         0.99 Mb     (     760,   85)
        NL pseudopotentials             2.71 Mb     (     760,  234)
        Each V/rho on FFT grid          0.86 Mb     (   56250)
        Each G-vector array             0.17 Mb     (   22740)
        G-vector shells                 0.08 Mb     (   10053)
     Largest temporary arrays     est. size (Mb)     dimensions
        Auxiliary wavefunctions         3.94 Mb     (     760,  340)
        Each subspace H/S matrix        1.76 Mb     (     340,  340)
        Each <psi_i|beta_j> matrix      0.30 Mb     (     234,   85)
        Arrays for rho mixing           8.58 Mb     (   56250,   10)

     Initial potential from superposition of free atoms

     starting charge  149.99926, renormalised to  150.00000

     negative rho (up, down):  8.323E-05 0.000E+00


     ************************************************************************
     *
     * You are using vdW-DF for exchange-correlation in this calculation.
     * Please cite the following three references that made this development
     * possible:
     *
     *   M. Dion, H. Rydberg, E. Schroder, D. C. Langreth, and
     *   B. I. Lundqvist, Phys. Rev. Lett. 92, 246401 (2004).
     *
     *   T. Thonhauser, V. R. Cooper, S. Li, A. Puzder, P. Hyldgaard, and
     *   D. C. Langreth, Phys. Rev. B 76, 125112 (2007).
     *
     *   G. Roman-Perez and J. M. Soler, Phys. Rev. Lett. 103, 096102 (2009).
     *
     *
     * If you are using vdW-DF2, please also cite:
     *
     *   K. Lee, E. D. Murray, L. Kong, B. I. Lundqvist, and
     *   D. C. Langreth, Phys. Rev. B 82, 081101(R) (2010).
     *
     *
     * If you are calculating the stress with vdW-DF, please also cite:
     *
     *   R. Sabatini, E. Kucukbenli, B. Kolb, T. Thonhauser, and
     *   S. de Gironcoli, J. Phys.: Condens. Matter 24, 424209 (2012).
     *
     ************************************************************************

     Carrying out vdW-DF run using the following parameters:

     Nqs =      20    Nr_points =    1024   r_max =   100.000
     q_mesh =
               0.00001000     0.04494208     0.09755937     0.15916263
               0.23128650     0.31572767     0.41458969     0.53033537
               0.66584808     0.82450364     1.01025438     1.22772762
               1.48234092     1.78043706     2.12944203     2.53805004
               3.01644009     3.57652955     4.23227104     5.00000000

     Gradients computed in reciprocal space

     ************************************************************************


 
     Adding external electric field

     Computed dipole along edir(3) : 
        Dipole                0.0001 Ry au,          0.0002 Debye
        Dipole field          0.0000 Ry au
 
        Potential amp.       -0.0000 Ry
        Total length         46.5344 bohr
 
     Starting wfc are  112 randomized atomic wfcs

     total cpu time spent up to now is       18.7 secs

     per-process dynamical memory:    53.6 Mb

     Self-consistent Calculation

     iteration #  1     ecut=    36.75 Ry     beta=0.30
     Davidson diagonalization with overlap
     ethr =  1.00E-02,  avg # of iterations =  4.8

     negative rho (up, down):  7.673E-07 0.000E+00
 
     Adding external electric field

     Computed dipole along edir(3) : 
        Dipole               -4.4572 Ry au,        -11.3290 Debye
        Dipole field         -0.0092 Ry au
 
        Potential amp.        0.8521 Ry
        Total length         46.5344 bohr
 

     total cpu time spent up to now is       56.1 secs

     total energy              =   -1332.58893316 Ry
     Harris-Foulkes estimate   =   -1333.62750673 Ry
     estimated scf accuracy    <       2.20297424 Ry

     iteration #  2     ecut=    36.75 Ry     beta=0.30
     Davidson diagonalization with overlap
     ethr =  1.47E-03,  avg # of iterations =  7.5

     negative rho (up, down):  3.293E-05 0.000E+00
 
     Adding external electric field

     Computed dipole along edir(3) : 
        Dipole               -0.1173 Ry au,         -0.2982 Debye
        Dipole field         -0.0002 Ry au
 
        Potential amp.        0.0224 Ry
        Total length         46.5344 bohr
 

     total cpu time spent up to now is      104.7 secs

     total energy              =   -1331.12926795 Ry
     Harris-Foulkes estimate   =   -1336.75771014 Ry
     estimated scf accuracy    <      72.32643617 Ry

     iteration #  3     ecut=    36.75 Ry     beta=0.30
     Davidson diagonalization with overlap
     ethr =  1.47E-03,  avg # of iterations =  6.5

     negative rho (up, down):  7.242E-05 0.000E+00
 
     Adding external electric field

     Computed dipole along edir(3) : 
        Dipole               -0.4597 Ry au,         -1.1684 Debye
        Dipole field         -0.0009 Ry au
 
        Potential amp.        0.0879 Ry
        Total length         46.5344 bohr
 

     total cpu time spent up to now is      154.5 secs

     total energy              =   -1333.40760774 Ry
     Harris-Foulkes estimate   =   -1333.64892875 Ry
     estimated scf accuracy    <       1.41364144 Ry

     iteration #  4     ecut=    36.75 Ry     beta=0.30
     Davidson diagonalization with overlap
     ethr =  9.42E-04,  avg # of iterations =  2.0

     negative rho (up, down):  5.160E-05 0.000E+00
 
     Adding external electric field

     Computed dipole along edir(3) : 
        Dipole               -0.6181 Ry au,         -1.5712 Debye
        Dipole field         -0.0013 Ry au
 
        Potential amp.        0.1182 Ry
        Total length         46.5344 bohr
 

     total cpu time spent up to now is      187.5 secs

     total energy              =   -1333.51704234 Ry
     Harris-Foulkes estimate   =   -1333.53148975 Ry
     estimated scf accuracy    <       0.12549786 Ry

     iteration #  5     ecut=    36.75 Ry     beta=0.30
     Davidson diagonalization with overlap
     ethr =  8.37E-05,  avg # of iterations =  5.8

     negative rho (up, down):  5.612E-05 0.000E+00
 
     Adding external electric field

     Computed dipole along edir(3) : 
        Dipole               -0.5706 Ry au,         -1.4502 Debye
        Dipole field         -0.0012 Ry au
 
        Potential amp.        0.1091 Ry
        Total length         46.5344 bohr
 

     total cpu time spent up to now is      226.2 secs

     total energy              =   -1333.52223665 Ry
     Harris-Foulkes estimate   =   -1333.52858154 Ry
     estimated scf accuracy    <       0.04059143 Ry

     iteration #  6     ecut=    36.75 Ry     beta=0.30
     Davidson diagonalization with overlap
     ethr =  2.71E-05,  avg # of iterations =  2.7

     negative rho (up, down):  4.424E-05 0.000E+00
 
     Adding external electric field

     Computed dipole along edir(3) : 
        Dipole               -0.6691 Ry au,         -1.7007 Debye
        Dipole field         -0.0014 Ry au
 
        Potential amp.        0.1279 Ry
        Total length         46.5344 bohr
 

     total cpu time spent up to now is      259.6 secs

     total energy              =   -1333.52423685 Ry
     Harris-Foulkes estimate   =   -1333.52770559 Ry
     estimated scf accuracy    <       0.03511969 Ry

     iteration #  7     ecut=    36.75 Ry     beta=0.30
     Davidson diagonalization with overlap
     ethr =  2.34E-05,  avg # of iterations =  1.1

     negative rho (up, down):  6.644E-05 0.000E+00
 
     Adding external electric field

     Computed dipole along edir(3) : 
        Dipole               -0.6619 Ry au,         -1.6824 Debye
        Dipole field         -0.0014 Ry au
 
        Potential amp.        0.1265 Ry
        Total length         46.5344 bohr
 

     total cpu time spent up to now is      290.9 secs

     total energy              =   -1333.52607125 Ry
     Harris-Foulkes estimate   =   -1333.52623792 Ry
     estimated scf accuracy    <       0.00183075 Ry

     iteration #  8     ecut=    36.75 Ry     beta=0.30
     Davidson diagonalization with overlap
     ethr =  1.22E-06,  avg # of iterations =  5.3

     negative rho (up, down):  9.455E-05 0.000E+00
 
     Adding external electric field

     Computed dipole along edir(3) : 
        Dipole               -0.6751 Ry au,         -1.7160 Debye
        Dipole field         -0.0014 Ry au
 
        Potential amp.        0.1291 Ry
        Total length         46.5344 bohr
 

     total cpu time spent up to now is      328.7 secs

     total energy              =   -1333.52620440 Ry
     Harris-Foulkes estimate   =   -1333.52620541 Ry
     estimated scf accuracy    <       0.00033913 Ry

     iteration #  9     ecut=    36.75 Ry     beta=0.30
     Davidson diagonalization with overlap
     ethr =  2.26E-07,  avg # of iterations =  2.9

     negative rho (up, down):  9.048E-05 0.000E+00
 
     Adding external electric field

     Computed dipole along edir(3) : 
        Dipole               -0.6669 Ry au,         -1.6952 Debye
        Dipole field         -0.0014 Ry au
 
        Potential amp.        0.1275 Ry
        Total length         46.5344 bohr
 

     total cpu time spent up to now is      363.2 secs

     total energy              =   -1333.52622378 Ry
     Harris-Foulkes estimate   =   -1333.52629687 Ry
     estimated scf accuracy    <       0.00042998 Ry

     iteration # 10     ecut=    36.75 Ry     beta=0.30
     Davidson diagonalization with overlap
     ethr =  2.26E-07,  avg # of iterations =  1.8

     negative rho (up, down):  9.304E-05 0.000E+00
 
     Adding external electric field

     Computed dipole along edir(3) : 
        Dipole               -0.6701 Ry au,         -1.7032 Debye
        Dipole field         -0.0014 Ry au
 
        Potential amp.        0.1281 Ry
        Total length         46.5344 bohr
 

     total cpu time spent up to now is      395.1 secs

     total energy              =   -1333.52625443 Ry
     Harris-Foulkes estimate   =   -1333.52625544 Ry
     estimated scf accuracy    <       0.00013369 Ry

     iteration # 11     ecut=    36.75 Ry     beta=0.30
     Davidson diagonalization with overlap
     ethr =  8.91E-08,  avg # of iterations =  1.1

     negative rho (up, down):  9.274E-05 0.000E+00

     negative rho (up, down):  9.274E-05 0.000E+00

     negative rho (up, down):  9.274E-05 0.000E+00

     negative rho (up, down):  9.274E-05 0.000E+00

     negative rho (up, down):  9.274E-05 0.000E+00

     negative rho (up, down):  9.274E-05 0.000E+00

     negative rho (up, down):  9.274E-05 0.000E+00

     negative rho (up, down):  9.274E-05 0.000E+00

     negative rho (up, down):  9.274E-05 0.000E+00

     negative rho (up, down):  9.274E-05 0.000E+00

     negative rho (up, down):  9.274E-05 0.000E+00

     negative rho (up, down):  9.274E-05 0.000E+00

     negative rho (up, down):  9.274E-05 0.000E+00

     negative rho (up, down):  9.274E-05 0.000E+00

     negative rho (up, down):  9.274E-05 0.000E+00

     negative rho (up, down):  9.274E-05 0.000E+00

     negative rho (up, down):  9.274E-05 0.000E+00

     negative rho (up, down):  9.274E-05 0.000E+00

     negative rho (up, down):  9.274E-05 0.000E+00

     negative rho (up, down):  9.274E-05 0.000E+00

     negative rho (up, down):  9.274E-05 0.000E+00

     negative rho (up, down):  9.274E-05 0.000E+00

     negative rho (up, down):  9.274E-05 0.000E+00

     negative rho (up, down):  9.274E-05 0.000E+00

     negative rho (up, down):  9.274E-05 0.000E+00

     negative rho (up, down):  9.274E-05 0.000E+00

     negative rho (up, down):  9.274E-05 0.000E+00

     negative rho (up, down):  9.274E-05 0.000E+00

     negative rho (up, down):  9.274E-05 0.000E+00

     negative rho (up, down):  9.274E-05 0.000E+00

     negative rho (up, down):  9.274E-05 0.000E+00

     negative rho (up, down):  9.274E-05 0.000E+00

     negative rho (up, down):  9.274E-05 0.000E+00

     negative rho (up, down):  9.274E-05 0.000E+00

     negative rho (up, down):  9.274E-05 0.000E+00
 
     Adding external electric field

     Computed dipole along edir(3) : 
        Dipole               -0.6519 Ry au,         -1.6570 Debye
        Dipole field         -0.0013 Ry au
 
        Potential amp.        0.1246 Ry
        Total length         46.5344 bohr
 

     total cpu time spent up to now is      499.5 secs

     End of self-consistent calculation

          k = 0.0000 0.0000 0.0000 ( 23031 PWs)   bands (ev):

   -11.0596  -8.4733  -7.9866  -7.9866  -7.9859  -7.9705  -7.8349  -7.8349
    -7.8294  -7.7641  -7.7444  -7.7444  -7.7418  -7.6104  -7.6027  -7.6027
    -7.1944  -7.1944  -7.1821  -7.1806  -7.1806  -7.1326  -7.0978  -7.0978
    -7.0892  -7.0183  -7.0183  -7.0047  -7.0034  -7.0034  -6.8992  -6.8992
    -6.5517  -6.5517  -6.4635  -6.4635  -6.4495  -6.4407  -6.4407  -6.4269
    -6.2723  -6.2723  -6.2721  -6.2634  -6.2634  -6.1559  -6.1519  -6.1519
    -6.1464  -6.0855  -6.0855  -6.0621  -6.0620  -6.0620  -6.0271  -6.0271
    -6.0031  -5.8955  -5.8708  -5.8708  -5.8279  -5.8206  -5.8206  -3.7145
    -2.0811  -1.9987  -1.9987  -1.9498  -1.9498  -1.8897  -1.2837  -1.2531
    -1.2531  -0.4941  -0.4117  -0.4117  -0.3561  -0.0452  -0.0452   0.5464
     1.3142   1.6385   1.6385   1.6567   1.6567

          k = 0.0000 0.0299 0.0000 ( 23012 PWs)   bands (ev):

   -11.0566  -8.3219  -7.9504  -7.9025  -7.9022  -7.8863  -7.7913  -7.7827
    -7.7731  -7.7201  -7.7044  -7.6951  -7.6348  -7.5691  -7.5215  -7.5157
    -7.2204  -7.1682  -7.1611  -7.1582  -7.1326  -7.1304  -7.1193  -7.1147
    -7.0557  -7.0484  -6.9950  -6.9847  -6.9844  -6.9658  -6.9138  -6.8384
    -6.6505  -6.5600  -6.5213  -6.5176  -6.4913  -6.4805  -6.4734  -6.4432
    -6.3227  -6.3053  -6.2968  -6.2904  -6.2818  -6.2755  -6.1988  -6.1978
    -6.1916  -6.1114  -6.1040  -6.0994  -6.0855  -6.0822  -6.0617  -6.0484
    -5.9699  -5.9505  -5.9474  -5.9082  -5.9015  -5.8963  -5.8566  -3.7366
    -3.6133  -2.7548  -2.7437  -2.4915  -1.7287  -1.6546  -1.2311  -1.0590
    -0.9254  -0.6640  -0.3260  -0.1175   0.1816   0.4886   0.5670   0.8793
     1.3140   1.4213   1.8341   2.6000   2.6475

          k = 0.0000 0.0598 0.0000 ( 22962 PWs)   bands (ev):

   -11.0507  -7.9435  -7.8558  -7.7133  -7.7074  -7.7009  -7.6918  -7.6412
    -7.6320  -7.6012  -7.5869  -7.5679  -7.4719  -7.4141  -7.3061  -7.2999
    -7.2422  -7.2124  -7.2009  -7.1964  -7.1221  -7.0730  -7.0251  -7.0249
    -6.9736  -6.9529  -6.9525  -6.9456  -6.9374  -6.8808  -6.8754  -6.7727
    -6.7285  -6.7279  -6.6732  -6.6692  -6.5409  -6.5317  -6.5282  -6.4926
    -6.4873  -6.4009  -6.3928  -6.3804  -6.3611  -6.3498  -6.3378  -6.3171
    -6.3132  -6.3106  -6.2870  -6.2734  -6.2118  -6.2097  -6.1855  -6.1308
    -6.0825  -6.0442  -6.0389  -6.0192  -5.9639  -5.9583  -5.4885  -5.2386
    -3.8829  -3.3167  -3.2046  -3.1954  -2.0901  -2.0848  -1.8864  -0.9983
    -0.8631  -0.5877  -0.0318   0.1001   0.8551   1.1971   1.4396   2.2535
     2.2572   2.6269   3.0595   3.3912   3.5743

          k = 0.0000-0.0897 0.0000 ( 23032 PWs)   bands (ev):

   -11.0478  -7.7658  -7.7602  -7.6464  -7.6269  -7.6255  -7.6133  -7.5316
    -7.5119  -7.4366  -7.4318  -7.4210  -7.4013  -7.3624  -7.3442  -7.2841
    -7.2783  -7.1095  -7.0964  -7.0819  -7.0765  -7.0529  -7.0229  -7.0200
    -7.0189  -6.9124  -6.8976  -6.8572  -6.8551  -6.8263  -6.8239  -6.7358
    -6.7259  -6.7033  -6.6969  -6.6337  -6.6152  -6.5970  -6.5830  -6.5784
    -6.5707  -6.5190  -6.5033  -6.4947  -6.4783  -6.4616  -6.4410  -6.4372
    -6.4136  -6.3808  -6.3697  -6.3106  -6.2967  -6.2462  -6.2452  -6.2430
    -6.2180  -6.0859  -6.0655  -6.0442  -6.0197  -5.9692  -5.9655  -4.9017
    -4.8677  -3.3461  -3.3412  -2.8031  -2.7725  -2.2162  -2.1096  -1.0362
    -0.8333  -0.6283  -0.0154   0.1160   1.7326   1.8237   2.3126   2.4236
     2.6500   2.7545   3.7785   3.8050   3.8306

          k = 0.0259-0.0149 0.0000 ( 23012 PWs)   bands (ev):

   -11.0566  -8.3219  -7.9504  -7.9025  -7.9022  -7.8863  -7.7913  -7.7827
    -7.7731  -7.7201  -7.7044  -7.6951  -7.6348  -7.5691  -7.5215  -7.5157
    -7.2204  -7.1682  -7.1611  -7.1582  -7.1326  -7.1304  -7.1193  -7.1147
    -7.0557  -7.0484  -6.9950  -6.9847  -6.9844  -6.9658  -6.9138  -6.8384
    -6.6505  -6.5600  -6.5213  -6.5176  -6.4913  -6.4805  -6.4734  -6.4432
    -6.3227  -6.3053  -6.2968  -6.2904  -6.2818  -6.2755  -6.1988  -6.1978
    -6.1916  -6.1114  -6.1040  -6.0994  -6.0855  -6.0822  -6.0617  -6.0484
    -5.9699  -5.9505  -5.9474  -5.9082  -5.9015  -5.8963  -5.8566  -3.7366
    -3.6133  -2.7548  -2.7437  -2.4915  -1.7287  -1.6546  -1.2311  -1.0590
    -0.9254  -0.6640  -0.3260  -0.1175   0.1816   0.4886   0.5670   0.8793
     1.3140   1.4213   1.8341   2.6000   2.6475

          k = 0.0259 0.0149 0.0000 ( 23012 PWs)   bands (ev):

   -11.0566  -8.3219  -7.9504  -7.9025  -7.9022  -7.8863  -7.7913  -7.7827
    -7.7731  -7.7201  -7.7044  -7.6951  -7.6348  -7.5691  -7.5215  -7.5157
    -7.2204  -7.1682  -7.1611  -7.1582  -7.1326  -7.1304  -7.1193  -7.1147
    -7.0557  -7.0484  -6.9950  -6.9847  -6.9844  -6.9658  -6.9138  -6.8384
    -6.6505  -6.5600  -6.5213  -6.5176  -6.4913  -6.4805  -6.4734  -6.4432
    -6.3227  -6.3053  -6.2968  -6.2904  -6.2818  -6.2755  -6.1988  -6.1978
    -6.1916  -6.1114  -6.1040  -6.0994  -6.0855  -6.0822  -6.0617  -6.0484
    -5.9699  -5.9505  -5.9474  -5.9082  -5.9015  -5.8963  -5.8566  -3.7366
    -3.6133  -2.7548  -2.7437  -2.4915  -1.7287  -1.6546  -1.2311  -1.0590
    -0.9254  -0.6640  -0.3260  -0.1175   0.1816   0.4886   0.5670   0.8793
     1.3140   1.4213   1.8341   2.6000   2.6475

          k = 0.0259 0.0448 0.0000 ( 23004 PWs)   bands (ev):

   -11.0521  -8.0451  -7.8324  -7.8320  -7.7478  -7.7370  -7.6973  -7.6949
    -7.6725  -7.6484  -7.6403  -7.5903  -7.4648  -7.4487  -7.4461  -7.3339
    -7.2563  -7.2276  -7.1529  -7.1435  -7.1380  -7.1149  -7.0504  -7.0388
    -7.0375  -7.0043  -6.9586  -6.9558  -6.9434  -6.9420  -6.8891  -6.7914
    -6.6968  -6.6636  -6.6532  -6.6367  -6.5537  -6.5348  -6.4732  -6.4669
    -6.4382  -6.3872  -6.3744  -6.3454  -6.3278  -6.3123  -6.2918  -6.2836
    -6.2708  -6.2270  -6.2211  -6.1841  -6.1795  -6.1707  -6.1117  -6.0933
    -6.0829  -6.0425  -6.0298  -6.0005  -5.9891  -5.9838  -5.5994  -4.3683
    -4.3521  -3.4134  -3.1278  -3.0436  -1.7220  -1.6312  -1.5143  -1.3247
    -0.9090  -0.7030  -0.1112   0.0469   0.3395   0.9250   1.7303   1.8329
     2.0339   2.2960   2.8257   2.8900   3.3277

          k = 0.0259-0.1046 0.0000 ( 23014 PWs)   bands (ev):

   -11.0478  -7.7169  -7.6885  -7.6267  -7.6154  -7.6103  -7.5943  -7.5452
    -7.5354  -7.5075  -7.4957  -7.4057  -7.3743  -7.3533  -7.3271  -7.2998
    -7.2194  -7.2104  -7.1309  -7.0898  -7.0672  -7.0460  -7.0214  -7.0153
    -6.9903  -6.9604  -6.9527  -6.9401  -6.8817  -6.8572  -6.8311  -6.8201
    -6.8000  -6.7828  -6.7266  -6.6587  -6.6078  -6.5999  -6.5863  -6.5850
    -6.5666  -6.5140  -6.4856  -6.4650  -6.4475  -6.4249  -6.4141  -6.3965
    -6.3733  -6.3632  -6.3074  -6.2977  -6.2736  -6.2421  -6.2015  -6.1774
    -6.1059  -6.1021  -6.0787  -6.0466  -6.0317  -6.0153  -5.6014  -5.1224
    -4.5952  -4.3011  -3.3523  -2.9982  -2.3353  -1.9409  -1.6458  -1.1602
    -0.7225  -0.5515  -0.1872   0.0131   1.2899   1.6458   2.2929   2.5296
     2.7657   3.0155   3.3292   3.7420   3.8804

          k = 0.0259-0.0747 0.0000 ( 23014 PWs)   bands (ev):

   -11.0478  -7.7169  -7.6885  -7.6267  -7.6154  -7.6103  -7.5943  -7.5452
    -7.5354  -7.5075  -7.4957  -7.4057  -7.3743  -7.3533  -7.3271  -7.2998
    -7.2194  -7.2104  -7.1309  -7.0898  -7.0672  -7.0460  -7.0214  -7.0153
    -6.9903  -6.9604  -6.9527  -6.9401  -6.8817  -6.8572  -6.8311  -6.8201
    -6.8000  -6.7828  -6.7266  -6.6587  -6.6078  -6.5999  -6.5863  -6.5850
    -6.5666  -6.5140  -6.4856  -6.4650  -6.4475  -6.4249  -6.4141  -6.3965
    -6.3733  -6.3632  -6.3074  -6.2977  -6.2736  -6.2421  -6.2015  -6.1774
    -6.1059  -6.1021  -6.0787  -6.0466  -6.0317  -6.0153  -5.6014  -5.1224
    -4.5952  -4.3011  -3.3523  -2.9982  -2.3353  -1.9409  -1.6458  -1.1602
    -0.7225  -0.5515  -0.1872   0.0131   1.2899   1.6458   2.2929   2.5296
     2.7657   3.0155   3.3292   3.7420   3.8804

          k = 0.0259-0.0448 0.0000 ( 23004 PWs)   bands (ev):

   -11.0521  -8.0451  -7.8324  -7.8320  -7.7478  -7.7370  -7.6973  -7.6949
    -7.6725  -7.6484  -7.6403  -7.5903  -7.4648  -7.4487  -7.4461  -7.3339
    -7.2563  -7.2276  -7.1529  -7.1435  -7.1380  -7.1149  -7.0504  -7.0388
    -7.0375  -7.0043  -6.9586  -6.9558  -6.9434  -6.9420  -6.8891  -6.7914
    -6.6968  -6.6636  -6.6532  -6.6367  -6.5537  -6.5348  -6.4732  -6.4669
    -6.4382  -6.3872  -6.3744  -6.3454  -6.3278  -6.3123  -6.2918  -6.2836
    -6.2708  -6.2270  -6.2211  -6.1841  -6.1795  -6.1707  -6.1117  -6.0933
    -6.0829  -6.0425  -6.0298  -6.0005  -5.9892  -5.9838  -5.5994  -4.3683
    -4.3521  -3.4134  -3.1278  -3.0436  -1.7220  -1.6312  -1.5143  -1.3247
    -0.9090  -0.7030  -0.1112   0.0469   0.3395   0.9250   1.7303   1.8329
     2.0339   2.2960   2.8257   2.8900   3.3277

          k = 0.0518-0.0299 0.0000 ( 22962 PWs)   bands (ev):

   -11.0507  -7.9435  -7.8558  -7.7133  -7.7074  -7.7009  -7.6918  -7.6412
    -7.6320  -7.6012  -7.5869  -7.5679  -7.4719  -7.4141  -7.3061  -7.2999
    -7.2422  -7.2124  -7.2009  -7.1964  -7.1221  -7.0730  -7.0251  -7.0249
    -6.9736  -6.9529  -6.9525  -6.9456  -6.9374  -6.8808  -6.8754  -6.7727
    -6.7285  -6.7279  -6.6732  -6.6692  -6.5409  -6.5317  -6.5282  -6.4926
    -6.4873  -6.4009  -6.3928  -6.3804  -6.3611  -6.3498  -6.3378  -6.3171
    -6.3132  -6.3106  -6.2870  -6.2734  -6.2118  -6.2097  -6.1855  -6.1308
    -6.0825  -6.0442  -6.0389  -6.0192  -5.9639  -5.9582  -5.4885  -5.2386
    -3.8829  -3.3167  -3.2046  -3.1954  -2.0901  -2.0848  -1.8864  -0.9983
    -0.8631  -0.5877  -0.0318   0.1001   0.8551   1.1971   1.4396   2.2535
     2.2572   2.6268   3.0595   3.3912   3.5743

          k = 0.0518 0.0000 0.0000 ( 23004 PWs)   bands (ev):

   -11.0521  -8.0451  -7.8324  -7.8320  -7.7478  -7.7370  -7.6973  -7.6949
    -7.6725  -7.6484  -7.6403  -7.5903  -7.4648  -7.4487  -7.4461  -7.3339
    -7.2563  -7.2276  -7.1529  -7.1435  -7.1380  -7.1149  -7.0504  -7.0388
    -7.0375  -7.0043  -6.9586  -6.9558  -6.9434  -6.9420  -6.8891  -6.7914
    -6.6968  -6.6636  -6.6532  -6.6367  -6.5537  -6.5348  -6.4732  -6.4669
    -6.4382  -6.3872  -6.3744  -6.3454  -6.3278  -6.3123  -6.2918  -6.2836
    -6.2708  -6.2270  -6.2211  -6.1841  -6.1795  -6.1707  -6.1117  -6.0933
    -6.0829  -6.0425  -6.0298  -6.0005  -5.9891  -5.9838  -5.5994  -4.3683
    -4.3521  -3.4134  -3.1278  -3.0436  -1.7220  -1.6312  -1.5143  -1.3247
    -0.9090  -0.7030  -0.1112   0.0469   0.3395   0.9250   1.7303   1.8329
     2.0339   2.2960   2.8257   2.8900   3.3277

          k = 0.0518 0.0299 0.0000 ( 22962 PWs)   bands (ev):

   -11.0507  -7.9435  -7.8558  -7.7133  -7.7074  -7.7009  -7.6918  -7.6412
    -7.6320  -7.6012  -7.5869  -7.5679  -7.4719  -7.4141  -7.3061  -7.2999
    -7.2422  -7.2124  -7.2009  -7.1964  -7.1221  -7.0730  -7.0251  -7.0249
    -6.9736  -6.9529  -6.9525  -6.9456  -6.9374  -6.8808  -6.8754  -6.7727
    -6.7285  -6.7279  -6.6732  -6.6692  -6.5409  -6.5317  -6.5282  -6.4926
    -6.4873  -6.4009  -6.3928  -6.3804  -6.3611  -6.3498  -6.3378  -6.3171
    -6.3132  -6.3106  -6.2870  -6.2734  -6.2118  -6.2097  -6.1855  -6.1308
    -6.0825  -6.0442  -6.0389  -6.0192  -5.9639  -5.9583  -5.4885  -5.2386
    -3.8829  -3.3167  -3.2046  -3.1954  -2.0901  -2.0848  -1.8864  -0.9983
    -0.8631  -0.5877  -0.0318   0.1001   0.8551   1.1971   1.4396   2.2535
     2.2572   2.6268   3.0595   3.3912   3.5743

          k = 0.0518-0.1196 0.0000 ( 23014 PWs)   bands (ev):

   -11.0478  -7.7169  -7.6885  -7.6267  -7.6154  -7.6103  -7.5943  -7.5452
    -7.5354  -7.5075  -7.4957  -7.4057  -7.3743  -7.3533  -7.3271  -7.2998
    -7.2194  -7.2104  -7.1309  -7.0898  -7.0672  -7.0460  -7.0214  -7.0153
    -6.9903  -6.9604  -6.9527  -6.9401  -6.8817  -6.8572  -6.8311  -6.8201
    -6.8000  -6.7828  -6.7266  -6.6587  -6.6078  -6.5999  -6.5863  -6.5850
    -6.5666  -6.5140  -6.4856  -6.4650  -6.4475  -6.4249  -6.4141  -6.3965
    -6.3733  -6.3632  -6.3074  -6.2977  -6.2736  -6.2421  -6.2015  -6.1774
    -6.1059  -6.1021  -6.0787  -6.0466  -6.0317  -6.0153  -5.6014  -5.1224
    -4.5952  -4.3011  -3.3523  -2.9982  -2.3353  -1.9409  -1.6458  -1.1602
    -0.7225  -0.5515  -0.1872   0.0131   1.2899   1.6458   2.2929   2.5296
     2.7657   3.0155   3.3292   3.7420   3.8804

          k = 0.0518-0.0897 0.0000 ( 23028 PWs)   bands (ev):

   -11.0464  -7.5505  -7.5207  -7.5205  -7.5183  -7.5117  -7.5021  -7.5004
    -7.4882  -7.4607  -7.4183  -7.4098  -7.4080  -7.3468  -7.3439  -7.3422
    -7.1548  -7.1485  -7.1070  -7.0910  -7.0824  -7.0320  -7.0303  -7.0290
    -6.9855  -6.9848  -6.9683  -6.9144  -6.9079  -6.9075  -6.8630  -6.8313
    -6.8217  -6.8208  -6.7324  -6.7300  -6.7269  -6.7120  -6.7019  -6.6767
    -6.6656  -6.5266  -6.4999  -6.4757  -6.4749  -6.4642  -6.4066  -6.3895
    -6.3760  -6.3116  -6.3074  -6.3000  -6.1809  -6.1699  -6.1655  -6.1542
    -6.1443  -6.1300  -6.1188  -6.1082  -6.0969  -5.6515  -5.6455  -5.6434
    -4.4223  -4.4151  -4.4147  -2.4703  -2.4552  -2.3879  -1.1298  -0.9381
    -0.6830  -0.5783  -0.2473  -0.1336   2.0797   2.0845   2.1888   2.2945
     2.3407   2.5989   3.9834   4.0107   4.1740

          k = 0.0518-0.0598 0.0000 ( 23014 PWs)   bands (ev):

   -11.0478  -7.7169  -7.6885  -7.6267  -7.6154  -7.6103  -7.5943  -7.5452
    -7.5354  -7.5075  -7.4957  -7.4057  -7.3743  -7.3533  -7.3271  -7.2998
    -7.2194  -7.2104  -7.1309  -7.0898  -7.0672  -7.0460  -7.0214  -7.0153
    -6.9903  -6.9604  -6.9527  -6.9401  -6.8817  -6.8572  -6.8311  -6.8201
    -6.8000  -6.7828  -6.7266  -6.6587  -6.6078  -6.5999  -6.5863  -6.5850
    -6.5666  -6.5140  -6.4856  -6.4650  -6.4475  -6.4249  -6.4141  -6.3964
    -6.3733  -6.3632  -6.3074  -6.2977  -6.2736  -6.2421  -6.2015  -6.1774
    -6.1059  -6.1021  -6.0787  -6.0466  -6.0317  -6.0153  -5.6014  -5.1224
    -4.5952  -4.3011  -3.3523  -2.9982  -2.3353  -1.9409  -1.6458  -1.1602
    -0.7225  -0.5515  -0.1872   0.0131   1.2899   1.6458   2.2929   2.5296
     2.7657   3.0155   3.3292   3.7420   3.8804

          k =-0.0777 0.0448 0.0000 ( 23032 PWs)   bands (ev):

   -11.0478  -7.7658  -7.7602  -7.6464  -7.6269  -7.6255  -7.6133  -7.5316
    -7.5119  -7.4366  -7.4318  -7.4210  -7.4013  -7.3624  -7.3442  -7.2841
    -7.2783  -7.1095  -7.0964  -7.0819  -7.0765  -7.0529  -7.0229  -7.0200
    -7.0189  -6.9124  -6.8976  -6.8572  -6.8551  -6.8263  -6.8239  -6.7358
    -6.7259  -6.7033  -6.6969  -6.6337  -6.6152  -6.5970  -6.5830  -6.5784
    -6.5707  -6.5190  -6.5033  -6.4947  -6.4783  -6.4616  -6.4410  -6.4372
    -6.4136  -6.3808  -6.3697  -6.3106  -6.2967  -6.2462  -6.2452  -6.2430
    -6.2180  -6.0859  -6.0655  -6.0442  -6.0197  -5.9692  -5.9655  -4.9017
    -4.8678  -3.3461  -3.3412  -2.8031  -2.7725  -2.2162  -2.1096  -1.0362
    -0.8333  -0.6283  -0.0154   0.1160   1.7326   1.8237   2.3126   2.4236
     2.6500   2.7545   3.7785   3.8050   3.8306

          k =-0.0777 0.0747 0.0000 ( 23014 PWs)   bands (ev):

   -11.0478  -7.7169  -7.6885  -7.6267  -7.6154  -7.6103  -7.5943  -7.5452
    -7.5354  -7.5075  -7.4957  -7.4057  -7.3743  -7.3533  -7.3271  -7.2998
    -7.2194  -7.2104  -7.1309  -7.0898  -7.0672  -7.0460  -7.0214  -7.0153
    -6.9903  -6.9604  -6.9527  -6.9401  -6.8817  -6.8572  -6.8311  -6.8201
    -6.8000  -6.7828  -6.7266  -6.6587  -6.6078  -6.5999  -6.5863  -6.5850
    -6.5666  -6.5140  -6.4856  -6.4650  -6.4475  -6.4249  -6.4141  -6.3965
    -6.3733  -6.3632  -6.3074  -6.2977  -6.2736  -6.2421  -6.2015  -6.1774
    -6.1059  -6.1021  -6.0787  -6.0466  -6.0317  -6.0153  -5.6014  -5.1224
    -4.5952  -4.3011  -3.3523  -2.9982  -2.3353  -1.9409  -1.6458  -1.1602
    -0.7225  -0.5515  -0.1872   0.0131   1.2899   1.6458   2.2929   2.5296
     2.7657   3.0155   3.3292   3.7420   3.8804

          k =-0.0777 0.1046 0.0000 ( 23014 PWs)   bands (ev):

   -11.0478  -7.7169  -7.6885  -7.6267  -7.6154  -7.6103  -7.5943  -7.5452
    -7.5354  -7.5075  -7.4957  -7.4057  -7.3743  -7.3533  -7.3271  -7.2998
    -7.2194  -7.2104  -7.1309  -7.0898  -7.0672  -7.0460  -7.0214  -7.0153
    -6.9903  -6.9604  -6.9527  -6.9401  -6.8817  -6.8572  -6.8311  -6.8201
    -6.8000  -6.7828  -6.7266  -6.6587  -6.6078  -6.5999  -6.5863  -6.5850
    -6.5666  -6.5140  -6.4856  -6.4650  -6.4475  -6.4249  -6.4141  -6.3965
    -6.3733  -6.3632  -6.3074  -6.2977  -6.2736  -6.2421  -6.2015  -6.1774
    -6.1059  -6.1021  -6.0787  -6.0466  -6.0317  -6.0153  -5.6014  -5.1224
    -4.5952  -4.3011  -3.3523  -2.9982  -2.3353  -1.9409  -1.6458  -1.1602
    -0.7225  -0.5515  -0.1872   0.0131   1.2899   1.6458   2.2929   2.5296
     2.7657   3.0155   3.3292   3.7420   3.8804

          k =-0.0777-0.0448 0.0000 ( 23032 PWs)   bands (ev):

   -11.0478  -7.7658  -7.7602  -7.6464  -7.6269  -7.6255  -7.6133  -7.5316
    -7.5119  -7.4366  -7.4318  -7.4210  -7.4013  -7.3624  -7.3442  -7.2841
    -7.2783  -7.1095  -7.0964  -7.0819  -7.0765  -7.0529  -7.0229  -7.0200
    -7.0189  -6.9124  -6.8976  -6.8572  -6.8551  -6.8263  -6.8239  -6.7358
    -6.7259  -6.7033  -6.6969  -6.6337  -6.6152  -6.5970  -6.5830  -6.5784
    -6.5707  -6.5190  -6.5033  -6.4947  -6.4783  -6.4616  -6.4410  -6.4372
    -6.4136  -6.3808  -6.3697  -6.3106  -6.2967  -6.2462  -6.2452  -6.2430
    -6.2180  -6.0859  -6.0655  -6.0442  -6.0197  -5.9692  -5.9655  -4.9017
    -4.8677  -3.3461  -3.3412  -2.8031  -2.7725  -2.2162  -2.1096  -1.0362
    -0.8333  -0.6283  -0.0154   0.1160   1.7326   1.8237   2.3126   2.4236
     2.6500   2.7545   3.7785   3.8050   3.8306

     the Fermi energy is    -0.0943 ev

!    total energy              =   -1333.52625974 Ry
     Harris-Foulkes estimate   =   -1333.52631117 Ry
     estimated scf accuracy    <       0.00000298 Ry

     The total energy is the sum of the following terms:

     one-electron contribution =   -8185.67976701 Ry
     hartree contribution      =    4184.86661580 Ry
     xc contribution           =    -494.03247696 Ry
     ewald contribution        =    3161.35401728 Ry
     electric field correction =       0.00087300 Ry
     smearing contrib. (-TS)   =      -0.03552184 Ry

     convergence has been achieved in  11 iterations
 
 BEEF-vdW xc energy contributions
           1 :   -432.749741791393     
           2 :    397.593650443877     
           3 :   -336.731841616529     
           4 :    264.911996102742     
           5 :   -196.666818577181     
           6 :    141.932318966015     
           7 :   -104.094634752479     
           8 :    80.7298826983864     
           9 :   -66.2784354730403     
          10 :    55.2082874799895     
          11 :   -44.2389226544093     
          12 :    32.8604566212222     
          13 :   -22.3520294801694     
          14 :    14.2003989046324     
          15 :   -8.91790136650275     
          16 :    5.79798917987762     
          17 :   -3.51244536754973     
          18 :    1.00959268092788     
          19 :    1.89353672616028     
          20 :   -4.55814088090762     
          21 :    6.10803437079920     
          22 :   -6.12817214415685     
          23 :    5.01595178649285     
          24 :   -3.77980386546983     
          25 :    3.43771514207083     
          26 :   -4.40932932302076     
          27 :    6.27674970825240     
          28 :   -8.04844588826859     
          29 :    8.75205208895881     
          30 :   -7.99678749126576     
          31 :   -40.4767731846695     
          32 :   -29.6672356722357     

     Forces acting on atoms (Ry/au):


     negative rho (up, down):  9.274E-05 0.000E+00
     atom    1 type  1   force =    -0.00051040   -0.00029194   -0.02136127
     atom    2 type  1   force =     0.00050813   -0.00029398   -0.02135862
     atom    3 type  1   force =     0.00000113    0.00058684   -0.02136235
     atom    4 type  1   force =     0.00000108    0.00000319   -0.02248978
     atom    5 type  1   force =     0.00000147    0.00103362    0.00178520
     atom    6 type  1   force =    -0.00000298   -0.00000064    0.00566133
     atom    7 type  1   force =    -0.00089393   -0.00051879    0.00178254
     atom    8 type  1   force =     0.00089610   -0.00051985    0.00177253
     atom    9 type  1   force =    -0.00000397    0.00000109    0.02243475
     atom   10 type  1   force =     0.00000171   -0.00009362    0.03632845
     atom   11 type  1   force =    -0.00009136    0.00004989    0.03631357
     atom   12 type  1   force =     0.00009235    0.00004692    0.03632160
     atom   13 type  2   force =     0.00000068   -0.00000273   -0.05582795

     Total force =     0.097459     Total SCF correction =     0.006630


     entering subroutine stress ...


     negative rho (up, down):  9.274E-05 0.000E+00
          total   stress  (Ry/bohr**3)                   (kbar)     P=   19.42
   0.00014727   0.00000000  -0.00000000         21.66      0.00     -0.00
   0.00000000   0.00014727   0.00000000          0.00     21.66      0.00
  -0.00000000   0.00000000   0.00010142         -0.00      0.00     14.92

 !ASE

     Writing output data file calc.save
 
     init_run     :     12.77s CPU     18.36s WALL (       1 calls)
     electrons    :    348.39s CPU    481.02s WALL (       1 calls)
     forces       :      5.36s CPU      6.32s WALL (       1 calls)
     stress       :     14.10s CPU     15.71s WALL (       1 calls)

     Called by init_run:
     wfcinit      :      9.23s CPU     13.84s WALL (       1 calls)
     potinit      :      1.87s CPU      2.59s WALL (       1 calls)

     Called by electrons:
     c_bands      :    229.92s CPU    312.31s WALL (      11 calls)
     sum_band     :     44.44s CPU     62.54s WALL (      11 calls)
     v_of_rho     :     18.19s CPU     26.57s WALL (      12 calls)
     newd         :      7.45s CPU      7.68s WALL (      12 calls)
     mix_rho      :      0.65s CPU      0.92s WALL (      11 calls)
     vdW_energy   :      3.19s CPU      3.52s WALL (      48 calls)
     vdW_ffts     :     43.79s CPU     66.96s WALL (      98 calls)
     vdW_v        :      8.70s CPU     12.23s WALL (      48 calls)

     Called by c_bands:
     init_us_2    :      0.71s CPU      0.74s WALL (     500 calls)
     cegterg      :    224.33s CPU    306.30s WALL (     220 calls)

     Called by *egterg:
     h_psi        :    171.92s CPU    252.51s WALL (    1070 calls)
     s_psi        :      7.11s CPU      7.15s WALL (    1070 calls)
     g_psi        :      0.34s CPU      0.37s WALL (     830 calls)
     cdiaghg      :     28.36s CPU     29.25s WALL (    1050 calls)

     Called by h_psi:
     add_vuspsi   :      7.31s CPU      7.33s WALL (    1070 calls)

     General routines
     calbec       :     14.19s CPU     16.41s WALL (    1330 calls)
     fft          :     65.81s CPU    100.63s WALL (    2895 calls)
     ffts         :      0.12s CPU      0.20s WALL (      23 calls)
     fftw         :    177.51s CPU    273.01s WALL (  108096 calls)
     interpolate  :      0.67s CPU      1.01s WALL (      23 calls)
     davcio       :      0.00s CPU      0.02s WALL (      20 calls)
 
     Parallel routines
     fft_scatter  :    223.27s CPU    352.84s WALL (  111014 calls)
 
     PWSCF        :  6m21.48s CPU     8m42.76s WALL

 
   This run was terminated on:  22:16:12  30Jan2018            

=------------------------------------------------------------------------------=
   JOB DONE.
=------------------------------------------------------------------------------=
Job  /afs/slac/g/suncat/bin/suncat-tsmpirun -x LD_LIBRARY_PATH -wdir /scratch/qe704196_JsB1F pw.x -in pw.inp

TID   HOST_NAME   COMMAND_LINE            STATUS            TERMINATION_TIME
===== ========== ================  =======================  ===================
00000 suncat0141 pw.x -in pw.inp   Done                     01/30/2018 22:16:12
00001 suncat0141 pw.x -in pw.inp   Done                     01/30/2018 22:16:12
00002 suncat0141 pw.x -in pw.inp   Done                     01/30/2018 22:16:12
00003 suncat0141 pw.x -in pw.inp   Done                     01/30/2018 22:16:12
00004 suncat0141 pw.x -in pw.inp   Done                     01/30/2018 22:16:12
00005 suncat0141 pw.x -in pw.inp   Done                     01/30/2018 22:16:12
00006 suncat0141 pw.x -in pw.inp   Done                     01/30/2018 22:16:12
00007 suncat0141 pw.x -in pw.inp   Done                     01/30/2018 22:16:12
00008 suncat0121 pw.x -in pw.inp   Done                     01/30/2018 22:16:12
00009 suncat0121 pw.x -in pw.inp   Done                     01/30/2018 22:16:12
00010 suncat0121 pw.x -in pw.inp   Done                     01/30/2018 22:16:12
00011 suncat0121 pw.x -in pw.inp   Done                     01/30/2018 22:16:12
00012 suncat0121 pw.x -in pw.inp   Done                     01/30/2018 22:16:12
00013 suncat0121 pw.x -in pw.inp   Done                     01/30/2018 22:16:12
00014 suncat0121 pw.x -in pw.inp   Done                     01/30/2018 22:16:12
00015 suncat0121 pw.x -in pw.inp   Done                     01/30/2018 22:16:12
00016 suncat0117 pw.x -in pw.inp   Done                     01/30/2018 22:16:12
00017 suncat0117 pw.x -in pw.inp   Done                     01/30/2018 22:16:12
00018 suncat0117 pw.x -in pw.inp   Done                     01/30/2018 22:16:12
00019 suncat0117 pw.x -in pw.inp   Done                     01/30/2018 22:16:12
00020 suncat0117 pw.x -in pw.inp   Done                     01/30/2018 22:16:12
00021 suncat0117 pw.x -in pw.inp   Done                     01/30/2018 22:16:12
00022 suncat0117 pw.x -in pw.inp   Done                     01/30/2018 22:16:12
00023 suncat0117 pw.x -in pw.inp   Done                     01/30/2018 22:16:12
00024 suncat0251 pw.x -in pw.inp   Done                     01/30/2018 22:16:12
00025 suncat0251 pw.x -in pw.inp   Done                     01/30/2018 22:16:12
00026 suncat0251 pw.x -in pw.inp   Done                     01/30/2018 22:16:12
00027 suncat0251 pw.x -in pw.inp   Done                     01/30/2018 22:16:12
00028 suncat0251 pw.x -in pw.inp   Done                     01/30/2018 22:16:12
00029 suncat0251 pw.x -in pw.inp   Done                     01/30/2018 22:16:12
00030 suncat0251 pw.x -in pw.inp   Done                     01/30/2018 22:16:12
00031 suncat0251 pw.x -in pw.inp   Done                     01/30/2018 22:16:12

     Program PWSCF v.5.1rc2 (svn rev. 11289) starts on 30Jan2018 at 22:18: 1 

     This program is part of the open-source Quantum ESPRESSO suite
     for quantum simulation of materials; please cite
         "P. Giannozzi et al., J. Phys.:Condens. Matter 21 395502 (2009);
          URL http://www.quantum-espresso.org", 
     in publications or presentations arising from this work. More details at
     http://www.quantum-espresso.org/quote

     Parallel version (MPI), running on    32 processors
     R & G space division:  proc/nbgrp/npool/nimage =      32
     Reading input from pw.inp
     Message from routine read_cards :
     DEPRECATED: no units specified in CELL_PARAMETERS card

     Current dimensions of program PWSCF are:
     Max number of different atomic species (ntypx) = 10
     Max number of k-points (npk) =  40000
     Max angular momentum in pseudopotentials (lmaxx) =  3
     Presently stress not available with electric field


     **************************************************************************
     Initializing libbeef V0.1.1 with the BEEF-vdW functional.
     Citation: Wellendorff et al., PRB 85, 235149 (2012).
     **************************************************************************


     IMPORTANT: XC functional enforced from input :
     Exchange-correlation      = BEEF-VDW ( 1  4 27 13 2)
     Any further DFT definition will be discarded
     Please, verify this is what you really want


     Subspace diagonalization in iterative solution of the eigenvalue problem:
     a serial algorithm will be used

 
     Parallelization info
     --------------------
     sticks:   dense  smooth     PW     G-vecs:    dense   smooth      PW
     Min         117      47     13                22737     5739     877
     Max         118      48     14                22752     5784     896
     Sum        3757    1507    433               727647   184247   28311
 


     bravais-lattice index     =            0
     lattice parameter (alat)  =       1.8897  a.u.
     unit-cell volume          =    6117.3319 (a.u.)^3
     number of atoms/cell      =           13
     number of atomic types    =            2
     number of electrons       =       150.00
     number of Kohn-Sham states=           85
     kinetic-energy cutoff     =      36.7493  Ry
     charge density cutoff     =     367.4932  Ry
     convergence threshold     =      1.0E-05
     mixing beta               =       0.3000
     number of iterations used =           10  plain     mixing
     Exchange-correlation      = BEEF-VDW ( 1  4 27 13 2)
     nstep                     =           50


     celldm(1)=   1.889726  celldm(2)=   0.000000  celldm(3)=   0.000000
     celldm(4)=   0.000000  celldm(5)=   0.000000  celldm(6)=   0.000000

     crystal axes: (cart. coord. in units of alat)
               a(1) = (   6.437717   0.000000   0.000000 )  
               a(2) = (   3.218859   5.575227   0.000000 )  
               a(3) = (   0.000000   0.000000  25.256374 )  

     reciprocal axes: (cart. coord. in units 2 pi/alat)
               b(1) = (  0.155335 -0.089682  0.000000 )  
               b(2) = (  0.000000  0.179365  0.000000 )  
               b(3) = (  0.000000  0.000000  0.039594 )  


     PseudoPot. # 1 for Hg read from file:
     /afs/slac.stanford.edu/u/if/mamunm/psp/gbrv1.5pbe/Hg.UPF
     MD5 check sum: 8f42caffe07f7fd9c0a564347f8c5498
     Pseudo is Ultrasoft + core correction, Zval = 12.0
     Generated by new atomic code, or converted to UPF format
     Using radial grid of  985 points,  6 beta functions with: 
                l(1) =   0
                l(2) =   0
                l(3) =   1
                l(4) =   1
                l(5) =   2
                l(6) =   2
     Q(r) pseudized with  8 coefficients,  rinner =    2.000   2.000   2.000
                                                       2.000   2.000

     PseudoPot. # 2 for S  read from file:
     /afs/slac.stanford.edu/u/if/mamunm/psp/gbrv1.5pbe/S.UPF
     MD5 check sum: 88d86576ff6df21479756cfb9bdac1df
     Pseudo is Ultrasoft + core correction, Zval =  6.0
     Generated by new atomic code, or converted to UPF format
     Using radial grid of  907 points,  6 beta functions with: 
                l(1) =   0
                l(2) =   0
                l(3) =   1
                l(4) =   1
                l(5) =   2
                l(6) =   2
     Q(r) pseudized with  8 coefficients,  rinner =    1.300   1.300   1.300
                                                       1.300   1.300

     vdW kernel table read from file vdW_kernel_table
     MD5 check sum: 095c7af220d748ca6e76c0b4c6cfb241

     atomic species   valence    mass     pseudopotential
        Hg1           12.00   200.59200     Hg( 1.00)
        S1             6.00    32.06000     S ( 1.00)

     No symmetry found



   Cartesian axes

     site n.     atom                  positions (alat units)
         1           Hg1 tau(   1) = (   1.6094293   0.9292045  10.0000000  )
         2           Hg1 tau(   2) = (   4.8282880   0.9292045  10.0000000  )
         3           Hg1 tau(   3) = (   3.2188587   3.7168178  10.0000000  )
         4           Hg1 tau(   4) = (   6.4377173   3.7168178  10.0000000  )
         5           Hg1 tau(   5) = (   6.4377173   1.8584089  12.6281871  )
         6           Hg1 tau(   6) = (   3.2188587   1.8584089  12.6281871  )
         7           Hg1 tau(   7) = (   8.0471466   4.6460223  12.6281871  )
         8           Hg1 tau(   8) = (   4.8282880   4.6460223  12.6281871  )
         9           Hg1 tau(   9) = (   6.4377071   0.0000028  15.3140562  )
        10           Hg1 tau(  10) = (   6.4377217   5.5749860  15.3497784  )
        11           Hg1 tau(  11) = (   8.0469118   2.7877416  15.3497401  )
        12           Hg1 tau(  12) = (   4.8285254   2.7877340  15.3497608  )
        13           S1  tau(  13) = (   3.2188604   1.8584019  17.4828348  )

     number of k points=    20  Fermi-Dirac smearing, width (Ry)=  0.0110
                       cart. coord. in units 2pi/alat
        k(    1) = (   0.0000000   0.0000000   0.0000000), wk =   0.0555556
        k(    2) = (   0.0000000   0.0298942   0.0000000), wk =   0.1111111
        k(    3) = (   0.0000000   0.0597883   0.0000000), wk =   0.1111111
        k(    4) = (   0.0000000  -0.0896825   0.0000000), wk =   0.0555556
        k(    5) = (   0.0258891  -0.0149471   0.0000000), wk =   0.1111111
        k(    6) = (   0.0258891   0.0149471   0.0000000), wk =   0.1111111
        k(    7) = (   0.0258891   0.0448412   0.0000000), wk =   0.1111111
        k(    8) = (   0.0258891  -0.1046295   0.0000000), wk =   0.1111111
        k(    9) = (   0.0258891  -0.0747354   0.0000000), wk =   0.1111111
        k(   10) = (   0.0258891  -0.0448412   0.0000000), wk =   0.1111111
        k(   11) = (   0.0517782  -0.0298942   0.0000000), wk =   0.1111111
        k(   12) = (   0.0517782   0.0000000   0.0000000), wk =   0.1111111
        k(   13) = (   0.0517782   0.0298942   0.0000000), wk =   0.1111111
        k(   14) = (   0.0517782  -0.1195766   0.0000000), wk =   0.1111111
        k(   15) = (   0.0517782  -0.0896825   0.0000000), wk =   0.1111111
        k(   16) = (   0.0517782  -0.0597883   0.0000000), wk =   0.1111111
        k(   17) = (  -0.0776673   0.0448412   0.0000000), wk =   0.0555556
        k(   18) = (  -0.0776673   0.0747354   0.0000000), wk =   0.1111111
        k(   19) = (  -0.0776673   0.1046295   0.0000000), wk =   0.1111111
        k(   20) = (  -0.0776673  -0.0448412   0.0000000), wk =   0.0555556

     Dense  grid:   727647 G-vectors     FFT dimensions: (  75,  75, 300)

     Smooth grid:   184247 G-vectors     FFT dimensions: (  48,  48, 192)

     Largest allocated arrays     est. size (Mb)     dimensions
        Kohn-Sham Wavefunctions         0.99 Mb     (     760,   85)
        NL pseudopotentials             2.71 Mb     (     760,  234)
        Each V/rho on FFT grid          0.86 Mb     (   56250)
        Each G-vector array             0.17 Mb     (   22740)
        G-vector shells                 0.08 Mb     (   10053)
     Largest temporary arrays     est. size (Mb)     dimensions
        Auxiliary wavefunctions         3.94 Mb     (     760,  340)
        Each subspace H/S matrix        1.76 Mb     (     340,  340)
        Each <psi_i|beta_j> matrix      0.30 Mb     (     234,   85)
        Arrays for rho mixing           8.58 Mb     (   56250,   10)

     Initial potential from superposition of free atoms

     starting charge  149.99926, renormalised to  150.00000

     negative rho (up, down):  8.123E-05 0.000E+00


     ************************************************************************
     *
     * You are using vdW-DF for exchange-correlation in this calculation.
     * Please cite the following three references that made this development
     * possible:
     *
     *   M. Dion, H. Rydberg, E. Schroder, D. C. Langreth, and
     *   B. I. Lundqvist, Phys. Rev. Lett. 92, 246401 (2004).
     *
     *   T. Thonhauser, V. R. Cooper, S. Li, A. Puzder, P. Hyldgaard, and
     *   D. C. Langreth, Phys. Rev. B 76, 125112 (2007).
     *
     *   G. Roman-Perez and J. M. Soler, Phys. Rev. Lett. 103, 096102 (2009).
     *
     *
     * If you are using vdW-DF2, please also cite:
     *
     *   K. Lee, E. D. Murray, L. Kong, B. I. Lundqvist, and
     *   D. C. Langreth, Phys. Rev. B 82, 081101(R) (2010).
     *
     *
     * If you are calculating the stress with vdW-DF, please also cite:
     *
     *   R. Sabatini, E. Kucukbenli, B. Kolb, T. Thonhauser, and
     *   S. de Gironcoli, J. Phys.: Condens. Matter 24, 424209 (2012).
     *
     ************************************************************************

     Carrying out vdW-DF run using the following parameters:

     Nqs =      20    Nr_points =    1024   r_max =   100.000
     q_mesh =
               0.00001000     0.04494208     0.09755937     0.15916263
               0.23128650     0.31572767     0.41458969     0.53033537
               0.66584808     0.82450364     1.01025438     1.22772762
               1.48234092     1.78043706     2.12944203     2.53805004
               3.01644009     3.57652955     4.23227104     5.00000000

     Gradients computed in reciprocal space

     ************************************************************************


 
     Adding external electric field

     Computed dipole along edir(3) : 
        Dipole                0.0001 Ry au,          0.0002 Debye
        Dipole field          0.0000 Ry au
 
        Potential amp.       -0.0000 Ry
        Total length         46.5344 bohr
 
     Starting wfc are  112 randomized atomic wfcs

     total cpu time spent up to now is       18.8 secs

     per-process dynamical memory:    53.9 Mb

     Self-consistent Calculation

     iteration #  1     ecut=    36.75 Ry     beta=0.30
     Davidson diagonalization with overlap
     ethr =  1.00E-02,  avg # of iterations =  5.6

     negative rho (up, down):  4.842E-07 0.000E+00
 
     Adding external electric field

     Computed dipole along edir(3) : 
        Dipole               -3.7834 Ry au,         -9.6165 Debye
        Dipole field         -0.0078 Ry au
 
        Potential amp.        0.7233 Ry
        Total length         46.5344 bohr
 

     total cpu time spent up to now is       57.2 secs

     total energy              =   -1332.82308293 Ry
     Harris-Foulkes estimate   =   -1333.62485126 Ry
     estimated scf accuracy    <       1.70450559 Ry

     iteration #  2     ecut=    36.75 Ry     beta=0.30
     Davidson diagonalization with overlap
     ethr =  1.14E-03,  avg # of iterations =  7.8

     negative rho (up, down):  2.969E-05 0.000E+00
 
     Adding external electric field

     Computed dipole along edir(3) : 
        Dipole               -0.0067 Ry au,         -0.0170 Debye
        Dipole field         -0.0000 Ry au
 
        Potential amp.        0.0013 Ry
        Total length         46.5344 bohr
 

     total cpu time spent up to now is      107.1 secs

     total energy              =   -1331.39361753 Ry
     Harris-Foulkes estimate   =   -1335.91171362 Ry
     estimated scf accuracy    <      59.73061790 Ry

     iteration #  3     ecut=    36.75 Ry     beta=0.30
     Davidson diagonalization with overlap
     ethr =  1.14E-03,  avg # of iterations =  5.9

     negative rho (up, down):  6.298E-05 0.000E+00
 
     Adding external electric field

     Computed dipole along edir(3) : 
        Dipole               -0.4024 Ry au,         -1.0229 Debye
        Dipole field         -0.0008 Ry au
 
        Potential amp.        0.0769 Ry
        Total length         46.5344 bohr
 

     total cpu time spent up to now is      155.4 secs

     total energy              =   -1333.47645945 Ry
     Harris-Foulkes estimate   =   -1333.64235993 Ry
     estimated scf accuracy    <       1.45552875 Ry

     iteration #  4     ecut=    36.75 Ry     beta=0.30
     Davidson diagonalization with overlap
     ethr =  9.70E-04,  avg # of iterations =  2.0

     negative rho (up, down):  4.890E-05 0.000E+00
 
     Adding external electric field

     Computed dipole along edir(3) : 
        Dipole               -0.4994 Ry au,         -1.2692 Debye
        Dipole field         -0.0010 Ry au
 
        Potential amp.        0.0955 Ry
        Total length         46.5344 bohr
 

     total cpu time spent up to now is      188.1 secs

     total energy              =   -1333.55278872 Ry
     Harris-Foulkes estimate   =   -1333.56102355 Ry
     estimated scf accuracy    <       0.06052937 Ry

     iteration #  5     ecut=    36.75 Ry     beta=0.30
     Davidson diagonalization with overlap
     ethr =  4.04E-05,  avg # of iterations =  6.0

     negative rho (up, down):  3.436E-05 0.000E+00
 
     Adding external electric field

     Computed dipole along edir(3) : 
        Dipole               -0.5020 Ry au,         -1.2760 Debye
        Dipole field         -0.0010 Ry au
 
        Potential amp.        0.0960 Ry
        Total length         46.5344 bohr
 

     total cpu time spent up to now is      228.1 secs

     total energy              =   -1333.55667037 Ry
     Harris-Foulkes estimate   =   -1333.55837682 Ry
     estimated scf accuracy    <       0.00865065 Ry

     iteration #  6     ecut=    36.75 Ry     beta=0.30
     Davidson diagonalization with overlap
     ethr =  5.77E-06,  avg # of iterations =  2.5

     negative rho (up, down):  6.200E-05 0.000E+00
 
     Adding external electric field

     Computed dipole along edir(3) : 
        Dipole               -0.5569 Ry au,         -1.4154 Debye
        Dipole field         -0.0011 Ry au
 
        Potential amp.        0.1065 Ry
        Total length         46.5344 bohr
 

     total cpu time spent up to now is      262.5 secs

     total energy              =   -1333.55684469 Ry
     Harris-Foulkes estimate   =   -1333.55756978 Ry
     estimated scf accuracy    <       0.00560118 Ry

     iteration #  7     ecut=    36.75 Ry     beta=0.30
     Davidson diagonalization with overlap
     ethr =  3.73E-06,  avg # of iterations =  2.1

     negative rho (up, down):  7.694E-05 0.000E+00
 
     Adding external electric field

     Computed dipole along edir(3) : 
        Dipole               -0.5492 Ry au,         -1.3958 Debye
        Dipole field         -0.0011 Ry au
 
        Potential amp.        0.1050 Ry
        Total length         46.5344 bohr
 

     total cpu time spent up to now is      295.1 secs

     total energy              =   -1333.55724816 Ry
     Harris-Foulkes estimate   =   -1333.55738264 Ry
     estimated scf accuracy    <       0.00096798 Ry

     iteration #  8     ecut=    36.75 Ry     beta=0.30
     Davidson diagonalization with overlap
     ethr =  6.45E-07,  avg # of iterations =  3.0

     negative rho (up, down):  9.310E-05 0.000E+00
 
     Adding external electric field

     Computed dipole along edir(3) : 
        Dipole               -0.5553 Ry au,         -1.4113 Debye
        Dipole field         -0.0011 Ry au
 
        Potential amp.        0.1062 Ry
        Total length         46.5344 bohr
 

     total cpu time spent up to now is      328.7 secs

     total energy              =   -1333.55733815 Ry
     Harris-Foulkes estimate   =   -1333.55733683 Ry
     estimated scf accuracy    <       0.00013743 Ry

     iteration #  9     ecut=    36.75 Ry     beta=0.30
     Davidson diagonalization with overlap
     ethr =  9.16E-08,  avg # of iterations =  3.0

     negative rho (up, down):  9.089E-05 0.000E+00
 
     Adding external electric field

     Computed dipole along edir(3) : 
        Dipole               -0.5516 Ry au,         -1.4021 Debye
        Dipole field         -0.0011 Ry au
 
        Potential amp.        0.1055 Ry
        Total length         46.5344 bohr
 

     total cpu time spent up to now is      365.2 secs

     total energy              =   -1333.55736127 Ry
     Harris-Foulkes estimate   =   -1333.55737257 Ry
     estimated scf accuracy    <       0.00002976 Ry

     iteration # 10     ecut=    36.75 Ry     beta=0.30
     Davidson diagonalization with overlap
     ethr =  1.98E-08,  avg # of iterations =  2.0

     negative rho (up, down):  8.980E-05 0.000E+00

     negative rho (up, down):  8.980E-05 0.000E+00

     negative rho (up, down):  8.980E-05 0.000E+00

     negative rho (up, down):  8.980E-05 0.000E+00

     negative rho (up, down):  8.980E-05 0.000E+00

     negative rho (up, down):  8.980E-05 0.000E+00

     negative rho (up, down):  8.980E-05 0.000E+00

     negative rho (up, down):  8.980E-05 0.000E+00

     negative rho (up, down):  8.980E-05 0.000E+00

     negative rho (up, down):  8.980E-05 0.000E+00

     negative rho (up, down):  8.980E-05 0.000E+00

     negative rho (up, down):  8.980E-05 0.000E+00

     negative rho (up, down):  8.980E-05 0.000E+00

     negative rho (up, down):  8.980E-05 0.000E+00

     negative rho (up, down):  8.980E-05 0.000E+00

     negative rho (up, down):  8.980E-05 0.000E+00

     negative rho (up, down):  8.980E-05 0.000E+00

     negative rho (up, down):  8.980E-05 0.000E+00

     negative rho (up, down):  8.980E-05 0.000E+00

     negative rho (up, down):  8.980E-05 0.000E+00

     negative rho (up, down):  8.980E-05 0.000E+00

     negative rho (up, down):  8.980E-05 0.000E+00

     negative rho (up, down):  8.980E-05 0.000E+00

     negative rho (up, down):  8.980E-05 0.000E+00

     negative rho (up, down):  8.980E-05 0.000E+00

     negative rho (up, down):  8.980E-05 0.000E+00

     negative rho (up, down):  8.980E-05 0.000E+00

     negative rho (up, down):  8.980E-05 0.000E+00

     negative rho (up, down):  8.980E-05 0.000E+00

     negative rho (up, down):  8.980E-05 0.000E+00

     negative rho (up, down):  8.980E-05 0.000E+00

     negative rho (up, down):  8.980E-05 0.000E+00

     negative rho (up, down):  8.980E-05 0.000E+00

     negative rho (up, down):  8.980E-05 0.000E+00

     negative rho (up, down):  8.980E-05 0.000E+00
 
     Adding external electric field

     Computed dipole along edir(3) : 
        Dipole               -0.5713 Ry au,         -1.4522 Debye
        Dipole field         -0.0012 Ry au
 
        Potential amp.        0.1092 Ry
        Total length         46.5344 bohr
 

     total cpu time spent up to now is      473.3 secs

     End of self-consistent calculation

          k = 0.0000 0.0000 0.0000 ( 23031 PWs)   bands (ev):

   -11.4292  -8.2589  -7.8110  -7.8090  -7.8048  -7.8048  -7.6735  -7.6640
    -7.6640  -7.6352  -7.5794  -7.5794  -7.5753  -7.4953  -7.4878  -7.4878
    -7.0604  -7.0602  -7.0602  -7.0213  -7.0213  -7.0044  -6.9776  -6.9776
    -6.9545  -6.8877  -6.8877  -6.8315  -6.8315  -6.8217  -6.7793  -6.7793
    -6.4133  -6.4133  -6.3740  -6.3740  -6.3467  -6.3348  -6.3348  -6.2940
    -6.1706  -6.1706  -6.1532  -6.1448  -6.1448  -6.0373  -6.0320  -6.0320
    -5.9837  -5.9696  -5.9696  -5.9289  -5.9289  -5.9130  -5.9129  -5.9129
    -5.8894  -5.8146  -5.7806  -5.7806  -5.6956  -5.6842  -5.6842  -3.6684
    -2.0306  -2.0306  -2.0224  -1.7815  -1.7815  -1.7215  -1.3487  -1.3487
    -1.2961  -0.3891  -0.2833  -0.2832  -0.2346   0.1345   0.1345   0.6861
     1.3922   1.6707   1.6707   1.8207   1.8207

          k = 0.0000 0.0299 0.0000 ( 23012 PWs)   bands (ev):

   -11.4252  -8.1075  -7.7706  -7.7250  -7.7231  -7.7202  -7.6302  -7.6028
    -7.6026  -7.5471  -7.5381  -7.5343  -7.5137  -7.4549  -7.4096  -7.4026
    -7.0503  -7.0444  -7.0380  -7.0330  -6.9972  -6.9815  -6.9743  -6.9603
    -6.9274  -6.9192  -6.8377  -6.8264  -6.8250  -6.8108  -6.7999  -6.7226
    -6.5023  -6.4333  -6.4220  -6.4075  -6.3775  -6.3763  -6.3491  -6.3393
    -6.2336  -6.1859  -6.1833  -6.1699  -6.1694  -6.1383  -6.0750  -6.0672
    -6.0548  -5.9908  -5.9888  -5.9754  -5.9686  -5.9636  -5.9541  -5.9360
    -5.8845  -5.8563  -5.8562  -5.7778  -5.7668  -5.7614  -5.7205  -3.5873
    -3.5687  -2.6541  -2.6149  -2.4588  -1.8826  -1.6333  -1.3745  -0.9886
    -0.8470  -0.5363  -0.1693   0.0213   0.2596   0.6019   0.6981   0.9979
     1.4656   1.6484   1.9981   2.6733   2.7371

          k = 0.0000 0.0598 0.0000 ( 22962 PWs)   bands (ev):

   -11.4172  -7.7338  -7.6761  -7.5492  -7.5324  -7.5159  -7.5149  -7.4653
    -7.4567  -7.4210  -7.4119  -7.3982  -7.3616  -7.2946  -7.1914  -7.1798
    -7.0770  -7.0610  -7.0470  -7.0457  -6.9956  -6.9485  -6.8976  -6.8947
    -6.8236  -6.8107  -6.8063  -6.7991  -6.7787  -6.7691  -6.7172  -6.6329
    -6.5931  -6.5902  -6.5678  -6.5450  -6.4570  -6.4336  -6.4020  -6.3803
    -6.3599  -6.2936  -6.2872  -6.2601  -6.2600  -6.2353  -6.2126  -6.2036
    -6.1806  -6.1763  -6.1686  -6.1578  -6.1023  -6.1009  -6.0884  -6.0097
    -5.9705  -5.9514  -5.9247  -5.9196  -5.8428  -5.8303  -5.3663  -5.0747
    -3.8253  -3.3062  -3.0670  -3.0360  -2.1918  -2.1384  -1.8424  -1.0073
    -0.9478  -0.5211   0.1327   0.2542   0.9395   1.3491   1.6134   2.3991
     2.4145   2.8051   3.1928   3.4283   3.6426

          k = 0.0000-0.0897 0.0000 ( 23032 PWs)   bands (ev):

   -11.4132  -7.5804  -7.5779  -7.4808  -7.4576  -7.4323  -7.4282  -7.3547
    -7.3341  -7.2747  -7.2612  -7.2573  -7.2424  -7.2246  -7.2084  -7.1131
    -7.1095  -6.9714  -6.9658  -6.9526  -6.9361  -6.9146  -6.8937  -6.8742
    -6.8670  -6.7349  -6.7339  -6.7302  -6.7190  -6.7096  -6.6973  -6.6365
    -6.6176  -6.5509  -6.5365  -6.5352  -6.5262  -6.4856  -6.4584  -6.4557
    -6.4427  -6.4409  -6.4041  -6.3733  -6.3708  -6.3474  -6.3298  -6.3135
    -6.3079  -6.2745  -6.2401  -6.2039  -6.1782  -6.1324  -6.1314  -6.1095
    -6.0714  -5.9803  -5.9591  -5.9492  -5.9224  -5.8471  -5.8361  -4.8247
    -4.7521  -3.2085  -3.1852  -2.8538  -2.7642  -2.3097  -2.0470  -1.0588
    -0.9207  -0.5880   0.1481   0.2639   1.8495   1.9162   2.4832   2.5915
     2.7924   2.9694   3.8260   3.8868   3.9028

          k = 0.0259-0.0149 0.0000 ( 23012 PWs)   bands (ev):

   -11.4252  -8.1075  -7.7706  -7.7250  -7.7231  -7.7202  -7.6302  -7.6028
    -7.6026  -7.5471  -7.5381  -7.5343  -7.5137  -7.4549  -7.4096  -7.4026
    -7.0503  -7.0444  -7.0380  -7.0330  -6.9972  -6.9815  -6.9743  -6.9603
    -6.9274  -6.9192  -6.8377  -6.8264  -6.8250  -6.8108  -6.7999  -6.7226
    -6.5023  -6.4333  -6.4220  -6.4075  -6.3775  -6.3763  -6.3491  -6.3393
    -6.2336  -6.1859  -6.1833  -6.1699  -6.1694  -6.1383  -6.0750  -6.0672
    -6.0548  -5.9908  -5.9888  -5.9754  -5.9686  -5.9636  -5.9541  -5.9360
    -5.8845  -5.8563  -5.8562  -5.7778  -5.7668  -5.7614  -5.7205  -3.5873
    -3.5687  -2.6541  -2.6149  -2.4588  -1.8826  -1.6333  -1.3745  -0.9886
    -0.8470  -0.5363  -0.1693   0.0213   0.2596   0.6018   0.6981   0.9979
     1.4656   1.6484   1.9981   2.6733   2.7371

          k = 0.0259 0.0149 0.0000 ( 23012 PWs)   bands (ev):

   -11.4252  -8.1075  -7.7706  -7.7250  -7.7231  -7.7202  -7.6302  -7.6028
    -7.6026  -7.5471  -7.5381  -7.5343  -7.5137  -7.4549  -7.4096  -7.4026
    -7.0503  -7.0444  -7.0380  -7.0330  -6.9972  -6.9815  -6.9743  -6.9603
    -6.9274  -6.9192  -6.8377  -6.8264  -6.8250  -6.8108  -6.7999  -6.7226
    -6.5023  -6.4333  -6.4220  -6.4075  -6.3775  -6.3763  -6.3491  -6.3393
    -6.2336  -6.1859  -6.1833  -6.1699  -6.1694  -6.1383  -6.0751  -6.0672
    -6.0548  -5.9908  -5.9888  -5.9754  -5.9686  -5.9636  -5.9541  -5.9360
    -5.8845  -5.8563  -5.8562  -5.7778  -5.7668  -5.7614  -5.7205  -3.5873
    -3.5687  -2.6541  -2.6149  -2.4588  -1.8826  -1.6333  -1.3745  -0.9886
    -0.8470  -0.5363  -0.1693   0.0213   0.2596   0.6019   0.6981   0.9979
     1.4656   1.6484   1.9981   2.6733   2.7371

          k = 0.0259 0.0448 0.0000 ( 23004 PWs)   bands (ev):

   -11.4191  -7.8316  -7.6543  -7.6505  -7.5808  -7.5477  -7.5349  -7.5242
    -7.4978  -7.4683  -7.4640  -7.4242  -7.3523  -7.3359  -7.3305  -7.2159
    -7.0920  -7.0742  -7.0194  -7.0156  -7.0010  -6.9806  -6.9294  -6.9010
    -6.8891  -6.8414  -6.8258  -6.8181  -6.7999  -6.7890  -6.7408  -6.6566
    -6.5840  -6.5385  -6.5215  -6.4990  -6.4552  -6.4052  -6.3798  -6.3590
    -6.3332  -6.2780  -6.2555  -6.2278  -6.2119  -6.1851  -6.1804  -6.1699
    -6.1527  -6.0944  -6.0888  -6.0728  -6.0653  -6.0636  -6.0284  -5.9815
    -5.9533  -5.9478  -5.9278  -5.8846  -5.8634  -5.8563  -5.4715  -4.2107
    -4.1864  -3.3965  -3.1264  -2.9918  -1.7703  -1.5962  -1.5598  -1.2634
    -0.9226  -0.6907   0.0262   0.2217   0.4611   1.0618   1.8955   2.0107
     2.1614   2.4144   2.9585   3.0322   3.3875

          k = 0.0259-0.1046 0.0000 ( 23014 PWs)   bands (ev):

   -11.4132  -7.5376  -7.4910  -7.4458  -7.4352  -7.4296  -7.4195  -7.3751
    -7.3554  -7.3244  -7.3162  -7.2357  -7.2239  -7.1938  -7.1900  -7.1299
    -7.1002  -7.0882  -6.9926  -6.9612  -6.9236  -6.9126  -6.8975  -6.8624
    -6.8423  -6.8196  -6.8045  -6.7867  -6.7482  -6.7407  -6.7095  -6.6894
    -6.6732  -6.6616  -6.5724  -6.5635  -6.5155  -6.4990  -6.4763  -6.4532
    -6.4291  -6.4137  -6.3720  -6.3619  -6.3564  -6.3109  -6.2914  -6.2773
    -6.2591  -6.2443  -6.1932  -6.1749  -6.1459  -6.1208  -6.0978  -6.0655
    -6.0085  -5.9936  -5.9651  -5.9470  -5.9122  -5.8875  -5.4474  -5.0160
    -4.4360  -4.2251  -3.3137  -3.0103  -2.3810  -1.8926  -1.6624  -1.2137
    -0.7926  -0.4353  -0.0389   0.1952   1.3857   1.8169   2.3811   2.6848
     2.9079   3.1800   3.4469   3.8361   3.9790

          k = 0.0259-0.0747 0.0000 ( 23014 PWs)   bands (ev):

   -11.4132  -7.5376  -7.4910  -7.4458  -7.4352  -7.4296  -7.4195  -7.3751
    -7.3554  -7.3244  -7.3162  -7.2357  -7.2239  -7.1938  -7.1900  -7.1299
    -7.1002  -7.0882  -6.9926  -6.9612  -6.9236  -6.9126  -6.8975  -6.8624
    -6.8423  -6.8196  -6.8045  -6.7867  -6.7482  -6.7407  -6.7095  -6.6894
    -6.6732  -6.6616  -6.5724  -6.5635  -6.5155  -6.4990  -6.4763  -6.4532
    -6.4291  -6.4137  -6.3720  -6.3619  -6.3564  -6.3109  -6.2914  -6.2773
    -6.2591  -6.2442  -6.1932  -6.1749  -6.1459  -6.1208  -6.0978  -6.0655
    -6.0085  -5.9936  -5.9651  -5.9470  -5.9122  -5.8875  -5.4474  -5.0160
    -4.4360  -4.2251  -3.3137  -3.0103  -2.3810  -1.8926  -1.6624  -1.2137
    -0.7926  -0.4353  -0.0389   0.1952   1.3857   1.8169   2.3811   2.6848
     2.9079   3.1800   3.4469   3.8361   3.9790

          k = 0.0259-0.0448 0.0000 ( 23004 PWs)   bands (ev):

   -11.4191  -7.8316  -7.6543  -7.6505  -7.5808  -7.5477  -7.5349  -7.5242
    -7.4978  -7.4683  -7.4640  -7.4242  -7.3522  -7.3359  -7.3305  -7.2159
    -7.0920  -7.0742  -7.0194  -7.0156  -7.0010  -6.9806  -6.9294  -6.9010
    -6.8891  -6.8414  -6.8258  -6.8181  -6.7999  -6.7890  -6.7408  -6.6566
    -6.5840  -6.5385  -6.5215  -6.4990  -6.4552  -6.4052  -6.3798  -6.3590
    -6.3332  -6.2780  -6.2555  -6.2278  -6.2119  -6.1851  -6.1804  -6.1699
    -6.1527  -6.0944  -6.0888  -6.0728  -6.0653  -6.0636  -6.0284  -5.9815
    -5.9533  -5.9478  -5.9278  -5.8846  -5.8634  -5.8563  -5.4715  -4.2107
    -4.1864  -3.3965  -3.1264  -2.9918  -1.7703  -1.5962  -1.5598  -1.2634
    -0.9226  -0.6907   0.0262   0.2217   0.4611   1.0618   1.8955   2.0107
     2.1614   2.4144   2.9585   3.0322   3.3875

          k = 0.0518-0.0299 0.0000 ( 22962 PWs)   bands (ev):

   -11.4172  -7.7338  -7.6761  -7.5492  -7.5324  -7.5159  -7.5149  -7.4653
    -7.4567  -7.4210  -7.4119  -7.3982  -7.3616  -7.2946  -7.1914  -7.1798
    -7.0770  -7.0610  -7.0470  -7.0457  -6.9956  -6.9485  -6.8976  -6.8947
    -6.8236  -6.8107  -6.8063  -6.7991  -6.7787  -6.7691  -6.7172  -6.6329
    -6.5931  -6.5902  -6.5678  -6.5450  -6.4570  -6.4336  -6.4020  -6.3803
    -6.3599  -6.2936  -6.2872  -6.2601  -6.2600  -6.2353  -6.2126  -6.2036
    -6.1806  -6.1763  -6.1686  -6.1578  -6.1023  -6.1009  -6.0884  -6.0097
    -5.9705  -5.9514  -5.9247  -5.9196  -5.8428  -5.8303  -5.3663  -5.0747
    -3.8253  -3.3062  -3.0670  -3.0360  -2.1918  -2.1384  -1.8424  -1.0073
    -0.9477  -0.5211   0.1327   0.2542   0.9395   1.3491   1.6134   2.3991
     2.4145   2.8051   3.1928   3.4283   3.6426

          k = 0.0518 0.0000 0.0000 ( 23004 PWs)   bands (ev):

   -11.4191  -7.8316  -7.6543  -7.6505  -7.5808  -7.5477  -7.5349  -7.5242
    -7.4978  -7.4683  -7.4640  -7.4242  -7.3523  -7.3359  -7.3305  -7.2159
    -7.0920  -7.0742  -7.0194  -7.0156  -7.0010  -6.9806  -6.9294  -6.9010
    -6.8891  -6.8414  -6.8258  -6.8181  -6.7999  -6.7890  -6.7408  -6.6566
    -6.5840  -6.5385  -6.5215  -6.4990  -6.4552  -6.4052  -6.3798  -6.3590
    -6.3332  -6.2780  -6.2555  -6.2278  -6.2119  -6.1851  -6.1804  -6.1699
    -6.1527  -6.0944  -6.0888  -6.0728  -6.0653  -6.0636  -6.0284  -5.9815
    -5.9533  -5.9478  -5.9278  -5.8846  -5.8634  -5.8563  -5.4715  -4.2107
    -4.1864  -3.3965  -3.1264  -2.9918  -1.7703  -1.5962  -1.5598  -1.2634
    -0.9226  -0.6907   0.0262   0.2217   0.4611   1.0618   1.8955   2.0107
     2.1614   2.4144   2.9585   3.0322   3.3875

          k = 0.0518 0.0299 0.0000 ( 22962 PWs)   bands (ev):

   -11.4172  -7.7338  -7.6761  -7.5492  -7.5324  -7.5159  -7.5149  -7.4653
    -7.4567  -7.4210  -7.4119  -7.3982  -7.3616  -7.2946  -7.1914  -7.1798
    -7.0770  -7.0610  -7.0470  -7.0457  -6.9956  -6.9485  -6.8976  -6.8947
    -6.8236  -6.8107  -6.8063  -6.7991  -6.7787  -6.7691  -6.7172  -6.6329
    -6.5931  -6.5902  -6.5678  -6.5450  -6.4570  -6.4335  -6.4020  -6.3803
    -6.3599  -6.2936  -6.2872  -6.2601  -6.2600  -6.2353  -6.2126  -6.2036
    -6.1806  -6.1763  -6.1686  -6.1578  -6.1023  -6.1009  -6.0884  -6.0097
    -5.9705  -5.9514  -5.9247  -5.9196  -5.8428  -5.8303  -5.3663  -5.0747
    -3.8253  -3.3062  -3.0670  -3.0360  -2.1918  -2.1384  -1.8424  -1.0073
    -0.9478  -0.5211   0.1327   0.2542   0.9395   1.3491   1.6134   2.3991
     2.4145   2.8051   3.1928   3.4283   3.6426

          k = 0.0518-0.1196 0.0000 ( 23014 PWs)   bands (ev):

   -11.4132  -7.5376  -7.4910  -7.4458  -7.4352  -7.4296  -7.4195  -7.3751
    -7.3554  -7.3244  -7.3162  -7.2357  -7.2239  -7.1938  -7.1900  -7.1299
    -7.1002  -7.0882  -6.9926  -6.9612  -6.9236  -6.9126  -6.8975  -6.8624
    -6.8423  -6.8196  -6.8045  -6.7867  -6.7482  -6.7407  -6.7095  -6.6894
    -6.6732  -6.6616  -6.5724  -6.5635  -6.5155  -6.4990  -6.4763  -6.4532
    -6.4290  -6.4137  -6.3720  -6.3619  -6.3564  -6.3109  -6.2914  -6.2773
    -6.2591  -6.2442  -6.1932  -6.1749  -6.1459  -6.1208  -6.0978  -6.0655
    -6.0085  -5.9936  -5.9651  -5.9470  -5.9122  -5.8875  -5.4474  -5.0160
    -4.4360  -4.2251  -3.3137  -3.0103  -2.3810  -1.8926  -1.6624  -1.2137
    -0.7926  -0.4353  -0.0389   0.1952   1.3857   1.8169   2.3811   2.6848
     2.9079   3.1800   3.4469   3.8361   3.9790

          k = 0.0518-0.0897 0.0000 ( 23028 PWs)   bands (ev):

   -11.4113  -7.3657  -7.3398  -7.3372  -7.3299  -7.3277  -7.3231  -7.3214
    -7.3081  -7.2783  -7.2447  -7.2388  -7.2364  -7.1680  -7.1649  -7.1637
    -7.0025  -6.9932  -6.9803  -6.9693  -6.9659  -6.9036  -6.9009  -6.8946
    -6.8498  -6.8463  -6.8394  -6.7932  -6.7925  -6.7901  -6.7407  -6.7041
    -6.6949  -6.6942  -6.6508  -6.6359  -6.6234  -6.6007  -6.5899  -6.5432
    -6.5307  -6.4529  -6.3777  -6.3611  -6.3436  -6.3280  -6.3030  -6.2890
    -6.2543  -6.1907  -6.1801  -6.1683  -6.0882  -6.0722  -6.0588  -6.0558
    -6.0155  -6.0132  -6.0062  -5.9963  -5.9782  -5.5134  -5.4893  -5.4887
    -4.3552  -4.3362  -4.3192  -2.5338  -2.4682  -2.4332  -1.2768  -0.7864
    -0.7512  -0.4535  -0.1184   0.0780   2.1734   2.1815   2.2900   2.4317
     2.5460   2.7875   3.9887   4.0918   4.2137

          k = 0.0518-0.0598 0.0000 ( 23014 PWs)   bands (ev):

   -11.4132  -7.5376  -7.4910  -7.4458  -7.4352  -7.4296  -7.4195  -7.3751
    -7.3554  -7.3244  -7.3162  -7.2357  -7.2239  -7.1938  -7.1900  -7.1299
    -7.1002  -7.0882  -6.9926  -6.9612  -6.9236  -6.9126  -6.8975  -6.8624
    -6.8423  -6.8196  -6.8045  -6.7867  -6.7482  -6.7407  -6.7095  -6.6894
    -6.6732  -6.6616  -6.5724  -6.5635  -6.5155  -6.4990  -6.4763  -6.4532
    -6.4291  -6.4137  -6.3720  -6.3619  -6.3564  -6.3109  -6.2914  -6.2773
    -6.2591  -6.2443  -6.1932  -6.1749  -6.1459  -6.1208  -6.0978  -6.0655
    -6.0085  -5.9936  -5.9651  -5.9470  -5.9122  -5.8875  -5.4474  -5.0160
    -4.4360  -4.2251  -3.3137  -3.0103  -2.3810  -1.8926  -1.6624  -1.2137
    -0.7926  -0.4353  -0.0389   0.1952   1.3857   1.8169   2.3811   2.6848
     2.9079   3.1800   3.4469   3.8361   3.9790

          k =-0.0777 0.0448 0.0000 ( 23032 PWs)   bands (ev):

   -11.4132  -7.5804  -7.5779  -7.4808  -7.4577  -7.4323  -7.4282  -7.3547
    -7.3341  -7.2747  -7.2612  -7.2573  -7.2424  -7.2246  -7.2084  -7.1131
    -7.1095  -6.9714  -6.9658  -6.9526  -6.9361  -6.9146  -6.8937  -6.8742
    -6.8670  -6.7349  -6.7339  -6.7302  -6.7191  -6.7096  -6.6973  -6.6365
    -6.6176  -6.5509  -6.5365  -6.5352  -6.5262  -6.4856  -6.4584  -6.4557
[...]

   -12.1472  -7.4611  -7.2414  -7.1458  -7.1240  -7.1080  -7.0749  -7.0531
    -7.0044  -6.9891  -6.9650  -6.9457  -6.9301  -6.9145  -6.9047  -6.8631
    -6.8456  -6.7828  -6.7525  -6.7126  -6.6920  -6.6641  -6.6397  -6.5959
    -6.5740  -6.5545  -6.5341  -6.5129  -6.4729  -6.4376  -6.4253  -6.4178
    -6.3905  -6.3756  -6.3511  -6.3318  -6.3154  -6.2847  -6.2568  -6.2386
    -6.2000  -6.1588  -6.1317  -6.1262  -6.1013  -6.0836  -6.0708  -6.0351
    -6.0195  -5.9954  -5.8961  -5.8873  -5.8809  -5.8365  -5.7985  -5.7737
    -5.7504  -5.7318  -5.6955  -5.6762  -5.6146  -5.5770  -5.1150  -4.8514
    -4.1852  -3.9763  -3.3640  -2.9976  -2.4056  -1.9823  -1.4516  -1.2425
    -1.0418  -0.1072   0.3039   0.6875   1.5010   2.1186   2.4909   2.9838
     3.1997   3.4584   3.6432   3.9076   4.1787

          k = 0.0259-0.0747 0.0000 ( 23014 PWs)   bands (ev):

   -12.1472  -7.4611  -7.2414  -7.1458  -7.1240  -7.1080  -7.0749  -7.0531
    -7.0044  -6.9891  -6.9650  -6.9457  -6.9301  -6.9145  -6.9047  -6.8631
    -6.8456  -6.7827  -6.7525  -6.7126  -6.6920  -6.6641  -6.6397  -6.5960
    -6.5740  -6.5545  -6.5341  -6.5129  -6.4729  -6.4376  -6.4252  -6.4178
    -6.3905  -6.3757  -6.3511  -6.3318  -6.3154  -6.2848  -6.2568  -6.2386
    -6.2000  -6.1588  -6.1317  -6.1262  -6.1013  -6.0836  -6.0708  -6.0351
    -6.0195  -5.9954  -5.8961  -5.8873  -5.8809  -5.8365  -5.7985  -5.7737
    -5.7504  -5.7318  -5.6955  -5.6762  -5.6146  -5.5770  -5.1150  -4.8514
    -4.1852  -3.9763  -3.3640  -2.9976  -2.4056  -1.9823  -1.4516  -1.2425
    -1.0418  -0.1072   0.3039   0.6874   1.5010   2.1186   2.4909   2.9838
     3.1997   3.4584   3.6432   3.9076   4.1787

          k = 0.0259-0.0448 0.0000 ( 23004 PWs)   bands (ev):

   -12.1597  -7.5561  -7.4039  -7.3441  -7.2971  -7.2737  -7.2317  -7.2278
    -7.1439  -7.1200  -7.1076  -7.0819  -7.0737  -7.0647  -7.0517  -6.9965
    -6.9238  -6.8349  -6.8069  -6.7681  -6.7161  -6.6655  -6.6463  -6.6344
    -6.6215  -6.5953  -6.5529  -6.5133  -6.4816  -6.4263  -6.4203  -6.3867
    -6.3537  -6.3304  -6.3218  -6.2964  -6.2508  -6.2129  -6.1729  -6.1411
    -6.1002  -6.0462  -6.0402  -6.0221  -5.9976  -5.9795  -5.8989  -5.8769
    -5.8689  -5.8329  -5.8169  -5.8115  -5.7919  -5.7828  -5.7714  -5.6989
    -5.6931  -5.6846  -5.6322  -5.5992  -5.5558  -5.5506  -5.2331  -3.8857
    -3.7838  -3.4473  -3.1425  -3.0526  -1.9508  -1.6876  -1.3031  -1.0467
    -0.9279  -0.5402   0.2575   0.6213   0.7309   1.3214   2.2804   2.3152
     2.3961   2.6706   3.1110   3.2465   3.5689

          k = 0.0518-0.0299 0.0000 ( 22962 PWs)   bands (ev):

   -12.1555  -7.5471  -7.3296  -7.2672  -7.2593  -7.2350  -7.2275  -7.1312
    -7.0952  -7.0824  -7.0764  -7.0682  -7.0414  -7.0138  -6.9805  -6.9740
    -6.8982  -6.8050  -6.7898  -6.7257  -6.7008  -6.6639  -6.6615  -6.6093
    -6.5906  -6.5807  -6.5165  -6.5059  -6.4742  -6.4380  -6.3920  -6.3844
    -6.3644  -6.3579  -6.3353  -6.2926  -6.2612  -6.2310  -6.2206  -6.1780
    -6.1135  -6.0956  -6.0710  -6.0486  -6.0320  -6.0021  -5.9886  -5.8949
    -5.8830  -5.8717  -5.8673  -5.8523  -5.8469  -5.8300  -5.8209  -5.7346
    -5.7249  -5.7029  -5.6740  -5.6297  -5.5390  -5.5215  -5.1802  -4.6417
    -3.8289  -3.2537  -2.9985  -2.6523  -2.3326  -2.1396  -1.8321  -1.2176
    -0.7195  -0.3357   0.5166   0.5832   0.9980   1.6970   1.8998   2.7238
     2.7486   3.1206   3.3139   3.5487   3.7598

          k = 0.0518 0.0000 0.0000 ( 23004 PWs)   bands (ev):

   -12.1597  -7.5561  -7.4039  -7.3441  -7.2971  -7.2737  -7.2317  -7.2278
    -7.1439  -7.1200  -7.1076  -7.0819  -7.0737  -7.0647  -7.0517  -6.9965
    -6.9238  -6.8349  -6.8070  -6.7681  -6.7161  -6.6655  -6.6463  -6.6344
    -6.6215  -6.5953  -6.5529  -6.5133  -6.4817  -6.4263  -6.4203  -6.3867
    -6.3537  -6.3304  -6.3218  -6.2964  -6.2508  -6.2129  -6.1729  -6.1411
    -6.1002  -6.0462  -6.0402  -6.0221  -5.9976  -5.9795  -5.8989  -5.8769
    -5.8689  -5.8329  -5.8169  -5.8115  -5.7919  -5.7828  -5.7714  -5.6989
    -5.6931  -5.6846  -5.6322  -5.5992  -5.5558  -5.5506  -5.2331  -3.8857
    -3.7838  -3.4473  -3.1424  -3.0527  -1.9509  -1.6876  -1.3031  -1.0467
    -0.9280  -0.5402   0.2574   0.6212   0.7310   1.3214   2.2804   2.3151
     2.3961   2.6706   3.1111   3.2466   3.5689

          k = 0.0518 0.0299 0.0000 ( 22962 PWs)   bands (ev):

   -12.1555  -7.5472  -7.3296  -7.2672  -7.2593  -7.2350  -7.2275  -7.1313
    -7.0952  -7.0824  -7.0764  -7.0682  -7.0414  -7.0138  -6.9805  -6.9740
    -6.8982  -6.8051  -6.7897  -6.7257  -6.7008  -6.6639  -6.6615  -6.6093
    -6.5906  -6.5806  -6.5165  -6.5059  -6.4742  -6.4379  -6.3920  -6.3845
    -6.3644  -6.3580  -6.3353  -6.2926  -6.2612  -6.2310  -6.2206  -6.1780
    -6.1135  -6.0956  -6.0710  -6.0486  -6.0320  -6.0021  -5.9886  -5.8949
    -5.8830  -5.8717  -5.8673  -5.8523  -5.8469  -5.8300  -5.8209  -5.7346
    -5.7249  -5.7029  -5.6740  -5.6297  -5.5390  -5.5215  -5.1802  -4.6417
    -3.8289  -3.2538  -2.9984  -2.6523  -2.3326  -2.1397  -1.8321  -1.2176
    -0.7195  -0.3357   0.5166   0.5832   0.9980   1.6970   1.8998   2.7238
     2.7486   3.1206   3.3139   3.5487   3.7598

          k = 0.0518-0.1196 0.0000 ( 23014 PWs)   bands (ev):

   -12.1472  -7.4611  -7.2414  -7.1458  -7.1241  -7.1080  -7.0749  -7.0531
    -7.0044  -6.9891  -6.9650  -6.9457  -6.9301  -6.9145  -6.9047  -6.8631
    -6.8456  -6.7827  -6.7525  -6.7126  -6.6920  -6.6641  -6.6397  -6.5960
    -6.5740  -6.5545  -6.5341  -6.5129  -6.4729  -6.4376  -6.4252  -6.4178
    -6.3905  -6.3756  -6.3511  -6.3317  -6.3154  -6.2848  -6.2567  -6.2386
    -6.2000  -6.1588  -6.1317  -6.1262  -6.1013  -6.0836  -6.0708  -6.0351
    -6.0195  -5.9954  -5.8961  -5.8873  -5.8809  -5.8365  -5.7985  -5.7737
    -5.7504  -5.7318  -5.6955  -5.6762  -5.6146  -5.5770  -5.1150  -4.8514
    -4.1851  -3.9763  -3.3640  -2.9976  -2.4056  -1.9823  -1.4516  -1.2425
    -1.0419  -0.1072   0.3039   0.6874   1.5010   2.1186   2.4909   2.9838
     3.1997   3.4584   3.6432   3.9076   4.1790

          k = 0.0518-0.0897 0.0000 ( 23028 PWs)   bands (ev):

   -12.1430  -7.3813  -7.1738  -7.1171  -7.0658  -7.0109  -6.9363  -6.9318
    -6.9242  -6.9211  -6.9108  -6.8913  -6.8649  -6.8472  -6.8448  -6.8337
    -6.8329  -6.7763  -6.7238  -6.6903  -6.6753  -6.6744  -6.6157  -6.6084
    -6.6022  -6.5708  -6.5294  -6.5286  -6.5029  -6.4932  -6.4813  -6.4698
    -6.4447  -6.4362  -6.4064  -6.3856  -6.3641  -6.3556  -6.3369  -6.2887
    -6.2800  -6.2383  -6.2292  -6.1317  -6.1256  -6.1191  -6.0797  -6.0795
    -6.0571  -5.9179  -5.8829  -5.8762  -5.8643  -5.8001  -5.7873  -5.7858
    -5.7387  -5.7122  -5.7029  -5.6953  -5.6930  -5.1997  -5.1658  -5.0374
    -4.5247  -4.2759  -3.8808  -2.6069  -2.5428  -2.3582  -1.5298  -1.1195
    -0.4114  -0.1387   0.1616   0.6922   2.1792   2.3529   2.4932   2.6658
     3.0352   3.1763   3.8735   4.1880   4.2486

          k = 0.0518-0.0598 0.0000 ( 23014 PWs)   bands (ev):

   -12.1472  -7.4611  -7.2414  -7.1458  -7.1240  -7.1080  -7.0749  -7.0531
    -7.0044  -6.9891  -6.9650  -6.9457  -6.9301  -6.9145  -6.9047  -6.8631
    -6.8456  -6.7827  -6.7525  -6.7126  -6.6920  -6.6641  -6.6397  -6.5960
    -6.5740  -6.5545  -6.5341  -6.5129  -6.4729  -6.4376  -6.4252  -6.4178
    -6.3905  -6.3756  -6.3511  -6.3317  -6.3154  -6.2848  -6.2568  -6.2386
    -6.2000  -6.1588  -6.1317  -6.1262  -6.1013  -6.0836  -6.0708  -6.0351
    -6.0195  -5.9954  -5.8961  -5.8873  -5.8809  -5.8365  -5.7985  -5.7737
    -5.7504  -5.7318  -5.6955  -5.6762  -5.6146  -5.5770  -5.1150  -4.8514
    -4.1851  -3.9763  -3.3640  -2.9976  -2.4056  -1.9824  -1.4516  -1.2425
    -1.0419  -0.1072   0.3039   0.6874   1.5010   2.1186   2.4909   2.9838
     3.1997   3.4585   3.6432   3.9077   4.1789

          k =-0.0777 0.0448 0.0000 ( 23032 PWs)   bands (ev):

   -12.1472  -7.5035  -7.2053  -7.1821  -7.1523  -7.1447  -7.1161  -7.0593
    -7.0032  -6.9843  -6.9716  -6.9685  -6.9197  -6.9004  -6.8626  -6.8613
    -6.7977  -6.7924  -6.7035  -6.7033  -6.6740  -6.6698  -6.6155  -6.5782
    -6.5609  -6.5500  -6.5158  -6.4883  -6.4597  -6.4189  -6.4056  -6.4029
    -6.3534  -6.3359  -6.3080  -6.3036  -6.2961  -6.2549  -6.2331  -6.2280
    -6.1840  -6.1528  -6.1293  -6.1183  -6.1148  -6.0990  -6.0688  -6.0402
    -6.0321  -6.0159  -6.0066  -5.9086  -5.8907  -5.8810  -5.8715  -5.7999
    -5.7436  -5.7269  -5.6834  -5.6668  -5.6387  -5.5438  -5.5260  -4.8840
    -4.3872  -3.1162  -2.9671  -2.7682  -2.6801  -2.4595  -2.0122  -1.2226
    -0.7889  -0.4407   0.5252   0.5987   1.8824   2.0548   2.8485   2.9189
     3.1406   3.4420   3.7681   3.9449   4.0830

          k =-0.0777 0.0747 0.0000 ( 23014 PWs)   bands (ev):

   -12.1472  -7.4611  -7.2414  -7.1458  -7.1240  -7.1080  -7.0749  -7.0531
    -7.0044  -6.9891  -6.9650  -6.9457  -6.9301  -6.9145  -6.9048  -6.8631
    -6.8456  -6.7827  -6.7525  -6.7126  -6.6920  -6.6641  -6.6397  -6.5960
    -6.5740  -6.5545  -6.5341  -6.5129  -6.4729  -6.4376  -6.4252  -6.4178
    -6.3905  -6.3756  -6.3511  -6.3318  -6.3154  -6.2848  -6.2568  -6.2386
    -6.2000  -6.1588  -6.1317  -6.1261  -6.1013  -6.0836  -6.0708  -6.0351
    -6.0195  -5.9954  -5.8961  -5.8873  -5.8809  -5.8365  -5.7985  -5.7737
    -5.7504  -5.7318  -5.6955  -5.6762  -5.6146  -5.5770  -5.1150  -4.8514
    -4.1851  -3.9763  -3.3640  -2.9976  -2.4056  -1.9824  -1.4515  -1.2425
    -1.0419  -0.1072   0.3038   0.6874   1.5010   2.1186   2.4908   2.9838
     3.1997   3.4584   3.6432   3.9076   4.1789

          k =-0.0777 0.1046 0.0000 ( 23014 PWs)   bands (ev):

   -12.1472  -7.4611  -7.2414  -7.1458  -7.1240  -7.1080  -7.0749  -7.0531
    -7.0044  -6.9891  -6.9650  -6.9457  -6.9301  -6.9145  -6.9047  -6.8632
    -6.8456  -6.7827  -6.7525  -6.7126  -6.6920  -6.6641  -6.6397  -6.5960
    -6.5740  -6.5545  -6.5341  -6.5129  -6.4730  -6.4376  -6.4252  -6.4178
    -6.3905  -6.3757  -6.3511  -6.3318  -6.3154  -6.2848  -6.2568  -6.2386
    -6.2000  -6.1588  -6.1317  -6.1261  -6.1013  -6.0836  -6.0708  -6.0351
    -6.0195  -5.9954  -5.8961  -5.8873  -5.8809  -5.8365  -5.7985  -5.7737
    -5.7504  -5.7318  -5.6955  -5.6762  -5.6146  -5.5770  -5.1150  -4.8514
    -4.1851  -3.9763  -3.3640  -2.9976  -2.4056  -1.9823  -1.4516  -1.2425
    -1.0419  -0.1072   0.3038   0.6874   1.5010   2.1186   2.4909   2.9838
     3.1996   3.4584   3.6432   3.9077   4.1791

          k =-0.0777-0.0448 0.0000 ( 23032 PWs)   bands (ev):

   -12.1472  -7.5035  -7.2054  -7.1821  -7.1523  -7.1446  -7.1161  -7.0593
    -7.0032  -6.9843  -6.9716  -6.9685  -6.9197  -6.9004  -6.8626  -6.8613
    -6.7977  -6.7924  -6.7034  -6.7033  -6.6740  -6.6698  -6.6156  -6.5782
    -6.5609  -6.5500  -6.5158  -6.4883  -6.4597  -6.4189  -6.4056  -6.4029
    -6.3534  -6.3359  -6.3080  -6.3037  -6.2960  -6.2549  -6.2331  -6.2280
    -6.1840  -6.1528  -6.1293  -6.1183  -6.1148  -6.0990  -6.0689  -6.0402
    -6.0322  -6.0159  -6.0066  -5.9086  -5.8907  -5.8810  -5.8715  -5.7999
    -5.7436  -5.7269  -5.6834  -5.6668  -5.6387  -5.5438  -5.5260  -4.8840
    -4.3872  -3.1161  -2.9672  -2.7682  -2.6801  -2.4594  -2.0122  -1.2226
    -0.7889  -0.4407   0.5252   0.5988   1.8824   2.0548   2.8486   2.9189
     3.1406   3.4420   3.7681   3.9449   4.0832

     the Fermi energy is     0.3930 ev

!    total energy              =   -1333.59235850 Ry
     Harris-Foulkes estimate   =   -1333.59237421 Ry
     estimated scf accuracy    <       0.00000831 Ry

     The total energy is the sum of the following terms:

     one-electron contribution =   -7806.56653580 Ry
     hartree contribution      =    3996.80726310 Ry
     xc contribution           =    -494.05361353 Ry
     ewald contribution        =    2970.25179745 Ry
     electric field correction =       0.00015851 Ry
     smearing contrib. (-TS)   =      -0.03142823 Ry

     convergence has been achieved in   9 iterations
 
 BEEF-vdW xc energy contributions
           1 :   -432.763825790785     
           2 :    397.546071979003     
           3 :   -336.611641967311     
           4 :    264.793583996612     
           5 :   -196.666500696841     
           6 :    142.101271405454     
           7 :   -104.347002860802     
           8 :    80.8795209653787     
           9 :   -66.1703019985571     
          10 :    54.8471083085703     
          11 :   -43.8108731934998     
          12 :    32.6212466167079     
          13 :   -22.4539185019937     
          14 :    14.5795404849311     
          15 :   -9.32695809398808     
          16 :    5.96899104441434     
          17 :   -3.34025054912672     
          18 :   0.625807305946182     
          19 :    2.21033513138434     
          20 :   -4.57524432129838     
          21 :    5.80166054211634     
          22 :   -5.70289602508336     
          23 :    4.76553871244295     
          24 :   -3.88455552596065     
          25 :    3.83789942725468     
          26 :   -4.84194575043659     
          27 :    6.45033287547233     
          28 :   -7.83697570754117     
          29 :    8.27795322717304     
          30 :   -7.54947337535600     
          31 :   -40.4755162264345     
          32 :   -29.6492694962140     

     Forces acting on atoms (Ry/au):


     negative rho (up, down):  9.133E-05 0.000E+00
     atom    1 type  1   force =    -0.00033928   -0.00019381   -0.02061470
     atom    2 type  1   force =     0.00033414   -0.00018922   -0.02061296
     atom    3 type  1   force =    -0.00000481    0.00038312   -0.02062460
     atom    4 type  1   force =    -0.00000290   -0.00000507   -0.02129314
     atom    5 type  1   force =     0.00000220    0.00074746    0.01839263
     atom    6 type  1   force =     0.00000185    0.00000656    0.02775025
     atom    7 type  1   force =    -0.00063198   -0.00037383    0.01840648
     atom    8 type  1   force =     0.00064919   -0.00036959    0.01840180
     atom    9 type  1   force =    -0.00000207   -0.00000846   -0.00169182
     atom   10 type  1   force =    -0.00000072   -0.00038387    0.00078405
     atom   11 type  1   force =    -0.00031146    0.00018688    0.00078406
     atom   12 type  1   force =     0.00031182    0.00019843    0.00075956
     atom   13 type  2   force =    -0.00000598    0.00000140   -0.00044161

     Total force =     0.059345     Total SCF correction =     0.015987
     SCF correction compared to forces is large: reduce conv_thr to get better values


     entering subroutine stress ...


     negative rho (up, down):  9.133E-05 0.000E+00
          total   stress  (Ry/bohr**3)                   (kbar)     P=   16.91
   0.00013477  -0.00000000  -0.00000001         19.83     -0.00     -0.00
  -0.00000000   0.00013477   0.00000000         -0.00     19.83      0.00
  -0.00000001   0.00000000   0.00007529         -0.00      0.00     11.08

 !ASE

     Writing output data file calc.save
 
     init_run     :     12.88s CPU     18.31s WALL (       1 calls)
     electrons    :    307.15s CPU    435.65s WALL (       1 calls)
     forces       :      5.40s CPU      6.53s WALL (       1 calls)
     stress       :     14.05s CPU     15.92s WALL (       1 calls)

     Called by init_run:
     wfcinit      :      9.43s CPU     13.86s WALL (       1 calls)
     potinit      :      1.77s CPU      2.59s WALL (       1 calls)

     Called by electrons:
     c_bands      :    200.63s CPU    278.44s WALL (      10 calls)
     sum_band     :     39.58s CPU     56.71s WALL (      10 calls)
     v_of_rho     :     14.52s CPU     22.20s WALL (      10 calls)
     newd         :      6.18s CPU      6.42s WALL (      10 calls)
     mix_rho      :      0.49s CPU      0.74s WALL (      10 calls)
     vdW_energy   :      2.86s CPU      3.20s WALL (      46 calls)
     vdW_ffts     :     40.26s CPU     64.60s WALL (      94 calls)
     vdW_v        :      8.01s CPU     11.83s WALL (      46 calls)

     Called by c_bands:
     init_us_2    :      0.63s CPU      0.66s WALL (     460 calls)
     cegterg      :    195.56s CPU    272.92s WALL (     200 calls)

     Called by *egterg:
     h_psi        :    151.17s CPU    227.17s WALL (     963 calls)
     s_psi        :      6.44s CPU      6.52s WALL (     963 calls)
     g_psi        :      0.32s CPU      0.33s WALL (     743 calls)
     cdiaghg      :     24.03s CPU     24.84s WALL (     923 calls)

     Called by h_psi:
     add_vuspsi   :      6.62s CPU      6.64s WALL (     963 calls)

     General routines
     calbec       :     12.86s CPU     15.06s WALL (    1203 calls)
     fft          :     60.13s CPU     96.77s WALL (    2767 calls)
     ffts         :      0.10s CPU      0.17s WALL (      20 calls)
     fftw         :    155.67s CPU    245.10s WALL (   97894 calls)
     interpolate  :      0.57s CPU      0.92s WALL (      20 calls)
     davcio       :      0.00s CPU      0.03s WALL (      20 calls)
 
     Parallel routines
     fft_scatter  :    197.06s CPU    322.13s WALL (  100681 calls)
 
     PWSCF        :  5m40.40s CPU     7m57.83s WALL

 
   This run was terminated on:   0:17:59  31Jan2018            

=------------------------------------------------------------------------------=
   JOB DONE.
=------------------------------------------------------------------------------=
Job  /afs/slac/g/suncat/bin/suncat-tsmpirun -x LD_LIBRARY_PATH -wdir /scratch/qe704196_JsB1F pw.x -in pw.inp

TID   HOST_NAME   COMMAND_LINE            STATUS            TERMINATION_TIME
===== ========== ================  =======================  ===================
00000 suncat0141 pw.x -in pw.inp   Done                     01/31/2018 00:17:59
00001 suncat0141 pw.x -in pw.inp   Done                     01/31/2018 00:17:59
00002 suncat0141 pw.x -in pw.inp   Done                     01/31/2018 00:17:59
00003 suncat0141 pw.x -in pw.inp   Done                     01/31/2018 00:17:59
00004 suncat0141 pw.x -in pw.inp   Done                     01/31/2018 00:17:59
00005 suncat0141 pw.x -in pw.inp   Done                     01/31/2018 00:17:59
00006 suncat0141 pw.x -in pw.inp   Done                     01/31/2018 00:17:59
00007 suncat0141 pw.x -in pw.inp   Done                     01/31/2018 00:17:59
00008 suncat0121 pw.x -in pw.inp   Done                     01/31/2018 00:17:59
00009 suncat0121 pw.x -in pw.inp   Done                     01/31/2018 00:17:59
00010 suncat0121 pw.x -in pw.inp   Done                     01/31/2018 00:17:59
00011 suncat0121 pw.x -in pw.inp   Done                     01/31/2018 00:17:59
00012 suncat0121 pw.x -in pw.inp   Done                     01/31/2018 00:17:59
00013 suncat0121 pw.x -in pw.inp   Done                     01/31/2018 00:17:59
00014 suncat0121 pw.x -in pw.inp   Done                     01/31/2018 00:17:59
00015 suncat0121 pw.x -in pw.inp   Done                     01/31/2018 00:17:59
00016 suncat0117 pw.x -in pw.inp   Done                     01/31/2018 00:17:59
00017 suncat0117 pw.x -in pw.inp   Done                     01/31/2018 00:17:59
00018 suncat0117 pw.x -in pw.inp   Done                     01/31/2018 00:17:59
00019 suncat0117 pw.x -in pw.inp   Done                     01/31/2018 00:17:59
00020 suncat0117 pw.x -in pw.inp   Done                     01/31/2018 00:17:59
00021 suncat0117 pw.x -in pw.inp   Done                     01/31/2018 00:17:59
00022 suncat0117 pw.x -in pw.inp   Done                     01/31/2018 00:17:59
00023 suncat0117 pw.x -in pw.inp   Done                     01/31/2018 00:17:59
00024 suncat0251 pw.x -in pw.inp   Done                     01/31/2018 00:17:59
00025 suncat0251 pw.x -in pw.inp   Done                     01/31/2018 00:17:59
00026 suncat0251 pw.x -in pw.inp   Done                     01/31/2018 00:17:59
00027 suncat0251 pw.x -in pw.inp   Done                     01/31/2018 00:17:59
00028 suncat0251 pw.x -in pw.inp   Done                     01/31/2018 00:17:59
00029 suncat0251 pw.x -in pw.inp   Done                     01/31/2018 00:17:59
00030 suncat0251 pw.x -in pw.inp   Done                     01/31/2018 00:17:59
00031 suncat0251 pw.x -in pw.inp   Done                     01/31/2018 00:17:59
