  python dir          : /u/if/mamunm/src/espresso
  espresso dir        : /nfs/slac/g/suncatfs/sw/espv18/espresso-dynpy-beef/bin
  pseudo dir          : /u/if/mamunm/psp/gbrv1.5pbe
  ase-espresso py git : GITVERSION



     Program PWSCF v.5.1rc2 (svn rev. 11289) starts on 23Apr2018 at  4:12:33 

     This program is part of the open-source Quantum ESPRESSO suite
     for quantum simulation of materials; please cite
         "P. Giannozzi et al., J. Phys.:Condens. Matter 21 395502 (2009);
          URL http://www.quantum-espresso.org", 
     in publications or presentations arising from this work. More details at
     http://www.quantum-espresso.org/quote

     Parallel version (MPI), running on    32 processors
     K-points division:     npool     =       4
     R & G space division:  proc/nbgrp/npool/nimage =       8
     Reading input from pw.inp
     Message from routine read_cards :
     DEPRECATED: no units specified in CELL_PARAMETERS card

     Current dimensions of program PWSCF are:
     Max number of different atomic species (ntypx) = 10
     Max number of k-points (npk) =  40000
     Max angular momentum in pseudopotentials (lmaxx) =  3
     Presently stress not available with electric field


     **************************************************************************
     Initializing libbeef V0.1.1 with the BEEF-vdW functional.
     Citation: Wellendorff et al., PRB 85, 235149 (2012).
     **************************************************************************


     IMPORTANT: XC functional enforced from input :
     Exchange-correlation      = BEEF-VDW ( 1  4 27 13 2)
     Any further DFT definition will be discarded
     Please, verify this is what you really want


     Subspace diagonalization in iterative solution of the eigenvalue problem:
     a serial algorithm will be used

 
     Parallelization info
     --------------------
     sticks:   dense  smooth     PW     G-vecs:    dense   smooth      PW
     Min         510     204     57               100238    25367    3855
     Max         511     205     58               100257    25401    3866
     Sum        4081    1639    463               801953   203051   30885
 


     bravais-lattice index     =            0
     lattice parameter (alat)  =       1.8897  a.u.
     unit-cell volume          =    6741.9070 (a.u.)^3
     number of atoms/cell      =           14
     number of atomic types    =            3
     number of electrons       =       174.00
     number of Kohn-Sham states=           97
     kinetic-energy cutoff     =      36.7493  Ry
     charge density cutoff     =     367.4932  Ry
     convergence threshold     =      1.0E-05
     mixing beta               =       0.3000
     number of iterations used =           10  plain     mixing
     Exchange-correlation      = BEEF-VDW ( 1  4 27 13 2)
     nstep                     =           50


     celldm(1)=   1.889726  celldm(2)=   0.000000  celldm(3)=   0.000000
     celldm(4)=   0.000000  celldm(5)=   0.000000  celldm(6)=   0.000000

     crystal axes: (cart. coord. in units of alat)
               a(1) = (   6.726993   0.000000   0.000000 )  
               a(2) = (   3.363497   5.825747   0.000000 )  
               a(3) = (   0.000000   0.000000  25.492567 )  

     reciprocal axes: (cart. coord. in units 2 pi/alat)
               b(1) = (  0.148655 -0.085826  0.000000 )  
               b(2) = (  0.000000  0.171652  0.000000 )  
               b(3) = (  0.000000  0.000000  0.039227 )  


     PseudoPot. # 1 for Sn read from file:
     /u/if/mamunm/psp/gbrv1.5pbe/Sn.UPF
     MD5 check sum: 469debedee59599fedebd795477fea03
     Pseudo is Ultrasoft + core correction, Zval = 14.0
     Generated by new atomic code, or converted to UPF format
     Using radial grid of  891 points,  6 beta functions with: 
                l(1) =   0
                l(2) =   0
                l(3) =   1
                l(4) =   1
                l(5) =   2
                l(6) =   2
     Q(r) pseudized with  8 coefficients,  rinner =    1.350   1.350   1.350
                                                       1.350   1.350

     PseudoPot. # 2 for N  read from file:
     /u/if/mamunm/psp/gbrv1.5pbe/N.UPF
     MD5 check sum: 95339753478d7afb44899504a8723017
     Pseudo is Ultrasoft + core correction, Zval =  5.0
     Generated by new atomic code, or converted to UPF format
     Using radial grid of  729 points,  4 beta functions with: 
                l(1) =   0
                l(2) =   0
                l(3) =   1
                l(4) =   1
     Q(r) pseudized with  8 coefficients,  rinner =    0.900   0.900   0.900


     PseudoPot. # 3 for H  read from file:
     /u/if/mamunm/psp/gbrv1.5pbe/H.UPF
     MD5 check sum: 761ae9a214b05c3daf00ab9f6b793d6f
     Pseudo is Ultrasoft, Zval =  1.0
     Generated by new atomic code, or converted to UPF format
     Using radial grid of  615 points,  2 beta functions with: 
                l(1) =   0
                l(2) =   0
     Q(r) pseudized with  8 coefficients,  rinner =    0.700

     vdW kernel table read from file vdW_kernel_table
     MD5 check sum: 095c7af220d748ca6e76c0b4c6cfb241

     atomic species   valence    mass     pseudopotential
        Sn1           14.00   118.71000     Sn( 1.00)
        N1             5.00    14.00700     N ( 1.00)
        H1             1.00     1.00800     H ( 1.00)

     No symmetry found



   Cartesian axes

     site n.     atom                  positions (alat units)
         1           Sn1 tau(   1) = (   1.6817483   0.9709578  10.0000000  )
         2           Sn1 tau(   2) = (   5.0452448   0.9709578  10.0000000  )
         3           Sn1 tau(   3) = (   3.3634965   3.8838312  10.0000000  )
         4           Sn1 tau(   4) = (   6.7269931   3.8838312  10.0000000  )
         5           Sn1 tau(   5) = (   6.7269931   1.9419156  12.7462834  )
         6           Sn1 tau(   6) = (   3.3634965   1.9419156  12.7462834  )
         7           Sn1 tau(   7) = (   8.4087413   4.8547891  12.7462834  )
         8           Sn1 tau(   8) = (   5.0452448   4.8547891  12.7462834  )
         9           Sn1 tau(   9) = (   0.0000000   0.0000000  15.4925668  )
        10           Sn1 tau(  10) = (   3.3634965   0.0000000  15.4925668  )
        11           Sn1 tau(  11) = (   1.6817483   2.9128734  15.4925668  )
        12           Sn1 tau(  12) = (   5.0452448   2.9128734  15.4925668  )
        13           N1  tau(  13) = (   1.6817483   0.9709578  16.8575668  )
        14           H1  tau(  14) = (   1.6817483   0.9709578  17.9075668  )

     number of k points=    20  Fermi-Dirac smearing, width (Ry)=  0.0110
                       cart. coord. in units 2pi/alat
        k(    1) = (   0.0000000   0.0000000   0.0000000), wk =   0.0555556
        k(    2) = (   0.0000000   0.0286086   0.0000000), wk =   0.1111111
        k(    3) = (   0.0000000   0.0572173   0.0000000), wk =   0.1111111
        k(    4) = (   0.0000000  -0.0858259   0.0000000), wk =   0.0555556
        k(    5) = (   0.0247758  -0.0143043   0.0000000), wk =   0.1111111
        k(    6) = (   0.0247758   0.0143043   0.0000000), wk =   0.1111111
        k(    7) = (   0.0247758   0.0429130   0.0000000), wk =   0.1111111
        k(    8) = (   0.0247758  -0.1001302   0.0000000), wk =   0.1111111
        k(    9) = (   0.0247758  -0.0715216   0.0000000), wk =   0.1111111
        k(   10) = (   0.0247758  -0.0429130   0.0000000), wk =   0.1111111
        k(   11) = (   0.0495516  -0.0286086   0.0000000), wk =   0.1111111
        k(   12) = (   0.0495516   0.0000000   0.0000000), wk =   0.1111111
        k(   13) = (   0.0495516   0.0286086   0.0000000), wk =   0.1111111
        k(   14) = (   0.0495516  -0.1144345   0.0000000), wk =   0.1111111
        k(   15) = (   0.0495516  -0.0858259   0.0000000), wk =   0.1111111
        k(   16) = (   0.0495516  -0.0572173   0.0000000), wk =   0.1111111
        k(   17) = (  -0.0743274   0.0429130   0.0000000), wk =   0.0555556
        k(   18) = (  -0.0743274   0.0715216   0.0000000), wk =   0.1111111
        k(   19) = (  -0.0743274   0.1001302   0.0000000), wk =   0.1111111
        k(   20) = (  -0.0743274  -0.0429130   0.0000000), wk =   0.0555556

     Dense  grid:   801953 G-vectors     FFT dimensions: (  80,  80, 300)

     Smooth grid:   203051 G-vectors     FFT dimensions: (  50,  50, 192)

     Largest allocated arrays     est. size (Mb)     dimensions
        Kohn-Sham Wavefunctions         4.75 Mb     (    3208,   97)
        NL pseudopotentials            11.06 Mb     (    3208,  226)
        Each V/rho on FFT grid          3.71 Mb     (  243200)
        Each G-vector array             0.76 Mb     (  100244)
        G-vector shells                 0.21 Mb     (   27655)
     Largest temporary arrays     est. size (Mb)     dimensions
        Auxiliary wavefunctions        18.99 Mb     (    3208,  388)
        Each subspace H/S matrix        2.30 Mb     (     388,  388)
        Each <psi_i|beta_j> matrix      0.33 Mb     (     226,   97)
        Arrays for rho mixing          37.11 Mb     (  243200,   10)

     Initial potential from superposition of free atoms
     Check: negative starting charge=   -0.001395

     starting charge  161.99944, renormalised to  174.00000

     negative rho (up, down):  1.499E-03 0.000E+00


     ************************************************************************
     *
     * You are using vdW-DF for exchange-correlation in this calculation.
     * Please cite the following three references that made this development
     * possible:
     *
     *   M. Dion, H. Rydberg, E. Schroder, D. C. Langreth, and
     *   B. I. Lundqvist, Phys. Rev. Lett. 92, 246401 (2004).
     *
     *   T. Thonhauser, V. R. Cooper, S. Li, A. Puzder, P. Hyldgaard, and
     *   D. C. Langreth, Phys. Rev. B 76, 125112 (2007).
     *
     *   G. Roman-Perez and J. M. Soler, Phys. Rev. Lett. 103, 096102 (2009).
     *
     *
     * If you are using vdW-DF2, please also cite:
     *
     *   K. Lee, E. D. Murray, L. Kong, B. I. Lundqvist, and
     *   D. C. Langreth, Phys. Rev. B 82, 081101(R) (2010).
     *
     *
     * If you are calculating the stress with vdW-DF, please also cite:
     *
     *   R. Sabatini, E. Kucukbenli, B. Kolb, T. Thonhauser, and
     *   S. de Gironcoli, J. Phys.: Condens. Matter 24, 424209 (2012).
     *
     ************************************************************************

     Carrying out vdW-DF run using the following parameters:

     Nqs =      20    Nr_points =    1024   r_max =   100.000
     q_mesh =
               0.00001000     0.04494208     0.09755937     0.15916263
               0.23128650     0.31572767     0.41458969     0.53033537
               0.66584808     0.82450364     1.01025438     1.22772762
               1.48234092     1.78043706     2.12944203     2.53805004
               3.01644009     3.57652955     4.23227104     5.00000000

     Gradients computed in reciprocal space

     ************************************************************************


 
     Adding external electric field

     Computed dipole along edir(3) : 
        Dipole               -3.6000 Ry au,         -9.1502 Debye
        Dipole field         -0.0067 Ry au
 
        Potential amp.        0.6303 Ry
        Total length         46.9696 bohr
 
     Starting wfc are  113 randomized atomic wfcs

     total cpu time spent up to now is       16.6 secs

     per-process dynamical memory:   106.9 Mb

     Self-consistent Calculation

     iteration #  1     ecut=    36.75 Ry     beta=0.30
     Davidson diagonalization with overlap
     ethr =  1.00E-02,  avg # of iterations =  8.5

     negative rho (up, down):  4.322E-04 0.000E+00
 
     Adding external electric field

     Computed dipole along edir(3) : 
        Dipole               40.9284 Ry au,        104.0297 Debye
        Dipole field          0.0763 Ry au
 
        Potential amp.       -7.1664 Ry
        Total length         46.9696 bohr
 

     total cpu time spent up to now is       58.3 secs

     total energy              =   -1900.08597280 Ry
     Harris-Foulkes estimate   =   -1953.98289770 Ry
     estimated scf accuracy    <     114.52259606 Ry

     iteration #  2     ecut=    36.75 Ry     beta=0.30
     Davidson diagonalization with overlap
     ethr =  1.00E-02,  avg # of iterations = 18.3
 
     Adding external electric field

     Computed dipole along edir(3) : 
        Dipole                7.6108 Ry au,         19.3447 Debye
        Dipole field          0.0142 Ry au
 
        Potential amp.       -1.3326 Ry
        Total length         46.9696 bohr
 

     total cpu time spent up to now is      135.7 secs

     total energy              =   -1749.10164795 Ry
     Harris-Foulkes estimate   =   -2190.96964847 Ry
     estimated scf accuracy    <   12144.21432578 Ry

     iteration #  3     ecut=    36.75 Ry     beta=0.30
     Davidson diagonalization with overlap
     ethr =  1.00E-02,  avg # of iterations =  9.9
 
     Adding external electric field

     Computed dipole along edir(3) : 
        Dipole                7.0111 Ry au,         17.8205 Debye
        Dipole field          0.0131 Ry au
 
        Potential amp.       -1.2276 Ry
        Total length         46.9696 bohr
 

     total cpu time spent up to now is      189.0 secs

     total energy              =   -1944.49597053 Ry
     Harris-Foulkes estimate   =   -1976.32218903 Ry
     estimated scf accuracy    <     261.53849811 Ry

     iteration #  4     ecut=    36.75 Ry     beta=0.30
     Davidson diagonalization with overlap
     ethr =  1.00E-02,  avg # of iterations =  6.0
 
     Adding external electric field

     Computed dipole along edir(3) : 
        Dipole                4.2271 Ry au,         10.7443 Debye
        Dipole field          0.0079 Ry au
 
        Potential amp.       -0.7401 Ry
        Total length         46.9696 bohr
 

     total cpu time spent up to now is      225.4 secs

     total energy              =   -1949.22715931 Ry
     Harris-Foulkes estimate   =   -1952.75272060 Ry
     estimated scf accuracy    <      22.53882811 Ry

     iteration #  5     ecut=    36.75 Ry     beta=0.30
     Davidson diagonalization with overlap
     ethr =  1.00E-02,  avg # of iterations =  2.9
 
     Adding external electric field

     Computed dipole along edir(3) : 
        Dipole                3.4349 Ry au,          8.7306 Debye
        Dipole field          0.0064 Ry au
 
        Potential amp.       -0.6014 Ry
        Total length         46.9696 bohr
 

     total cpu time spent up to now is      255.6 secs

     total energy              =   -1949.80455690 Ry
     Harris-Foulkes estimate   =   -1950.47030633 Ry
     estimated scf accuracy    <       3.77177252 Ry

     iteration #  6     ecut=    36.75 Ry     beta=0.30
     Davidson diagonalization with overlap
     ethr =  2.17E-03,  avg # of iterations =  3.0
 
     Adding external electric field

     Computed dipole along edir(3) : 
        Dipole                2.0377 Ry au,          5.1793 Debye
        Dipole field          0.0038 Ry au
 
        Potential amp.       -0.3568 Ry
        Total length         46.9696 bohr
 

     total cpu time spent up to now is      285.5 secs

     total energy              =   -1949.79442809 Ry
     Harris-Foulkes estimate   =   -1950.06216878 Ry
     estimated scf accuracy    <       0.69450625 Ry

     iteration #  7     ecut=    36.75 Ry     beta=0.30
     Davidson diagonalization with overlap
     ethr =  3.99E-04,  avg # of iterations =  3.6

     negative rho (up, down):  3.604E-08 0.000E+00
 
     Adding external electric field

     Computed dipole along edir(3) : 
        Dipole                0.8805 Ry au,          2.2380 Debye
        Dipole field          0.0016 Ry au
 
        Potential amp.       -0.1542 Ry
        Total length         46.9696 bohr
 

     total cpu time spent up to now is      316.9 secs

     total energy              =   -1949.75793183 Ry
     Harris-Foulkes estimate   =   -1949.88720988 Ry
     estimated scf accuracy    <       0.56096841 Ry

     iteration #  8     ecut=    36.75 Ry     beta=0.30
     Davidson diagonalization with overlap
     ethr =  3.22E-04,  avg # of iterations =  3.0

     negative rho (up, down):  2.757E-08 0.000E+00
 
     Adding external electric field

     Computed dipole along edir(3) : 
        Dipole                0.5847 Ry au,          1.4862 Debye
        Dipole field          0.0011 Ry au
 
        Potential amp.       -0.1024 Ry
        Total length         46.9696 bohr
 

     total cpu time spent up to now is      347.1 secs

     total energy              =   -1949.77386889 Ry
     Harris-Foulkes estimate   =   -1949.80531726 Ry
     estimated scf accuracy    <       0.08747219 Ry

     iteration #  9     ecut=    36.75 Ry     beta=0.30
     Davidson diagonalization with overlap
     ethr =  5.03E-05,  avg # of iterations =  6.0

     negative rho (up, down):  1.633E-03 0.000E+00
 
     Adding external electric field

     Computed dipole along edir(3) : 
        Dipole                0.1455 Ry au,          0.3698 Debye
        Dipole field          0.0003 Ry au
 
        Potential amp.       -0.0255 Ry
        Total length         46.9696 bohr
 

     total cpu time spent up to now is      380.0 secs

     total energy              =   -1949.77856545 Ry
     Harris-Foulkes estimate   =   -1949.78864574 Ry
     estimated scf accuracy    <       0.03754669 Ry

     iteration # 10     ecut=    36.75 Ry     beta=0.30
     Davidson diagonalization with overlap
     ethr =  2.16E-05,  avg # of iterations =  6.4

     negative rho (up, down):  4.942E-04 0.000E+00
 
     Adding external electric field

     Computed dipole along edir(3) : 
        Dipole                0.1271 Ry au,          0.3230 Debye
        Dipole field          0.0002 Ry au
 
        Potential amp.       -0.0223 Ry
        Total length         46.9696 bohr
 

     total cpu time spent up to now is      414.4 secs

     total energy              =   -1949.78317642 Ry
     Harris-Foulkes estimate   =   -1949.78432506 Ry
     estimated scf accuracy    <       0.01506345 Ry

     iteration # 11     ecut=    36.75 Ry     beta=0.30
     Davidson diagonalization with overlap
     ethr =  8.66E-06,  avg # of iterations =  3.0

     negative rho (up, down):  9.156E-04 0.000E+00
 
     Adding external electric field

     Computed dipole along edir(3) : 
        Dipole                0.0871 Ry au,          0.2213 Debye
        Dipole field          0.0002 Ry au
 
        Potential amp.       -0.0152 Ry
        Total length         46.9696 bohr
 

     total cpu time spent up to now is      444.4 secs

     total energy              =   -1949.78394756 Ry
     Harris-Foulkes estimate   =   -1949.78386159 Ry
     estimated scf accuracy    <       0.00107091 Ry

     iteration # 12     ecut=    36.75 Ry     beta=0.30
     Davidson diagonalization with overlap
     ethr =  6.15E-07,  avg # of iterations =  4.9

     negative rho (up, down):  2.407E-04 0.000E+00
 
     Adding external electric field

     Computed dipole along edir(3) : 
        Dipole                0.0931 Ry au,          0.2367 Debye
        Dipole field          0.0002 Ry au
 
        Potential amp.       -0.0163 Ry
        Total length         46.9696 bohr
 

     total cpu time spent up to now is      480.0 secs

     total energy              =   -1949.78392789 Ry
     Harris-Foulkes estimate   =   -1949.78423523 Ry
     estimated scf accuracy    <       0.00388139 Ry

     iteration # 13     ecut=    36.75 Ry     beta=0.30
     Davidson diagonalization with overlap
     ethr =  6.15E-07,  avg # of iterations =  4.4

     negative rho (up, down):  4.540E-04 0.000E+00
 
     Adding external electric field

     Computed dipole along edir(3) : 
        Dipole                0.0780 Ry au,          0.1983 Debye
        Dipole field          0.0001 Ry au
 
        Potential amp.       -0.0137 Ry
        Total length         46.9696 bohr
 

     total cpu time spent up to now is      510.9 secs

     total energy              =   -1949.78410219 Ry
     Harris-Foulkes estimate   =   -1949.78411364 Ry
     estimated scf accuracy    <       0.00002493 Ry

     iteration # 14     ecut=    36.75 Ry     beta=0.30
     Davidson diagonalization with overlap
     ethr =  1.43E-08,  avg # of iterations =  4.7

     negative rho (up, down):  5.068E-04 0.000E+00
 
     Adding external electric field

     Computed dipole along edir(3) : 
        Dipole                0.0823 Ry au,          0.2093 Debye
        Dipole field          0.0002 Ry au
 
        Potential amp.       -0.0144 Ry
        Total length         46.9696 bohr
 

     total cpu time spent up to now is      547.0 secs

     total energy              =   -1949.78410004 Ry
     Harris-Foulkes estimate   =   -1949.78412387 Ry
     estimated scf accuracy    <       0.00032869 Ry

     iteration # 15     ecut=    36.75 Ry     beta=0.30
     Davidson diagonalization with overlap
     ethr =  1.43E-08,  avg # of iterations =  4.7

     negative rho (up, down):  7.192E-04 0.000E+00

     negative rho (up, down):  7.192E-04 0.000E+00

     negative rho (up, down):  7.192E-04 0.000E+00

     negative rho (up, down):  7.192E-04 0.000E+00

     negative rho (up, down):  7.192E-04 0.000E+00

     negative rho (up, down):  7.192E-04 0.000E+00

     negative rho (up, down):  7.192E-04 0.000E+00

     negative rho (up, down):  7.192E-04 0.000E+00

     negative rho (up, down):  7.192E-04 0.000E+00

     negative rho (up, down):  7.192E-04 0.000E+00

     negative rho (up, down):  7.192E-04 0.000E+00

     negative rho (up, down):  7.192E-04 0.000E+00

     negative rho (up, down):  7.192E-04 0.000E+00

     negative rho (up, down):  7.192E-04 0.000E+00

     negative rho (up, down):  7.192E-04 0.000E+00

     negative rho (up, down):  7.192E-04 0.000E+00

     negative rho (up, down):  7.192E-04 0.000E+00

     negative rho (up, down):  7.192E-04 0.000E+00

     negative rho (up, down):  7.192E-04 0.000E+00

     negative rho (up, down):  7.192E-04 0.000E+00

     negative rho (up, down):  7.192E-04 0.000E+00

     negative rho (up, down):  7.192E-04 0.000E+00

     negative rho (up, down):  7.192E-04 0.000E+00

     negative rho (up, down):  7.192E-04 0.000E+00

     negative rho (up, down):  7.192E-04 0.000E+00

     negative rho (up, down):  7.192E-04 0.000E+00

     negative rho (up, down):  7.192E-04 0.000E+00

     negative rho (up, down):  7.192E-04 0.000E+00

     negative rho (up, down):  7.192E-04 0.000E+00

     negative rho (up, down):  7.192E-04 0.000E+00

     negative rho (up, down):  7.192E-04 0.000E+00

     negative rho (up, down):  7.192E-04 0.000E+00

     negative rho (up, down):  7.192E-04 0.000E+00

     negative rho (up, down):  7.192E-04 0.000E+00

     negative rho (up, down):  7.192E-04 0.000E+00
 
     Adding external electric field

     Computed dipole along edir(3) : 
        Dipole                0.1088 Ry au,          0.2767 Debye
        Dipole field          0.0002 Ry au
 
        Potential amp.       -0.0191 Ry
        Total length         46.9696 bohr
 

     total cpu time spent up to now is      672.9 secs

     End of self-consistent calculation

          k = 0.0000 0.0000 0.0000 ( 25377 PWs)   bands (ev):

   -21.1938 -21.1781 -21.1781 -21.1612 -21.1535 -21.1535 -21.1440 -21.1262
   -21.1236 -21.1232 -21.1232 -21.1178 -21.1178 -21.1086 -21.1043 -21.1011
   -21.1011 -21.0982 -21.0982 -21.0938 -21.0938 -21.0857 -21.0829 -21.0829
   -21.0818 -21.0818 -21.0808 -21.0748 -21.0735 -21.0735 -21.0514 -21.0437
   -21.0437 -21.0320 -21.0320 -21.0268 -21.0268 -21.0175 -21.0175 -21.0127
   -20.9838 -20.9782 -20.9782 -20.9774 -20.9716 -20.9716 -20.9712 -20.9613
   -20.9612 -20.9612 -20.9581 -20.9581 -20.9533 -20.9533 -20.9440 -20.9440
   -20.9382 -20.9304 -20.9279 -20.9279 -14.0725  -9.8354  -8.6057  -6.9489
    -5.8730  -5.8730  -5.7794  -5.6295  -5.4402  -5.4402  -4.9972  -4.5390
    -4.5390  -3.9280  -3.2685  -3.2685  -2.8769  -2.3787  -2.1375  -2.1375
    -1.7838  -1.7838  -1.7482  -0.3764  -0.3764  -0.1905   0.7129   1.8842
     1.9047   1.9047   2.5563   2.6944   2.6945   3.1796   3.4431   3.5828
     3.5828

          k = 0.0000 0.0286 0.0000 ( 25365 PWs)   bands (ev):

   -21.1855 -21.1721 -21.1681 -21.1552 -21.1477 -21.1432 -21.1389 -21.1244
   -21.1208 -21.1192 -21.1184 -21.1162 -21.1111 -21.1063 -21.1016 -21.1002
   -21.0948 -21.0937 -21.0921 -21.0908 -21.0888 -21.0862 -21.0841 -21.0823
   -21.0795 -21.0782 -21.0771 -21.0730 -21.0725 -21.0714 -21.0509 -21.0444
   -21.0436 -21.0366 -21.0334 -21.0265 -21.0256 -21.0243 -21.0216 -21.0180
   -20.9925 -20.9829 -20.9805 -20.9805 -20.9773 -20.9753 -20.9749 -20.9698
   -20.9664 -20.9644 -20.9642 -20.9615 -20.9584 -20.9570 -20.9512 -20.9469
   -20.9432 -20.9370 -20.9363 -20.9315 -14.0705  -9.7108  -8.4900  -6.8681
    -6.7613  -6.1464  -6.1339  -5.8413  -5.3917  -5.3912  -4.8582  -4.4894
    -4.4403  -3.8158  -3.0257  -2.8902  -2.5828  -2.2831  -2.0443  -1.8590
    -1.5008  -1.4649  -1.0617  -0.5108  -0.2656   0.2980   0.9740   1.0726
     1.6452   1.9471   2.4313   2.5640   2.6606   2.9405   3.1866   3.2885
     3.5474

          k = 0.0000 0.0572 0.0000 ( 25367 PWs)   bands (ev):

   -21.1707 -21.1515 -21.1468 -21.1435 -21.1363 -21.1264 -21.1232 -21.1180
   -21.1170 -21.1099 -21.1064 -21.1059 -21.1020 -21.1000 -21.0973 -21.0946
   -21.0926 -21.0902 -21.0848 -21.0823 -21.0808 -21.0791 -21.0761 -21.0732
   -21.0729 -21.0698 -21.0681 -21.0675 -21.0656 -21.0602 -21.0488 -21.0480
   -21.0455 -21.0427 -21.0407 -21.0377 -21.0348 -21.0340 -21.0195 -21.0193
   -21.0110 -20.9991 -20.9968 -20.9961 -20.9933 -20.9905 -20.9869 -20.9773
   -20.9768 -20.9734 -20.9728 -20.9698 -20.9678 -20.9670 -20.9669 -20.9635
   -20.9591 -20.9544 -20.9392 -20.9318 -14.0665  -9.3367  -8.1429  -7.8497
    -6.8133  -6.5224  -6.4263  -6.3818  -5.5767  -5.5064  -5.1709  -4.4348
    -4.2943  -3.6015  -2.3910  -2.2880  -1.8592  -1.7364  -1.3838  -1.1514
    -1.0828  -0.7834  -0.4743   0.0403   0.2279   0.5340   0.8463   0.9572
     1.0898   1.5812   1.6674   1.9987   2.3222   2.4825   2.6236   3.1094
     3.2342

          k = 0.0000-0.0858 0.0000 ( 25386 PWs)   bands (ev):

   -21.1618 -21.1446 -21.1367 -21.1313 -21.1309 -21.1225 -21.1179 -21.1131
   -21.1124 -21.1026 -21.0997 -21.0976 -21.0956 -21.0900 -21.0898 -21.0876
   -21.0851 -21.0847 -21.0815 -21.0784 -21.0772 -21.0747 -21.0746 -21.0730
   -21.0684 -21.0678 -21.0661 -21.0652 -21.0630 -21.0590 -21.0562 -21.0561
   -21.0533 -21.0411 -21.0364 -21.0339 -21.0323 -21.0319 -21.0241 -21.0200
   -21.0171 -21.0068 -21.0048 -21.0042 -20.9975 -20.9965 -20.9949 -20.9939
   -20.9935 -20.9899 -20.9873 -20.9847 -20.9754 -20.9715 -20.9698 -20.9673
   -20.9599 -20.9577 -20.9392 -20.9314 -14.0645  -8.7219  -8.7049  -7.5872
    -7.5491  -6.5475  -6.5334  -6.0859  -5.8917  -5.5752  -5.5082  -4.3646
    -4.2707  -3.4115  -2.2102  -1.7286  -1.3247  -1.2211  -1.1184  -1.0787
    -0.8296  -0.6117  -0.0612   0.1539   0.3235   0.5890   0.9075   1.0670
     1.2783   1.5225   1.7971   1.7978   2.0501   2.0543   2.1665   2.1922
     2.8538

          k = 0.0248-0.0143 0.0000 ( 25365 PWs)   bands (ev):

   -21.1855 -21.1721 -21.1681 -21.1552 -21.1477 -21.1432 -21.1389 -21.1244
   -21.1208 -21.1192 -21.1184 -21.1162 -21.1111 -21.1063 -21.1016 -21.1002
   -21.0948 -21.0937 -21.0921 -21.0908 -21.0888 -21.0862 -21.0841 -21.0823
   -21.0795 -21.0782 -21.0771 -21.0730 -21.0725 -21.0714 -21.0509 -21.0444
   -21.0436 -21.0366 -21.0334 -21.0265 -21.0256 -21.0243 -21.0216 -21.0180
   -20.9925 -20.9829 -20.9805 -20.9805 -20.9773 -20.9753 -20.9749 -20.9698
   -20.9664 -20.9644 -20.9642 -20.9615 -20.9584 -20.9570 -20.9512 -20.9469
   -20.9432 -20.9370 -20.9363 -20.9315 -14.0705  -9.7108  -8.4900  -6.8681
    -6.7613  -6.1464  -6.1339  -5.8413  -5.3917  -5.3912  -4.8582  -4.4894
    -4.4403  -3.8158  -3.0257  -2.8902  -2.5828  -2.2831  -2.0443  -1.8590
    -1.5008  -1.4649  -1.0617  -0.5108  -0.2656   0.2980   0.9740   1.0726
     1.6452   1.9471   2.4313   2.5640   2.6606   2.9405   3.1866   3.2885
     3.5473

          k = 0.0248 0.0143 0.0000 ( 25365 PWs)   bands (ev):

   -21.1855 -21.1721 -21.1681 -21.1552 -21.1477 -21.1432 -21.1389 -21.1244
   -21.1208 -21.1192 -21.1184 -21.1162 -21.1111 -21.1063 -21.1016 -21.1002
   -21.0948 -21.0937 -21.0921 -21.0908 -21.0888 -21.0862 -21.0841 -21.0823
   -21.0795 -21.0782 -21.0771 -21.0730 -21.0725 -21.0714 -21.0509 -21.0444
   -21.0436 -21.0366 -21.0334 -21.0265 -21.0256 -21.0243 -21.0216 -21.0180
   -20.9925 -20.9829 -20.9805 -20.9805 -20.9773 -20.9753 -20.9749 -20.9698
   -20.9664 -20.9644 -20.9642 -20.9615 -20.9584 -20.9570 -20.9512 -20.9469
   -20.9432 -20.9370 -20.9363 -20.9315 -14.0705  -9.7108  -8.4900  -6.8681
    -6.7613  -6.1464  -6.1339  -5.8413  -5.3917  -5.3912  -4.8582  -4.4894
    -4.4403  -3.8158  -3.0257  -2.8902  -2.5828  -2.2831  -2.0443  -1.8590
    -1.5008  -1.4649  -1.0617  -0.5108  -0.2656   0.2980   0.9740   1.0726
     1.6452   1.9471   2.4313   2.5640   2.6606   2.9405   3.1866   3.2885
     3.5474

          k = 0.0248 0.0429 0.0000 ( 25362 PWs)   bands (ev):

   -21.1713 -21.1627 -21.1495 -21.1439 -21.1407 -21.1320 -21.1223 -21.1206
   -21.1171 -21.1147 -21.1112 -21.1082 -21.1053 -21.1035 -21.1008 -21.0980
   -21.0921 -21.0891 -21.0860 -21.0834 -21.0816 -21.0805 -21.0797 -21.0773
   -21.0764 -21.0728 -21.0703 -21.0700 -21.0696 -21.0613 -21.0490 -21.0449
   -21.0434 -21.0416 -21.0394 -21.0357 -21.0315 -21.0298 -21.0267 -21.0163
   -21.0068 -20.9952 -20.9920 -20.9887 -20.9875 -20.9848 -20.9799 -20.9760
   -20.9756 -20.9731 -20.9715 -20.9690 -20.9683 -20.9628 -20.9599 -20.9583
   -20.9492 -20.9471 -20.9409 -20.9383 -14.0675  -9.4614  -8.2585  -7.2738
    -7.2209  -6.6432  -6.2963  -6.1308  -5.5004  -5.1767  -4.9379  -4.6715
    -4.4125  -3.7240  -2.7218  -2.1634  -2.0111  -1.8540  -1.6523  -1.4306
    -1.1832  -0.9590  -0.6928  -0.1937   0.3558   0.6055   0.7700   0.8540
     1.0075   1.5474   2.0821   2.4409   2.5135   2.8048   2.8308   3.1094
     3.2284

          k = 0.0248-0.1001 0.0000 ( 25368 PWs)   bands (ev):

   -21.1564 -21.1414 -21.1357 -21.1308 -21.1282 -21.1211 -21.1190 -21.1142
   -21.1101 -21.1078 -21.1032 -21.1008 -21.0981 -21.0940 -21.0931 -21.0903
   -21.0898 -21.0865 -21.0831 -21.0808 -21.0779 -21.0749 -21.0736 -21.0712
   -21.0701 -21.0660 -21.0645 -21.0623 -21.0596 -21.0567 -21.0539 -21.0508
   -21.0467 -21.0440 -21.0408 -21.0389 -21.0361 -21.0265 -21.0253 -21.0230
   -21.0137 -21.0102 -21.0076 -21.0051 -21.0024 -20.9974 -20.9934 -20.9926
   -20.9851 -20.9844 -20.9810 -20.9788 -20.9744 -20.9712 -20.9674 -20.9649
   -20.9606 -20.9578 -20.9462 -20.9386 -14.0645  -8.9625  -8.2177  -7.7977
    -7.4843  -7.1124  -6.4536  -6.1706  -5.5821  -5.4214  -4.9400  -4.7961
    -4.1779  -3.5600  -2.2633  -2.0768  -1.5116  -1.3994  -0.9466  -0.8423
    -0.6554  -0.4519  -0.1692   0.0680   0.1814   0.4803   0.8780   1.0829
     1.1382   1.5794   1.7760   2.0655   2.2662   2.3854   2.5441   2.7407
     2.9064

          k = 0.0248-0.0715 0.0000 ( 25368 PWs)   bands (ev):

   -21.1564 -21.1414 -21.1357 -21.1308 -21.1282 -21.1211 -21.1190 -21.1142
   -21.1101 -21.1078 -21.1032 -21.1008 -21.0981 -21.0940 -21.0931 -21.0903
   -21.0898 -21.0865 -21.0831 -21.0808 -21.0779 -21.0749 -21.0736 -21.0712
   -21.0701 -21.0660 -21.0645 -21.0623 -21.0596 -21.0567 -21.0539 -21.0508
   -21.0467 -21.0440 -21.0408 -21.0389 -21.0361 -21.0265 -21.0253 -21.0230
   -21.0137 -21.0102 -21.0076 -21.0051 -21.0024 -20.9974 -20.9934 -20.9926
   -20.9851 -20.9844 -20.9810 -20.9788 -20.9744 -20.9712 -20.9674 -20.9649
   -20.9606 -20.9578 -20.9462 -20.9386 -14.0645  -8.9625  -8.2177  -7.7977
    -7.4843  -7.1124  -6.4536  -6.1706  -5.5821  -5.4214  -4.9400  -4.7961
    -4.1779  -3.5600  -2.2633  -2.0768  -1.5116  -1.3994  -0.9466  -0.8423
    -0.6554  -0.4519  -0.1692   0.0680   0.1814   0.4803   0.8780   1.0829
     1.1382   1.5794   1.7760   2.0655   2.2662   2.3854   2.5441   2.7407
     2.9064

          k = 0.0248-0.0429 0.0000 ( 25362 PWs)   bands (ev):

   -21.1713 -21.1627 -21.1495 -21.1439 -21.1407 -21.1320 -21.1223 -21.1206
   -21.1171 -21.1147 -21.1112 -21.1082 -21.1053 -21.1035 -21.1008 -21.0980
   -21.0921 -21.0891 -21.0860 -21.0834 -21.0816 -21.0805 -21.0797 -21.0773
   -21.0764 -21.0728 -21.0703 -21.0700 -21.0696 -21.0613 -21.0490 -21.0449
   -21.0434 -21.0416 -21.0394 -21.0357 -21.0315 -21.0298 -21.0267 -21.0163
   -21.0068 -20.9952 -20.9920 -20.9887 -20.9875 -20.9848 -20.9799 -20.9760
   -20.9756 -20.9731 -20.9715 -20.9690 -20.9683 -20.9628 -20.9599 -20.9583
   -20.9492 -20.9471 -20.9409 -20.9383 -14.0675  -9.4614  -8.2585  -7.2738
    -7.2209  -6.6432  -6.2963  -6.1308  -5.5004  -5.1767  -4.9379  -4.6715
    -4.4125  -3.7240  -2.7218  -2.1634  -2.0111  -1.8540  -1.6523  -1.4306
    -1.1832  -0.9590  -0.6928  -0.1937   0.3558   0.6055   0.7700   0.8540
     1.0075   1.5474   2.0820   2.4409   2.5135   2.8048   2.8308   3.1094
     3.2284

          k = 0.0496-0.0286 0.0000 ( 25367 PWs)   bands (ev):

   -21.1707 -21.1515 -21.1468 -21.1435 -21.1363 -21.1264 -21.1232 -21.1180
   -21.1170 -21.1099 -21.1064 -21.1059 -21.1020 -21.1000 -21.0973 -21.0946
   -21.0926 -21.0902 -21.0848 -21.0823 -21.0808 -21.0791 -21.0761 -21.0732
   -21.0729 -21.0698 -21.0681 -21.0675 -21.0656 -21.0602 -21.0488 -21.0480
   -21.0455 -21.0427 -21.0407 -21.0377 -21.0348 -21.0340 -21.0195 -21.0193
   -21.0110 -20.9991 -20.9968 -20.9961 -20.9933 -20.9905 -20.9869 -20.9773
   -20.9768 -20.9734 -20.9728 -20.9698 -20.9678 -20.9670 -20.9669 -20.9635
   -20.9591 -20.9544 -20.9392 -20.9318 -14.0665  -9.3367  -8.1429  -7.8497
    -6.8133  -6.5224  -6.4263  -6.3818  -5.5767  -5.5064  -5.1709  -4.4348
    -4.2943  -3.6015  -2.3910  -2.2880  -1.8592  -1.7364  -1.3838  -1.1514
    -1.0828  -0.7834  -0.4743   0.0403   0.2279   0.5340   0.8463   0.9572
     1.0898   1.5812   1.6674   1.9987   2.3222   2.4825   2.6236   3.1094
     3.2342

          k = 0.0496 0.0000 0.0000 ( 25362 PWs)   bands (ev):

   -21.1713 -21.1627 -21.1495 -21.1439 -21.1407 -21.1320 -21.1223 -21.1206
   -21.1171 -21.1147 -21.1112 -21.1082 -21.1053 -21.1035 -21.1008 -21.0980
   -21.0921 -21.0891 -21.0860 -21.0834 -21.0816 -21.0805 -21.0797 -21.0773
   -21.0764 -21.0728 -21.0703 -21.0700 -21.0696 -21.0613 -21.0490 -21.0449
   -21.0434 -21.0416 -21.0394 -21.0357 -21.0315 -21.0298 -21.0267 -21.0163
   -21.0068 -20.9952 -20.9920 -20.9887 -20.9875 -20.9848 -20.9799 -20.9760
   -20.9756 -20.9731 -20.9715 -20.9690 -20.9683 -20.9628 -20.9599 -20.9583
   -20.9492 -20.9471 -20.9409 -20.9383 -14.0675  -9.4614  -8.2585  -7.2738
    -7.2209  -6.6432  -6.2963  -6.1308  -5.5004  -5.1767  -4.9379  -4.6715
    -4.4125  -3.7240  -2.7218  -2.1634  -2.0111  -1.8540  -1.6523  -1.4306
    -1.1832  -0.9590  -0.6928  -0.1937   0.3558   0.6055   0.7700   0.8540
     1.0075   1.5474   2.0821   2.4409   2.5135   2.8048   2.8308   3.1094
     3.2284

          k = 0.0496 0.0286 0.0000 ( 25367 PWs)   bands (ev):

   -21.1707 -21.1515 -21.1468 -21.1435 -21.1363 -21.1264 -21.1232 -21.1179
   -21.1170 -21.1099 -21.1064 -21.1059 -21.1020 -21.1000 -21.0973 -21.0946
   -21.0926 -21.0902 -21.0848 -21.0823 -21.0808 -21.0791 -21.0761 -21.0732
   -21.0729 -21.0698 -21.0681 -21.0675 -21.0656 -21.0602 -21.0488 -21.0480
   -21.0455 -21.0427 -21.0407 -21.0377 -21.0348 -21.0340 -21.0195 -21.0193
   -21.0110 -20.9991 -20.9968 -20.9961 -20.9933 -20.9905 -20.9869 -20.9773
   -20.9768 -20.9734 -20.9728 -20.9698 -20.9678 -20.9670 -20.9669 -20.9635
   -20.9591 -20.9544 -20.9392 -20.9318 -14.0665  -9.3367  -8.1429  -7.8497
    -6.8133  -6.5225  -6.4263  -6.3818  -5.5767  -5.5064  -5.1709  -4.4348
    -4.2943  -3.6015  -2.3910  -2.2880  -1.8592  -1.7364  -1.3838  -1.1514
    -1.0828  -0.7834  -0.4743   0.0403   0.2279   0.5340   0.8463   0.9572
     1.0898   1.5812   1.6674   1.9987   2.3222   2.4825   2.6236   3.1094
     3.2342

          k = 0.0496-0.1144 0.0000 ( 25368 PWs)   bands (ev):

   -21.1564 -21.1414 -21.1357 -21.1308 -21.1282 -21.1211 -21.1190 -21.1142
   -21.1101 -21.1078 -21.1032 -21.1008 -21.0981 -21.0940 -21.0931 -21.0903
   -21.0898 -21.0865 -21.0831 -21.0808 -21.0779 -21.0749 -21.0736 -21.0712
   -21.0701 -21.0660 -21.0645 -21.0623 -21.0596 -21.0567 -21.0539 -21.0508
   -21.0467 -21.0440 -21.0408 -21.0389 -21.0361 -21.0265 -21.0253 -21.0230
   -21.0137 -21.0102 -21.0076 -21.0051 -21.0024 -20.9974 -20.9934 -20.9926
   -20.9851 -20.9844 -20.9810 -20.9788 -20.9744 -20.9712 -20.9674 -20.9649
   -20.9606 -20.9578 -20.9462 -20.9386 -14.0645  -8.9625  -8.2177  -7.7977
    -7.4843  -7.1124  -6.4536  -6.1706  -5.5821  -5.4214  -4.9400  -4.7961
    -4.1779  -3.5600  -2.2633  -2.0768  -1.5116  -1.3994  -0.9466  -0.8423
    -0.6554  -0.4519  -0.1692   0.0680   0.1814   0.4803   0.8780   1.0829
     1.1383   1.5794   1.7760   2.0655   2.2662   2.3854   2.5441   2.7407
     2.9064

          k = 0.0496-0.0858 0.0000 ( 25314 PWs)   bands (ev):

   -21.1395 -21.1348 -21.1272 -21.1231 -21.1197 -21.1181 -21.1158 -21.1099
   -21.1097 -21.1091 -21.1064 -21.1059 -21.0991 -21.0976 -21.0936 -21.0924
   -21.0894 -21.0885 -21.0811 -21.0804 -21.0787 -21.0705 -21.0677 -21.0670
   -21.0668 -21.0629 -21.0599 -21.0590 -21.0556 -21.0549 -21.0507 -21.0501
   -21.0471 -21.0460 -21.0403 -21.0363 -21.0341 -21.0312 -21.0276 -21.0237
   -21.0231 -21.0170 -21.0115 -21.0087 -21.0072 -21.0058 -21.0005 -20.9998
   -20.9835 -20.9826 -20.9817 -20.9777 -20.9775 -20.9680 -20.9671 -20.9667
   -20.9632 -20.9601 -20.9586 -20.9482 -14.0635  -8.3454  -8.3415  -8.3363
    -7.3008  -7.1870  -7.1746  -5.8321  -5.5721  -5.5367  -4.6368  -4.6126
    -4.3359  -3.6270  -2.3241  -1.9162  -1.3781  -1.3074  -1.2682  -0.6237
    -0.6181  -0.5385   0.3415   0.4983   0.5157   0.8061   1.0262   1.0348
     1.4635   1.5202   1.6393   1.8967   2.0951   2.2170   2.4266   2.8551
     2.9502

          k = 0.0496-0.0572 0.0000 ( 25368 PWs)   bands (ev):

   -21.1564 -21.1414 -21.1357 -21.1308 -21.1282 -21.1211 -21.1190 -21.1142
   -21.1101 -21.1078 -21.1032 -21.1008 -21.0981 -21.0940 -21.0931 -21.0903
   -21.0898 -21.0865 -21.0831 -21.0808 -21.0779 -21.0749 -21.0736 -21.0712
   -21.0701 -21.0660 -21.0645 -21.0623 -21.0596 -21.0567 -21.0539 -21.0508
   -21.0467 -21.0440 -21.0408 -21.0389 -21.0361 -21.0265 -21.0253 -21.0230
   -21.0137 -21.0102 -21.0076 -21.0051 -21.0024 -20.9974 -20.9934 -20.9926
   -20.9851 -20.9844 -20.9810 -20.9788 -20.9744 -20.9712 -20.9674 -20.9649
   -20.9606 -20.9578 -20.9462 -20.9386 -14.0645  -8.9625  -8.2177  -7.7977
    -7.4843  -7.1124  -6.4536  -6.1706  -5.5821  -5.4214  -4.9400  -4.7961
    -4.1779  -3.5600  -2.2633  -2.0768  -1.5116  -1.3994  -0.9466  -0.8423
    -0.6554  -0.4519  -0.1692   0.0680   0.1814   0.4803   0.8780   1.0829
     1.1382   1.5794   1.7760   2.0655   2.2662   2.3854   2.5441   2.7407
     2.9064

          k =-0.0743 0.0429 0.0000 ( 25386 PWs)   bands (ev):

   -21.1618 -21.1446 -21.1367 -21.1313 -21.1309 -21.1225 -21.1179 -21.1131
   -21.1124 -21.1026 -21.0997 -21.0976 -21.0956 -21.0900 -21.0898 -21.0876
   -21.0851 -21.0847 -21.0815 -21.0784 -21.0772 -21.0747 -21.0746 -21.0730
   -21.0684 -21.0678 -21.0661 -21.0652 -21.0630 -21.0590 -21.0562 -21.0561
   -21.0533 -21.0411 -21.0364 -21.0339 -21.0323 -21.0318 -21.0241 -21.0200
   -21.0171 -21.0068 -21.0048 -21.0042 -20.9975 -20.9965 -20.9949 -20.9939
   -20.9935 -20.9899 -20.9873 -20.9847 -20.9754 -20.9715 -20.9698 -20.9673
   -20.9599 -20.9577 -20.9392 -20.9314 -14.0645  -8.7219  -8.7049  -7.5872
    -7.5491  -6.5475  -6.5334  -6.0858  -5.8917  -5.5752  -5.5082  -4.3646
    -4.2707  -3.4115  -2.2102  -1.7286  -1.3247  -1.2211  -1.1184  -1.0787
    -0.8296  -0.6117  -0.0612   0.1539   0.3235   0.5890   0.9075   1.0670
     1.2783   1.5225   1.7971   1.7978   2.0501   2.0543   2.1665   2.1922
     2.8538

          k =-0.0743 0.0715 0.0000 ( 25368 PWs)   bands (ev):

   -21.1564 -21.1414 -21.1357 -21.1308 -21.1282 -21.1211 -21.1190 -21.1142
   -21.1101 -21.1078 -21.1032 -21.1008 -21.0981 -21.0940 -21.0931 -21.0903
   -21.0898 -21.0865 -21.0831 -21.0808 -21.0779 -21.0749 -21.0736 -21.0712
   -21.0701 -21.0660 -21.0645 -21.0623 -21.0596 -21.0567 -21.0539 -21.0508
   -21.0467 -21.0440 -21.0408 -21.0389 -21.0361 -21.0265 -21.0253 -21.0230
   -21.0137 -21.0102 -21.0076 -21.0051 -21.0024 -20.9974 -20.9934 -20.9926
   -20.9851 -20.9844 -20.9810 -20.9788 -20.9744 -20.9712 -20.9674 -20.9649
   -20.9606 -20.9578 -20.9462 -20.9386 -14.0645  -8.9625  -8.2177  -7.7977
    -7.4843  -7.1124  -6.4536  -6.1706  -5.5821  -5.4214  -4.9400  -4.7961
    -4.1779  -3.5600  -2.2633  -2.0768  -1.5116  -1.3994  -0.9466  -0.8423
    -0.6554  -0.4519  -0.1692   0.0680   0.1814   0.4803   0.8780   1.0829
     1.1383   1.5794   1.7760   2.0655   2.2662   2.3854   2.5441   2.7407
     2.9064

          k =-0.0743 0.1001 0.0000 ( 25368 PWs)   bands (ev):

   -21.1564 -21.1414 -21.1357 -21.1308 -21.1282 -21.1211 -21.1190 -21.1142
   -21.1101 -21.1078 -21.1032 -21.1008 -21.0981 -21.0940 -21.0931 -21.0903
   -21.0898 -21.0865 -21.0831 -21.0808 -21.0779 -21.0749 -21.0736 -21.0712
   -21.0701 -21.0660 -21.0645 -21.0623 -21.0596 -21.0567 -21.0539 -21.0508
   -21.0467 -21.0440 -21.0408 -21.0389 -21.0361 -21.0265 -21.0253 -21.0230
   -21.0137 -21.0102 -21.0076 -21.0051 -21.0024 -20.9974 -20.9934 -20.9926
   -20.9851 -20.9844 -20.9810 -20.9788 -20.9744 -20.9712 -20.9674 -20.9649
   -20.9606 -20.9578 -20.9462 -20.9386 -14.0645  -8.9625  -8.2177  -7.7977
    -7.4843  -7.1124  -6.4536  -6.1706  -5.5821  -5.4214  -4.9400  -4.7961
    -4.1779  -3.5600  -2.2633  -2.0768  -1.5116  -1.3994  -0.9466  -0.8423
    -0.6554  -0.4519  -0.1692   0.0680   0.1814   0.4803   0.8780   1.0829
     1.1383   1.5794   1.7760   2.0655   2.2662   2.3854   2.5441   2.7407
     2.9064

          k =-0.0743-0.0429 0.0000 ( 25386 PWs)   bands (ev):

   -21.1618 -21.1446 -21.1367 -21.1313 -21.1309 -21.1225 -21.1179 -21.1131
   -21.1124 -21.1026 -21.0997 -21.0976 -21.0956 -21.0900 -21.0898 -21.0876
   -21.0851 -21.0847 -21.0815 -21.0784 -21.0772 -21.0747 -21.0746 -21.0730
   -21.0684 -21.0678 -21.0661 -21.0652 -21.0630 -21.0590 -21.0562 -21.0561
   -21.0533 -21.0411 -21.0364 -21.0338 -21.0323 -21.0318 -21.0241 -21.0200
   -21.0171 -21.0068 -21.0048 -21.0042 -20.9975 -20.9965 -20.9949 -20.9939
   -20.9935 -20.9899 -20.9873 -20.9846 -20.9754 -20.9715 -20.9698 -20.9673
   -20.9600 -20.9577 -20.9392 -20.9314 -14.0645  -8.7219  -8.7049  -7.5872
    -7.5491  -6.5475  -6.5334  -6.0858  -5.8917  -5.5752  -5.5082  -4.3646
    -4.2707  -3.4115  -2.2102  -1.7286  -1.3247  -1.2211  -1.1184  -1.0787
    -0.8296  -0.6117  -0.0612   0.1539   0.3235   0.5890   0.9075   1.0670
     1.2783   1.5225   1.7971   1.7978   2.0501   2.0543   2.1665   2.1922
     2.8538

     the Fermi energy is     0.9192 ev

!    total energy              =   -1949.78410711 Ry
     Harris-Foulkes estimate   =   -1949.78410178 Ry
     estimated scf accuracy    <       0.00000341 Ry

     The total energy is the sum of the following terms:

     one-electron contribution =  -10680.62421409 Ry
     hartree contribution      =    5406.63130753 Ry
     xc contribution           =    -540.19181263 Ry
     ewald contribution        =    3864.44642584 Ry
     electric field correction =       0.00002208 Ry
     smearing contrib. (-TS)   =      -0.04583584 Ry

     convergence has been achieved in  15 iterations
 
 BEEF-vdW xc energy contributions
           1 :   -474.511823766004     
           2 :    434.234736204956     
           3 :   -365.944346306367     
           4 :    288.648782597345     
           5 :   -220.354314413295     
           6 :    171.757488183959     
           7 :   -143.878283501644     
           8 :    130.124436243050     
           9 :   -121.248756276419     
          10 :    110.421046109185     
          11 :   -95.9289690673813     
          12 :    80.5583930902267     
          13 :   -68.6194415472618     
          14 :    62.7094580679689     
          15 :   -62.1190181918187     
          16 :    63.5418749262127     
          17 :   -63.3255412489099     
          18 :    59.6800975039839     
          19 :   -53.4957986851228     
          20 :    47.4240816002703     
          21 :   -43.9826031168162     
          22 :    43.9536713029476     
          23 :   -46.0393798362670     
          24 :    47.8563801270266     
          25 :   -47.5159736015343     
          26 :    44.7406133172470     
          27 :   -40.8640278973322     
          28 :    37.8225675145458     
          29 :   -36.8712432090698     
          30 :    37.8555713649763     
          31 :   -41.6745104210771     
          32 :   -30.3169016008308     

     Forces acting on atoms (Ry/au):


     negative rho (up, down):  7.192E-04 0.000E+00
     atom    1 type  1   force =    -0.00002048   -0.00000756   -0.00357026
     atom    2 type  1   force =     0.00000682   -0.00502223    0.00008643
     atom    3 type  1   force =    -0.00434303    0.00250364    0.00007521
     atom    4 type  1   force =     0.00435932    0.00250704    0.00008269
     atom    5 type  1   force =     0.00150893   -0.00086982    0.00207760
     atom    6 type  1   force =    -0.00151230   -0.00090089    0.00206834
     atom    7 type  1   force =     0.00000519    0.00002217   -0.02617645
     atom    8 type  1   force =     0.00000438    0.00175852    0.00206994
     atom    9 type  1   force =     0.01404164    0.00811082    0.02690779
     atom   10 type  1   force =    -0.01403921    0.00809843    0.02689925
     atom   11 type  1   force =    -0.00000241   -0.01620951    0.02691915
     atom   12 type  1   force =    -0.00000277    0.00000794   -0.00401257
     atom   13 type  2   force =    -0.00000300    0.00000092   -0.01917942
     atom   14 type  3   force =    -0.00000307    0.00000053   -0.03424770

     Total force =     0.067212     Total SCF correction =     0.002137


     entering subroutine stress ...


     negative rho (up, down):  7.192E-04 0.000E+00
          total   stress  (Ry/bohr**3)                   (kbar)     P=    1.62
   0.00002100   0.00000000   0.00000000          3.09      0.00      0.00
   0.00000000   0.00002100  -0.00000000          0.00      3.09     -0.00
   0.00000000  -0.00000000  -0.00000895          0.00     -0.00     -1.32


     BFGS Geometry Optimization

     number of scf cycles    =   1
     number of bfgs steps    =   0

     energy   new            =   -1949.7841071058 Ry

     new trust radius        =       0.0342477012 bohr
     new conv_thr            =       0.0000099958 Ry


ATOMIC_POSITIONS (crystal)
Sn1      0.166666667   0.166666667   0.392271209    0   0   0
Sn1      0.666666667   0.166666667   0.392271209    0   0   0
Sn1      0.166666667   0.666666667   0.392271209    0   0   0
Sn1      0.666666667   0.666666667   0.392271209    0   0   0
Sn1      0.833333333   0.333333333   0.500000000    0   0   0
Sn1      0.333333333   0.333333333   0.500000000    0   0   0
Sn1      0.833333333   0.833333333   0.500000000    0   0   0
Sn1      0.333333333   0.833333333   0.500000000    0   0   0
Sn1      0.000736212   0.000736740   0.608287346
Sn1      0.498527802   0.000735614   0.608287169
Sn1      0.000735999   0.498527622   0.608287582
Sn1      0.499999422   0.500000721   0.607645498
N1       0.166666389   0.166666750   0.660875683
H1       0.166666401   0.166666715   0.701751371



     Writing output data file calc.save
     Check: negative starting charge=   -0.001395
     NEW-OLD atomic charge density approx. for the potential
     Check: negative starting charge=   -0.001392

     negative rho (up, down):  7.363E-04 0.000E+00
 
     Adding external electric field

     Computed dipole along edir(3) : 
        Dipole                0.1856 Ry au,          0.4717 Debye
        Dipole field          0.0003 Ry au
 
        Potential amp.       -0.0325 Ry
        Total length         46.9696 bohr
 

     total cpu time spent up to now is      774.4 secs

     per-process dynamical memory:   103.5 Mb

     Self-consistent Calculation

     iteration #  1     ecut=    36.75 Ry     beta=0.30
     Davidson diagonalization with overlap
     ethr =  1.00E-06,  avg # of iterations =  5.0

     negative rho (up, down):  7.264E-04 0.000E+00
 
     Adding external electric field

     Computed dipole along edir(3) : 
        Dipole               -0.4706 Ry au,         -1.1961 Debye
        Dipole field         -0.0009 Ry au
 
        Potential amp.        0.0824 Ry
        Total length         46.9696 bohr
 

     total cpu time spent up to now is      818.8 secs

     total energy              =   -1949.77342034 Ry
     Harris-Foulkes estimate   =   -1949.78922914 Ry
     estimated scf accuracy    <       0.03228443 Ry

     iteration #  2     ecut=    36.75 Ry     beta=0.30
     Davidson diagonalization with overlap
     ethr =  1.86E-05,  avg # of iterations =  7.8

     negative rho (up, down):  7.107E-04 0.000E+00
 
     Adding external electric field

     Computed dipole along edir(3) : 
        Dipole                0.1209 Ry au,          0.3072 Debye
        Dipole field          0.0002 Ry au
 
        Potential amp.       -0.0212 Ry
        Total length         46.9696 bohr
 

     total cpu time spent up to now is      854.6 secs

     total energy              =   -1949.71794377 Ry
     Harris-Foulkes estimate   =   -1949.85892200 Ry
     estimated scf accuracy    <       2.33950684 Ry

     iteration #  3     ecut=    36.75 Ry     beta=0.30
     Davidson diagonalization with overlap
     ethr =  1.86E-05,  avg # of iterations =  7.0

     negative rho (up, down):  7.135E-04 0.000E+00
 
     Adding external electric field

     Computed dipole along edir(3) : 
        Dipole                0.1126 Ry au,          0.2862 Debye
        Dipole field          0.0002 Ry au
 
        Potential amp.       -0.0197 Ry
        Total length         46.9696 bohr
 

     total cpu time spent up to now is      890.1 secs

     total energy              =   -1949.78793473 Ry
     Harris-Foulkes estimate   =   -1949.78871693 Ry
     estimated scf accuracy    <       0.00424686 Ry

     iteration #  4     ecut=    36.75 Ry     beta=0.30
     Davidson diagonalization with overlap
     ethr =  2.44E-06,  avg # of iterations =  3.9

     negative rho (up, down):  7.146E-04 0.000E+00
 
     Adding external electric field

     Computed dipole along edir(3) : 
        Dipole                0.1135 Ry au,          0.2884 Debye
        Dipole field          0.0002 Ry au
 
        Potential amp.       -0.0199 Ry
        Total length         46.9696 bohr
 

     total cpu time spent up to now is      921.2 secs

     total energy              =   -1949.78833637 Ry
     Harris-Foulkes estimate   =   -1949.78833796 Ry
     estimated scf accuracy    <       0.00004572 Ry

     iteration #  5     ecut=    36.75 Ry     beta=0.30
     Davidson diagonalization with overlap
     ethr =  2.63E-08,  avg # of iterations =  4.5

     negative rho (up, down):  7.155E-04 0.000E+00
 
     Adding external electric field

     Computed dipole along edir(3) : 
        Dipole                0.1126 Ry au,          0.2861 Debye
        Dipole field          0.0002 Ry au
 
        Potential amp.       -0.0197 Ry
        Total length         46.9696 bohr
 

     total cpu time spent up to now is      956.9 secs

     total energy              =   -1949.78835588 Ry
     Harris-Foulkes estimate   =   -1949.78835697 Ry
     estimated scf accuracy    <       0.00002028 Ry

     iteration #  6     ecut=    36.75 Ry     beta=0.30
     Davidson diagonalization with overlap
     ethr =  1.17E-08,  avg # of iterations =  3.0

     negative rho (up, down):  7.205E-04 0.000E+00

     negative rho (up, down):  7.205E-04 0.000E+00

     negative rho (up, down):  7.205E-04 0.000E+00

     negative rho (up, down):  7.205E-04 0.000E+00

     negative rho (up, down):  7.205E-04 0.000E+00

     negative rho (up, down):  7.205E-04 0.000E+00

     negative rho (up, down):  7.205E-04 0.000E+00

     negative rho (up, down):  7.205E-04 0.000E+00

     negative rho (up, down):  7.205E-04 0.000E+00

     negative rho (up, down):  7.205E-04 0.000E+00

     negative rho (up, down):  7.205E-04 0.000E+00

     negative rho (up, down):  7.205E-04 0.000E+00

     negative rho (up, down):  7.205E-04 0.000E+00

     negative rho (up, down):  7.205E-04 0.000E+00

     negative rho (up, down):  7.205E-04 0.000E+00

     negative rho (up, down):  7.205E-04 0.000E+00

     negative rho (up, down):  7.205E-04 0.000E+00

     negative rho (up, down):  7.205E-04 0.000E+00

     negative rho (up, down):  7.205E-04 0.000E+00

     negative rho (up, down):  7.205E-04 0.000E+00

     negative rho (up, down):  7.205E-04 0.000E+00

     negative rho (up, down):  7.205E-04 0.000E+00

     negative rho (up, down):  7.205E-04 0.000E+00

     negative rho (up, down):  7.205E-04 0.000E+00

     negative rho (up, down):  7.205E-04 0.000E+00

     negative rho (up, down):  7.205E-04 0.000E+00

     negative rho (up, down):  7.205E-04 0.000E+00

     negative rho (up, down):  7.205E-04 0.000E+00

     negative rho (up, down):  7.205E-04 0.000E+00

     negative rho (up, down):  7.205E-04 0.000E+00

     negative rho (up, down):  7.205E-04 0.000E+00

     negative rho (up, down):  7.205E-04 0.000E+00

     negative rho (up, down):  7.205E-04 0.000E+00

     negative rho (up, down):  7.205E-04 0.000E+00

     negative rho (up, down):  7.205E-04 0.000E+00
 
     Adding external electric field

     Computed dipole along edir(3) : 
        Dipole                0.1193 Ry au,          0.3031 Debye
        Dipole field          0.0002 Ry au
 
        Potential amp.       -0.0209 Ry
        Total length         46.9696 bohr
 

     total cpu time spent up to now is     1082.7 secs

     End of self-consistent calculation

          k = 0.0000 0.0000 0.0000 ( 25377 PWs)   bands (ev):

   -21.1774 -21.1573 -21.1573 -21.1386 -21.1314 -21.1314 -21.1254 -21.1050
   -21.1023 -21.1023 -21.0997 -21.0965 -21.0965 -21.0882 -21.0817 -21.0786
   -21.0786 -21.0749 -21.0749 -21.0720 -21.0720 -21.0647 -21.0603 -21.0603
   -21.0588 -21.0588 -21.0579 -21.0522 -21.0497 -21.0497 -21.0298 -21.0222
   -21.0222 -21.0095 -21.0095 -21.0029 -21.0029 -20.9964 -20.9964 -20.9886
   -20.9654 -20.9568 -20.9568 -20.9541 -20.9489 -20.9484 -20.9484 -20.9387
   -20.9386 -20.9386 -20.9354 -20.9354 -20.9310 -20.9310 -20.9216 -20.9216
   -20.9159 -20.9079 -20.9050 -20.9050 -14.1960  -9.8044  -8.5867  -6.9554
    -5.8596  -5.8596  -5.7480  -5.6557  -5.4268  -5.4268  -4.9845  -4.5294
    -4.5294  -3.9065  -3.2550  -3.2550  -2.8477  -2.3577  -2.1373  -2.1373
    -1.7660  -1.7660  -1.7237  -0.3931  -0.3931  -0.1586   0.7373   1.9096
     1.9256   1.9256   2.5839   2.7058   2.7058   3.1824   3.4762   3.6132
     3.6132

          k = 0.0000 0.0286 0.0000 ( 25365 PWs)   bands (ev):

   -21.1691 -21.1516 -21.1473 -21.1328 -21.1260 -21.1212 -21.1196 -21.1039
   -21.0985 -21.0971 -21.0968 -21.0943 -21.0901 -21.0853 -21.0794 -21.0770
   -21.0727 -21.0712 -21.0698 -21.0688 -21.0661 -21.0649 -21.0614 -21.0591
   -21.0568 -21.0555 -21.0543 -21.0498 -21.0487 -21.0485 -21.0292 -21.0230
   -21.0223 -21.0135 -21.0103 -21.0042 -21.0025 -21.0020 -21.0001 -20.9938
   -20.9738 -20.9612 -20.9587 -20.9572 -20.9545 -20.9521 -20.9520 -20.9469
   -20.9435 -20.9417 -20.9417 -20.9389 -20.9363 -20.9353 -20.9288 -20.9244
   -20.9208 -20.9143 -20.9136 -20.9087 -14.1941  -9.6799  -8.4719  -6.8810
    -6.7343  -6.1313  -6.1139  -5.8336  -5.3896  -5.3865  -4.8541  -4.4802
    -4.4271  -3.8062  -3.0167  -2.8783  -2.5554  -2.2615  -2.0267  -1.8440
    -1.4965  -1.4679  -1.0535  -0.4838  -0.2731   0.3094   0.9929   1.0964
     1.6673   1.9726   2.4584   2.5892   2.6811   2.9551   3.2002   3.2924
     3.5750

          k = 0.0000 0.0572 0.0000 ( 25367 PWs)   bands (ev):

   -21.1533 -21.1330 -21.1244 -21.1227 -21.1163 -21.1060 -21.0999 -21.0967
   -21.0952 -21.0886 -21.0851 -21.0843 -21.0800 -21.0780 -21.0755 -21.0734
   -21.0697 -21.0674 -21.0621 -21.0616 -21.0582 -21.0565 -21.0532 -21.0505
   -21.0505 -21.0474 -21.0452 -21.0448 -21.0432 -21.0368 -21.0274 -21.0259
   -21.0237 -21.0212 -21.0174 -21.0162 -21.0102 -21.0099 -20.9969 -20.9966
   -20.9911 -20.9762 -20.9740 -20.9733 -20.9698 -20.9671 -20.9644 -20.9559
   -20.9545 -20.9510 -20.9503 -20.9468 -20.9458 -20.9445 -20.9442 -20.9409
   -20.9370 -20.9320 -20.9170 -20.9091 -14.1902  -9.3062  -8.1286  -7.8223
    -6.8260  -6.5148  -6.4029  -6.3499  -5.5767  -5.5067  -5.1543  -4.4303
    -4.2882  -3.6065  -2.3812  -2.2919  -1.8418  -1.7419  -1.3618  -1.1696
    -1.0556  -0.7603  -0.4532   0.0553   0.2580   0.5521   0.8692   0.9764
     1.1092   1.6009   1.6872   2.0220   2.3482   2.5020   2.6542   3.1217
     3.2578

          k = 0.0000-0.0858 0.0000 ( 25386 PWs)   bands (ev):

   -21.1448 -21.1233 -21.1163 -21.1125 -21.1077 -21.1018 -21.0986 -21.0909
   -21.0909 -21.0809 -21.0776 -21.0768 -21.0736 -21.0685 -21.0678 -21.0653
   -21.0623 -21.0618 -21.0604 -21.0576 -21.0560 -21.0523 -21.0516 -21.0505
   -21.0457 -21.0455 -21.0431 -21.0429 -21.0402 -21.0370 -21.0359 -21.0324
   -21.0282 -21.0197 -21.0137 -21.0110 -21.0092 -21.0080 -21.0005 -20.9984
   -20.9934 -20.9849 -20.9828 -20.9811 -20.9750 -20.9740 -20.9713 -20.9711
   -20.9708 -20.9674 -20.9646 -20.9620 -20.9545 -20.9492 -20.9469 -20.9445
   -20.9372 -20.9361 -20.9170 -20.9087 -14.1883  -8.6932  -8.6750  -7.5949
    -7.5225  -6.5281  -6.5092  -6.0970  -5.8810  -5.5751  -5.4845  -4.3565
    -4.2679  -3.4205  -2.2503  -1.7407  -1.2970  -1.1973  -1.0929  -1.0667
    -0.8303  -0.5945  -0.0293   0.1685   0.3468   0.6165   0.9408   1.0923
     1.2998   1.5364   1.8154   1.8170   2.0678   2.0780   2.1912   2.2119
     2.8867

          k = 0.0248-0.0143 0.0000 ( 25365 PWs)   bands (ev):

   -21.1691 -21.1516 -21.1473 -21.1328 -21.1260 -21.1212 -21.1196 -21.1039
   -21.0985 -21.0971 -21.0968 -21.0943 -21.0901 -21.0853 -21.0794 -21.0770
   -21.0727 -21.0712 -21.0698 -21.0688 -21.0661 -21.0649 -21.0614 -21.0591
   -21.0568 -21.0555 -21.0543 -21.0498 -21.0487 -21.0485 -21.0292 -21.0230
   -21.0223 -21.0135 -21.0103 -21.0042 -21.0025 -21.0020 -21.0001 -20.9938
   -20.9738 -20.9612 -20.9587 -20.9572 -20.9545 -20.9521 -20.9520 -20.9469
   -20.9435 -20.9417 -20.9417 -20.9389 -20.9363 -20.9353 -20.9288 -20.9244
   -20.9208 -20.9143 -20.9136 -20.9087 -14.1941  -9.6799  -8.4719  -6.8810
    -6.7343  -6.1313  -6.1139  -5.8336  -5.3896  -5.3865  -4.8541  -4.4802
    -4.4271  -3.8062  -3.0167  -2.8783  -2.5554  -2.2615  -2.0267  -1.8440
    -1.4965  -1.4679  -1.0535  -0.4838  -0.2731   0.3094   0.9929   1.0964
     1.6673   1.9726   2.4584   2.5892   2.6811   2.9551   3.2002   3.2924
     3.5749

          k = 0.0248 0.0143 0.0000 ( 25365 PWs)   bands (ev):

   -21.1691 -21.1516 -21.1473 -21.1328 -21.1260 -21.1212 -21.1196 -21.1039
   -21.0985 -21.0971 -21.0968 -21.0943 -21.0901 -21.0853 -21.0794 -21.0770
   -21.0727 -21.0712 -21.0698 -21.0688 -21.0661 -21.0649 -21.0614 -21.0591
   -21.0568 -21.0555 -21.0543 -21.0498 -21.0487 -21.0485 -21.0292 -21.0230
   -21.0223 -21.0135 -21.0103 -21.0042 -21.0025 -21.0020 -21.0001 -20.9938
   -20.9738 -20.9612 -20.9587 -20.9572 -20.9545 -20.9521 -20.9520 -20.9469
   -20.9435 -20.9417 -20.9417 -20.9389 -20.9363 -20.9353 -20.9288 -20.9244
   -20.9208 -20.9143 -20.9136 -20.9087 -14.1941  -9.6799  -8.4719  -6.8810
    -6.7343  -6.1313  -6.1139  -5.8336  -5.3896  -5.3865  -4.8541  -4.4802
    -4.4271  -3.8062  -3.0167  -2.8783  -2.5554  -2.2615  -2.0267  -1.8440
    -1.4965  -1.4679  -1.0535  -0.4838  -0.2731   0.3094   0.9929   1.0964
     1.6673   1.9726   2.4584   2.5892   2.6811   2.9551   3.2002   3.2924
     3.5750

          k = 0.0248 0.0429 0.0000 ( 25362 PWs)   bands (ev):

   -21.1549 -21.1425 -21.1291 -21.1218 -21.1187 -21.1124 -21.1020 -21.0988
   -21.0961 -21.0919 -21.0893 -21.0866 -21.0826 -21.0802 -21.0794 -21.0760
   -21.0712 -21.0673 -21.0642 -21.0610 -21.0585 -21.0581 -21.0568 -21.0546
   -21.0537 -21.0504 -21.0475 -21.0471 -21.0468 -21.0382 -21.0274 -21.0236
   -21.0218 -21.0198 -21.0163 -21.0123 -21.0089 -21.0060 -21.0035 -20.9937
   -20.9876 -20.9730 -20.9685 -20.9657 -20.9644 -20.9616 -20.9583 -20.9532
   -20.9522 -20.9507 -20.9495 -20.9465 -20.9456 -20.9408 -20.9375 -20.9361
   -20.9267 -20.9250 -20.9181 -20.9157 -14.1912  -9.4308  -8.2427  -7.2593
    -7.1877  -6.6547  -6.2951  -6.1119  -5.4783  -5.1709  -4.9367  -4.6628
    -4.4049  -3.7273  -2.7051  -2.1761  -1.9904  -1.8470  -1.6345  -1.4326
    -1.1657  -0.9330  -0.6921  -0.1652   0.3760   0.6161   0.7886   0.8720
     1.0272   1.5755   2.1104   2.4631   2.5360   2.8291   2.8477   3.1310
     3.2484

          k = 0.0248-0.1001 0.0000 ( 25368 PWs)   bands (ev):

   -21.1393 -21.1239 -21.1136 -21.1101 -21.1080 -21.0992 -21.0971 -21.0926
   -21.0889 -21.0866 -21.0818 -21.0788 -21.0757 -21.0717 -21.0707 -21.0688
   -21.0680 -21.0644 -21.0606 -21.0583 -21.0557 -21.0531 -21.0518 -21.0490
   -21.0471 -21.0439 -21.0421 -21.0395 -21.0373 -21.0338 -21.0314 -21.0288
   -21.0243 -21.0218 -21.0176 -21.0157 -21.0123 -21.0040 -21.0030 -21.0021
   -20.9905 -20.9874 -20.9840 -20.9818 -20.9798 -20.9743 -20.9709 -20.9694
   -20.9625 -20.9617 -20.9588 -20.9571 -20.9515 -20.9491 -20.9450 -20.9424
   -20.9384 -20.9358 -20.9239 -20.9160 -14.1883  -8.9327  -8.1902  -7.7874
    -7.4580  -7.1051  -6.4528  -6.1641  -5.5806  -5.3969  -4.9373  -4.7888
    -4.1618  -3.5697  -2.2850  -2.0916  -1.5032  -1.3912  -0.9286  -0.8156
    -0.6421  -0.4330  -0.1488   0.0918   0.2034   0.5029   0.9008   1.0980
     1.1634   1.6034   1.7973   2.0865   2.2898   2.4112   2.5654   2.7644
     2.9211

          k = 0.0248-0.0715 0.0000 ( 25368 PWs)   bands (ev):

   -21.1393 -21.1239 -21.1136 -21.1101 -21.1080 -21.0992 -21.0971 -21.0926
   -21.0889 -21.0866 -21.0818 -21.0788 -21.0757 -21.0717 -21.0707 -21.0688
   -21.0680 -21.0644 -21.0606 -21.0583 -21.0557 -21.0531 -21.0518 -21.0490
   -21.0471 -21.0439 -21.0421 -21.0395 -21.0373 -21.0338 -21.0314 -21.0288
   -21.0243 -21.0218 -21.0176 -21.0157 -21.0123 -21.0040 -21.0030 -21.0021
   -20.9905 -20.9874 -20.9840 -20.9818 -20.9798 -20.9743 -20.9709 -20.9694
   -20.9625 -20.9617 -20.9588 -20.9571 -20.9515 -20.9491 -20.9450 -20.9424
   -20.9384 -20.9358 -20.9239 -20.9160 -14.1883  -8.9327  -8.1902  -7.7874
    -7.4580  -7.1051  -6.4528  -6.1641  -5.5806  -5.3969  -4.9373  -4.7888
    -4.1618  -3.5697  -2.2850  -2.0916  -1.5032  -1.3912  -0.9286  -0.8156
    -0.6421  -0.4330  -0.1488   0.0918   0.2034   0.5029   0.9008   1.0980
     1.1634   1.6034   1.7973   2.0865   2.2899   2.4112   2.5654   2.7644
     2.9211

          k = 0.0248-0.0429 0.0000 ( 25362 PWs)   bands (ev):

   -21.1549 -21.1425 -21.1291 -21.1218 -21.1187 -21.1124 -21.1020 -21.0988
   -21.0961 -21.0919 -21.0893 -21.0866 -21.0826 -21.0802 -21.0794 -21.0760
   -21.0712 -21.0673 -21.0642 -21.0610 -21.0585 -21.0581 -21.0568 -21.0546
   -21.0537 -21.0504 -21.0475 -21.0471 -21.0468 -21.0382 -21.0274 -21.0236
   -21.0218 -21.0198 -21.0163 -21.0123 -21.0089 -21.0060 -21.0035 -20.9937
   -20.9876 -20.9730 -20.9685 -20.9657 -20.9644 -20.9616 -20.9583 -20.9532
   -20.9522 -20.9507 -20.9495 -20.9465 -20.9456 -20.9408 -20.9375 -20.9361
   -20.9267 -20.9250 -20.9181 -20.9157 -14.1912  -9.4308  -8.2427  -7.2593
    -7.1877  -6.6547  -6.2951  -6.1119  -5.4783  -5.1709  -4.9367  -4.6628
    -4.4049  -3.7273  -2.7051  -2.1761  -1.9904  -1.8470  -1.6345  -1.4326
    -1.1657  -0.9330  -0.6921  -0.1652   0.3760   0.6161   0.7886   0.8720
     1.0272   1.5755   2.1104   2.4631   2.5360   2.8290   2.8477   3.1310
     3.2483

          k = 0.0496-0.0286 0.0000 ( 25367 PWs)   bands (ev):

   -21.1533 -21.1330 -21.1244 -21.1227 -21.1163 -21.1060 -21.0999 -21.0967
   -21.0952 -21.0886 -21.0851 -21.0843 -21.0800 -21.0780 -21.0755 -21.0734
   -21.0697 -21.0674 -21.0621 -21.0616 -21.0582 -21.0565 -21.0532 -21.0505
   -21.0505 -21.0474 -21.0452 -21.0448 -21.0432 -21.0368 -21.0274 -21.0259
   -21.0237 -21.0212 -21.0174 -21.0162 -21.0102 -21.0099 -20.9969 -20.9966
   -20.9911 -20.9762 -20.9740 -20.9733 -20.9698 -20.9671 -20.9644 -20.9559
   -20.9545 -20.9510 -20.9503 -20.9468 -20.9458 -20.9445 -20.9442 -20.9409
   -20.9370 -20.9320 -20.9170 -20.9091 -14.1902  -9.3062  -8.1286  -7.8223
    -6.8260  -6.5148  -6.4029  -6.3499  -5.5767  -5.5067  -5.1543  -4.4303
    -4.2882  -3.6065  -2.3812  -2.2919  -1.8418  -1.7419  -1.3618  -1.1696
    -1.0555  -0.7603  -0.4532   0.0553   0.2580   0.5521   0.8692   0.9764
     1.1092   1.6009   1.6872   2.0220   2.3483   2.5020   2.6542   3.1217
     3.2578

          k = 0.0496 0.0000 0.0000 ( 25362 PWs)   bands (ev):

   -21.1549 -21.1425 -21.1291 -21.1218 -21.1187 -21.1124 -21.1020 -21.0988
   -21.0961 -21.0919 -21.0893 -21.0866 -21.0826 -21.0802 -21.0794 -21.0760
   -21.0712 -21.0673 -21.0642 -21.0610 -21.0585 -21.0581 -21.0568 -21.0546
   -21.0537 -21.0504 -21.0475 -21.0471 -21.0468 -21.0382 -21.0274 -21.0236
   -21.0218 -21.0198 -21.0163 -21.0123 -21.0089 -21.0060 -21.0035 -20.9937
   -20.9876 -20.9730 -20.9685 -20.9657 -20.9644 -20.9616 -20.9583 -20.9532
   -20.9522 -20.9507 -20.9495 -20.9465 -20.9456 -20.9408 -20.9375 -20.9361
   -20.9267 -20.9250 -20.9181 -20.9157 -14.1912  -9.4308  -8.2427  -7.2593
    -7.1877  -6.6547  -6.2951  -6.1119  -5.4783  -5.1709  -4.9367  -4.6628
    -4.4049  -3.7273  -2.7051  -2.1761  -1.9904  -1.8470  -1.6345  -1.4326
    -1.1657  -0.9330  -0.6921  -0.1652   0.3760   0.6161   0.7886   0.8720
     1.0272   1.5755   2.1104   2.4631   2.5360   2.8290   2.8477   3.1310
     3.2483

          k = 0.0496 0.0286 0.0000 ( 25367 PWs)   bands (ev):

   -21.1533 -21.1330 -21.1244 -21.1227 -21.1163 -21.1060 -21.0999 -21.0967
   -21.0952 -21.0886 -21.0851 -21.0843 -21.0800 -21.0780 -21.0755 -21.0734
   -21.0697 -21.0674 -21.0621 -21.0616 -21.0582 -21.0565 -21.0532 -21.0505
   -21.0505 -21.0474 -21.0452 -21.0448 -21.0432 -21.0368 -21.0274 -21.0259
   -21.0237 -21.0212 -21.0174 -21.0162 -21.0102 -21.0099 -20.9969 -20.9966
   -20.9911 -20.9762 -20.9740 -20.9733 -20.9698 -20.9671 -20.9644 -20.9559
   -20.9545 -20.9510 -20.9503 -20.9468 -20.9458 -20.9445 -20.9442 -20.9409
   -20.9370 -20.9320 -20.9170 -20.9091 -14.1902  -9.3062  -8.1286  -7.8223
    -6.8260  -6.5148  -6.4029  -6.3499  -5.5767  -5.5067  -5.1543  -4.4303
    -4.2882  -3.6065  -2.3812  -2.2919  -1.8418  -1.7419  -1.3618  -1.1696
    -1.0555  -0.7603  -0.4532   0.0553   0.2580   0.5521   0.8692   0.9764
     1.1092   1.6009   1.6872   2.0220   2.3482   2.5020   2.6542   3.1217
     3.2578

          k = 0.0496-0.1144 0.0000 ( 25368 PWs)   bands (ev):

   -21.1393 -21.1239 -21.1136 -21.1101 -21.1080 -21.0992 -21.0971 -21.0926
   -21.0889 -21.0866 -21.0818 -21.0788 -21.0757 -21.0717 -21.0707 -21.0688
   -21.0680 -21.0644 -21.0606 -21.0583 -21.0557 -21.0531 -21.0518 -21.0490
   -21.0471 -21.0439 -21.0421 -21.0395 -21.0373 -21.0338 -21.0314 -21.0288
   -21.0243 -21.0218 -21.0176 -21.0157 -21.0123 -21.0040 -21.0030 -21.0021
   -20.9905 -20.9874 -20.9840 -20.9818 -20.9798 -20.9743 -20.9709 -20.9694
   -20.9625 -20.9617 -20.9588 -20.9571 -20.9515 -20.9491 -20.9450 -20.9424
   -20.9384 -20.9358 -20.9239 -20.9160 -14.1883  -8.9327  -8.1902  -7.7874
    -7.4580  -7.1051  -6.4528  -6.1641  -5.5806  -5.3969  -4.9373  -4.7888
    -4.1618  -3.5697  -2.2850  -2.0916  -1.5032  -1.3912  -0.9286  -0.8156
    -0.6421  -0.4330  -0.1488   0.0918   0.2034   0.5029   0.9008   1.0980
     1.1634   1.6034   1.7973   2.0865   2.2899   2.4112   2.5654   2.7644
     2.9211

          k = 0.0496-0.0858 0.0000 ( 25314 PWs)   bands (ev):

   -21.1217 -21.1210 -21.1067 -21.1038 -21.0987 -21.0964 -21.0928 -21.0870
   -21.0867 -21.0865 -21.0846 -21.0832 -21.0782 -21.0754 -21.0709 -21.0702
   -21.0684 -21.0657 -21.0587 -21.0576 -21.0571 -21.0484 -21.0455 -21.0450
   -21.0447 -21.0398 -21.0369 -21.0361 -21.0337 -21.0313 -21.0295 -21.0287
   -21.0263 -21.0256 -21.0164 -21.0131 -21.0107 -21.0084 -21.0044 -21.0017
   -21.0012 -20.9939 -20.9877 -20.9858 -20.9839 -20.9810 -20.9775 -20.9769
   -20.9610 -20.9604 -20.9595 -20.9561 -20.9549 -20.9454 -20.9449 -20.9443
   -20.9411 -20.9374 -20.9368 -20.9257 -14.1873  -8.3240  -8.3207  -8.2936
    -7.3226  -7.1563  -7.1543  -5.8455  -5.5634  -5.5281  -4.6385  -4.5836
    -4.3127  -3.6380  -2.3720  -1.9261  -1.3440  -1.2868  -1.2535  -0.6151
    -0.6091  -0.5252   0.3556   0.5069   0.5436   0.8389   1.0549   1.0551
     1.4942   1.5433   1.6719   1.9118   2.0980   2.2411   2.4563   2.8917
     2.9822

          k = 0.0496-0.0572 0.0000 ( 25368 PWs)   bands (ev):

   -21.1393 -21.1239 -21.1136 -21.1101 -21.1080 -21.0992 -21.0971 -21.0926
   -21.0889 -21.0866 -21.0818 -21.0788 -21.0757 -21.0717 -21.0707 -21.0688
   -21.0680 -21.0644 -21.0606 -21.0583 -21.0557 -21.0531 -21.0518 -21.0490
   -21.0471 -21.0439 -21.0421 -21.0395 -21.0373 -21.0338 -21.0314 -21.0288
   -21.0243 -21.0218 -21.0176 -21.0157 -21.0123 -21.0040 -21.0030 -21.0021
   -20.9905 -20.9874 -20.9840 -20.9818 -20.9798 -20.9743 -20.9709 -20.9694
   -20.9625 -20.9617 -20.9588 -20.9571 -20.9515 -20.9491 -20.9450 -20.9424
   -20.9384 -20.9358 -20.9239 -20.9160 -14.1883  -8.9327  -8.1902  -7.7874
    -7.4580  -7.1051  -6.4528  -6.1641  -5.5806  -5.3969  -4.9373  -4.7888
    -4.1618  -3.5697  -2.2850  -2.0916  -1.5032  -1.3912  -0.9286  -0.8156
    -0.6421  -0.4330  -0.1488   0.0918   0.2034   0.5029   0.9008   1.0980
     1.1634   1.6034   1.7973   2.0865   2.2899   2.4112   2.5654   2.7644
     2.9211

          k =-0.0743 0.0429 0.0000 ( 25386 PWs)   bands (ev):

   -21.1448 -21.1233 -21.1163 -21.1125 -21.1077 -21.1018 -21.0986 -21.0909
   -21.0909 -21.0809 -21.0776 -21.0768 -21.0736 -21.0685 -21.0678 -21.0653
   -21.0623 -21.0618 -21.0604 -21.0576 -21.0560 -21.0523 -21.0516 -21.0505
   -21.0457 -21.0455 -21.0431 -21.0429 -21.0402 -21.0370 -21.0359 -21.0324
   -21.0282 -21.0197 -21.0137 -21.0110 -21.0092 -21.0080 -21.0005 -20.9984
   -20.9934 -20.9849 -20.9828 -20.9811 -20.9750 -20.9740 -20.9713 -20.9711
   -20.9708 -20.9674 -20.9646 -20.9620 -20.9545 -20.9492 -20.9469 -20.9445
   -20.9372 -20.9361 -20.9170 -20.9087 -14.1883  -8.6932  -8.6750  -7.5949
    -7.5225  -6.5281  -6.5092  -6.0970  -5.8810  -5.5751  -5.4845  -4.3565
    -4.2679  -3.4205  -2.2503  -1.7407  -1.2970  -1.1973  -1.0929  -1.0667
    -0.8303  -0.5945  -0.0292   0.1685   0.3468   0.6165   0.9408   1.0923
     1.2998   1.5364   1.8154   1.8170   2.0678   2.0780   2.1912   2.2119
     2.8867

          k =-0.0743 0.0715 0.0000 ( 25368 PWs)   bands (ev):

   -21.1393 -21.1239 -21.1136 -21.1101 -21.1080 -21.0992 -21.0971 -21.0926
   -21.0889 -21.0866 -21.0818 -21.0788 -21.0757 -21.0717 -21.0707 -21.0688
   -21.0680 -21.0644 -21.0606 -21.0583 -21.0557 -21.0531 -21.0518 -21.0490
   -21.0471 -21.0439 -21.0421 -21.0395 -21.0373 -21.0338 -21.0314 -21.0288
   -21.0243 -21.0218 -21.0176 -21.0157 -21.0123 -21.0040 -21.0030 -21.0021
   -20.9905 -20.9874 -20.9840 -20.9818 -20.9798 -20.9743 -20.9709 -20.9694
   -20.9625 -20.9617 -20.9588 -20.9571 -20.9515 -20.9491 -20.9450 -20.9424
   -20.9384 -20.9358 -20.9239 -20.9160 -14.1883  -8.9327  -8.1902  -7.7874
    -7.4580  -7.1051  -6.4528  -6.1641  -5.5806  -5.3969  -4.9373  -4.7888
    -4.1618  -3.5697  -2.2850  -2.0916  -1.5032  -1.3912  -0.9286  -0.8156
    -0.6421  -0.4330  -0.1488   0.0918   0.2034   0.5029   0.9008   1.0980
     1.1634   1.6034   1.7973   2.0865   2.2899   2.4112   2.5654   2.7644
     2.9211

          k =-0.0743 0.1001 0.0000 ( 25368 PWs)   bands (ev):

   -21.1393 -21.1239 -21.1136 -21.1101 -21.1080 -21.0992 -21.0971 -21.0926
   -21.0889 -21.0866 -21.0818 -21.0788 -21.0757 -21.0717 -21.0707 -21.0688
   -21.0680 -21.0644 -21.0606 -21.0583 -21.0557 -21.0531 -21.0518 -21.0490
   -21.0471 -21.0439 -21.0421 -21.0395 -21.0373 -21.0338 -21.0314 -21.0288
   -21.0243 -21.0218 -21.0176 -21.0157 -21.0123 -21.0040 -21.0030 -21.0021
   -20.9905 -20.9874 -20.9840 -20.9818 -20.9798 -20.9743 -20.9709 -20.9694
   -20.9625 -20.9617 -20.9588 -20.9571 -20.9515 -20.9491 -20.9450 -20.9424
   -20.9384 -20.9358 -20.9239 -20.9160 -14.1883  -8.9327  -8.1902  -7.7874
    -7.4580  -7.1051  -6.4528  -6.1641  -5.5806  -5.3969  -4.9373  -4.7888
    -4.1618  -3.5697  -2.2850  -2.0916  -1.5032  -1.3912  -0.9286  -0.8156
    -0.6421  -0.4330  -0.1488   0.0918   0.2034   0.5029   0.9008   1.0980
     1.1634   1.6034   1.7973   2.0865   2.2899   2.4112   2.5654   2.7644
     2.9211

          k =-0.0743-0.0429 0.0000 ( 25386 PWs)   bands (ev):

   -21.1448 -21.1233 -21.1163 -21.1125 -21.1077 -21.1018 -21.0986 -21.0909
   -21.0909 -21.0809 -21.0776 -21.0768 -21.0736 -21.0685 -21.0678 -21.0653
   -21.0623 -21.0618 -21.0604 -21.0576 -21.0560 -21.0523 -21.0516 -21.0505
   -21.0457 -21.0455 -21.0431 -21.0429 -21.0402 -21.0370 -21.0359 -21.0324
   -21.0282 -21.0197 -21.0137 -21.0110 -21.0092 -21.0080 -21.0005 -20.9984
   -20.9934 -20.9849 -20.9828 -20.9811 -20.9750 -20.9740 -20.9713 -20.9711
   -20.9708 -20.9674 -20.9646 -20.9620 -20.9545 -20.9492 -20.9469 -20.9445
   -20.9372 -20.9361 -20.9170 -20.9087 -14.1883  -8.6932  -8.6750  -7.5949
    -7.5225  -6.5281  -6.5092  -6.0970  -5.8810  -5.5751  -5.4845  -4.3565
    -4.2679  -3.4205  -2.2503  -1.7406  -1.2970  -1.1973  -1.0929  -1.0667
    -0.8303  -0.5945  -0.0292   0.1685   0.3468   0.6165   0.9408   1.0923
     1.2998   1.5364   1.8154   1.8170   2.0678   2.0780   2.1912   2.2119
     2.8867

     the Fermi energy is     0.9404 ev

!    total energy              =   -1949.78835674 Ry
     Harris-Foulkes estimate   =   -1949.78835549 Ry
     estimated scf accuracy    <       0.00000408 Ry

     The total energy is the sum of the following terms:

     one-electron contribution =  -10670.25258860 Ry
     hartree contribution      =    5401.52478169 Ry
     xc contribution           =    -540.20475774 Ry
     ewald contribution        =    3859.18995590 Ry
     electric field correction =       0.00002651 Ry
     smearing contrib. (-TS)   =      -0.04577450 Ry

     convergence has been achieved in   6 iterations
 
 BEEF-vdW xc energy contributions
           1 :   -474.524388675432     
           2 :    434.247686092032     
           3 :   -365.955993677606     
           4 :    288.656141147817     
           5 :   -220.355267010051     
           6 :    171.752342803059     
           7 :   -143.869800821782     
           8 :    130.116411784329     
           9 :   -121.244232773967     
          10 :    110.421081407790     
          11 :   -95.9324460457012     
          12 :    80.5629458636038     
          13 :   -68.6229986249166     
          14 :    62.7114497796579     
          15 :   -62.1204031404586     
          16 :    63.5441007764874     
          17 :   -63.3292708470680     
          18 :    59.6843645715040     
          19 :   -53.4982068923681     
          20 :    47.4224080349595     
          21 :   -43.9765480378333     
          22 :    43.9453219315748     
          23 :   -46.0322598336534     
          24 :    47.8534622712280     
          25 :   -47.5180375165745     
          26 :    44.7459078710552     
          27 :   -40.8694641518250     
          28 :    37.8260786388987     
          29 :   -36.8735193031938     
          30 :    37.8597768957200     
          31 :   -41.6751453377199     
          32 :   -30.3173175227726     

     Forces acting on atoms (Ry/au):


     negative rho (up, down):  7.205E-04 0.000E+00
     atom    1 type  1   force =    -0.00000240    0.00000228   -0.00407851
     atom    2 type  1   force =     0.00000265   -0.00553821   -0.00053260
     atom    3 type  1   force =    -0.00479800    0.00276969   -0.00053568
     atom    4 type  1   force =     0.00479943    0.00277139   -0.00053177
     atom    5 type  1   force =     0.00175967   -0.00101970    0.00196799
     atom    6 type  1   force =    -0.00176331   -0.00101690    0.00196581
     atom    7 type  1   force =    -0.00000227    0.00000032   -0.02767835
     atom    8 type  1   force =    -0.00000118    0.00203135    0.00196636
     atom    9 type  1   force =     0.01239423    0.00715591    0.02512409
     atom   10 type  1   force =    -0.01239256    0.00715547    0.02511604
     atom   11 type  1   force =     0.00000416   -0.01431086    0.02512453
     atom   12 type  1   force =     0.00000131   -0.00000056   -0.00336370
     atom   13 type  2   force =    -0.00000113   -0.00000027   -0.02224347
     atom   14 type  3   force =    -0.00000060    0.00000010   -0.02230074

     Total force =     0.059254     Total SCF correction =     0.002723


     entering subroutine stress ...


     negative rho (up, down):  7.205E-04 0.000E+00
          total   stress  (Ry/bohr**3)                   (kbar)     P=   -0.34
   0.00000634   0.00000000   0.00000000          0.93      0.00      0.00
   0.00000000   0.00000634  -0.00000000          0.00      0.93     -0.00
   0.00000000  -0.00000000  -0.00001953          0.00     -0.00     -2.87


     number of scf cycles    =   2
     number of bfgs steps    =   1

     energy   old            =   -1949.7841071058 Ry
     energy   new            =   -1949.7883567358 Ry

     CASE: energy  _new < energy  _old


     WARNING: bfgs curvature condition failed, Theta= 0.920
     new trust radius        =       0.0513715519 bohr
     new conv_thr            =       0.0000001000 Ry


ATOMIC_POSITIONS (crystal)
Sn1      0.166666667   0.166666667   0.392271209    0   0   0
Sn1      0.666666667   0.166666667   0.392271209    0   0   0
Sn1      0.166666667   0.666666667   0.392271209    0   0   0
Sn1      0.666666667   0.666666667   0.392271209    0   0   0
Sn1      0.833333333   0.333333333   0.500000000    0   0   0
Sn1      0.333333333   0.333333333   0.500000000    0   0   0
Sn1      0.833333333   0.833333333   0.500000000    0   0   0
Sn1      0.333333333   0.833333333   0.500000000    0   0   0
Sn1      0.001901484   0.001902215   0.609211116
Sn1      0.496197529   0.001900642   0.609210643
Sn1      0.001901613   0.496197178   0.609211447
Sn1      0.499999400   0.500000901   0.607518855
N1       0.166666185   0.166666745   0.660091413
H1       0.166666237   0.166666744   0.700856451



     Writing output data file calc.save
     Check: negative starting charge=   -0.001392
     NEW-OLD atomic charge density approx. for the potential
     Check: negative starting charge=   -0.001383

     negative rho (up, down):  7.648E-04 0.000E+00
 
     Adding external electric field

     Computed dipole along edir(3) : 
        Dipole                0.2467 Ry au,          0.6269 Debye
        Dipole field          0.0005 Ry au
 
        Potential amp.       -0.0432 Ry
        Total length         46.9696 bohr
 

     total cpu time spent up to now is     1195.4 secs

     per-process dynamical memory:   171.1 Mb

     Self-consistent Calculation

     iteration #  1     ecut=    36.75 Ry     beta=0.30
     Davidson diagonalization with overlap
     ethr =  1.00E-06,  avg # of iterations =  7.5

     negative rho (up, down):  7.319E-04 0.000E+00
 
     Adding external electric field

     Computed dipole along edir(3) : 
        Dipole               -0.6578 Ry au,         -1.6720 Debye
        Dipole field         -0.0012 Ry au
 
        Potential amp.        0.1152 Ry
        Total length         46.9696 bohr
 

     total cpu time spent up to now is     1243.3 secs

     total energy              =   -1949.76455828 Ry
     Harris-Foulkes estimate   =   -1949.79567315 Ry
     estimated scf accuracy    <       0.06370903 Ry

     iteration #  2     ecut=    36.75 Ry     beta=0.30
     Davidson diagonalization with overlap
     ethr =  3.66E-05,  avg # of iterations =  8.0

     negative rho (up, down):  7.064E-04 0.000E+00
 
     Adding external electric field

     Computed dipole along edir(3) : 
        Dipole                0.1636 Ry au,          0.4157 Debye
        Dipole field          0.0003 Ry au
 
        Potential amp.       -0.0286 Ry
[...]
    -4.4162  -3.8628  -2.5810  -2.3561  -1.9331  -1.8418  -1.5123  -1.4231
    -1.1532  -0.8207  -0.6663   0.0605   0.3975   0.7090   0.7692   0.8798
     1.1273   1.7141   2.3549   2.4472   2.5933   2.8172   3.0262   3.1767
     3.2748

          k = 0.0496-0.0286 0.0000 ( 25367 PWs)   bands (ev):

   -21.1411 -21.0883 -21.0680 -21.0662 -21.0502 -21.0396 -21.0353 -21.0345
   -21.0281 -21.0198 -21.0174 -21.0098 -21.0070 -21.0028 -21.0019 -20.9967
   -20.9904 -20.9904 -20.9848 -20.9828 -20.9759 -20.9742 -20.9697 -20.9676
   -20.9640 -20.9591 -20.9587 -20.9544 -20.9515 -20.9497 -20.9432 -20.9424
   -20.9392 -20.9377 -20.9367 -20.9352 -20.9183 -20.9095 -20.8983 -20.8957
   -20.8952 -20.8870 -20.8830 -20.8777 -20.8715 -20.8687 -20.8652 -20.8640
   -20.8609 -20.8587 -20.8544 -20.8532 -20.8489 -20.8473 -20.8423 -20.8406
   -20.8369 -20.8321 -20.8215 -20.8124 -14.9378  -9.1127  -8.0293  -7.6496
    -6.8669  -6.5646  -6.2782  -6.2128  -5.6416  -5.6143  -5.1253  -4.4262
    -4.3056  -3.7455  -2.3920  -2.3492  -1.8259  -1.7520  -1.4096  -1.0970
    -0.9241  -0.6473  -0.3744   0.1063   0.3355   0.7214   0.9851   1.0186
     1.1584   1.6250   1.7288   2.1285   2.5344   2.5443   2.8829   3.0738
     3.2666

          k = 0.0496 0.0000 0.0000 ( 25362 PWs)   bands (ev):

   -21.1465 -21.0914 -21.0754 -21.0694 -21.0462 -21.0449 -21.0367 -21.0359
   -21.0279 -21.0245 -21.0202 -21.0162 -21.0071 -21.0037 -20.9949 -20.9936
   -20.9917 -20.9909 -20.9871 -20.9853 -20.9819 -20.9744 -20.9711 -20.9689
   -20.9641 -20.9621 -20.9603 -20.9560 -20.9540 -20.9506 -20.9481 -20.9421
   -20.9404 -20.9388 -20.9371 -20.9350 -20.9191 -20.9119 -20.8961 -20.8939
   -20.8911 -20.8847 -20.8737 -20.8729 -20.8690 -20.8656 -20.8633 -20.8622
   -20.8575 -20.8527 -20.8507 -20.8486 -20.8471 -20.8417 -20.8414 -20.8381
   -20.8342 -20.8304 -20.8195 -20.8158 -14.9387  -9.2361  -8.1331  -7.1184
    -7.0413  -6.6894  -6.3910  -6.1221  -5.4351  -5.1618  -4.9272  -4.7062
    -4.4162  -3.8628  -2.5810  -2.3561  -1.9331  -1.8418  -1.5123  -1.4231
    -1.1532  -0.8207  -0.6663   0.0605   0.3975   0.7090   0.7692   0.8798
     1.1273   1.7141   2.3549   2.4472   2.5933   2.8172   3.0262   3.1767
     3.2748

          k = 0.0496 0.0286 0.0000 ( 25367 PWs)   bands (ev):

   -21.1411 -21.0883 -21.0680 -21.0662 -21.0502 -21.0396 -21.0353 -21.0345
   -21.0281 -21.0198 -21.0174 -21.0098 -21.0070 -21.0028 -21.0019 -20.9967
   -20.9904 -20.9904 -20.9848 -20.9828 -20.9759 -20.9742 -20.9697 -20.9676
   -20.9640 -20.9591 -20.9587 -20.9544 -20.9515 -20.9497 -20.9432 -20.9424
   -20.9392 -20.9377 -20.9367 -20.9352 -20.9183 -20.9095 -20.8983 -20.8957
   -20.8952 -20.8870 -20.8830 -20.8777 -20.8715 -20.8687 -20.8652 -20.8640
   -20.8609 -20.8587 -20.8544 -20.8532 -20.8489 -20.8473 -20.8423 -20.8406
   -20.8369 -20.8321 -20.8215 -20.8124 -14.9378  -9.1127  -8.0293  -7.6496
    -6.8669  -6.5645  -6.2782  -6.2128  -5.6416  -5.6143  -5.1253  -4.4262
    -4.3056  -3.7455  -2.3920  -2.3492  -1.8259  -1.7520  -1.4096  -1.0970
    -0.9241  -0.6473  -0.3744   0.1063   0.3355   0.7214   0.9851   1.0186
     1.1584   1.6250   1.7288   2.1285   2.5344   2.5443   2.8829   3.0738
     3.2666

          k = 0.0496-0.1144 0.0000 ( 25368 PWs)   bands (ev):

   -21.1257 -21.0813 -21.0631 -21.0515 -21.0483 -21.0416 -21.0325 -21.0274
   -21.0254 -21.0187 -21.0154 -21.0103 -21.0055 -20.9993 -20.9985 -20.9922
   -20.9898 -20.9826 -20.9791 -20.9779 -20.9763 -20.9734 -20.9675 -20.9658
   -20.9623 -20.9587 -20.9543 -20.9523 -20.9507 -20.9480 -20.9437 -20.9397
   -20.9370 -20.9359 -20.9290 -20.9259 -20.9151 -20.9129 -20.9058 -20.9015
   -20.8988 -20.8927 -20.8884 -20.8858 -20.8838 -20.8776 -20.8747 -20.8717
   -20.8693 -20.8634 -20.8601 -20.8553 -20.8523 -20.8497 -20.8464 -20.8450
   -20.8426 -20.8382 -20.8255 -20.8177 -14.9359  -8.7436  -8.0076  -7.7173
    -7.3037  -7.1029  -6.5020  -6.1866  -5.6439  -5.3014  -4.9931  -4.7995
    -4.1000  -3.6804  -2.6531  -2.0842  -1.4538  -1.3956  -0.8547  -0.7106
    -0.5575  -0.3688  -0.0951   0.2112   0.3124   0.6226   1.0000   1.1168
     1.2627   1.7074   1.9158   2.1613   2.4201   2.4740   2.6254   2.8157
     2.8734

          k = 0.0496-0.0858 0.0000 ( 25314 PWs)   bands (ev):

   -21.1137 -21.0745 -21.0630 -21.0519 -21.0479 -21.0454 -21.0321 -21.0296
   -21.0213 -21.0172 -21.0156 -20.9976 -20.9973 -20.9947 -20.9913 -20.9877
   -20.9872 -20.9844 -20.9816 -20.9797 -20.9746 -20.9728 -20.9688 -20.9655
   -20.9649 -20.9624 -20.9587 -20.9515 -20.9483 -20.9445 -20.9403 -20.9398
   -20.9378 -20.9325 -20.9219 -20.9205 -20.9163 -20.9141 -20.9095 -20.9076
   -20.9033 -20.8998 -20.8924 -20.8858 -20.8838 -20.8817 -20.8775 -20.8757
   -20.8690 -20.8624 -20.8586 -20.8578 -20.8546 -20.8540 -20.8491 -20.8473
   -20.8440 -20.8429 -20.8334 -20.8218 -14.9349  -8.1907  -8.1114  -8.0855
    -7.3013  -7.2003  -7.0842  -5.8273  -5.6556  -5.6141  -4.7222  -4.4293
    -4.2154  -3.6952  -2.9256  -1.9168  -1.1830  -1.1782  -1.0460  -0.6552
    -0.6245  -0.5936   0.3885   0.5802   0.6889   1.0086   1.1253   1.1610
     1.6135   1.6294   1.8559   2.0379   2.0503   2.2386   2.4813   3.1003
     3.1525

          k = 0.0496-0.0572 0.0000 ( 25368 PWs)   bands (ev):

   -21.1257 -21.0813 -21.0631 -21.0515 -21.0483 -21.0416 -21.0325 -21.0274
   -21.0254 -21.0187 -21.0154 -21.0103 -21.0055 -20.9993 -20.9985 -20.9922
   -20.9898 -20.9826 -20.9791 -20.9779 -20.9763 -20.9734 -20.9675 -20.9658
   -20.9623 -20.9587 -20.9543 -20.9523 -20.9507 -20.9480 -20.9437 -20.9397
   -20.9370 -20.9359 -20.9290 -20.9259 -20.9151 -20.9129 -20.9058 -20.9015
   -20.8988 -20.8927 -20.8884 -20.8858 -20.8838 -20.8776 -20.8747 -20.8717
   -20.8693 -20.8634 -20.8601 -20.8553 -20.8523 -20.8497 -20.8464 -20.8450
   -20.8426 -20.8382 -20.8255 -20.8177 -14.9359  -8.7436  -8.0076  -7.7173
    -7.3037  -7.1029  -6.5020  -6.1866  -5.6439  -5.3014  -4.9931  -4.7995
    -4.1000  -3.6804  -2.6531  -2.0842  -1.4538  -1.3956  -0.8547  -0.7106
    -0.5575  -0.3688  -0.0951   0.2112   0.3124   0.6226   1.0000   1.1168
     1.2627   1.7074   1.9158   2.1613   2.4201   2.4740   2.6254   2.8157
     2.8734

          k =-0.0743 0.0429 0.0000 ( 25386 PWs)   bands (ev):

   -21.1285 -21.0806 -21.0598 -21.0528 -21.0446 -21.0401 -21.0297 -21.0269
   -21.0261 -21.0210 -21.0170 -21.0149 -21.0083 -21.0071 -20.9943 -20.9901
   -20.9859 -20.9839 -20.9809 -20.9808 -20.9781 -20.9724 -20.9709 -20.9634
   -20.9600 -20.9567 -20.9528 -20.9511 -20.9497 -20.9423 -20.9422 -20.9400
   -20.9371 -20.9354 -20.9280 -20.9195 -20.9163 -20.9063 -20.9059 -20.9046
   -20.8976 -20.8959 -20.8901 -20.8888 -20.8841 -20.8806 -20.8782 -20.8748
   -20.8717 -20.8699 -20.8618 -20.8559 -20.8535 -20.8509 -20.8457 -20.8455
   -20.8405 -20.8347 -20.8228 -20.8126 -14.9359  -8.5375  -8.4541  -7.5372
    -7.4885  -6.4676  -6.3763  -6.0804  -5.9580  -5.7088  -5.4265  -4.3036
    -4.3012  -3.5576  -2.5692  -1.8763  -1.2534  -1.0920  -1.0570  -0.8930
    -0.8328  -0.5006   0.0981   0.2659   0.4259   0.8373   1.0432   1.1874
     1.4508   1.5956   1.7671   1.8203   2.1583   2.2208   2.2355   2.2838
     3.0793

          k =-0.0743 0.0715 0.0000 ( 25368 PWs)   bands (ev):

   -21.1257 -21.0813 -21.0631 -21.0515 -21.0483 -21.0416 -21.0325 -21.0274
   -21.0254 -21.0187 -21.0154 -21.0103 -21.0055 -20.9993 -20.9985 -20.9922
   -20.9898 -20.9826 -20.9791 -20.9779 -20.9763 -20.9734 -20.9675 -20.9658
   -20.9623 -20.9587 -20.9543 -20.9523 -20.9507 -20.9480 -20.9437 -20.9397
   -20.9370 -20.9359 -20.9290 -20.9259 -20.9151 -20.9129 -20.9058 -20.9015
   -20.8988 -20.8927 -20.8884 -20.8858 -20.8838 -20.8776 -20.8747 -20.8717
   -20.8693 -20.8634 -20.8601 -20.8553 -20.8523 -20.8497 -20.8464 -20.8450
   -20.8426 -20.8382 -20.8255 -20.8177 -14.9359  -8.7436  -8.0076  -7.7173
    -7.3037  -7.1029  -6.5020  -6.1866  -5.6439  -5.3014  -4.9931  -4.7995
    -4.1000  -3.6804  -2.6531  -2.0842  -1.4537  -1.3956  -0.8547  -0.7106
    -0.5575  -0.3688  -0.0951   0.2112   0.3124   0.6226   1.0000   1.1168
     1.2627   1.7074   1.9158   2.1613   2.4201   2.4740   2.6254   2.8157
     2.8734

          k =-0.0743 0.1001 0.0000 ( 25368 PWs)   bands (ev):

   -21.1257 -21.0813 -21.0631 -21.0515 -21.0483 -21.0416 -21.0325 -21.0274
   -21.0254 -21.0187 -21.0154 -21.0103 -21.0055 -20.9993 -20.9985 -20.9922
   -20.9898 -20.9826 -20.9791 -20.9779 -20.9763 -20.9734 -20.9675 -20.9658
   -20.9623 -20.9587 -20.9543 -20.9523 -20.9507 -20.9480 -20.9437 -20.9397
   -20.9370 -20.9359 -20.9290 -20.9259 -20.9151 -20.9129 -20.9058 -20.9015
   -20.8988 -20.8927 -20.8884 -20.8858 -20.8838 -20.8776 -20.8747 -20.8717
   -20.8693 -20.8634 -20.8601 -20.8553 -20.8523 -20.8497 -20.8464 -20.8450
   -20.8426 -20.8382 -20.8255 -20.8177 -14.9359  -8.7436  -8.0076  -7.7173
    -7.3037  -7.1029  -6.5020  -6.1866  -5.6439  -5.3014  -4.9931  -4.7995
    -4.1000  -3.6804  -2.6531  -2.0842  -1.4537  -1.3956  -0.8547  -0.7106
    -0.5575  -0.3688  -0.0951   0.2112   0.3124   0.6226   1.0000   1.1168
     1.2627   1.7074   1.9158   2.1613   2.4201   2.4740   2.6254   2.8157
     2.8734

          k =-0.0743-0.0429 0.0000 ( 25386 PWs)   bands (ev):

   -21.1285 -21.0806 -21.0598 -21.0528 -21.0446 -21.0401 -21.0297 -21.0269
   -21.0261 -21.0210 -21.0170 -21.0149 -21.0083 -21.0071 -20.9943 -20.9901
   -20.9859 -20.9839 -20.9809 -20.9808 -20.9781 -20.9724 -20.9709 -20.9634
   -20.9600 -20.9567 -20.9528 -20.9511 -20.9497 -20.9423 -20.9422 -20.9400
   -20.9371 -20.9354 -20.9280 -20.9195 -20.9163 -20.9063 -20.9059 -20.9046
   -20.8976 -20.8959 -20.8901 -20.8888 -20.8841 -20.8806 -20.8782 -20.8748
   -20.8717 -20.8699 -20.8618 -20.8559 -20.8535 -20.8509 -20.8457 -20.8455
   -20.8405 -20.8347 -20.8228 -20.8126 -14.9359  -8.5375  -8.4541  -7.5372
    -7.4885  -6.4676  -6.3763  -6.0804  -5.9580  -5.7089  -5.4265  -4.3036
    -4.3012  -3.5576  -2.5692  -1.8763  -1.2534  -1.0920  -1.0570  -0.8930
    -0.8328  -0.5006   0.0981   0.2659   0.4259   0.8373   1.0432   1.1874
     1.4508   1.5956   1.7671   1.8203   2.1583   2.2208   2.2355   2.2838
     3.0793

     the Fermi energy is     1.0161 ev

!    total energy              =   -1949.80420999 Ry
     Harris-Foulkes estimate   =   -1949.80421009 Ry
     estimated scf accuracy    <          4.2E-09 Ry

     The total energy is the sum of the following terms:

     one-electron contribution =  -10510.51046915 Ry
     hartree contribution      =    5321.97735718 Ry
     xc contribution           =    -540.22506813 Ry
     ewald contribution        =    3779.00054820 Ry
     electric field correction =       0.00010270 Ry
     smearing contrib. (-TS)   =      -0.04668079 Ry

     convergence has been achieved in   8 iterations
 
 BEEF-vdW xc energy contributions
           1 :   -474.542983321071     
           2 :    434.240090569328     
           3 :   -365.893054061299     
           4 :    288.527043215954     
           5 :   -220.183980013226     
           6 :    171.585521368710     
           7 :   -143.749669022008     
           8 :    130.059704214386     
           9 :   -121.238790951541     
          10 :    110.438555162566     
          11 :   -95.9462157089796     
          12 :    80.5605724266994     
          13 :   -68.6084181104299     
          14 :    62.6970094979968     
          15 :   -62.1157305668813     
          16 :    63.5501712475333     
          17 :   -63.3396125777908     
          18 :    59.6903559583734     
          19 :   -53.4949711688490     
          20 :    47.4115842826260     
          21 :   -43.9642841085623     
          22 :    43.9374574573533     
          23 :   -46.0302143918135     
          24 :    47.8539078180388     
          25 :   -47.5159277642842     
          26 :    44.7385095507632     
          27 :   -40.8585099906833     
          28 :    37.8163430388203     
          29 :   -36.8692304119606     
          30 :    37.8616251649195     
          31 :   -41.6736978431427     
          32 :   -30.3050354422368     

     Forces acting on atoms (Ry/au):


     negative rho (up, down):  6.977E-04 0.000E+00
     atom    1 type  1   force =    -0.00000031    0.00000007   -0.00576634
     atom    2 type  1   force =     0.00000045   -0.00442311   -0.00299175
     atom    3 type  1   force =    -0.00383083    0.00221160   -0.00299159
     atom    4 type  1   force =     0.00383055    0.00221125   -0.00299170
     atom    5 type  1   force =     0.00339572   -0.00196068    0.00780183
     atom    6 type  1   force =    -0.00339603   -0.00196031    0.00780227
     atom    7 type  1   force =     0.00000014   -0.00000005   -0.01441387
     atom    8 type  1   force =    -0.00000002    0.00392141    0.00780205
     atom    9 type  1   force =     0.00054053    0.00031242    0.00076141
     atom   10 type  1   force =    -0.00053943    0.00031141    0.00076034
     atom   11 type  1   force =    -0.00000020   -0.00062441    0.00076051
     atom   12 type  1   force =     0.00000051   -0.00000022   -0.00023447
     atom   13 type  2   force =    -0.00000146    0.00000078    0.00188944
     atom   14 type  3   force =     0.00000038   -0.00000016    0.00181186

     Total force =     0.003132     Total SCF correction =     0.000212


     entering subroutine stress ...


     negative rho (up, down):  6.977E-04 0.000E+00
          total   stress  (Ry/bohr**3)                   (kbar)     P=    1.70
   0.00001731  -0.00000000  -0.00000000          2.55     -0.00     -0.00
  -0.00000000   0.00001731   0.00000000         -0.00      2.55      0.00
  -0.00000000   0.00000000   0.00000006         -0.00      0.00      0.01


     bfgs converged in  11 scf cycles and  10 bfgs steps
     (criteria: energy <  1.0E+00, force <  1.9E-03)

     End of BFGS Geometry Optimization

     Final energy   =   -1949.8042099903 Ry
Begin final coordinates

ATOMIC_POSITIONS (crystal)
Sn1      0.166666667   0.166666667   0.392271209    0   0   0
Sn1      0.666666667   0.166666667   0.392271209    0   0   0
Sn1      0.166666667   0.666666667   0.392271209    0   0   0
Sn1      0.666666667   0.666666667   0.392271209    0   0   0
Sn1      0.833333333   0.333333333   0.500000000    0   0   0
Sn1      0.333333333   0.333333333   0.500000000    0   0   0
Sn1      0.833333333   0.833333333   0.500000000    0   0   0
Sn1      0.333333333   0.833333333   0.500000000    0   0   0
Sn1     -0.003186939  -0.003185287   0.615751735
Sn1      0.506371068  -0.003185077   0.615751584
Sn1     -0.003186663   0.506374256   0.615752405
Sn1      0.499998559   0.500001474   0.606198666
N1       0.166667086   0.166666896   0.657179089
H1       0.166666914   0.166665863   0.697397399
End final coordinates



     Writing output data file calc.save
 
     init_run     :     15.27s CPU     15.81s WALL (       1 calls)
     electrons    :   4799.12s CPU   4949.78s WALL (      11 calls)
     update_pot   :     52.51s CPU     54.29s WALL (      10 calls)
     forces       :    321.18s CPU    327.28s WALL (      11 calls)
     stress       :    903.31s CPU    926.96s WALL (      11 calls)

     Called by init_run:
     wfcinit      :      4.75s CPU      4.83s WALL (       1 calls)
     potinit      :      3.16s CPU      3.36s WALL (       1 calls)

     Called by electrons:
     c_bands      :   1659.78s CPU   1695.70s WALL (      99 calls)
     sum_band     :    919.97s CPU    943.26s WALL (      99 calls)
     v_of_rho     :    311.67s CPU    330.01s WALL (     110 calls)
     newd         :    983.24s CPU    994.09s WALL (     110 calls)
     mix_rho      :      8.96s CPU      9.15s WALL (      99 calls)
     vdW_energy   :    214.40s CPU    247.06s WALL (     506 calls)
     vdW_ffts     :    611.47s CPU    625.09s WALL (    1034 calls)
     vdW_v        :    171.32s CPU    177.67s WALL (     506 calls)

     Called by c_bands:
     init_us_2    :     14.10s CPU     14.19s WALL (    1105 calls)
     cegterg      :   1591.49s CPU   1619.20s WALL (     495 calls)

     Called by *egterg:
     h_psi        :   1026.83s CPU   1048.78s WALL (    3068 calls)
     s_psi        :     86.37s CPU     86.54s WALL (    3068 calls)
     g_psi        :      5.83s CPU      5.84s WALL (    2568 calls)
     cdiaghg      :    127.43s CPU    128.35s WALL (    3013 calls)

     Called by h_psi:
     add_vuspsi   :     89.75s CPU     89.92s WALL (    3068 calls)

     General routines
     calbec       :    130.02s CPU    132.07s WALL (    3673 calls)
     fft          :    862.24s CPU    899.14s WALL (   30403 calls)
     ffts         :      0.53s CPU      0.56s WALL (     209 calls)
     fftw         :    588.10s CPU    610.68s WALL (  318795 calls)
     interpolate  :      7.35s CPU      7.51s WALL (     209 calls)
     davcio       :      0.00s CPU      0.03s WALL (       5 calls)
 
     Parallel routines
     fft_scatter  :    863.22s CPU    916.54s WALL (  349407 calls)
 
     PWSCF        :     1h42m CPU        1h46m WALL

 
   This run was terminated on:   5:58:38  23Apr2018            

=------------------------------------------------------------------------------=
   JOB DONE.
=------------------------------------------------------------------------------=
Job  /afs/slac/g/suncat/bin/suncat-tsmpirun -x LD_LIBRARY_PATH -wdir /scratch/qe386667_Tw6GB pw.x -npool 4 -in pw.inp

TID   HOST_NAME   COMMAND_LINE            STATUS            TERMINATION_TIME
===== ========== ================  =======================  ===================
00000 suncat0056 pw.x -npool 4 -i  Done                     04/23/2018 05:58:38
00001 suncat0056 pw.x -npool 4 -i  Done                     04/23/2018 05:58:38
00002 suncat0056 pw.x -npool 4 -i  Done                     04/23/2018 05:58:38
00003 suncat0056 pw.x -npool 4 -i  Done                     04/23/2018 05:58:38
00004 suncat0056 pw.x -npool 4 -i  Done                     04/23/2018 05:58:38
00005 suncat0056 pw.x -npool 4 -i  Done                     04/23/2018 05:58:38
00006 suncat0056 pw.x -npool 4 -i  Done                     04/23/2018 05:58:38
00007 suncat0056 pw.x -npool 4 -i  Done                     04/23/2018 05:58:38
00008 suncat0019 pw.x -npool 4 -i  Done                     04/23/2018 05:58:38
00009 suncat0019 pw.x -npool 4 -i  Done                     04/23/2018 05:58:38
00010 suncat0019 pw.x -npool 4 -i  Done                     04/23/2018 05:58:38
00011 suncat0019 pw.x -npool 4 -i  Done                     04/23/2018 05:58:38
00012 suncat0019 pw.x -npool 4 -i  Done                     04/23/2018 05:58:38
00013 suncat0019 pw.x -npool 4 -i  Done                     04/23/2018 05:58:38
00014 suncat0019 pw.x -npool 4 -i  Done                     04/23/2018 05:58:38
00015 suncat0019 pw.x -npool 4 -i  Done                     04/23/2018 05:58:38
00016 suncat0214 pw.x -npool 4 -i  Done                     04/23/2018 05:58:38
00017 suncat0214 pw.x -npool 4 -i  Done                     04/23/2018 05:58:38
00018 suncat0214 pw.x -npool 4 -i  Done                     04/23/2018 05:58:38
00019 suncat0214 pw.x -npool 4 -i  Done                     04/23/2018 05:58:38
00020 suncat0214 pw.x -npool 4 -i  Done                     04/23/2018 05:58:38
00021 suncat0214 pw.x -npool 4 -i  Done                     04/23/2018 05:58:38
00022 suncat0214 pw.x -npool 4 -i  Done                     04/23/2018 05:58:38
00023 suncat0214 pw.x -npool 4 -i  Done                     04/23/2018 05:58:38
00024 suncat0209 pw.x -npool 4 -i  Done                     04/23/2018 05:58:38
00025 suncat0209 pw.x -npool 4 -i  Done                     04/23/2018 05:58:38
00026 suncat0209 pw.x -npool 4 -i  Done                     04/23/2018 05:58:38
00027 suncat0209 pw.x -npool 4 -i  Done                     04/23/2018 05:58:38
00028 suncat0209 pw.x -npool 4 -i  Done                     04/23/2018 05:58:38
00029 suncat0209 pw.x -npool 4 -i  Done                     04/23/2018 05:58:38
00030 suncat0209 pw.x -npool 4 -i  Done                     04/23/2018 05:58:38
00031 suncat0209 pw.x -npool 4 -i  Done                     04/23/2018 05:58:38
