  python dir          : /nfs/slac/g/suncatfs/sw/espv20/lib/python2.7/site-packages/espresso
  espresso dir        : /nfs/slac/g/suncatfs/sw/espv18/espresso-dynpy-beef/bin
  pseudo dir          : /afs/slac.stanford.edu/u/if/mamunm/psp/gbrv1.5pbe
  ase-espresso py git : ffa2778-git



     Program PWSCF v.5.1rc2 (svn rev. 11289) starts on 16Jan2018 at 11:14:50 

     This program is part of the open-source Quantum ESPRESSO suite
     for quantum simulation of materials; please cite
         "P. Giannozzi et al., J. Phys.:Condens. Matter 21 395502 (2009);
          URL http://www.quantum-espresso.org", 
     in publications or presentations arising from this work. More details at
     http://www.quantum-espresso.org/quote

     Parallel version (MPI), running on    32 processors
     R & G space division:  proc/nbgrp/npool/nimage =      32
     Reading input from pw.inp
     Message from routine read_cards :
     DEPRECATED: no units specified in CELL_PARAMETERS card

     Current dimensions of program PWSCF are:
     Max number of different atomic species (ntypx) = 10
     Max number of k-points (npk) =  40000
     Max angular momentum in pseudopotentials (lmaxx) =  3
     Presently stress not available with electric field


     **************************************************************************
     Initializing libbeef V0.1.1 with the BEEF-vdW functional.
     Citation: Wellendorff et al., PRB 85, 235149 (2012).
     **************************************************************************


     IMPORTANT: XC functional enforced from input :
     Exchange-correlation      = BEEF-VDW ( 1  4 27 13 2)
     Any further DFT definition will be discarded
     Please, verify this is what you really want


     Subspace diagonalization in iterative solution of the eigenvalue problem:
     a serial algorithm will be used

 
     Parallelization info
     --------------------
     sticks:   dense  smooth     PW     G-vecs:    dense   smooth      PW
     Min         123      49     14                24159     6095     922
     Max         124      50     15                24174     6130     942
     Sum        3949    1585    451               773273   195593   29841
 


     bravais-lattice index     =            0
     lattice parameter (alat)  =       1.8897  a.u.
     unit-cell volume          =    6501.5726 (a.u.)^3
     number of atoms/cell      =           13
     number of atomic types    =            2
     number of electrons       =       162.00
     number of Kohn-Sham states=           91
     kinetic-energy cutoff     =      36.7493  Ry
     charge density cutoff     =     367.4932  Ry
     convergence threshold     =      1.0E-05
     mixing beta               =       0.3000
     number of iterations used =           10  plain     mixing
     Exchange-correlation      = BEEF-VDW ( 1  4 27 13 2)
     nstep                     =           50


     celldm(1)=   1.889726  celldm(2)=   0.000000  celldm(3)=   0.000000
     celldm(4)=   0.000000  celldm(5)=   0.000000  celldm(6)=   0.000000

     crystal axes: (cart. coord. in units of alat)
               a(1) = (   6.617606   0.000000   0.000000 )  
               a(2) = (   3.308803   5.731015   0.000000 )  
               a(3) = (   0.000000   0.000000  25.403253 )  

     reciprocal axes: (cart. coord. in units 2 pi/alat)
               b(1) = (  0.151112 -0.087245  0.000000 )  
               b(2) = (  0.000000  0.174489  0.000000 )  
               b(3) = (  0.000000  0.000000  0.039365 )  


     PseudoPot. # 1 for In read from file:
     /afs/slac.stanford.edu/u/if/mamunm/psp/gbrv1.5pbe/In.UPF
     MD5 check sum: 90777abd96fbb83f2e67db2a40c566b9
     Pseudo is Ultrasoft + core correction, Zval = 13.0
     Generated by new atomic code, or converted to UPF format
     Using radial grid of  889 points,  6 beta functions with: 
                l(1) =   0
                l(2) =   0
                l(3) =   1
                l(4) =   1
                l(5) =   2
                l(6) =   2
     Q(r) pseudized with  6 coefficients,  rinner =    1.400   1.400   1.400
                                                       1.400   1.400

     PseudoPot. # 2 for O  read from file:
     /afs/slac.stanford.edu/u/if/mamunm/psp/gbrv1.5pbe/O.UPF
     MD5 check sum: 734c27235a0248c51dbae37a1fbe46ec
     Pseudo is Ultrasoft + core correction, Zval =  6.0
     Generated by new atomic code, or converted to UPF format
     Using radial grid of  737 points,  5 beta functions with: 
                l(1) =   0
                l(2) =   0
                l(3) =   1
                l(4) =   1
                l(5) =   2
     Q(r) pseudized with  8 coefficients,  rinner =    0.900   0.900   0.900
                                                       0.900   0.900

     vdW kernel table read from file vdW_kernel_table
     MD5 check sum: 095c7af220d748ca6e76c0b4c6cfb241

     atomic species   valence    mass     pseudopotential
        In1           13.00   114.81800     In( 1.00)
        O1             6.00    15.99900     O ( 1.00)

     No symmetry found



   Cartesian axes

     site n.     atom                  positions (alat units)
         1           In1 tau(   1) = (   1.6544016   0.9551692  10.0000000  )
         2           In1 tau(   2) = (   4.9632047   0.9551692  10.0000000  )
         3           In1 tau(   3) = (   3.3088031   3.8206768  10.0000000  )
         4           In1 tau(   4) = (   6.6176063   3.8206768  10.0000000  )
         5           In1 tau(   5) = (   6.6176063   1.9103384  12.7016265  )
         6           In1 tau(   6) = (   3.3088031   1.9103384  12.7016265  )
         7           In1 tau(   7) = (   8.2720078   4.7758460  12.7016265  )
         8           In1 tau(   8) = (   4.9632047   4.7758460  12.7016265  )
         9           In1 tau(   9) = (   0.0000000   0.0000000  15.4032529  )
        10           In1 tau(  10) = (   3.3088031   0.0000000  15.4032529  )
        11           In1 tau(  11) = (   1.6544016   2.8655076  15.4032529  )
        12           In1 tau(  12) = (   4.9632047   2.8655076  15.4032529  )
        13           O1  tau(  13) = (   0.0000000   0.0000000  17.4832529  )

     number of k points=    20  Fermi-Dirac smearing, width (Ry)=  0.0110
                       cart. coord. in units 2pi/alat
        k(    1) = (   0.0000000   0.0000000   0.0000000), wk =   0.0555556
        k(    2) = (   0.0000000   0.0290815   0.0000000), wk =   0.1111111
        k(    3) = (   0.0000000   0.0581631   0.0000000), wk =   0.1111111
        k(    4) = (   0.0000000  -0.0872446   0.0000000), wk =   0.0555556
        k(    5) = (   0.0251853  -0.0145408   0.0000000), wk =   0.1111111
        k(    6) = (   0.0251853   0.0145408   0.0000000), wk =   0.1111111
        k(    7) = (   0.0251853   0.0436223   0.0000000), wk =   0.1111111
        k(    8) = (   0.0251853  -0.1017853   0.0000000), wk =   0.1111111
        k(    9) = (   0.0251853  -0.0727038   0.0000000), wk =   0.1111111
        k(   10) = (   0.0251853  -0.0436223   0.0000000), wk =   0.1111111
        k(   11) = (   0.0503707  -0.0290815   0.0000000), wk =   0.1111111
        k(   12) = (   0.0503707   0.0000000   0.0000000), wk =   0.1111111
        k(   13) = (   0.0503707   0.0290815   0.0000000), wk =   0.1111111
        k(   14) = (   0.0503707  -0.1163261   0.0000000), wk =   0.1111111
        k(   15) = (   0.0503707  -0.0872446   0.0000000), wk =   0.1111111
        k(   16) = (   0.0503707  -0.0581631   0.0000000), wk =   0.1111111
        k(   17) = (  -0.0755560   0.0436223   0.0000000), wk =   0.0555556
        k(   18) = (  -0.0755560   0.0727038   0.0000000), wk =   0.1111111
        k(   19) = (  -0.0755560   0.1017853   0.0000000), wk =   0.1111111
        k(   20) = (  -0.0755560  -0.0436223   0.0000000), wk =   0.0555556

     Dense  grid:   773273 G-vectors     FFT dimensions: (  80,  80, 300)

     Smooth grid:   195593 G-vectors     FFT dimensions: (  50,  50, 192)

     Largest allocated arrays     est. size (Mb)     dimensions
        Kohn-Sham Wavefunctions         1.13 Mb     (     813,   91)
        NL pseudopotentials             2.84 Mb     (     813,  229)
        Each V/rho on FFT grid          0.98 Mb     (   64000)
        Each G-vector array             0.18 Mb     (   24161)
        G-vector shells                 0.08 Mb     (   10769)
     Largest temporary arrays     est. size (Mb)     dimensions
        Auxiliary wavefunctions         4.52 Mb     (     813,  364)
        Each subspace H/S matrix        2.02 Mb     (     364,  364)
        Each <psi_i|beta_j> matrix      0.32 Mb     (     229,   91)
        Arrays for rho mixing           9.77 Mb     (   64000,   10)

     Initial potential from superposition of free atoms
     Check: negative starting charge=   -0.000402

     starting charge  143.99999, renormalised to  162.00000

     negative rho (up, down):  4.524E-04 0.000E+00


     ************************************************************************
     *
     * You are using vdW-DF for exchange-correlation in this calculation.
     * Please cite the following three references that made this development
     * possible:
     *
     *   M. Dion, H. Rydberg, E. Schroder, D. C. Langreth, and
     *   B. I. Lundqvist, Phys. Rev. Lett. 92, 246401 (2004).
     *
     *   T. Thonhauser, V. R. Cooper, S. Li, A. Puzder, P. Hyldgaard, and
     *   D. C. Langreth, Phys. Rev. B 76, 125112 (2007).
     *
     *   G. Roman-Perez and J. M. Soler, Phys. Rev. Lett. 103, 096102 (2009).
     *
     *
     * If you are using vdW-DF2, please also cite:
     *
     *   K. Lee, E. D. Murray, L. Kong, B. I. Lundqvist, and
     *   D. C. Langreth, Phys. Rev. B 82, 081101(R) (2010).
     *
     *
     * If you are calculating the stress with vdW-DF, please also cite:
     *
     *   R. Sabatini, E. Kucukbenli, B. Kolb, T. Thonhauser, and
     *   S. de Gironcoli, J. Phys.: Condens. Matter 24, 424209 (2012).
     *
     ************************************************************************

     Carrying out vdW-DF run using the following parameters:

     Nqs =      20    Nr_points =    1024   r_max =   100.000
     q_mesh =
               0.00001000     0.04494208     0.09755937     0.15916263
               0.23128650     0.31572767     0.41458969     0.53033537
               0.66584808     0.82450364     1.01025438     1.22772762
               1.48234092     1.78043706     2.12944203     2.53805004
               3.01644009     3.57652955     4.23227104     5.00000000

     Gradients computed in reciprocal space

     ************************************************************************


 
     Adding external electric field

     Computed dipole along edir(3) : 
        Dipole               -6.7770 Ry au,        -17.2253 Debye
        Dipole field         -0.0131 Ry au
 
        Potential amp.        1.2262 Ry
        Total length         46.8051 bohr
 
     Starting wfc are  112 randomized atomic wfcs

     total cpu time spent up to now is        7.6 secs

     Self-consistent Calculation

     iteration #  1     ecut=    36.75 Ry     beta=0.30
     Davidson diagonalization with overlap
     ethr =  1.00E-02,  avg # of iterations =  8.5

     negative rho (up, down):  1.117E-04 0.000E+00
 
     Adding external electric field

     Computed dipole along edir(3) : 
        Dipole              143.4113 Ry au,        364.5150 Debye
        Dipole field          0.2772 Ry au
 
        Potential amp.      -25.9476 Ry
        Total length         46.8051 bohr
 

     total cpu time spent up to now is       36.0 secs

     total energy              =   -1085.19799514 Ry
     Harris-Foulkes estimate   =   -1636.06828831 Ry
     estimated scf accuracy    <    1178.95289953 Ry

     iteration #  2     ecut=    36.75 Ry     beta=0.30
     Davidson diagonalization with overlap
     ethr =  1.00E-02,  avg # of iterations = 22.8
 
     Adding external electric field

     Computed dipole along edir(3) : 
        Dipole               37.2658 Ry au,         94.7203 Debye
        Dipole field          0.0720 Ry au
 
        Potential amp.       -6.7426 Ry
        Total length         46.8051 bohr
 

     total cpu time spent up to now is      128.5 secs

     total energy              =   -1373.56147104 Ry
     Harris-Foulkes estimate   =   -2949.31716302 Ry
     estimated scf accuracy    <   15179.26540942 Ry

     iteration #  3     ecut=    36.75 Ry     beta=0.30
     Davidson diagonalization with overlap
     ethr =  1.00E-02,  avg # of iterations = 13.7
 
     Adding external electric field

     Computed dipole along edir(3) : 
        Dipole               33.8747 Ry au,         86.1009 Debye
        Dipole field          0.0655 Ry au
 
        Potential amp.       -6.1290 Ry
        Total length         46.8051 bohr
 

     total cpu time spent up to now is      183.1 secs

     total energy              =   -1602.34250216 Ry
     Harris-Foulkes estimate   =   -1964.39070760 Ry
     estimated scf accuracy    <    2988.67871087 Ry

     iteration #  4     ecut=    36.75 Ry     beta=0.30
     Davidson diagonalization with overlap
     ethr =  1.00E-02,  avg # of iterations = 17.1
 
     Adding external electric field

     Computed dipole along edir(3) : 
        Dipole               25.6982 Ry au,         65.3182 Debye
        Dipole field          0.0497 Ry au
 
        Potential amp.       -4.6496 Ry
        Total length         46.8051 bohr
 

     total cpu time spent up to now is      231.2 secs

     total energy              =   -1665.82238077 Ry
     Harris-Foulkes estimate   =   -1685.04824239 Ry
     estimated scf accuracy    <      89.40428289 Ry

     iteration #  5     ecut=    36.75 Ry     beta=0.30
     Davidson diagonalization with overlap
     ethr =  1.00E-02,  avg # of iterations =  2.6
 
     Adding external electric field

     Computed dipole along edir(3) : 
        Dipole               19.4983 Ry au,         49.5597 Debye
        Dipole field          0.0377 Ry au
 
        Potential amp.       -3.5279 Ry
        Total length         46.8051 bohr
 

     total cpu time spent up to now is      245.0 secs

     total energy              =   -1655.48822155 Ry
     Harris-Foulkes estimate   =   -1668.54195653 Ry
     estimated scf accuracy    <      89.21954803 Ry

     iteration #  6     ecut=    36.75 Ry     beta=0.30
     Davidson diagonalization with overlap
     ethr =  1.00E-02,  avg # of iterations =  3.0
 
     Adding external electric field

     Computed dipole along edir(3) : 
        Dipole               15.8891 Ry au,         40.3861 Debye
        Dipole field          0.0307 Ry au
 
        Potential amp.       -2.8748 Ry
        Total length         46.8051 bohr
 

     total cpu time spent up to now is      258.6 secs

     total energy              =   -1654.27434511 Ry
     Harris-Foulkes estimate   =   -1657.51915313 Ry
     estimated scf accuracy    <      20.53896303 Ry

     iteration #  7     ecut=    36.75 Ry     beta=0.30
     Davidson diagonalization with overlap
     ethr =  1.00E-02,  avg # of iterations =  1.2
 
     Adding external electric field

     Computed dipole along edir(3) : 
        Dipole               12.0419 Ry au,         30.6073 Debye
        Dipole field          0.0233 Ry au
 
        Potential amp.       -2.1788 Ry
        Total length         46.8051 bohr
 

     total cpu time spent up to now is      270.3 secs

     total energy              =   -1651.89035166 Ry
     Harris-Foulkes estimate   =   -1654.84176664 Ry
     estimated scf accuracy    <      17.94527547 Ry

     iteration #  8     ecut=    36.75 Ry     beta=0.30
     Davidson diagonalization with overlap
     ethr =  1.00E-02,  avg # of iterations =  1.1
 
     Adding external electric field

     Computed dipole along edir(3) : 
        Dipole                8.9123 Ry au,         22.6527 Debye
        Dipole field          0.0172 Ry au
 
        Potential amp.       -1.6125 Ry
        Total length         46.8051 bohr
 

     total cpu time spent up to now is      282.1 secs

     total energy              =   -1650.93364525 Ry
     Harris-Foulkes estimate   =   -1652.34267228 Ry
     estimated scf accuracy    <       6.57629380 Ry

     iteration #  9     ecut=    36.75 Ry     beta=0.30
     Davidson diagonalization with overlap
     ethr =  4.06E-03,  avg # of iterations =  1.2

     negative rho (up, down):  9.458E-02 0.000E+00
 
     Adding external electric field

     Computed dipole along edir(3) : 
        Dipole                1.1862 Ry au,          3.0151 Debye
        Dipole field          0.0023 Ry au
 
        Potential amp.       -0.2146 Ry
        Total length         46.8051 bohr
 

     total cpu time spent up to now is      294.4 secs

     total energy              =   -1648.84395121 Ry
     Harris-Foulkes estimate   =   -1651.44070890 Ry
     estimated scf accuracy    <       9.26017648 Ry

     iteration # 10     ecut=    36.75 Ry     beta=0.30
     Davidson diagonalization with overlap
     ethr =  4.06E-03,  avg # of iterations =  3.3

     negative rho (up, down):  4.986E-02 0.000E+00
 
     Adding external electric field

     Computed dipole along edir(3) : 
        Dipole                1.9822 Ry au,          5.0381 Debye
        Dipole field          0.0038 Ry au
 
        Potential amp.       -0.3586 Ry
        Total length         46.8051 bohr
 

     total cpu time spent up to now is      309.2 secs

     total energy              =   -1649.72688633 Ry
     Harris-Foulkes estimate   =   -1650.31074111 Ry
     estimated scf accuracy    <      12.35467948 Ry

     iteration # 11     ecut=    36.75 Ry     beta=0.30
     Davidson diagonalization with overlap
     ethr =  4.06E-03,  avg # of iterations =  1.5

     negative rho (up, down):  8.360E-02 0.000E+00
 
     Adding external electric field

     Computed dipole along edir(3) : 
        Dipole                0.2358 Ry au,          0.5993 Debye
        Dipole field          0.0005 Ry au
 
        Potential amp.       -0.0427 Ry
        Total length         46.8051 bohr
 

     total cpu time spent up to now is      321.1 secs

     total energy              =   -1649.72627773 Ry
     Harris-Foulkes estimate   =   -1649.91597126 Ry
     estimated scf accuracy    <       2.08923066 Ry

     iteration # 12     ecut=    36.75 Ry     beta=0.30
     Davidson diagonalization with overlap
     ethr =  1.29E-03,  avg # of iterations =  2.4

     negative rho (up, down):  8.217E-02 0.000E+00
 
     Adding external electric field

     Computed dipole along edir(3) : 
        Dipole               -1.3036 Ry au,         -3.3135 Debye
        Dipole field         -0.0025 Ry au
 
        Potential amp.        0.2359 Ry
        Total length         46.8051 bohr
 

     total cpu time spent up to now is      333.9 secs

     total energy              =   -1649.62822823 Ry
     Harris-Foulkes estimate   =   -1649.87605808 Ry
     estimated scf accuracy    <       8.20592023 Ry

     iteration # 13     ecut=    36.75 Ry     beta=0.30
     Davidson diagonalization with overlap
     ethr =  1.29E-03,  avg # of iterations =  2.8

     negative rho (up, down):  4.205E-02 0.000E+00
 
     Adding external electric field

     Computed dipole along edir(3) : 
        Dipole               -0.7916 Ry au,         -2.0122 Debye
        Dipole field         -0.0015 Ry au
 
        Potential amp.        0.1432 Ry
        Total length         46.8051 bohr
 

     total cpu time spent up to now is      346.9 secs

     total energy              =   -1649.71626023 Ry
     Harris-Foulkes estimate   =   -1649.85920508 Ry
     estimated scf accuracy    <       1.59634753 Ry

     iteration # 14     ecut=    36.75 Ry     beta=0.30
     Davidson diagonalization with overlap
     ethr =  9.85E-04,  avg # of iterations =  1.7

     negative rho (up, down):  1.729E-02 0.000E+00
 
     Adding external electric field

     Computed dipole along edir(3) : 
        Dipole               -0.9958 Ry au,         -2.5312 Debye
        Dipole field         -0.0019 Ry au
 
        Potential amp.        0.1802 Ry
        Total length         46.8051 bohr
 

     total cpu time spent up to now is      358.9 secs

     total energy              =   -1649.69302509 Ry
     Harris-Foulkes estimate   =   -1649.74977090 Ry
     estimated scf accuracy    <       0.34223775 Ry

     iteration # 15     ecut=    36.75 Ry     beta=0.30
     Davidson diagonalization with overlap
     ethr =  2.11E-04,  avg # of iterations =  4.2

     negative rho (up, down):  6.970E-03 0.000E+00
 
     Adding external electric field

     Computed dipole along edir(3) : 
        Dipole               -1.1463 Ry au,         -2.9136 Debye
        Dipole field         -0.0022 Ry au
 
        Potential amp.        0.2074 Ry
        Total length         46.8051 bohr
 

     total cpu time spent up to now is      374.0 secs

     total energy              =   -1649.71774602 Ry
     Harris-Foulkes estimate   =   -1649.72453445 Ry
     estimated scf accuracy    <       0.06719386 Ry

     iteration # 16     ecut=    36.75 Ry     beta=0.30
     Davidson diagonalization with overlap
     ethr =  4.15E-05,  avg # of iterations =  2.1

     negative rho (up, down):  4.560E-03 0.000E+00
 
     Adding external electric field

     Computed dipole along edir(3) : 
        Dipole               -1.1335 Ry au,         -2.8810 Debye
        Dipole field         -0.0022 Ry au
 
        Potential amp.        0.2051 Ry
        Total length         46.8051 bohr
 

     total cpu time spent up to now is      386.6 secs

     total energy              =   -1649.72140085 Ry
     Harris-Foulkes estimate   =   -1649.72372450 Ry
     estimated scf accuracy    <       0.01971775 Ry

     iteration # 17     ecut=    36.75 Ry     beta=0.30
     Davidson diagonalization with overlap
     ethr =  1.22E-05,  avg # of iterations =  2.5

     negative rho (up, down):  2.244E-03 0.000E+00
 
     Adding external electric field

     Computed dipole along edir(3) : 
        Dipole               -1.1045 Ry au,         -2.8074 Debye
        Dipole field         -0.0021 Ry au
 
        Potential amp.        0.1998 Ry
        Total length         46.8051 bohr
 

     total cpu time spent up to now is      399.3 secs

     total energy              =   -1649.72146796 Ry
     Harris-Foulkes estimate   =   -1649.72269169 Ry
     estimated scf accuracy    <       0.02962407 Ry

     iteration # 18     ecut=    36.75 Ry     beta=0.30
     Davidson diagonalization with overlap
     ethr =  1.22E-05,  avg # of iterations =  2.8

     negative rho (up, down):  1.047E-03 0.000E+00
 
     Adding external electric field

     Computed dipole along edir(3) : 
        Dipole               -1.0650 Ry au,         -2.7070 Debye
        Dipole field         -0.0021 Ry au
 
        Potential amp.        0.1927 Ry
        Total length         46.8051 bohr
 

     total cpu time spent up to now is      412.3 secs

     total energy              =   -1649.72114498 Ry
     Harris-Foulkes estimate   =   -1649.72204769 Ry
     estimated scf accuracy    <       0.02697778 Ry

     iteration # 19     ecut=    36.75 Ry     beta=0.30
     Davidson diagonalization with overlap
     ethr =  1.22E-05,  avg # of iterations =  1.0

     negative rho (up, down):  9.712E-04 0.000E+00
 
     Adding external electric field

     Computed dipole along edir(3) : 
        Dipole               -1.0612 Ry au,         -2.6972 Debye
        Dipole field         -0.0021 Ry au
 
        Potential amp.        0.1920 Ry
        Total length         46.8051 bohr
 

     total cpu time spent up to now is      423.7 secs

     total energy              =   -1649.72124980 Ry
     Harris-Foulkes estimate   =   -1649.72136833 Ry
     estimated scf accuracy    <       0.00615361 Ry

     iteration # 20     ecut=    36.75 Ry     beta=0.30
     Davidson diagonalization with overlap
     ethr =  3.80E-06,  avg # of iterations =  2.3

     negative rho (up, down):  9.237E-04 0.000E+00
 
     Adding external electric field

     Computed dipole along edir(3) : 
        Dipole               -1.0292 Ry au,         -2.6160 Debye
        Dipole field         -0.0020 Ry au
 
        Potential amp.        0.1862 Ry
        Total length         46.8051 bohr
 

     total cpu time spent up to now is      436.1 secs

     total energy              =   -1649.72116801 Ry
     Harris-Foulkes estimate   =   -1649.72140667 Ry
     estimated scf accuracy    <       0.00265646 Ry

     iteration # 21     ecut=    36.75 Ry     beta=0.30
     Davidson diagonalization with overlap
     ethr =  1.64E-06,  avg # of iterations =  4.2

     negative rho (up, down):  1.078E-03 0.000E+00
 
     Adding external electric field

     Computed dipole along edir(3) : 
        Dipole               -1.0221 Ry au,         -2.5979 Debye
        Dipole field         -0.0020 Ry au
 
        Potential amp.        0.1849 Ry
        Total length         46.8051 bohr
 

     total cpu time spent up to now is      450.1 secs

     total energy              =   -1649.72121608 Ry
     Harris-Foulkes estimate   =   -1649.72124939 Ry
     estimated scf accuracy    <       0.00008553 Ry

     iteration # 22     ecut=    36.75 Ry     beta=0.30
     Davidson diagonalization with overlap
     ethr =  5.28E-08,  avg # of iterations =  3.0

     negative rho (up, down):  1.260E-03 0.000E+00

     negative rho (up, down):  1.260E-03 0.000E+00

     negative rho (up, down):  1.260E-03 0.000E+00

     negative rho (up, down):  1.260E-03 0.000E+00

     negative rho (up, down):  1.260E-03 0.000E+00

     negative rho (up, down):  1.260E-03 0.000E+00

     negative rho (up, down):  1.260E-03 0.000E+00

     negative rho (up, down):  1.260E-03 0.000E+00

     negative rho (up, down):  1.260E-03 0.000E+00

     negative rho (up, down):  1.260E-03 0.000E+00

     negative rho (up, down):  1.260E-03 0.000E+00

     negative rho (up, down):  1.260E-03 0.000E+00

     negative rho (up, down):  1.260E-03 0.000E+00

     negative rho (up, down):  1.260E-03 0.000E+00

     negative rho (up, down):  1.260E-03 0.000E+00

     negative rho (up, down):  1.260E-03 0.000E+00

     negative rho (up, down):  1.260E-03 0.000E+00

     negative rho (up, down):  1.260E-03 0.000E+00

     negative rho (up, down):  1.260E-03 0.000E+00

     negative rho (up, down):  1.260E-03 0.000E+00

     negative rho (up, down):  1.260E-03 0.000E+00

     negative rho (up, down):  1.260E-03 0.000E+00

     negative rho (up, down):  1.260E-03 0.000E+00

     negative rho (up, down):  1.260E-03 0.000E+00

     negative rho (up, down):  1.260E-03 0.000E+00

     negative rho (up, down):  1.260E-03 0.000E+00

     negative rho (up, down):  1.260E-03 0.000E+00

     negative rho (up, down):  1.260E-03 0.000E+00

     negative rho (up, down):  1.260E-03 0.000E+00

     negative rho (up, down):  1.260E-03 0.000E+00

     negative rho (up, down):  1.260E-03 0.000E+00

     negative rho (up, down):  1.260E-03 0.000E+00

     negative rho (up, down):  1.260E-03 0.000E+00

     negative rho (up, down):  1.260E-03 0.000E+00

     negative rho (up, down):  1.260E-03 0.000E+00
 
     Adding external electric field

     Computed dipole along edir(3) : 
        Dipole               -1.0215 Ry au,         -2.5965 Debye
        Dipole field         -0.0020 Ry au
 
        Potential amp.        0.1848 Ry
        Total length         46.8051 bohr
 

     total cpu time spent up to now is      483.7 secs

     End of self-consistent calculation

          k = 0.0000 0.0000 0.0000 ( 24345 PWs)   bands (ev):

   -16.4595 -15.4825 -15.4825 -15.4794 -15.3969 -15.3853 -15.3853 -15.3732
   -15.3728 -15.3728 -15.3675 -15.3418 -15.3227 -15.3200 -15.3200 -15.3048
   -15.3048 -15.2917 -15.2911 -15.2911 -15.2629 -15.2629 -15.2600 -15.2514
   -15.2514 -15.2508 -15.2150 -15.2083 -15.2083 -15.1913 -15.1913 -15.1290
   -15.1290 -15.1195 -15.0973 -15.0973 -15.0616 -15.0616 -15.0563 -15.0563
   -15.0436 -15.0312 -15.0312 -15.0275 -15.0118 -15.0118 -15.0018 -14.9923
   -14.9843 -14.9843 -14.9752 -14.9752 -14.9526 -14.9488 -14.9488 -14.9304
   -14.7872 -14.7872 -14.6873 -14.6873 -14.1444  -9.4876  -8.0472  -5.9044
    -4.6629  -4.6629  -4.6466  -4.3702  -4.3702  -4.3444  -3.2117  -3.0944
    -3.0943  -2.8761  -2.8761  -2.8719  -2.4322  -1.7506  -1.3992  -1.3992
    -1.1065  -1.1065  -1.0081  -0.3599  -0.3599   0.0238   0.9544   2.4197
     2.5403   2.5403   2.6200

          k = 0.0000 0.0291 0.0000 ( 24403 PWs)   bands (ev):

   -16.4595 -15.4720 -15.4603 -15.4582 -15.3877 -15.3792 -15.3766 -15.3605
   -15.3575 -15.3497 -15.3491 -15.3297 -15.3239 -15.3135 -15.3067 -15.2994
   -15.2881 -15.2868 -15.2836 -15.2795 -15.2671 -15.2643 -15.2617 -15.2472
   -15.2453 -15.2334 -15.2107 -15.2037 -15.2002 -15.1936 -15.1801 -15.1380
   -15.1295 -15.1220 -15.1022 -15.0979 -15.0770 -15.0738 -15.0660 -15.0579
   -15.0549 -15.0411 -15.0391 -15.0321 -15.0252 -15.0169 -15.0143 -15.0048
   -14.9979 -14.9961 -14.9912 -14.9840 -14.9694 -14.9656 -14.9637 -14.9468
   -14.8057 -14.7992 -14.6908 -14.6882 -14.1478  -9.3498  -7.9119  -5.9915
    -5.7812  -5.1809  -5.1650  -4.6591  -4.0296  -4.0226  -3.2396  -3.2209
    -2.9889  -2.4577  -2.2450  -2.1938  -2.1871  -1.7291  -1.6947  -1.3798
    -0.8393  -0.7799  -0.6494   0.0168   0.1446   0.7050   1.2037   1.5372
     2.0740   2.2546   2.9364

          k = 0.0000 0.0582 0.0000 ( 24465 PWs)   bands (ev):

   -16.4596 -15.4453 -15.4058 -15.4051 -15.3724 -15.3627 -15.3544 -15.3489
   -15.3231 -15.3195 -15.3152 -15.3105 -15.3078 -15.2975 -15.2956 -15.2916
   -15.2754 -15.2653 -15.2647 -15.2564 -15.2412 -15.2380 -15.2369 -15.2282
   -15.2124 -15.2081 -15.2072 -15.1939 -15.1858 -15.1827 -15.1560 -15.1530
   -15.1328 -15.1289 -15.1248 -15.1145 -15.1052 -15.0972 -15.0948 -15.0860
   -15.0796 -15.0683 -15.0656 -15.0619 -15.0563 -15.0472 -15.0444 -15.0361
   -15.0346 -15.0264 -15.0185 -15.0156 -15.0011 -14.9851 -14.9779 -14.9604
   -14.8490 -14.8243 -14.6979 -14.6900 -14.1546  -8.9341  -7.5062  -7.2484
    -5.8640  -5.5878  -5.5727  -5.4058  -4.2780  -4.2624  -3.9112  -2.7619
    -2.6355  -2.0077  -1.8374  -1.7941  -1.1598  -1.1224  -1.0418  -0.5420
    -0.4527  -0.3350   0.1412   0.8201   0.9465   1.1083   1.2412   1.3270
     1.7991   2.1920   2.2014

          k = 0.0000-0.0872 0.0000 ( 24448 PWs)   bands (ev):

   -16.4596 -15.4138 -15.4023 -15.3645 -15.3643 -15.3477 -15.3408 -15.3390
   -15.3302 -15.3118 -15.3033 -15.3024 -15.2901 -15.2895 -15.2827 -15.2773
   -15.2737 -15.2632 -15.2295 -15.2271 -15.2251 -15.2180 -15.2140 -15.2050
   -15.2005 -15.1866 -15.1823 -15.1783 -15.1676 -15.1650 -15.1643 -15.1565
   -15.1498 -15.1426 -15.1414 -15.1319 -15.1169 -15.1077 -15.1028 -15.1011
   -15.0987 -15.0957 -15.0916 -15.0912 -15.0863 -15.0776 -15.0756 -15.0724
   -15.0631 -15.0518 -15.0250 -15.0192 -15.0034 -14.9867 -14.9802 -14.9613
   -14.8763 -14.8375 -14.7014 -14.6909 -14.1579  -8.2474  -8.2229  -6.8568
    -6.7836  -5.7263  -5.7085  -4.8144  -4.7578  -4.3990  -4.3783  -2.7571
    -2.6140  -1.6194  -1.3357  -1.1684  -0.8279  -0.6781  -0.6553  -0.5148
    -0.2442  -0.2172   0.6928   0.7850   0.8986   1.0700   1.7229   1.8465
     1.8596   1.9653   2.0645

          k = 0.0252-0.0145 0.0000 ( 24403 PWs)   bands (ev):

   -16.4595 -15.4720 -15.4603 -15.4582 -15.3877 -15.3792 -15.3766 -15.3605
   -15.3575 -15.3497 -15.3491 -15.3297 -15.3239 -15.3135 -15.3067 -15.2994
   -15.2881 -15.2868 -15.2836 -15.2795 -15.2671 -15.2643 -15.2617 -15.2472
   -15.2453 -15.2334 -15.2107 -15.2037 -15.2002 -15.1936 -15.1801 -15.1380
   -15.1295 -15.1220 -15.1022 -15.0979 -15.0770 -15.0738 -15.0660 -15.0579
   -15.0549 -15.0411 -15.0391 -15.0321 -15.0252 -15.0169 -15.0143 -15.0048
   -14.9979 -14.9961 -14.9912 -14.9840 -14.9694 -14.9656 -14.9637 -14.9468
   -14.8057 -14.7992 -14.6908 -14.6882 -14.1478  -9.3498  -7.9119  -5.9915
    -5.7812  -5.1809  -5.1650  -4.6591  -4.0296  -4.0226  -3.2396  -3.2209
    -2.9889  -2.4577  -2.2450  -2.1938  -2.1871  -1.7291  -1.6947  -1.3798
    -0.8393  -0.7799  -0.6494   0.0168   0.1446   0.7050   1.2037   1.5372
     2.0740   2.2546   2.9364

          k = 0.0252 0.0145 0.0000 ( 24403 PWs)   bands (ev):

   -16.4595 -15.4720 -15.4603 -15.4582 -15.3877 -15.3792 -15.3766 -15.3605
   -15.3575 -15.3497 -15.3491 -15.3297 -15.3239 -15.3135 -15.3067 -15.2994
   -15.2881 -15.2868 -15.2836 -15.2795 -15.2671 -15.2643 -15.2617 -15.2472
   -15.2453 -15.2334 -15.2107 -15.2037 -15.2002 -15.1936 -15.1801 -15.1380
   -15.1295 -15.1220 -15.1022 -15.0979 -15.0770 -15.0738 -15.0660 -15.0579
   -15.0549 -15.0411 -15.0391 -15.0321 -15.0252 -15.0169 -15.0143 -15.0048
   -14.9979 -14.9961 -14.9912 -14.9840 -14.9694 -14.9656 -14.9637 -14.9468
   -14.8057 -14.7992 -14.6908 -14.6882 -14.1478  -9.3498  -7.9119  -5.9915
    -5.7812  -5.1809  -5.1650  -4.6591  -4.0296  -4.0226  -3.2396  -3.2209
    -2.9889  -2.4577  -2.2450  -2.1938  -2.1871  -1.7291  -1.6947  -1.3798
    -0.8393  -0.7799  -0.6494   0.0168   0.1446   0.7050   1.2037   1.5372
     2.0740   2.2546   2.9364

          k = 0.0252 0.0436 0.0000 ( 24482 PWs)   bands (ev):

   -16.4596 -15.4429 -15.4399 -15.4137 -15.3682 -15.3621 -15.3578 -15.3502
   -15.3355 -15.3290 -15.3260 -15.3122 -15.3084 -15.3047 -15.3017 -15.2906
   -15.2802 -15.2773 -15.2712 -15.2628 -15.2515 -15.2498 -15.2440 -15.2405
   -15.2201 -15.2124 -15.2077 -15.1954 -15.1934 -15.1858 -15.1648 -15.1484
   -15.1335 -15.1248 -15.1124 -15.1083 -15.1020 -15.0931 -15.0854 -15.0779
   -15.0700 -15.0658 -15.0596 -15.0507 -15.0439 -15.0413 -15.0259 -15.0201
   -15.0188 -15.0151 -15.0087 -15.0037 -14.9897 -14.9864 -14.9835 -14.9703
   -14.8352 -14.8191 -14.6955 -14.6902 -14.1529  -9.0730  -7.6408  -6.5577
    -6.5389  -5.5389  -5.2028  -5.1583  -4.2880  -3.9693  -3.3538  -3.2829
    -2.8435  -2.4284  -2.0794  -1.4196  -1.3870  -1.2865  -1.0994  -0.9055
    -0.4848  -0.3212  -0.1102   0.1570   0.7500   0.9641   1.2933   1.4959
     1.8984   2.0925   2.4597

          k = 0.0252-0.1018 0.0000 ( 24479 PWs)   bands (ev):

   -16.4596 -15.4107 -15.3839 -15.3733 -15.3708 -15.3397 -15.3363 -15.3335
   -15.3234 -15.3208 -15.3117 -15.3082 -15.2998 -15.2866 -15.2795 -15.2751
   -15.2638 -15.2591 -15.2489 -15.2317 -15.2264 -15.2221 -15.2114 -15.2104
   -15.2014 -15.1937 -15.1885 -15.1857 -15.1808 -15.1711 -15.1610 -15.1581
   -15.1529 -15.1385 -15.1364 -15.1305 -15.1239 -15.1143 -15.1128 -15.1002
   -15.0927 -15.0883 -15.0865 -15.0804 -15.0743 -15.0669 -15.0563 -15.0528
   -15.0491 -15.0369 -15.0281 -15.0220 -15.0078 -15.0049 -14.9923 -14.9791
   -14.8677 -14.8417 -14.6997 -14.6926 -14.1580  -8.5155  -7.6733  -7.0960
    -6.8284  -6.2704  -5.4528  -5.0350  -4.3861  -4.2829  -3.5493  -3.3178
    -2.6472  -1.8518  -1.5236  -1.2604  -1.0892  -0.8279  -0.5800  -0.3135
    -0.1137  -0.0164   0.3967   0.7497   0.8904   1.1581   1.2416   1.7561
     1.9883   2.2071   2.3423

          k = 0.0252-0.0727 0.0000 ( 24479 PWs)   bands (ev):

   -16.4596 -15.4107 -15.3839 -15.3733 -15.3708 -15.3397 -15.3363 -15.3335
   -15.3234 -15.3208 -15.3117 -15.3082 -15.2998 -15.2866 -15.2795 -15.2751
   -15.2638 -15.2591 -15.2489 -15.2317 -15.2264 -15.2221 -15.2114 -15.2104
   -15.2014 -15.1937 -15.1885 -15.1857 -15.1808 -15.1711 -15.1610 -15.1581
   -15.1529 -15.1385 -15.1364 -15.1305 -15.1239 -15.1143 -15.1128 -15.1002
   -15.0927 -15.0883 -15.0865 -15.0804 -15.0743 -15.0669 -15.0563 -15.0528
   -15.0491 -15.0369 -15.0281 -15.0220 -15.0078 -15.0049 -14.9923 -14.9791
   -14.8677 -14.8417 -14.6997 -14.6926 -14.1580  -8.5155  -7.6733  -7.0960
    -6.8284  -6.2704  -5.4528  -5.0350  -4.3861  -4.2829  -3.5493  -3.3178
    -2.6472  -1.8518  -1.5236  -1.2604  -1.0892  -0.8279  -0.5800  -0.3135
    -0.1137  -0.0164   0.3967   0.7497   0.8904   1.1581   1.2416   1.7561
     1.9883   2.2071   2.3423

          k = 0.0252-0.0436 0.0000 ( 24482 PWs)   bands (ev):

   -16.4596 -15.4429 -15.4399 -15.4137 -15.3682 -15.3621 -15.3578 -15.3502
   -15.3355 -15.3290 -15.3260 -15.3122 -15.3084 -15.3047 -15.3017 -15.2906
   -15.2802 -15.2773 -15.2712 -15.2628 -15.2515 -15.2498 -15.2440 -15.2405
   -15.2201 -15.2124 -15.2077 -15.1954 -15.1934 -15.1858 -15.1648 -15.1484
   -15.1335 -15.1248 -15.1124 -15.1083 -15.1020 -15.0931 -15.0854 -15.0779
   -15.0700 -15.0658 -15.0596 -15.0507 -15.0439 -15.0413 -15.0259 -15.0201
   -15.0188 -15.0151 -15.0087 -15.0037 -14.9897 -14.9864 -14.9835 -14.9703
   -14.8352 -14.8191 -14.6955 -14.6902 -14.1529  -9.0730  -7.6408  -6.5577
    -6.5389  -5.5389  -5.2028  -5.1583  -4.2880  -3.9693  -3.3538  -3.2829
    -2.8435  -2.4284  -2.0794  -1.4196  -1.3870  -1.2865  -1.0994  -0.9055
    -0.4848  -0.3212  -0.1102   0.1570   0.7500   0.9641   1.2933   1.4959
     1.8984   2.0925   2.4597

          k = 0.0504-0.0291 0.0000 ( 24465 PWs)   bands (ev):

   -16.4596 -15.4453 -15.4058 -15.4051 -15.3724 -15.3627 -15.3544 -15.3489
   -15.3231 -15.3195 -15.3152 -15.3105 -15.3078 -15.2975 -15.2956 -15.2916
   -15.2754 -15.2653 -15.2647 -15.2564 -15.2412 -15.2380 -15.2369 -15.2282
   -15.2124 -15.2081 -15.2072 -15.1939 -15.1858 -15.1827 -15.1560 -15.1530
   -15.1328 -15.1289 -15.1248 -15.1145 -15.1052 -15.0972 -15.0948 -15.0860
   -15.0796 -15.0683 -15.0656 -15.0619 -15.0563 -15.0472 -15.0444 -15.0361
   -15.0347 -15.0264 -15.0185 -15.0156 -15.0011 -14.9851 -14.9779 -14.9604
   -14.8490 -14.8243 -14.6979 -14.6900 -14.1546  -8.9341  -7.5062  -7.2484
    -5.8640  -5.5878  -5.5727  -5.4058  -4.2780  -4.2624  -3.9112  -2.7619
    -2.6355  -2.0077  -1.8374  -1.7941  -1.1598  -1.1224  -1.0418  -0.5420
    -0.4527  -0.3350   0.1412   0.8201   0.9465   1.1083   1.2412   1.3270
     1.7991   2.1920   2.2014

          k = 0.0504 0.0000 0.0000 ( 24482 PWs)   bands (ev):

   -16.4596 -15.4429 -15.4399 -15.4137 -15.3682 -15.3621 -15.3578 -15.3502
   -15.3355 -15.3290 -15.3260 -15.3122 -15.3084 -15.3047 -15.3017 -15.2906
   -15.2802 -15.2773 -15.2712 -15.2628 -15.2515 -15.2498 -15.2440 -15.2405
   -15.2201 -15.2124 -15.2077 -15.1954 -15.1934 -15.1858 -15.1648 -15.1484
   -15.1335 -15.1248 -15.1124 -15.1083 -15.1020 -15.0931 -15.0854 -15.0779
   -15.0700 -15.0658 -15.0596 -15.0507 -15.0439 -15.0413 -15.0259 -15.0201
   -15.0188 -15.0151 -15.0087 -15.0037 -14.9897 -14.9864 -14.9835 -14.9703
   -14.8352 -14.8191 -14.6955 -14.6902 -14.1529  -9.0730  -7.6408  -6.5577
    -6.5389  -5.5389  -5.2028  -5.1583  -4.2880  -3.9693  -3.3538  -3.2829
    -2.8435  -2.4284  -2.0794  -1.4196  -1.3870  -1.2865  -1.0994  -0.9055
    -0.4848  -0.3212  -0.1102   0.1570   0.7500   0.9641   1.2933   1.4959
     1.8984   2.0925   2.4597

          k = 0.0504 0.0291 0.0000 ( 24465 PWs)   bands (ev):

   -16.4596 -15.4453 -15.4058 -15.4051 -15.3724 -15.3627 -15.3544 -15.3489
   -15.3231 -15.3195 -15.3152 -15.3105 -15.3078 -15.2975 -15.2956 -15.2916
   -15.2754 -15.2653 -15.2647 -15.2564 -15.2412 -15.2380 -15.2369 -15.2282
   -15.2124 -15.2081 -15.2072 -15.1939 -15.1858 -15.1827 -15.1560 -15.1530
   -15.1328 -15.1289 -15.1248 -15.1145 -15.1052 -15.0972 -15.0948 -15.0860
   -15.0796 -15.0683 -15.0656 -15.0619 -15.0563 -15.0472 -15.0444 -15.0361
   -15.0346 -15.0264 -15.0185 -15.0156 -15.0011 -14.9851 -14.9779 -14.9604
   -14.8490 -14.8243 -14.6979 -14.6900 -14.1546  -8.9341  -7.5062  -7.2484
    -5.8640  -5.5878  -5.5727  -5.4058  -4.2780  -4.2624  -3.9112  -2.7619
    -2.6355  -2.0077  -1.8374  -1.7941  -1.1598  -1.1224  -1.0418  -0.5420
    -0.4527  -0.3350   0.1412   0.8201   0.9465   1.1083   1.2412   1.3270
     1.7991   2.1920   2.2014

          k = 0.0504-0.1163 0.0000 ( 24479 PWs)   bands (ev):

   -16.4596 -15.4107 -15.3839 -15.3733 -15.3708 -15.3397 -15.3363 -15.3335
   -15.3234 -15.3208 -15.3117 -15.3082 -15.2998 -15.2866 -15.2795 -15.2751
   -15.2638 -15.2591 -15.2489 -15.2317 -15.2264 -15.2221 -15.2114 -15.2104
   -15.2014 -15.1937 -15.1885 -15.1857 -15.1808 -15.1711 -15.1610 -15.1581
   -15.1529 -15.1385 -15.1364 -15.1305 -15.1239 -15.1143 -15.1128 -15.1002
   -15.0927 -15.0883 -15.0865 -15.0804 -15.0743 -15.0669 -15.0563 -15.0528
   -15.0491 -15.0369 -15.0281 -15.0220 -15.0078 -15.0049 -14.9923 -14.9791
   -14.8677 -14.8417 -14.6997 -14.6926 -14.1580  -8.5155  -7.6733  -7.0960
    -6.8284  -6.2704  -5.4528  -5.0350  -4.3861  -4.2829  -3.5493  -3.3178
    -2.6472  -1.8518  -1.5236  -1.2604  -1.0892  -0.8279  -0.5800  -0.3135
    -0.1137  -0.0164   0.3967   0.7497   0.8904   1.1581   1.2416   1.7561
     1.9883   2.2071   2.3423

          k = 0.0504-0.0872 0.0000 ( 24486 PWs)   bands (ev):

   -16.4596 -15.3684 -15.3640 -15.3563 -15.3507 -15.3463 -15.3448 -15.3344
   -15.3332 -15.3149 -15.3145 -15.3143 -15.3081 -15.2613 -15.2594 -15.2526
   -15.2444 -15.2367 -15.2316 -15.2254 -15.2235 -15.2197 -15.2154 -15.2134
   -15.2054 -15.1986 -15.1977 -15.1794 -15.1705 -15.1703 -15.1689 -15.1657
   -15.1627 -15.1541 -15.1427 -15.1422 -15.1364 -15.1247 -15.1152 -15.1024
   -15.0939 -15.0915 -15.0815 -15.0793 -15.0698 -15.0643 -15.0615 -15.0502
   -15.0484 -15.0470 -15.0358 -15.0357 -15.0211 -15.0183 -15.0080 -15.0061
   -14.8640 -14.8614 -14.6984 -14.6960 -14.1599  -7.8269  -7.8226  -7.7910
    -6.4414  -6.4409  -6.3409  -4.4263  -4.4260  -4.3755  -3.2947  -3.0002
    -2.9936  -1.7163  -1.3372  -1.3196  -0.9590  -0.8884  -0.8507  -0.4750
    -0.4560   0.1017   0.8397   1.0348   1.0517   1.8480   1.9031   1.9190
     2.3514   2.3627   2.4450

          k = 0.0504-0.0582 0.0000 ( 24479 PWs)   bands (ev):

   -16.4596 -15.4107 -15.3839 -15.3733 -15.3708 -15.3397 -15.3363 -15.3335
   -15.3234 -15.3208 -15.3117 -15.3082 -15.2998 -15.2866 -15.2795 -15.2751
   -15.2638 -15.2591 -15.2489 -15.2317 -15.2264 -15.2221 -15.2114 -15.2104
   -15.2014 -15.1937 -15.1885 -15.1857 -15.1808 -15.1711 -15.1610 -15.1581
   -15.1529 -15.1385 -15.1364 -15.1305 -15.1239 -15.1143 -15.1128 -15.1002
   -15.0927 -15.0883 -15.0865 -15.0804 -15.0743 -15.0669 -15.0563 -15.0528
   -15.0491 -15.0369 -15.0281 -15.0220 -15.0078 -15.0049 -14.9923 -14.9791
   -14.8677 -14.8417 -14.6997 -14.6926 -14.1580  -8.5155  -7.6733  -7.0960
    -6.8284  -6.2704  -5.4528  -5.0350  -4.3861  -4.2829  -3.5493  -3.3178
    -2.6472  -1.8518  -1.5236  -1.2604  -1.0892  -0.8279  -0.5800  -0.3135
    -0.1137  -0.0164   0.3967   0.7497   0.8904   1.1581   1.2416   1.7561
     1.9883   2.2071   2.3423

          k =-0.0756 0.0436 0.0000 ( 24448 PWs)   bands (ev):

   -16.4596 -15.4138 -15.4023 -15.3645 -15.3643 -15.3478 -15.3408 -15.3390
   -15.3302 -15.3118 -15.3033 -15.3024 -15.2901 -15.2895 -15.2827 -15.2773
   -15.2737 -15.2632 -15.2295 -15.2271 -15.2251 -15.2180 -15.2140 -15.2050
   -15.2005 -15.1866 -15.1823 -15.1783 -15.1676 -15.1650 -15.1643 -15.1565
   -15.1498 -15.1426 -15.1414 -15.1319 -15.1169 -15.1077 -15.1028 -15.1011
   -15.0987 -15.0957 -15.0916 -15.0912 -15.0863 -15.0776 -15.0756 -15.0724
   -15.0631 -15.0518 -15.0250 -15.0192 -15.0034 -14.9867 -14.9802 -14.9613
   -14.8763 -14.8375 -14.7014 -14.6909 -14.1579  -8.2474  -8.2229  -6.8568
    -6.7836  -5.7263  -5.7085  -4.8144  -4.7578  -4.3990  -4.3783  -2.7571
    -2.6140  -1.6194  -1.3357  -1.1684  -0.8279  -0.6781  -0.6553  -0.5148
    -0.2442  -0.2172   0.6928   0.7850   0.8986   1.0700   1.7229   1.8465
     1.8596   1.9653   2.0645

          k =-0.0756 0.0727 0.0000 ( 24479 PWs)   bands (ev):

   -16.4596 -15.4107 -15.3839 -15.3733 -15.3708 -15.3397 -15.3363 -15.3335
   -15.3234 -15.3208 -15.3117 -15.3082 -15.2998 -15.2866 -15.2795 -15.2751
   -15.2638 -15.2591 -15.2489 -15.2317 -15.2264 -15.2221 -15.2114 -15.2104
   -15.2014 -15.1937 -15.1885 -15.1857 -15.1808 -15.1711 -15.1610 -15.1581
   -15.1529 -15.1385 -15.1364 -15.1305 -15.1239 -15.1143 -15.1128 -15.1002
   -15.0927 -15.0883 -15.0865 -15.0804 -15.0743 -15.0669 -15.0563 -15.0528
   -15.0491 -15.0369 -15.0281 -15.0220 -15.0078 -15.0049 -14.9923 -14.9791
   -14.8677 -14.8417 -14.6997 -14.6926 -14.1580  -8.5155  -7.6733  -7.0960
    -6.8284  -6.2704  -5.4528  -5.0350  -4.3861  -4.2829  -3.5493  -3.3178
    -2.6472  -1.8518  -1.5236  -1.2604  -1.0892  -0.8279  -0.5800  -0.3135
    -0.1137  -0.0164   0.3967   0.7497   0.8904   1.1581   1.2416   1.7561
     1.9883   2.2071   2.3423

          k =-0.0756 0.1018 0.0000 ( 24479 PWs)   bands (ev):

   -16.4596 -15.4107 -15.3839 -15.3733 -15.3708 -15.3397 -15.3363 -15.3335
   -15.3234 -15.3208 -15.3117 -15.3082 -15.2998 -15.2866 -15.2795 -15.2751
   -15.2638 -15.2591 -15.2489 -15.2317 -15.2264 -15.2221 -15.2114 -15.2104
   -15.2014 -15.1937 -15.1885 -15.1857 -15.1808 -15.1711 -15.1610 -15.1581
   -15.1529 -15.1385 -15.1364 -15.1305 -15.1239 -15.1143 -15.1128 -15.1002
   -15.0927 -15.0883 -15.0865 -15.0804 -15.0743 -15.0669 -15.0563 -15.0528
   -15.0491 -15.0369 -15.0281 -15.0220 -15.0078 -15.0049 -14.9923 -14.9791
   -14.8677 -14.8417 -14.6997 -14.6926 -14.1580  -8.5155  -7.6733  -7.0960
    -6.8284  -6.2704  -5.4528  -5.0350  -4.3861  -4.2829  -3.5493  -3.3178
    -2.6472  -1.8518  -1.5236  -1.2604  -1.0892  -0.8279  -0.5800  -0.3135
    -0.1137  -0.0164   0.3967   0.7497   0.8904   1.1581   1.2416   1.7561
     1.9883   2.2071   2.3423

          k =-0.0756-0.0436 0.0000 ( 24448 PWs)   bands (ev):

   -16.4596 -15.4138 -15.4023 -15.3645 -15.3643 -15.3478 -15.3408 -15.3390
   -15.3302 -15.3118 -15.3033 -15.3024 -15.2901 -15.2895 -15.2827 -15.2773
   -15.2737 -15.2632 -15.2295 -15.2271 -15.2251 -15.2180 -15.2140 -15.2050
   -15.2005 -15.1866 -15.1823 -15.1783 -15.1676 -15.1650 -15.1643 -15.1565
   -15.1498 -15.1426 -15.1414 -15.1319 -15.1169 -15.1077 -15.1028 -15.1011
   -15.0987 -15.0957 -15.0916 -15.0912 -15.0863 -15.0776 -15.0756 -15.0724
   -15.0631 -15.0518 -15.0250 -15.0192 -15.0034 -14.9867 -14.9802 -14.9613
   -14.8763 -14.8375 -14.7014 -14.6909 -14.1579  -8.2474  -8.2229  -6.8568
    -6.7836  -5.7263  -5.7085  -4.8144  -4.7578  -4.3990  -4.3783  -2.7571
    -2.6140  -1.6194  -1.3357  -1.1684  -0.8279  -0.6781  -0.6553  -0.5148
    -0.2442  -0.2172   0.6928   0.7850   0.8986   1.0700   1.7229   1.8465
     1.8596   1.9653   2.0645

     the Fermi energy is    -0.3095 ev

!    total energy              =   -1649.72121736 Ry
     Harris-Foulkes estimate   =   -1649.72122285 Ry
     estimated scf accuracy    <       0.00000262 Ry

     The total energy is the sum of the following terms:

     one-electron contribution =   -9400.13175095 Ry
     hartree contribution      =    4778.48934878 Ry
     xc contribution           =    -476.99015655 Ry
     ewald contribution        =    3448.95313159 Ry
     electric field correction =       0.00201698 Ry
     smearing contrib. (-TS)   =      -0.04380721 Ry

     convergence has been achieved in  22 iterations
 
 BEEF-vdW xc energy contributions
           1 :   -417.680799873021     
           2 :    381.452366160324     
           3 :   -320.420135427049     
           4 :    251.857516018427     
           5 :   -191.393238654433     
           6 :    147.407450233790     
           7 :   -119.540088741493     
           8 :    101.360117433792     
           9 :   -85.2600474112129     
          10 :    66.7469527700855     
          11 :   -46.0307182178524     
          12 :    26.5884707753730     
          13 :   -12.1382841680802     
          14 :    4.11716249612954     
          15 :   -1.07020316611994     
          16 :  -7.327079491381028E-002
          17 :    1.98298970064786     
          18 :   -5.54415796639967     
          19 :    9.82936892584985     
          20 :   -13.1770939920218     
          21 :    14.4788904975370     
          22 :   -13.8246495478299     
          23 :    12.2334663768977     
          24 :   -10.8484597528781     
          25 :    10.2400409623693     
          26 :   -10.2473564123138     
          27 :    10.3281082660727     
          28 :   -10.0511238273536     
          29 :    9.35156210356899     
          30 :   -8.43763051071625     
          31 :   -38.0208639070937     
          32 :   -27.5466243126895     

     Forces acting on atoms (Ry/au):


     negative rho (up, down):  1.260E-03 0.000E+00
     atom    1 type  1   force =     0.00028942    0.00016787   -0.00950891
     atom    2 type  1   force =    -0.00028980    0.00016687   -0.00950908
     atom    3 type  1   force =    -0.00000014   -0.00033589   -0.00950531
     atom    4 type  1   force =    -0.00000052   -0.00000011   -0.01249843
     atom    5 type  1   force =     0.00000212   -0.00003707    0.00139168
     atom    6 type  1   force =    -0.00000155    0.00000114   -0.00418424
     atom    7 type  1   force =     0.00003159    0.00001698    0.00139243
     atom    8 type  1   force =    -0.00003279    0.00001971    0.00139166
     atom    9 type  1   force =     0.00000267    0.00000087    0.06361763
     atom   10 type  1   force =    -0.00000164    0.00012099    0.01615328
     atom   11 type  1   force =     0.00010381   -0.00006235    0.01615100
     atom   12 type  1   force =    -0.00010310   -0.00005940    0.01615430
     atom   13 type  2   force =    -0.00000007    0.00000038   -0.07104601

     Total force =     0.101630     Total SCF correction =     0.007763


     entering subroutine stress ...


     negative rho (up, down):  1.260E-03 0.000E+00
          total   stress  (Ry/bohr**3)                   (kbar)     P=    5.15
   0.00004709  -0.00000000  -0.00000000          6.93     -0.00     -0.00
  -0.00000000   0.00004709   0.00000000         -0.00      6.93      0.00
  -0.00000000   0.00000000   0.00001086         -0.00      0.00      1.60

 !ASE

     Writing output data file calc.save
 
     init_run     :      4.52s CPU      7.05s WALL (       1 calls)
     electrons    :    336.93s CPU    476.24s WALL (       1 calls)
     forces       :      2.88s CPU      3.18s WALL (       1 calls)
     stress       :      8.87s CPU      9.51s WALL (       1 calls)

     Called by init_run:
     wfcinit      :      2.52s CPU      4.51s WALL (       1 calls)
     potinit      :      0.59s CPU      0.86s WALL (       1 calls)

     Called by electrons:
     c_bands      :    272.79s CPU    385.65s WALL (      22 calls)
     sum_band     :     31.45s CPU     44.67s WALL (      22 calls)
     v_of_rho     :      9.52s CPU     14.68s WALL (      23 calls)
     newd         :     10.43s CPU     10.77s WALL (      23 calls)
     mix_rho      :      0.45s CPU      0.65s WALL (      22 calls)
     vdW_energy   :      3.61s CPU      4.12s WALL (      59 calls)
     vdW_ffts     :      9.73s CPU     18.10s WALL (     120 calls)
     vdW_v        :      2.82s CPU      4.06s WALL (      59 calls)

     Called by c_bands:
     init_us_2    :      1.64s CPU      1.67s WALL (     940 calls)
     cegterg      :    263.91s CPU    376.49s WALL (     460 calls)

     Called by *egterg:
     h_psi        :    126.34s CPU    223.97s WALL (    2574 calls)
     s_psi        :     15.48s CPU     15.59s WALL (    2574 calls)
     g_psi        :      1.40s CPU      1.36s WALL (    2094 calls)
     cdiaghg      :     63.28s CPU     64.31s WALL (    2554 calls)

     Called by h_psi:
     add_vuspsi   :     16.09s CPU     16.18s WALL (    2574 calls)

     General routines
     calbec       :     20.32s CPU     22.53s WALL (    3054 calls)
     fft          :     14.95s CPU     27.94s WALL (    3621 calls)
     ffts         :      0.04s CPU      0.08s WALL (      45 calls)
     fftw         :     90.40s CPU    195.01s WALL (  325096 calls)
     interpolate  :      0.21s CPU      0.41s WALL (      45 calls)
     davcio       :      0.01s CPU      0.20s WALL (      20 calls)
 
     Parallel routines
     fft_scatter  :     57.77s CPU    168.39s WALL (  328762 calls)
 
     PWSCF        :  5m53.83s CPU     8m17.35s WALL

 
   This run was terminated on:  11:23: 8  16Jan2018            

=------------------------------------------------------------------------------=
   JOB DONE.
=------------------------------------------------------------------------------=
Job  /afs/slac/g/suncat/bin/suncat-tsmpirun -x LD_LIBRARY_PATH -wdir /scratch/qe842449_aik6H pw.x -in pw.inp

TID   HOST_NAME   COMMAND_LINE            STATUS            TERMINATION_TIME
===== ========== ================  =======================  ===================
00000 suncat2070 pw.x -in pw.inp   Done                     01/16/2018 11:23:08
00001 suncat2070 pw.x -in pw.inp   Done                     01/16/2018 11:23:08
00002 suncat2070 pw.x -in pw.inp   Done                     01/16/2018 11:23:08
00003 suncat2070 pw.x -in pw.inp   Done                     01/16/2018 11:23:08
00004 suncat2070 pw.x -in pw.inp   Done                     01/16/2018 11:23:08
00005 suncat2070 pw.x -in pw.inp   Done                     01/16/2018 11:23:08
00006 suncat2070 pw.x -in pw.inp   Done                     01/16/2018 11:23:08
00007 suncat2070 pw.x -in pw.inp   Done                     01/16/2018 11:23:08
00008 suncat2070 pw.x -in pw.inp   Done                     01/16/2018 11:23:08
00009 suncat2070 pw.x -in pw.inp   Done                     01/16/2018 11:23:08
00010 suncat2070 pw.x -in pw.inp   Done                     01/16/2018 11:23:08
00011 suncat2070 pw.x -in pw.inp   Done                     01/16/2018 11:23:08
00012 suncat2070 pw.x -in pw.inp   Done                     01/16/2018 11:23:08
00013 suncat2070 pw.x -in pw.inp   Done                     01/16/2018 11:23:08
00014 suncat2070 pw.x -in pw.inp   Done                     01/16/2018 11:23:08
00015 suncat2070 pw.x -in pw.inp   Done                     01/16/2018 11:23:08
00016 suncat2062 pw.x -in pw.inp   Done                     01/16/2018 11:23:08
00017 suncat2062 pw.x -in pw.inp   Done                     01/16/2018 11:23:08
00018 suncat2062 pw.x -in pw.inp   Done                     01/16/2018 11:23:08
00019 suncat2062 pw.x -in pw.inp   Done                     01/16/2018 11:23:08
00020 suncat2062 pw.x -in pw.inp   Done                     01/16/2018 11:23:08
00021 suncat2062 pw.x -in pw.inp   Done                     01/16/2018 11:23:08
00022 suncat2062 pw.x -in pw.inp   Done                     01/16/2018 11:23:08
00023 suncat2062 pw.x -in pw.inp   Done                     01/16/2018 11:23:08
00024 suncat2062 pw.x -in pw.inp   Done                     01/16/2018 11:23:08
00025 suncat2062 pw.x -in pw.inp   Done                     01/16/2018 11:23:08
00026 suncat2062 pw.x -in pw.inp   Done                     01/16/2018 11:23:08
00027 suncat2062 pw.x -in pw.inp   Done                     01/16/2018 11:23:08
00028 suncat2062 pw.x -in pw.inp   Done                     01/16/2018 11:23:08
00029 suncat2062 pw.x -in pw.inp   Done                     01/16/2018 11:23:08
00030 suncat2062 pw.x -in pw.inp   Done                     01/16/2018 11:23:08
00031 suncat2062 pw.x -in pw.inp   Done                     01/16/2018 11:23:08

     Program PWSCF v.5.1rc2 (svn rev. 11289) starts on 16Jan2018 at 11:23:13 

     This program is part of the open-source Quantum ESPRESSO suite
     for quantum simulation of materials; please cite
         "P. Giannozzi et al., J. Phys.:Condens. Matter 21 395502 (2009);
          URL http://www.quantum-espresso.org", 
     in publications or presentations arising from this work. More details at
     http://www.quantum-espresso.org/quote

     Parallel version (MPI), running on    32 processors
     R & G space division:  proc/nbgrp/npool/nimage =      32
     Reading input from pw.inp
     Message from routine read_cards :
     DEPRECATED: no units specified in CELL_PARAMETERS card

     Current dimensions of program PWSCF are:
     Max number of different atomic species (ntypx) = 10
     Max number of k-points (npk) =  40000
     Max angular momentum in pseudopotentials (lmaxx) =  3
     Presently stress not available with electric field


     **************************************************************************
     Initializing libbeef V0.1.1 with the BEEF-vdW functional.
     Citation: Wellendorff et al., PRB 85, 235149 (2012).
     **************************************************************************


     IMPORTANT: XC functional enforced from input :
     Exchange-correlation      = BEEF-VDW ( 1  4 27 13 2)
     Any further DFT definition will be discarded
     Please, verify this is what you really want


     Subspace diagonalization in iterative solution of the eigenvalue problem:
     a serial algorithm will be used

 
     Parallelization info
     --------------------
     sticks:   dense  smooth     PW     G-vecs:    dense   smooth      PW
     Min         123      49     14                24159     6095     922
     Max         124      50     15                24174     6130     942
     Sum        3949    1585    451               773273   195593   29841
 


     bravais-lattice index     =            0
     lattice parameter (alat)  =       1.8897  a.u.
     unit-cell volume          =    6501.5726 (a.u.)^3
     number of atoms/cell      =           13
     number of atomic types    =            2
     number of electrons       =       162.00
     number of Kohn-Sham states=           91
     kinetic-energy cutoff     =      36.7493  Ry
     charge density cutoff     =     367.4932  Ry
     convergence threshold     =      1.0E-05
     mixing beta               =       0.3000
     number of iterations used =           10  plain     mixing
     Exchange-correlation      = BEEF-VDW ( 1  4 27 13 2)
     nstep                     =           50


     celldm(1)=   1.889726  celldm(2)=   0.000000  celldm(3)=   0.000000
     celldm(4)=   0.000000  celldm(5)=   0.000000  celldm(6)=   0.000000

     crystal axes: (cart. coord. in units of alat)
               a(1) = (   6.617606   0.000000   0.000000 )  
               a(2) = (   3.308803   5.731015   0.000000 )  
               a(3) = (   0.000000   0.000000  25.403253 )  

     reciprocal axes: (cart. coord. in units 2 pi/alat)
               b(1) = (  0.151112 -0.087245  0.000000 )  
               b(2) = (  0.000000  0.174489  0.000000 )  
               b(3) = (  0.000000  0.000000  0.039365 )  


     PseudoPot. # 1 for In read from file:
     /afs/slac.stanford.edu/u/if/mamunm/psp/gbrv1.5pbe/In.UPF
     MD5 check sum: 90777abd96fbb83f2e67db2a40c566b9
     Pseudo is Ultrasoft + core correction, Zval = 13.0
     Generated by new atomic code, or converted to UPF format
     Using radial grid of  889 points,  6 beta functions with: 
                l(1) =   0
                l(2) =   0
                l(3) =   1
                l(4) =   1
                l(5) =   2
                l(6) =   2
     Q(r) pseudized with  6 coefficients,  rinner =    1.400   1.400   1.400
                                                       1.400   1.400

     PseudoPot. # 2 for O  read from file:
     /afs/slac.stanford.edu/u/if/mamunm/psp/gbrv1.5pbe/O.UPF
     MD5 check sum: 734c27235a0248c51dbae37a1fbe46ec
     Pseudo is Ultrasoft + core correction, Zval =  6.0
     Generated by new atomic code, or converted to UPF format
     Using radial grid of  737 points,  5 beta functions with: 
                l(1) =   0
                l(2) =   0
                l(3) =   1
                l(4) =   1
                l(5) =   2
     Q(r) pseudized with  8 coefficients,  rinner =    0.900   0.900   0.900
                                                       0.900   0.900

     vdW kernel table read from file vdW_kernel_table
     MD5 check sum: 095c7af220d748ca6e76c0b4c6cfb241

     atomic species   valence    mass     pseudopotential
        In1           13.00   114.81800     In( 1.00)
        O1             6.00    15.99900     O ( 1.00)

     No symmetry found



   Cartesian axes

     site n.     atom                  positions (alat units)
         1           In1 tau(   1) = (   1.6544016   0.9551692  10.0000000  )
         2           In1 tau(   2) = (   4.9632047   0.9551692  10.0000000  )
         3           In1 tau(   3) = (   3.3088031   3.8206768  10.0000000  )
         4           In1 tau(   4) = (   6.6176063   3.8206768  10.0000000  )
         5           In1 tau(   5) = (   6.6176063   1.9103384  12.7016265  )
         6           In1 tau(   6) = (   3.3088031   1.9103384  12.7016265  )
         7           In1 tau(   7) = (   8.2720078   4.7758460  12.7016265  )
         8           In1 tau(   8) = (   4.9632047   4.7758460  12.7016265  )
         9           In1 tau(   9) = (   0.0000069   0.0000022  15.5668204  )
        10           In1 tau(  10) = (   3.3087989   0.0003111  15.4447847  )
        11           In1 tau(  11) = (   1.6546685   2.8653473  15.4447788  )
        12           In1 tau(  12) = (   4.9629396   2.8653549  15.4447873  )
        13           O1  tau(  13) = (   6.6176061   0.0000010  17.3005863  )

     number of k points=    20  Fermi-Dirac smearing, width (Ry)=  0.0110
                       cart. coord. in units 2pi/alat
        k(    1) = (   0.0000000   0.0000000   0.0000000), wk =   0.0555556
        k(    2) = (   0.0000000   0.0290815   0.0000000), wk =   0.1111111
        k(    3) = (   0.0000000   0.0581631   0.0000000), wk =   0.1111111
        k(    4) = (   0.0000000  -0.0872446   0.0000000), wk =   0.0555556
        k(    5) = (   0.0251853  -0.0145408   0.0000000), wk =   0.1111111
        k(    6) = (   0.0251853   0.0145408   0.0000000), wk =   0.1111111
        k(    7) = (   0.0251853   0.0436223   0.0000000), wk =   0.1111111
        k(    8) = (   0.0251853  -0.1017853   0.0000000), wk =   0.1111111
        k(    9) = (   0.0251853  -0.0727038   0.0000000), wk =   0.1111111
        k(   10) = (   0.0251853  -0.0436223   0.0000000), wk =   0.1111111
        k(   11) = (   0.0503707  -0.0290815   0.0000000), wk =   0.1111111
        k(   12) = (   0.0503707   0.0000000   0.0000000), wk =   0.1111111
        k(   13) = (   0.0503707   0.0290815   0.0000000), wk =   0.1111111
        k(   14) = (   0.0503707  -0.1163261   0.0000000), wk =   0.1111111
        k(   15) = (   0.0503707  -0.0872446   0.0000000), wk =   0.1111111
        k(   16) = (   0.0503707  -0.0581631   0.0000000), wk =   0.1111111
        k(   17) = (  -0.0755560   0.0436223   0.0000000), wk =   0.0555556
        k(   18) = (  -0.0755560   0.0727038   0.0000000), wk =   0.1111111
        k(   19) = (  -0.0755560   0.1017853   0.0000000), wk =   0.1111111
        k(   20) = (  -0.0755560  -0.0436223   0.0000000), wk =   0.0555556

     Dense  grid:   773273 G-vectors     FFT dimensions: (  80,  80, 300)

     Smooth grid:   195593 G-vectors     FFT dimensions: (  50,  50, 192)

     Largest allocated arrays     est. size (Mb)     dimensions
        Kohn-Sham Wavefunctions         1.13 Mb     (     813,   91)
        NL pseudopotentials             2.84 Mb     (     813,  229)
        Each V/rho on FFT grid          0.98 Mb     (   64000)
        Each G-vector array             0.18 Mb     (   24161)
        G-vector shells                 0.08 Mb     (   10769)
     Largest temporary arrays     est. size (Mb)     dimensions
        Auxiliary wavefunctions         4.52 Mb     (     813,  364)
        Each subspace H/S matrix        2.02 Mb     (     364,  364)
        Each <psi_i|beta_j> matrix      0.32 Mb     (     229,   91)
        Arrays for rho mixing           9.77 Mb     (   64000,   10)

     Initial potential from superposition of free atoms
     Check: negative starting charge=   -0.000417

     starting charge  143.99999, renormalised to  162.00000

     negative rho (up, down):  4.695E-04 0.000E+00


     ************************************************************************
     *
     * You are using vdW-DF for exchange-correlation in this calculation.
     * Please cite the following three references that made this development
     * possible:
     *
     *   M. Dion, H. Rydberg, E. Schroder, D. C. Langreth, and
     *   B. I. Lundqvist, Phys. Rev. Lett. 92, 246401 (2004).
     *
     *   T. Thonhauser, V. R. Cooper, S. Li, A. Puzder, P. Hyldgaard, and
     *   D. C. Langreth, Phys. Rev. B 76, 125112 (2007).
     *
     *   G. Roman-Perez and J. M. Soler, Phys. Rev. Lett. 103, 096102 (2009).
     *
     *
     * If you are using vdW-DF2, please also cite:
     *
     *   K. Lee, E. D. Murray, L. Kong, B. I. Lundqvist, and
     *   D. C. Langreth, Phys. Rev. B 82, 081101(R) (2010).
     *
     *
     * If you are calculating the stress with vdW-DF, please also cite:
     *
     *   R. Sabatini, E. Kucukbenli, B. Kolb, T. Thonhauser, and
     *   S. de Gironcoli, J. Phys.: Condens. Matter 24, 424209 (2012).
     *
     ************************************************************************

     Carrying out vdW-DF run using the following parameters:

     Nqs =      20    Nr_points =    1024   r_max =   100.000
     q_mesh =
               0.00001000     0.04494208     0.09755937     0.15916263
               0.23128650     0.31572767     0.41458969     0.53033537
               0.66584808     0.82450364     1.01025438     1.22772762
               1.48234092     1.78043706     2.12944203     2.53805004
               3.01644009     3.57652955     4.23227104     5.00000000

     Gradients computed in reciprocal space

     ************************************************************************


 
     Adding external electric field

     Computed dipole along edir(3) : 
        Dipole               -6.4840 Ry au,        -16.4808 Debye
        Dipole field         -0.0125 Ry au
 
        Potential amp.        1.1732 Ry
        Total length         46.8051 bohr
 
     Starting wfc are  112 randomized atomic wfcs

     total cpu time spent up to now is        7.6 secs

     Self-consistent Calculation

     iteration #  1     ecut=    36.75 Ry     beta=0.30
     Davidson diagonalization with overlap
     ethr =  1.00E-02,  avg # of iterations =  8.9

     negative rho (up, down):  1.166E-04 0.000E+00
 
     Adding external electric field

     Computed dipole along edir(3) : 
        Dipole              146.8943 Ry au,        373.3680 Debye
        Dipole field          0.2839 Ry au
 
        Potential amp.      -26.5778 Ry
        Total length         46.8051 bohr
 

     total cpu time spent up to now is       36.8 secs

     total energy              =   -1062.07130628 Ry
     Harris-Foulkes estimate   =   -1634.48079127 Ry
     estimated scf accuracy    <    1225.38787830 Ry

     iteration #  2     ecut=    36.75 Ry     beta=0.30
     Davidson diagonalization with overlap
     ethr =  1.00E-02,  avg # of iterations = 23.4
 
     Adding external electric field

     Computed dipole along edir(3) : 
        Dipole               38.6790 Ry au,         98.3122 Debye
        Dipole field          0.0748 Ry au
 
        Potential amp.       -6.9983 Ry
        Total length         46.8051 bohr
 

     total cpu time spent up to now is      129.2 secs

     total energy              =   -1383.67535258 Ry
     Harris-Foulkes estimate   =   -2992.73158377 Ry
     estimated scf accuracy    <   15114.04915082 Ry

     iteration #  3     ecut=    36.75 Ry     beta=0.30
     Davidson diagonalization with overlap
     ethr =  1.00E-02,  avg # of iterations = 14.1
 
     Adding external electric field

     Computed dipole along edir(3) : 
        Dipole               35.0829 Ry au,         89.1719 Debye
        Dipole field          0.0678 Ry au
 
        Potential amp.       -6.3476 Ry
        Total length         46.8051 bohr
 

     total cpu time spent up to now is      184.0 secs

     total energy              =   -1602.32720984 Ry
     Harris-Foulkes estimate   =   -1967.53529811 Ry
     estimated scf accuracy    <    3051.87847777 Ry

     iteration #  4     ecut=    36.75 Ry     beta=0.30
     Davidson diagonalization with overlap
     ethr =  1.00E-02,  avg # of iterations = 17.1
 
     Adding external electric field

     Computed dipole along edir(3) : 
        Dipole               27.5402 Ry au,         70.0003 Debye
        Dipole field          0.0532 Ry au
 
        Potential amp.       -4.9829 Ry
        Total length         46.8051 bohr
 

     total cpu time spent up to now is      232.4 secs

     total energy              =   -1664.40973145 Ry
     Harris-Foulkes estimate   =   -1685.74023805 Ry
     estimated scf accuracy    <     101.12661821 Ry

     iteration #  5     ecut=    36.75 Ry     beta=0.30
     Davidson diagonalization with overlap
     ethr =  1.00E-02,  avg # of iterations =  3.6
 
     Adding external electric field

     Computed dipole along edir(3) : 
        Dipole               22.7117 Ry au,         57.7274 Debye
        Dipole field          0.0439 Ry au
 
        Potential amp.       -4.1093 Ry
        Total length         46.8051 bohr
 

     total cpu time spent up to now is      250.2 secs

     total energy              =   -1659.59854469 Ry
     Harris-Foulkes estimate   =   -1669.67888992 Ry
     estimated scf accuracy    <      95.59710049 Ry

     iteration #  6     ecut=    36.75 Ry     beta=0.30
     Davidson diagonalization with overlap
     ethr =  1.00E-02,  avg # of iterations =  2.4
 
     Adding external electric field

     Computed dipole along edir(3) : 
        Dipole               15.5237 Ry au,         39.4573 Debye
        Dipole field          0.0300 Ry au
 
        Potential amp.       -2.8087 Ry
        Total length         46.8051 bohr
 

     total cpu time spent up to now is      262.9 secs

     total energy              =   -1653.24916443 Ry
     Harris-Foulkes estimate   =   -1661.05954458 Ry
     estimated scf accuracy    <      42.28842593 Ry

     iteration #  7     ecut=    36.75 Ry     beta=0.30
     Davidson diagonalization with overlap
     ethr =  1.00E-02,  avg # of iterations =  2.5
 
     Adding external electric field

     Computed dipole along edir(3) : 
        Dipole               14.0189 Ry au,         35.6325 Debye
        Dipole field          0.0271 Ry au
 
        Potential amp.       -2.5365 Ry
        Total length         46.8051 bohr
 

     total cpu time spent up to now is      276.1 secs

     total energy              =   -1652.95042086 Ry
     Harris-Foulkes estimate   =   -1654.21739482 Ry
     estimated scf accuracy    <      16.65374119 Ry

     iteration #  8     ecut=    36.75 Ry     beta=0.30
     Davidson diagonalization with overlap
     ethr =  1.00E-02,  avg # of iterations =  1.0
 
     Adding external electric field

     Computed dipole along edir(3) : 
        Dipole                8.1226 Ry au,         20.6456 Debye
        Dipole field          0.0157 Ry au
 
        Potential amp.       -1.4696 Ry
        Total length         46.8051 bohr
 

     total cpu time spent up to now is      288.1 secs

     total energy              =   -1650.54514350 Ry
     Harris-Foulkes estimate   =   -1653.35889178 Ry
     estimated scf accuracy    <      12.02943231 Ry

     iteration #  9     ecut=    36.75 Ry     beta=0.30
     Davidson diagonalization with overlap
     ethr =  7.43E-03,  avg # of iterations =  1.4

     negative rho (up, down):  6.156E-02 0.000E+00
 
     Adding external electric field

     Computed dipole along edir(3) : 
        Dipole                2.3792 Ry au,          6.0472 Debye
        Dipole field          0.0046 Ry au
 
        Potential amp.       -0.4305 Ry
        Total length         46.8051 bohr
 

     total cpu time spent up to now is      300.2 secs

     total energy              =   -1649.29513761 Ry
     Harris-Foulkes estimate   =   -1650.82007410 Ry
     estimated scf accuracy    <       5.35456196 Ry

     iteration # 10     ecut=    36.75 Ry     beta=0.30
     Davidson diagonalization with overlap
     ethr =  3.31E-03,  avg # of iterations =  3.0

     negative rho (up, down):  2.347E-02 0.000E+00
 
     Adding external electric field

     Computed dipole along edir(3) : 
        Dipole                2.7541 Ry au,          7.0002 Debye
        Dipole field          0.0053 Ry au
 
        Potential amp.       -0.4983 Ry
        Total length         46.8051 bohr
 

     total cpu time spent up to now is      315.6 secs

     total energy              =   -1649.75725724 Ry
     Harris-Foulkes estimate   =   -1649.98388604 Ry
     estimated scf accuracy    <       4.40678522 Ry

     iteration # 11     ecut=    36.75 Ry     beta=0.30
     Davidson diagonalization with overlap
     ethr =  2.72E-03,  avg # of iterations =  1.1
 
     Adding external electric field

     Computed dipole along edir(3) : 
        Dipole                2.9563 Ry au,          7.5143 Debye
        Dipole field          0.0057 Ry au
 
        Potential amp.       -0.5349 Ry
        Total length         46.8051 bohr
 

     total cpu time spent up to now is      327.7 secs

     total energy              =   -1649.64106727 Ry
     Harris-Foulkes estimate   =   -1649.83692469 Ry
     estimated scf accuracy    <       0.57428962 Ry

     iteration # 12     ecut=    36.75 Ry     beta=0.30
     Davidson diagonalization with overlap
     ethr =  3.54E-04,  avg # of iterations =  4.7

     negative rho (up, down):  1.254E-01 0.000E+00
 
     Adding external electric field

     Computed dipole along edir(3) : 
        Dipole               -1.4430 Ry au,         -3.6677 Debye
        Dipole field         -0.0028 Ry au
 
        Potential amp.        0.2611 Ry
        Total length         46.8051 bohr
 

     total cpu time spent up to now is      345.5 secs

     total energy              =   -1649.21311207 Ry
     Harris-Foulkes estimate   =   -1650.02165383 Ry
     estimated scf accuracy    <       3.16297971 Ry

     iteration # 13     ecut=    36.75 Ry     beta=0.30
     Davidson diagonalization with overlap
     ethr =  3.54E-04,  avg # of iterations =  9.4

     negative rho (up, down):  3.483E-02 0.000E+00
 
     Adding external electric field

     Computed dipole along edir(3) : 
        Dipole                0.5978 Ry au,          1.5194 Debye
        Dipole field          0.0012 Ry au
 
        Potential amp.       -0.1082 Ry
        Total length         46.8051 bohr
 

     total cpu time spent up to now is      372.3 secs

     total energy              =   -1649.15112084 Ry
     Harris-Foulkes estimate   =   -1650.10404929 Ry
     estimated scf accuracy    <      15.24699590 Ry

     iteration # 14     ecut=    36.75 Ry     beta=0.30
     Davidson diagonalization with overlap
     ethr =  3.54E-04,  avg # of iterations =  6.8

     negative rho (up, down):  2.052E-02 0.000E+00
 
     Adding external electric field

     Computed dipole along edir(3) : 
        Dipole               -0.4864 Ry au,         -1.2363 Debye
        Dipole field         -0.0009 Ry au
 
        Potential amp.        0.0880 Ry
        Total length         46.8051 bohr
 

     total cpu time spent up to now is      390.8 secs

     total energy              =   -1649.68352836 Ry
     Harris-Foulkes estimate   =   -1649.72651483 Ry
     estimated scf accuracy    <       0.45820472 Ry

     iteration # 15     ecut=    36.75 Ry     beta=0.30
     Davidson diagonalization with overlap
     ethr =  2.83E-04,  avg # of iterations =  1.2

     negative rho (up, down):  2.076E-02 0.000E+00
 
     Adding external electric field

     Computed dipole along edir(3) : 
        Dipole               -0.9833 Ry au,         -2.4992 Debye
        Dipole field         -0.0019 Ry au
 
        Potential amp.        0.1779 Ry
        Total length         46.8051 bohr
 

     total cpu time spent up to now is      403.2 secs

     total energy              =   -1649.68926385 Ry
     Harris-Foulkes estimate   =   -1649.69009555 Ry
     estimated scf accuracy    <       0.05104173 Ry

     iteration # 16     ecut=    36.75 Ry     beta=0.30
     Davidson diagonalization with overlap
     ethr =  3.15E-05,  avg # of iterations =  5.5

     negative rho (up, down):  5.539E-03 0.000E+00
 
     Adding external electric field

     Computed dipole along edir(3) : 
        Dipole               -0.9129 Ry au,         -2.3203 Debye
        Dipole field         -0.0018 Ry au
 
        Potential amp.        0.1652 Ry
        Total length         46.8051 bohr
 

     total cpu time spent up to now is      419.1 secs

     total energy              =   -1649.68810095 Ry
     Harris-Foulkes estimate   =   -1649.69092278 Ry
     estimated scf accuracy    <       0.01726042 Ry

     iteration # 17     ecut=    36.75 Ry     beta=0.30
     Davidson diagonalization with overlap
     ethr =  1.07E-05,  avg # of iterations =  3.4

     negative rho (up, down):  2.129E-03 0.000E+00
 
     Adding external electric field

     Computed dipole along edir(3) : 
        Dipole               -0.8921 Ry au,         -2.2676 Debye
        Dipole field         -0.0017 Ry au
 
        Potential amp.        0.1614 Ry
        Total length         46.8051 bohr
 

     total cpu time spent up to now is      433.4 secs

     total energy              =   -1649.68852778 Ry
     Harris-Foulkes estimate   =   -1649.68888889 Ry
     estimated scf accuracy    <       0.00225145 Ry

     iteration # 18     ecut=    36.75 Ry     beta=0.30
     Davidson diagonalization with overlap
     ethr =  1.39E-06,  avg # of iterations =  3.1

     negative rho (up, down):  5.912E-03 0.000E+00
 
     Adding external electric field

     Computed dipole along edir(3) : 
        Dipole               -0.9580 Ry au,         -2.4351 Debye
        Dipole field         -0.0019 Ry au
 
        Potential amp.        0.1733 Ry
        Total length         46.8051 bohr
 

     total cpu time spent up to now is      447.5 secs

     total energy              =   -1649.68875032 Ry
     Harris-Foulkes estimate   =   -1649.68845093 Ry
     estimated scf accuracy    <       0.00228453 Ry

     iteration # 19     ecut=    36.75 Ry     beta=0.30
     Davidson diagonalization with overlap
     ethr =  1.39E-06,  avg # of iterations =  2.6

     negative rho (up, down):  4.206E-03 0.000E+00
 
     Adding external electric field

     Computed dipole along edir(3) : 
        Dipole               -0.9317 Ry au,         -2.3682 Debye
        Dipole field         -0.0018 Ry au
 
        Potential amp.        0.1686 Ry
        Total length         46.8051 bohr
 

     total cpu time spent up to now is      461.2 secs

     total energy              =   -1649.68870477 Ry
     Harris-Foulkes estimate   =   -1649.68887702 Ry
     estimated scf accuracy    <       0.00077841 Ry

     iteration # 20     ecut=    36.75 Ry     beta=0.30
     Davidson diagonalization with overlap
     ethr =  4.81E-07,  avg # of iterations =  1.6

     negative rho (up, down):  3.409E-03 0.000E+00
 
     Adding external electric field

     Computed dipole along edir(3) : 
        Dipole               -0.9144 Ry au,         -2.3242 Debye
        Dipole field         -0.0018 Ry au
 
        Potential amp.        0.1654 Ry
        Total length         46.8051 bohr
 

     total cpu time spent up to now is      473.6 secs

     total energy              =   -1649.68864160 Ry
     Harris-Foulkes estimate   =   -1649.68877003 Ry
     estimated scf accuracy    <       0.00086888 Ry

     iteration # 21     ecut=    36.75 Ry     beta=0.30
     Davidson diagonalization with overlap
     ethr =  4.81E-07,  avg # of iterations =  1.7

     negative rho (up, down):  2.642E-03 0.000E+00
 
     Adding external electric field

     Computed dipole along edir(3) : 
        Dipole               -0.8998 Ry au,         -2.2871 Debye
        Dipole field         -0.0017 Ry au
 
        Potential amp.        0.1628 Ry
        Total length         46.8051 bohr
 

     total cpu time spent up to now is      486.3 secs

     total energy              =   -1649.68860959 Ry
     Harris-Foulkes estimate   =   -1649.68869991 Ry
     estimated scf accuracy    <       0.00039913 Ry

     iteration # 22     ecut=    36.75 Ry     beta=0.30
     Davidson diagonalization with overlap
     ethr =  2.46E-07,  avg # of iterations =  2.5

     negative rho (up, down):  1.803E-03 0.000E+00
 
     Adding external electric field

     Computed dipole along edir(3) : 
        Dipole               -0.8804 Ry au,         -2.2376 Debye
        Dipole field         -0.0017 Ry au
 
[...]
     0.4838   0.7403   0.8642   1.4904   1.5554   1.8190   1.8860   2.0774
     2.3865   2.5977   2.9557

          k = 0.0252-0.0727 0.0000 ( 24479 PWs)   bands (ev):

   -16.7690 -14.7980 -14.7755 -14.7690 -14.7628 -14.7562 -14.7342 -14.7279
   -14.7212 -14.7129 -14.7104 -14.7026 -14.6986 -14.6913 -14.6870 -14.6804
   -14.6749 -14.6701 -14.6631 -14.6606 -14.6573 -14.6505 -14.6440 -14.6396
   -14.6350 -14.6299 -14.6225 -14.6193 -14.6097 -14.6068 -14.6035 -14.5978
   -14.5887 -14.5845 -14.5772 -14.5668 -14.5567 -14.5466 -14.5401 -14.5352
   -14.5263 -14.5202 -14.5105 -14.5072 -14.4971 -14.4854 -14.4796 -14.4694
   -14.4642 -14.4512 -14.4485 -14.4380 -14.4250 -14.4224 -14.4138 -14.4019
   -14.3864 -14.3831 -14.2299 -14.2205 -13.6403  -7.7570  -6.9128  -6.3078
    -6.0425  -5.5406  -4.8819  -4.5784  -3.9187  -3.6303  -3.2210  -2.8111
    -2.0985  -1.4517  -1.2744  -1.0995  -0.8357  -0.4697  -0.0502   0.3104
     0.4838   0.7403   0.8642   1.4904   1.5553   1.8188   1.8861   2.0773
     2.3866   2.5977   2.9557

          k = 0.0252-0.0436 0.0000 ( 24482 PWs)   bands (ev):

   -16.7696 -14.8299 -14.8214 -14.7954 -14.7801 -14.7764 -14.7582 -14.7487
   -14.7446 -14.7325 -14.7289 -14.7270 -14.7175 -14.7137 -14.6996 -14.6921
   -14.6863 -14.6837 -14.6824 -14.6755 -14.6744 -14.6703 -14.6638 -14.6581
   -14.6463 -14.6394 -14.6339 -14.6292 -14.6178 -14.6084 -14.6043 -14.5978
   -14.5851 -14.5696 -14.5654 -14.5517 -14.5436 -14.5378 -14.5294 -14.5110
   -14.4998 -14.4870 -14.4756 -14.4727 -14.4604 -14.4599 -14.4529 -14.4465
   -14.4385 -14.4242 -14.4211 -14.4137 -14.4054 -14.3987 -14.3940 -14.3880
   -14.3777 -14.3763 -14.2271 -14.2218 -13.6383  -8.2962  -6.8205  -5.9107
    -5.6832  -5.2698  -4.4621  -4.4439  -3.5648  -3.2387  -3.0360  -2.9979
    -2.4890  -1.9226  -1.6397  -1.2483  -1.0003  -0.7721  -0.4717  -0.4019
    -0.0199   0.2372   0.5220   1.0092   1.2003   1.3066   1.8465   2.0648
     2.2129   2.7376   3.0075

          k = 0.0504-0.0291 0.0000 ( 24465 PWs)   bands (ev):

   -16.7694 -14.8307 -14.7953 -14.7900 -14.7851 -14.7647 -14.7448 -14.7403
   -14.7377 -14.7370 -14.7202 -14.7173 -14.7106 -14.6955 -14.6934 -14.6895
   -14.6847 -14.6809 -14.6796 -14.6757 -14.6650 -14.6629 -14.6545 -14.6531
   -14.6442 -14.6349 -14.6315 -14.6271 -14.6092 -14.6075 -14.6012 -14.5938
   -14.5917 -14.5751 -14.5664 -14.5601 -14.5499 -14.5379 -14.5369 -14.5227
   -14.5085 -14.4935 -14.4917 -14.4796 -14.4708 -14.4667 -14.4570 -14.4554
   -14.4464 -14.4422 -14.4289 -14.4254 -14.4175 -14.4111 -14.3991 -14.3907
   -14.3742 -14.3716 -14.2269 -14.2222 -13.6390  -8.1606  -6.7172  -6.4575
    -5.3750  -4.9080  -4.7918  -4.7802  -3.8045  -3.5771  -3.5021  -2.4146
    -2.2849  -1.5830  -1.3848  -1.3414  -1.0135  -0.8937  -0.5011   0.1642
     0.3770   0.4534   0.6149   1.2472   1.2925   1.4948   1.7685   2.1696
     2.3714   2.6345   2.6656

          k = 0.0504 0.0000 0.0000 ( 24482 PWs)   bands (ev):

   -16.7696 -14.8299 -14.8214 -14.7954 -14.7801 -14.7764 -14.7582 -14.7487
   -14.7446 -14.7325 -14.7289 -14.7270 -14.7175 -14.7137 -14.6996 -14.6921
   -14.6863 -14.6837 -14.6824 -14.6755 -14.6744 -14.6703 -14.6638 -14.6581
   -14.6463 -14.6394 -14.6339 -14.6292 -14.6178 -14.6084 -14.6043 -14.5978
   -14.5851 -14.5696 -14.5654 -14.5517 -14.5436 -14.5378 -14.5294 -14.5110
   -14.4998 -14.4870 -14.4756 -14.4727 -14.4604 -14.4599 -14.4529 -14.4465
   -14.4385 -14.4242 -14.4211 -14.4137 -14.4055 -14.3987 -14.3940 -14.3880
   -14.3777 -14.3763 -14.2271 -14.2218 -13.6383  -8.2962  -6.8205  -5.9107
    -5.6832  -5.2698  -4.4621  -4.4438  -3.5648  -3.2387  -3.0360  -2.9979
    -2.4891  -1.9226  -1.6397  -1.2483  -1.0004  -0.7720  -0.4717  -0.4019
    -0.0199   0.2372   0.5219   1.0092   1.2004   1.3066   1.8464   2.0648
     2.2130   2.7376   3.0075

          k = 0.0504 0.0291 0.0000 ( 24465 PWs)   bands (ev):

   -16.7694 -14.8307 -14.7953 -14.7900 -14.7851 -14.7647 -14.7448 -14.7403
   -14.7377 -14.7370 -14.7202 -14.7173 -14.7106 -14.6955 -14.6934 -14.6895
   -14.6847 -14.6809 -14.6796 -14.6757 -14.6650 -14.6629 -14.6545 -14.6531
   -14.6442 -14.6349 -14.6315 -14.6271 -14.6092 -14.6075 -14.6012 -14.5938
   -14.5917 -14.5751 -14.5663 -14.5601 -14.5499 -14.5379 -14.5369 -14.5227
   -14.5085 -14.4935 -14.4916 -14.4796 -14.4709 -14.4667 -14.4570 -14.4553
   -14.4464 -14.4422 -14.4289 -14.4254 -14.4175 -14.4111 -14.3991 -14.3907
   -14.3742 -14.3716 -14.2269 -14.2222 -13.6390  -8.1606  -6.7172  -6.4575
    -5.3750  -4.9080  -4.7917  -4.7802  -3.8045  -3.5771  -3.5020  -2.4147
    -2.2849  -1.5828  -1.3849  -1.3415  -1.0133  -0.8936  -0.5012   0.1643
     0.3771   0.4534   0.6149   1.2472   1.2926   1.4949   1.7685   2.1694
     2.3713   2.6346   2.6656

          k = 0.0504-0.1163 0.0000 ( 24479 PWs)   bands (ev):

   -16.7690 -14.7980 -14.7755 -14.7690 -14.7628 -14.7562 -14.7342 -14.7279
   -14.7212 -14.7129 -14.7104 -14.7026 -14.6986 -14.6913 -14.6870 -14.6804
   -14.6749 -14.6701 -14.6631 -14.6606 -14.6573 -14.6505 -14.6440 -14.6397
   -14.6350 -14.6299 -14.6225 -14.6193 -14.6097 -14.6068 -14.6035 -14.5978
   -14.5887 -14.5845 -14.5772 -14.5668 -14.5567 -14.5466 -14.5401 -14.5352
   -14.5263 -14.5202 -14.5105 -14.5072 -14.4971 -14.4854 -14.4796 -14.4694
   -14.4642 -14.4512 -14.4485 -14.4380 -14.4250 -14.4224 -14.4138 -14.4019
   -14.3864 -14.3831 -14.2299 -14.2205 -13.6403  -7.7570  -6.9128  -6.3078
    -6.0425  -5.5405  -4.8818  -4.5784  -3.9187  -3.6303  -3.2210  -2.8112
    -2.0985  -1.4517  -1.2746  -1.0995  -0.8355  -0.4697  -0.0503   0.3106
     0.4838   0.7403   0.8642   1.4903   1.5554   1.8190   1.8860   2.0774
     2.3865   2.5977   2.9557

          k = 0.0504-0.0872 0.0000 ( 24486 PWs)   bands (ev):

   -16.7688 -14.7654 -14.7550 -14.7525 -14.7386 -14.7383 -14.7374 -14.7239
   -14.7230 -14.7201 -14.7086 -14.7003 -14.6967 -14.6965 -14.6818 -14.6804
   -14.6673 -14.6661 -14.6635 -14.6549 -14.6503 -14.6451 -14.6374 -14.6348
   -14.6296 -14.6280 -14.6279 -14.6081 -14.6024 -14.6009 -14.5944 -14.5927
   -14.5906 -14.5809 -14.5769 -14.5699 -14.5640 -14.5598 -14.5573 -14.5464
   -14.5422 -14.5342 -14.5272 -14.5124 -14.5118 -14.4961 -14.4740 -14.4719
   -14.4572 -14.4507 -14.4448 -14.4436 -14.4377 -14.4319 -14.4311 -14.4215
   -14.3953 -14.3923 -14.2320 -14.2194 -13.6409  -7.2569  -6.9434  -6.9371
    -5.6689  -5.6585  -5.6516  -4.1897  -4.1788  -3.7895  -2.5676  -2.5102
    -2.3773  -1.2900  -1.2813  -1.2543  -0.5405  -0.4758  -0.4234   0.1815
     0.2203   0.8738   1.4029   1.5150   1.7273   2.0881   2.1412   2.5384
     2.6754   2.8088   3.0184

          k = 0.0504-0.0582 0.0000 ( 24479 PWs)   bands (ev):

   -16.7690 -14.7980 -14.7755 -14.7690 -14.7628 -14.7563 -14.7342 -14.7279
   -14.7212 -14.7129 -14.7104 -14.7026 -14.6986 -14.6913 -14.6870 -14.6804
   -14.6749 -14.6701 -14.6631 -14.6606 -14.6573 -14.6505 -14.6440 -14.6397
   -14.6350 -14.6298 -14.6225 -14.6193 -14.6097 -14.6068 -14.6035 -14.5978
   -14.5887 -14.5845 -14.5772 -14.5668 -14.5567 -14.5466 -14.5402 -14.5352
   -14.5263 -14.5202 -14.5105 -14.5072 -14.4972 -14.4854 -14.4796 -14.4695
   -14.4642 -14.4512 -14.4485 -14.4380 -14.4250 -14.4224 -14.4138 -14.4019
   -14.3865 -14.3831 -14.2299 -14.2205 -13.6403  -7.7571  -6.9128  -6.3078
    -6.0425  -5.5406  -4.8818  -4.5784  -3.9186  -3.6303  -3.2210  -2.8111
    -2.0985  -1.4517  -1.2745  -1.0996  -0.8356  -0.4697  -0.0503   0.3105
     0.4839   0.7403   0.8641   1.4903   1.5554   1.8188   1.8861   2.0773
     2.3867   2.5977   2.9557

          k =-0.0756 0.0436 0.0000 ( 24448 PWs)   bands (ev):

   -16.7690 -14.8039 -14.7886 -14.7878 -14.7604 -14.7525 -14.7324 -14.7202
   -14.7175 -14.7163 -14.7069 -14.7003 -14.6886 -14.6824 -14.6809 -14.6791
   -14.6696 -14.6652 -14.6611 -14.6581 -14.6575 -14.6469 -14.6430 -14.6362
   -14.6308 -14.6307 -14.6270 -14.6196 -14.6150 -14.6121 -14.6040 -14.6019
   -14.5851 -14.5806 -14.5682 -14.5644 -14.5614 -14.5507 -14.5390 -14.5352
   -14.5230 -14.5193 -14.5163 -14.5062 -14.4994 -14.4945 -14.4893 -14.4773
   -14.4771 -14.4637 -14.4580 -14.4354 -14.4245 -14.4183 -14.4091 -14.3969
   -14.3767 -14.3735 -14.2281 -14.2218 -13.6403  -7.5738  -7.3597  -6.0618
    -6.0511  -4.9860  -4.9160  -4.5707  -4.3905  -3.7147  -3.7022  -2.4552
    -2.3372  -1.1903  -1.1461  -1.0524  -0.6944  -0.0688  -0.0233   0.0297
     0.5526   0.5773   1.0943   1.2284   1.6534   1.8517   1.9508   2.2514
     2.6078   2.7237   2.7432

          k =-0.0756 0.0727 0.0000 ( 24479 PWs)   bands (ev):

   -16.7690 -14.7980 -14.7755 -14.7690 -14.7628 -14.7563 -14.7342 -14.7279
   -14.7212 -14.7129 -14.7104 -14.7026 -14.6986 -14.6913 -14.6870 -14.6804
   -14.6749 -14.6701 -14.6631 -14.6606 -14.6573 -14.6504 -14.6440 -14.6397
   -14.6350 -14.6298 -14.6225 -14.6193 -14.6097 -14.6068 -14.6035 -14.5978
   -14.5887 -14.5845 -14.5772 -14.5668 -14.5567 -14.5466 -14.5402 -14.5352
   -14.5263 -14.5202 -14.5105 -14.5072 -14.4972 -14.4854 -14.4796 -14.4695
   -14.4642 -14.4512 -14.4485 -14.4380 -14.4250 -14.4224 -14.4138 -14.4019
   -14.3865 -14.3831 -14.2299 -14.2205 -13.6403  -7.7571  -6.9128  -6.3078
    -6.0425  -5.5406  -4.8818  -4.5784  -3.9186  -3.6303  -3.2210  -2.8111
    -2.0986  -1.4517  -1.2744  -1.0996  -0.8357  -0.4697  -0.0503   0.3105
     0.4839   0.7403   0.8642   1.4903   1.5554   1.8187   1.8862   2.0772
     2.3866   2.5977   2.9558

          k =-0.0756 0.1018 0.0000 ( 24479 PWs)   bands (ev):

   -16.7690 -14.7980 -14.7755 -14.7690 -14.7628 -14.7562 -14.7342 -14.7279
   -14.7212 -14.7129 -14.7104 -14.7026 -14.6986 -14.6913 -14.6870 -14.6804
   -14.6749 -14.6701 -14.6632 -14.6606 -14.6573 -14.6505 -14.6440 -14.6396
   -14.6350 -14.6298 -14.6225 -14.6193 -14.6097 -14.6068 -14.6035 -14.5978
   -14.5887 -14.5845 -14.5772 -14.5668 -14.5567 -14.5466 -14.5401 -14.5352
   -14.5263 -14.5202 -14.5105 -14.5072 -14.4971 -14.4854 -14.4796 -14.4694
   -14.4642 -14.4512 -14.4485 -14.4380 -14.4250 -14.4224 -14.4138 -14.4019
   -14.3865 -14.3831 -14.2299 -14.2205 -13.6403  -7.7570  -6.9128  -6.3078
    -6.0425  -5.5406  -4.8819  -4.5784  -3.9187  -3.6303  -3.2210  -2.8111
    -2.0986  -1.4517  -1.2744  -1.0996  -0.8357  -0.4697  -0.0501   0.3104
     0.4838   0.7404   0.8642   1.4904   1.5553   1.8187   1.8862   2.0773
     2.3866   2.5978   2.9558

          k =-0.0756-0.0436 0.0000 ( 24448 PWs)   bands (ev):

   -16.7690 -14.8038 -14.7886 -14.7878 -14.7604 -14.7524 -14.7324 -14.7202
   -14.7175 -14.7163 -14.7069 -14.7003 -14.6886 -14.6824 -14.6808 -14.6791
   -14.6696 -14.6652 -14.6612 -14.6581 -14.6575 -14.6469 -14.6430 -14.6362
   -14.6308 -14.6307 -14.6271 -14.6196 -14.6150 -14.6121 -14.6040 -14.6019
   -14.5851 -14.5807 -14.5682 -14.5643 -14.5614 -14.5507 -14.5389 -14.5352
   -14.5229 -14.5193 -14.5163 -14.5062 -14.4994 -14.4945 -14.4893 -14.4773
   -14.4771 -14.4637 -14.4580 -14.4354 -14.4245 -14.4183 -14.4091 -14.3969
   -14.3767 -14.3735 -14.2280 -14.2218 -13.6403  -7.5737  -7.3598  -6.0618
    -6.0512  -4.9860  -4.9160  -4.5707  -4.3906  -3.7147  -3.7022  -2.4553
    -2.3372  -1.1905  -1.1457  -1.0525  -0.6945  -0.0688  -0.0235   0.0297
     0.5526   0.5775   1.0944   1.2285   1.6536   1.8515   1.9503   2.2516
     2.6080   2.7236   2.7432

     the Fermi energy is     0.3404 ev

!    total energy              =   -1649.75613883 Ry
     Harris-Foulkes estimate   =   -1649.75621125 Ry
     estimated scf accuracy    <       0.00000868 Ry

     The total energy is the sum of the following terms:

     one-electron contribution =   -9073.74209350 Ry
     hartree contribution      =    4618.02254283 Ry
     xc contribution           =    -476.94349408 Ry
     ewald contribution        =    3282.94596691 Ry
     electric field correction =       0.00032924 Ry
     smearing contrib. (-TS)   =      -0.03939023 Ry

     convergence has been achieved in  58 iterations
 
 BEEF-vdW xc energy contributions
           1 :   -417.625082690735     
           2 :    381.306138485736     
           3 :   -320.126357001727     
           4 :    251.458211097370     
           5 :   -191.021486646646     
           6 :    147.179966924136     
           7 :   -119.459327111481     
           8 :    101.316490164694     
           9 :   -85.1260384778760     
          10 :    66.4792974620035     
          11 :   -45.6995173978752     
          12 :    26.3209653067819     
          13 :   -12.0299731931316     
          14 :    4.17303772365250     
          15 :   -1.21095441155359     
          16 :   5.233912367071980E-002
          17 :    1.92439475881508     
          18 :   -5.53658595573006     
          19 :    9.82512348076864     
          20 :   -13.1495824888467     
          21 :    14.4461715504153     
          22 :   -13.8265663929678     
          23 :    12.2853326930685     
          24 :   -10.9141411654822     
          25 :    10.2515787918906     
          26 :   -10.1600173929525     
          27 :    10.1649120470939     
          28 :   -9.89533877027270     
          29 :    9.29041896894523     
          30 :   -8.49972222131271     
          31 :   -38.0118653028325     
          32 :   -27.5075221311962     

     Forces acting on atoms (Ry/au):


     negative rho (up, down):  1.207E-03 0.000E+00
     atom    1 type  1   force =    -0.00106482   -0.00061790   -0.00852923
     atom    2 type  1   force =     0.00106361   -0.00061680   -0.00853667
     atom    3 type  1   force =     0.00000047    0.00123023   -0.00847705
     atom    4 type  1   force =    -0.00000615    0.00000235   -0.01019173
     atom    5 type  1   force =     0.00000529    0.01582823    0.00656656
     atom    6 type  1   force =    -0.00000791   -0.00001601    0.01757052
     atom    7 type  1   force =    -0.01372598   -0.00791063    0.00657426
     atom    8 type  1   force =     0.01372775   -0.00790339    0.00659580
     atom    9 type  1   force =    -0.00000921    0.00002717   -0.00020326
     atom   10 type  1   force =    -0.00001900    0.00002363   -0.00020301
     atom   11 type  1   force =     0.00002340   -0.00000332   -0.00019231
     atom   12 type  1   force =    -0.00003028    0.00001317   -0.00020291
     atom   13 type  2   force =     0.00004283   -0.00005673   -0.00077096

     Total force =     0.038957     Total SCF correction =     0.017646
     SCF correction compared to forces is large: reduce conv_thr to get better values


     entering subroutine stress ...


     negative rho (up, down):  1.207E-03 0.000E+00
          total   stress  (Ry/bohr**3)                   (kbar)     P=    4.00
   0.00003262   0.00000000   0.00000002          4.80      0.00      0.00
   0.00000000   0.00003262  -0.00000003          0.00      4.80     -0.00
   0.00000002  -0.00000003   0.00001641          0.00     -0.00      2.41

 !ASE

     Writing output data file calc.save
 
     init_run     :      5.37s CPU      8.43s WALL (       1 calls)
     electrons    :    815.35s CPU   1215.75s WALL (       1 calls)
     forces       :      3.04s CPU      3.43s WALL (       1 calls)
     stress       :      9.16s CPU     10.29s WALL (       1 calls)

     Called by init_run:
     wfcinit      :      3.19s CPU      5.62s WALL (       1 calls)
     potinit      :      0.64s CPU      0.97s WALL (       1 calls)

     Called by electrons:
     c_bands      :    653.41s CPU    976.14s WALL (      58 calls)
     sum_band     :     88.51s CPU    138.46s WALL (      58 calls)
     v_of_rho     :     29.34s CPU     46.17s WALL (      59 calls)
     newd         :     26.84s CPU     27.66s WALL (      59 calls)
     mix_rho      :      1.37s CPU      2.12s WALL (      58 calls)
     vdW_energy   :      7.47s CPU      8.60s WALL (      95 calls)
     vdW_ffts     :     19.49s CPU     35.81s WALL (     192 calls)
     vdW_v        :      4.95s CPU      7.29s WALL (      95 calls)

     Called by c_bands:
     init_us_2    :      6.43s CPU      6.93s WALL (    2380 calls)
     cegterg      :    627.74s CPU    949.81s WALL (    1185 calls)

     Called by *egterg:
     h_psi        :    309.39s CPU    588.76s WALL (    6017 calls)
     s_psi        :     34.64s CPU     34.72s WALL (    6017 calls)
     g_psi        :      2.78s CPU      2.79s WALL (    4812 calls)
     cdiaghg      :    150.08s CPU    152.28s WALL (    5997 calls)

     Called by h_psi:
     add_vuspsi   :     35.96s CPU     36.11s WALL (    6017 calls)

     General routines
     calbec       :     51.24s CPU     56.99s WALL (    7217 calls)
     fft          :     30.49s CPU     57.15s WALL (    5997 calls)
     ffts         :      0.12s CPU      0.24s WALL (     117 calls)
     fftw         :    230.31s CPU    536.87s WALL (  724714 calls)
     interpolate  :      0.68s CPU      1.33s WALL (     117 calls)
     davcio       :      0.00s CPU      0.07s WALL (      20 calls)
 
     Parallel routines
     fft_scatter  :    154.76s CPU    463.59s WALL (  730828 calls)
 
     PWSCF        : 13m53.62s CPU    20m39.20s WALL

 
   This run was terminated on:  15:49: 1  16Jan2018            

=------------------------------------------------------------------------------=
   JOB DONE.
=------------------------------------------------------------------------------=
Job  /afs/slac/g/suncat/bin/suncat-tsmpirun -x LD_LIBRARY_PATH -wdir /scratch/qe842449_aik6H pw.x -in pw.inp

TID   HOST_NAME   COMMAND_LINE            STATUS            TERMINATION_TIME
===== ========== ================  =======================  ===================
00000 suncat2070 pw.x -in pw.inp   Done                     01/16/2018 15:49:02
00001 suncat2070 pw.x -in pw.inp   Done                     01/16/2018 15:49:02
00002 suncat2070 pw.x -in pw.inp   Done                     01/16/2018 15:49:02
00003 suncat2070 pw.x -in pw.inp   Done                     01/16/2018 15:49:01
00004 suncat2070 pw.x -in pw.inp   Done                     01/16/2018 15:49:02
00005 suncat2070 pw.x -in pw.inp   Done                     01/16/2018 15:49:02
00006 suncat2070 pw.x -in pw.inp   Done                     01/16/2018 15:49:02
00007 suncat2070 pw.x -in pw.inp   Done                     01/16/2018 15:49:02
00008 suncat2070 pw.x -in pw.inp   Done                     01/16/2018 15:49:02
00009 suncat2070 pw.x -in pw.inp   Done                     01/16/2018 15:49:02
00010 suncat2070 pw.x -in pw.inp   Done                     01/16/2018 15:49:02
00011 suncat2070 pw.x -in pw.inp   Done                     01/16/2018 15:49:02
00012 suncat2070 pw.x -in pw.inp   Done                     01/16/2018 15:49:02
00013 suncat2070 pw.x -in pw.inp   Done                     01/16/2018 15:49:02
00014 suncat2070 pw.x -in pw.inp   Done                     01/16/2018 15:49:02
00015 suncat2070 pw.x -in pw.inp   Done                     01/16/2018 15:49:02
00016 suncat2062 pw.x -in pw.inp   Done                     01/16/2018 15:49:02
00017 suncat2062 pw.x -in pw.inp   Done                     01/16/2018 15:49:02
00018 suncat2062 pw.x -in pw.inp   Done                     01/16/2018 15:49:02
00019 suncat2062 pw.x -in pw.inp   Done                     01/16/2018 15:49:02
00020 suncat2062 pw.x -in pw.inp   Done                     01/16/2018 15:49:02
00021 suncat2062 pw.x -in pw.inp   Done                     01/16/2018 15:49:02
00022 suncat2062 pw.x -in pw.inp   Done                     01/16/2018 15:49:02
00023 suncat2062 pw.x -in pw.inp   Done                     01/16/2018 15:49:01
00024 suncat2062 pw.x -in pw.inp   Done                     01/16/2018 15:49:02
00025 suncat2062 pw.x -in pw.inp   Done                     01/16/2018 15:49:02
00026 suncat2062 pw.x -in pw.inp   Done                     01/16/2018 15:49:02
00027 suncat2062 pw.x -in pw.inp   Done                     01/16/2018 15:49:02
00028 suncat2062 pw.x -in pw.inp   Done                     01/16/2018 15:49:02
00029 suncat2062 pw.x -in pw.inp   Done                     01/16/2018 15:49:02
00030 suncat2062 pw.x -in pw.inp   Done                     01/16/2018 15:49:02
00031 suncat2062 pw.x -in pw.inp   Done                     01/16/2018 15:49:02
