  python dir          : /nfs/slac/g/suncatfs/sw/espv20/lib/python2.7/site-packages/espresso
  espresso dir        : /nfs/slac/g/suncatfs/sw/espv18/espresso-dynpy-beef/bin
  pseudo dir          : /afs/slac.stanford.edu/u/if/mamunm/psp/gbrv1.5pbe
  ase-espresso py git : ffa2778-git



     Program PWSCF v.5.1rc2 (svn rev. 11289) starts on 16Jan2018 at 14:43: 4 

     This program is part of the open-source Quantum ESPRESSO suite
     for quantum simulation of materials; please cite
         "P. Giannozzi et al., J. Phys.:Condens. Matter 21 395502 (2009);
          URL http://www.quantum-espresso.org", 
     in publications or presentations arising from this work. More details at
     http://www.quantum-espresso.org/quote

     Parallel version (MPI), running on    32 processors
     R & G space division:  proc/nbgrp/npool/nimage =      32
     Reading input from pw.inp
     Message from routine read_cards :
     DEPRECATED: no units specified in CELL_PARAMETERS card

     Current dimensions of program PWSCF are:
     Max number of different atomic species (ntypx) = 10
     Max number of k-points (npk) =  40000
     Max angular momentum in pseudopotentials (lmaxx) =  3
     Presently stress not available with electric field


     **************************************************************************
     Initializing libbeef V0.1.1 with the BEEF-vdW functional.
     Citation: Wellendorff et al., PRB 85, 235149 (2012).
     **************************************************************************


     IMPORTANT: XC functional enforced from input :
     Exchange-correlation      = BEEF-VDW ( 1  4 27 13 2)
     Any further DFT definition will be discarded
     Please, verify this is what you really want


     Subspace diagonalization in iterative solution of the eigenvalue problem:
     a serial algorithm will be used

 
     Parallelization info
     --------------------
     sticks:   dense  smooth     PW     G-vecs:    dense   smooth      PW
     Min          88      35     10                16662     4195     652
     Max          90      36     13                16672     4240     670
     Sum        2839    1135    337               533365   134957   21217
 


     bravais-lattice index     =            0
     lattice parameter (alat)  =       1.8897  a.u.
     unit-cell volume          =    4481.2752 (a.u.)^3
     number of atoms/cell      =           13
     number of atomic types    =            2
     number of electrons       =       193.00
     number of Kohn-Sham states=          106
     kinetic-energy cutoff     =      36.7493  Ry
     charge density cutoff     =     367.4932  Ry
     convergence threshold     =      1.0E-05
     mixing beta               =       0.3000
     number of iterations used =           10  plain     mixing
     Exchange-correlation      = BEEF-VDW ( 1  4 27 13 2)
     nstep                     =           50


     celldm(1)=   1.889726  celldm(2)=   0.000000  celldm(3)=   0.000000
     celldm(4)=   0.000000  celldm(5)=   0.000000  celldm(6)=   0.000000

     crystal axes: (cart. coord. in units of alat)
               a(1) = (   5.587338   0.000000   0.000000 )  
               a(2) = (   2.793669   4.838777   0.000000 )  
               a(3) = (   0.000000   0.000000  24.562042 )  

     reciprocal axes: (cart. coord. in units 2 pi/alat)
               b(1) = (  0.178976 -0.103332  0.000000 )  
               b(2) = (  0.000000  0.206664  0.000000 )  
               b(3) = (  0.000000  0.000000  0.040713 )  


     PseudoPot. # 1 for Pt read from file:
     /afs/slac.stanford.edu/u/if/mamunm/psp/gbrv1.5pbe/Pt.UPF
     MD5 check sum: f09d6de1a584b5a045c4fc126da2d0c4
     Pseudo is Ultrasoft + core correction, Zval = 16.0
     Generated by new atomic code, or converted to UPF format
     Using radial grid of  985 points,  6 beta functions with: 
                l(1) =   0
                l(2) =   0
                l(3) =   1
                l(4) =   1
                l(5) =   2
                l(6) =   2
     Q(r) pseudized with  8 coefficients,  rinner =    1.300   1.300   1.300
                                                       1.300   1.300

     PseudoPot. # 2 for H  read from file:
     /afs/slac.stanford.edu/u/if/mamunm/psp/gbrv1.5pbe/H.UPF
     MD5 check sum: 761ae9a214b05c3daf00ab9f6b793d6f
     Pseudo is Ultrasoft, Zval =  1.0
     Generated by new atomic code, or converted to UPF format
     Using radial grid of  615 points,  2 beta functions with: 
                l(1) =   0
                l(2) =   0
     Q(r) pseudized with  8 coefficients,  rinner =    0.700

     vdW kernel table read from file vdW_kernel_table
     MD5 check sum: 095c7af220d748ca6e76c0b4c6cfb241

     atomic species   valence    mass     pseudopotential
        Pt1           16.00   195.08400     Pt( 1.00)
        H1             1.00     1.00800     H ( 1.00)

     No symmetry found



   Cartesian axes

     site n.     atom                  positions (alat units)
         1           Pt1 tau(   1) = (   1.3968345   0.8064628  10.0000000  )
         2           Pt1 tau(   2) = (   4.1905036   0.8064628  10.0000000  )
         3           Pt1 tau(   3) = (   2.7936691   3.2258512  10.0000000  )
         4           Pt1 tau(   4) = (   5.5873381   3.2258512  10.0000000  )
         5           Pt1 tau(   5) = (   5.5873381   1.6129256  12.2810212  )
         6           Pt1 tau(   6) = (   2.7936691   1.6129256  12.2810212  )
         7           Pt1 tau(   7) = (   6.9841727   4.0323140  12.2810212  )
         8           Pt1 tau(   8) = (   4.1905036   4.0323140  12.2810212  )
         9           Pt1 tau(   9) = (   0.0000000   0.0000000  14.5620425  )
        10           Pt1 tau(  10) = (   2.7936691   0.0000000  14.5620425  )
        11           Pt1 tau(  11) = (   1.3968345   2.4193884  14.5620425  )
        12           Pt1 tau(  12) = (   4.1905036   2.4193884  14.5620425  )
        13           H1  tau(  13) = (   1.3968345   0.8064628  16.2320425  )

     number of k points=    20  Fermi-Dirac smearing, width (Ry)=  0.0110
                       cart. coord. in units 2pi/alat
        k(    1) = (   0.0000000   0.0000000   0.0000000), wk =   0.0555556
        k(    2) = (   0.0000000   0.0344440   0.0000000), wk =   0.1111111
        k(    3) = (   0.0000000   0.0688879   0.0000000), wk =   0.1111111
        k(    4) = (   0.0000000  -0.1033319   0.0000000), wk =   0.0555556
        k(    5) = (   0.0298294  -0.0172220   0.0000000), wk =   0.1111111
        k(    6) = (   0.0298294   0.0172220   0.0000000), wk =   0.1111111
        k(    7) = (   0.0298294   0.0516660   0.0000000), wk =   0.1111111
        k(    8) = (   0.0298294  -0.1205539   0.0000000), wk =   0.1111111
        k(    9) = (   0.0298294  -0.0861099   0.0000000), wk =   0.1111111
        k(   10) = (   0.0298294  -0.0516660   0.0000000), wk =   0.1111111
        k(   11) = (   0.0596587  -0.0344440   0.0000000), wk =   0.1111111
        k(   12) = (   0.0596587   0.0000000   0.0000000), wk =   0.1111111
        k(   13) = (   0.0596587   0.0344440   0.0000000), wk =   0.1111111
        k(   14) = (   0.0596587  -0.1377759   0.0000000), wk =   0.1111111
        k(   15) = (   0.0596587  -0.1033319   0.0000000), wk =   0.1111111
        k(   16) = (   0.0596587  -0.0688879   0.0000000), wk =   0.1111111
        k(   17) = (  -0.0894881   0.0516660   0.0000000), wk =   0.0555556
        k(   18) = (  -0.0894881   0.0861099   0.0000000), wk =   0.1111111
        k(   19) = (  -0.0894881   0.1205539   0.0000000), wk =   0.1111111
        k(   20) = (  -0.0894881  -0.0516660   0.0000000), wk =   0.0555556

     Dense  grid:   533365 G-vectors     FFT dimensions: (  72,  72, 288)

     Smooth grid:   134957 G-vectors     FFT dimensions: (  45,  45, 180)

     Largest allocated arrays     est. size (Mb)     dimensions
        Kohn-Sham Wavefunctions         0.91 Mb     (     564,  106)
        NL pseudopotentials             1.88 Mb     (     564,  218)
        Each V/rho on FFT grid          0.71 Mb     (   46656)
        Each G-vector array             0.13 Mb     (   16671)
        G-vector shells                 0.06 Mb     (    7602)
     Largest temporary arrays     est. size (Mb)     dimensions
        Auxiliary wavefunctions         3.65 Mb     (     564,  424)
        Each subspace H/S matrix        2.74 Mb     (     424,  424)
        Each <psi_i|beta_j> matrix      0.35 Mb     (     218,  106)
        Arrays for rho mixing           7.12 Mb     (   46656,   10)

     Initial potential from superposition of free atoms
     Check: negative starting charge=   -2.200764

     starting charge  186.99986, renormalised to  193.00000

     negative rho (up, down):  2.271E+00 0.000E+00


     ************************************************************************
     *
     * You are using vdW-DF for exchange-correlation in this calculation.
     * Please cite the following three references that made this development
     * possible:
     *
     *   M. Dion, H. Rydberg, E. Schroder, D. C. Langreth, and
     *   B. I. Lundqvist, Phys. Rev. Lett. 92, 246401 (2004).
     *
     *   T. Thonhauser, V. R. Cooper, S. Li, A. Puzder, P. Hyldgaard, and
     *   D. C. Langreth, Phys. Rev. B 76, 125112 (2007).
     *
     *   G. Roman-Perez and J. M. Soler, Phys. Rev. Lett. 103, 096102 (2009).
     *
     *
     * If you are using vdW-DF2, please also cite:
     *
     *   K. Lee, E. D. Murray, L. Kong, B. I. Lundqvist, and
     *   D. C. Langreth, Phys. Rev. B 82, 081101(R) (2010).
     *
     *
     * If you are calculating the stress with vdW-DF, please also cite:
     *
     *   R. Sabatini, E. Kucukbenli, B. Kolb, T. Thonhauser, and
     *   S. de Gironcoli, J. Phys.: Condens. Matter 24, 424209 (2012).
     *
     ************************************************************************

     Carrying out vdW-DF run using the following parameters:

     Nqs =      20    Nr_points =    1024   r_max =   100.000
     q_mesh =
               0.00001000     0.04494208     0.09755937     0.15916263
               0.23128650     0.31572767     0.41458969     0.53033537
               0.66584808     0.82450364     1.01025438     1.22772762
               1.48234092     1.78043706     2.12944203     2.53805004
               3.01644009     3.57652955     4.23227104     5.00000000

     Gradients computed in reciprocal space

     ************************************************************************


 
     Adding external electric field

     Computed dipole along edir(3) : 
        Dipole               -0.2395 Ry au,         -0.6087 Debye
        Dipole field         -0.0007 Ry au
 
        Potential amp.        0.0608 Ry
        Total length         45.2551 bohr
 
     Starting wfc are  145 randomized atomic wfcs

     total cpu time spent up to now is       20.4 secs

     per-process dynamical memory:    49.9 Mb

     Self-consistent Calculation

     iteration #  1     ecut=    36.75 Ry     beta=0.30
     Davidson diagonalization with overlap
     ethr =  1.00E-02,  avg # of iterations =  3.0

     negative rho (up, down):  2.175E+00 0.000E+00
 
     Adding external electric field

     Computed dipole along edir(3) : 
        Dipole                2.4674 Ry au,          6.2715 Debye
        Dipole field          0.0069 Ry au
 
        Potential amp.       -0.6262 Ry
        Total length         45.2551 bohr
 

     total cpu time spent up to now is       60.5 secs

     total energy              =   -2545.40643420 Ry
     Harris-Foulkes estimate   =   -2552.52353383 Ry
     estimated scf accuracy    <      16.36698766 Ry

     iteration #  2     ecut=    36.75 Ry     beta=0.30
     Davidson diagonalization with overlap
     ethr =  8.48E-03,  avg # of iterations =  5.0

     negative rho (up, down):  2.172E+00 0.000E+00
 
     Adding external electric field

     Computed dipole along edir(3) : 
        Dipole               -2.4629 Ry au,         -6.2602 Debye
        Dipole field         -0.0069 Ry au
 
        Potential amp.        0.6251 Ry
        Total length         45.2551 bohr
 

     total cpu time spent up to now is      112.7 secs

     total energy              =   -2539.67663020 Ry
     Harris-Foulkes estimate   =   -2556.56359394 Ry
     estimated scf accuracy    <     216.57145404 Ry

     iteration #  3     ecut=    36.75 Ry     beta=0.30
     Davidson diagonalization with overlap
     ethr =  8.48E-03,  avg # of iterations =  4.7

     negative rho (up, down):  2.163E+00 0.000E+00
 
     Adding external electric field

     Computed dipole along edir(3) : 
        Dipole                0.3075 Ry au,          0.7815 Debye
        Dipole field          0.0009 Ry au
 
        Potential amp.       -0.0780 Ry
        Total length         45.2551 bohr
 

     total cpu time spent up to now is      166.5 secs

     total energy              =   -2544.05388204 Ry
     Harris-Foulkes estimate   =   -2554.52127338 Ry
     estimated scf accuracy    <     177.38789474 Ry

     iteration #  4     ecut=    36.75 Ry     beta=0.30
     Davidson diagonalization with overlap
     ethr =  8.48E-03,  avg # of iterations =  4.0

     negative rho (up, down):  2.145E+00 0.000E+00
 
     Adding external electric field

     Computed dipole along edir(3) : 
        Dipole                0.1432 Ry au,          0.3639 Debye
        Dipole field          0.0004 Ry au
 
        Potential amp.       -0.0363 Ry
        Total length         45.2551 bohr
 

     total cpu time spent up to now is      211.7 secs

     total energy              =   -2548.51203331 Ry
     Harris-Foulkes estimate   =   -2550.15034650 Ry
     estimated scf accuracy    <      10.90285945 Ry

     iteration #  5     ecut=    36.75 Ry     beta=0.30
     Davidson diagonalization with overlap
     ethr =  5.65E-03,  avg # of iterations =  1.8

     negative rho (up, down):  2.136E+00 0.000E+00
 
     Adding external electric field

     Computed dipole along edir(3) : 
        Dipole                0.0743 Ry au,          0.1888 Debye
        Dipole field          0.0002 Ry au
 
        Potential amp.       -0.0189 Ry
        Total length         45.2551 bohr
 

     total cpu time spent up to now is      246.7 secs

     total energy              =   -2549.25414272 Ry
     Harris-Foulkes estimate   =   -2549.34791450 Ry
     estimated scf accuracy    <       0.46865006 Ry

     iteration #  6     ecut=    36.75 Ry     beta=0.30
     Davidson diagonalization with overlap
     ethr =  2.43E-04,  avg # of iterations =  2.8

     negative rho (up, down):  2.132E+00 0.000E+00
 
     Adding external electric field

     Computed dipole along edir(3) : 
        Dipole                0.0590 Ry au,          0.1500 Debye
        Dipole field          0.0002 Ry au
 
        Potential amp.       -0.0150 Ry
        Total length         45.2551 bohr
 

     total cpu time spent up to now is      286.3 secs

     total energy              =   -2549.28519122 Ry
     Harris-Foulkes estimate   =   -2549.34455320 Ry
     estimated scf accuracy    <       0.33721397 Ry

     iteration #  7     ecut=    36.75 Ry     beta=0.30
     Davidson diagonalization with overlap
     ethr =  1.75E-04,  avg # of iterations =  1.5

     negative rho (up, down):  2.121E+00 0.000E+00
 
     Adding external electric field

     Computed dipole along edir(3) : 
        Dipole                0.0281 Ry au,          0.0715 Debye
        Dipole field          0.0001 Ry au
 
        Potential amp.       -0.0071 Ry
        Total length         45.2551 bohr
 

     total cpu time spent up to now is      321.3 secs

     total energy              =   -2549.30718572 Ry
     Harris-Foulkes estimate   =   -2549.31846356 Ry
     estimated scf accuracy    <       0.05771705 Ry

     iteration #  8     ecut=    36.75 Ry     beta=0.30
     Davidson diagonalization with overlap
     ethr =  2.99E-05,  avg # of iterations =  3.6

     negative rho (up, down):  2.119E+00 0.000E+00
 
     Adding external electric field

     Computed dipole along edir(3) : 
        Dipole                0.0213 Ry au,          0.0540 Debye
        Dipole field          0.0001 Ry au
 
        Potential amp.       -0.0054 Ry
        Total length         45.2551 bohr
 

     total cpu time spent up to now is      360.6 secs

     total energy              =   -2549.31086678 Ry
     Harris-Foulkes estimate   =   -2549.31429527 Ry
     estimated scf accuracy    <       0.03061728 Ry

     iteration #  9     ecut=    36.75 Ry     beta=0.30
     Davidson diagonalization with overlap
     ethr =  1.59E-05,  avg # of iterations =  2.5

     negative rho (up, down):  2.118E+00 0.000E+00
 
     Adding external electric field

     Computed dipole along edir(3) : 
        Dipole                0.0113 Ry au,          0.0287 Debye
        Dipole field          0.0000 Ry au
 
        Potential amp.       -0.0029 Ry
        Total length         45.2551 bohr
 

     total cpu time spent up to now is      396.7 secs

     total energy              =   -2549.31174734 Ry
     Harris-Foulkes estimate   =   -2549.31332485 Ry
     estimated scf accuracy    <       0.00929451 Ry

     iteration # 10     ecut=    36.75 Ry     beta=0.30
     Davidson diagonalization with overlap
     ethr =  4.82E-06,  avg # of iterations =  2.1

     negative rho (up, down):  2.117E+00 0.000E+00
 
     Adding external electric field

     Computed dipole along edir(3) : 
        Dipole                0.0096 Ry au,          0.0243 Debye
        Dipole field          0.0000 Ry au
 
        Potential amp.       -0.0024 Ry
        Total length         45.2551 bohr
 

     total cpu time spent up to now is      433.1 secs

     total energy              =   -2549.31226816 Ry
     Harris-Foulkes estimate   =   -2549.31247117 Ry
     estimated scf accuracy    <       0.00226875 Ry

     iteration # 11     ecut=    36.75 Ry     beta=0.30
     Davidson diagonalization with overlap
     ethr =  1.18E-06,  avg # of iterations =  2.6

     negative rho (up, down):  2.117E+00 0.000E+00
 
     Adding external electric field

     Computed dipole along edir(3) : 
        Dipole                0.0063 Ry au,          0.0159 Debye
        Dipole field          0.0000 Ry au
 
        Potential amp.       -0.0016 Ry
        Total length         45.2551 bohr
 

     total cpu time spent up to now is      471.0 secs

     total energy              =   -2549.31248573 Ry
     Harris-Foulkes estimate   =   -2549.31249443 Ry
     estimated scf accuracy    <       0.00059704 Ry

     iteration # 12     ecut=    36.75 Ry     beta=0.30
     Davidson diagonalization with overlap
     ethr =  3.09E-07,  avg # of iterations =  1.1

     negative rho (up, down):  2.117E+00 0.000E+00
 
     Adding external electric field

     Computed dipole along edir(3) : 
        Dipole                0.0076 Ry au,          0.0192 Debye
        Dipole field          0.0000 Ry au
 
        Potential amp.       -0.0019 Ry
        Total length         45.2551 bohr
 

     total cpu time spent up to now is      505.5 secs

     total energy              =   -2549.31246466 Ry
     Harris-Foulkes estimate   =   -2549.31250481 Ry
     estimated scf accuracy    <       0.00019925 Ry

     iteration # 13     ecut=    36.75 Ry     beta=0.30
     Davidson diagonalization with overlap
     ethr =  1.03E-07,  avg # of iterations =  2.2

     negative rho (up, down):  2.117E+00 0.000E+00
 
     Adding external electric field

     Computed dipole along edir(3) : 
        Dipole                0.0081 Ry au,          0.0206 Debye
        Dipole field          0.0000 Ry au
 
        Potential amp.       -0.0021 Ry
        Total length         45.2551 bohr
 

     total cpu time spent up to now is      541.8 secs

     total energy              =   -2549.31247964 Ry
     Harris-Foulkes estimate   =   -2549.31248523 Ry
     estimated scf accuracy    <       0.00006189 Ry

     iteration # 14     ecut=    36.75 Ry     beta=0.30
     Davidson diagonalization with overlap
     ethr =  3.21E-08,  avg # of iterations =  2.0

     negative rho (up, down):  2.117E+00 0.000E+00

     negative rho (up, down):  2.117E+00 0.000E+00

     negative rho (up, down):  2.117E+00 0.000E+00

     negative rho (up, down):  2.117E+00 0.000E+00

     negative rho (up, down):  2.117E+00 0.000E+00

     negative rho (up, down):  2.117E+00 0.000E+00

     negative rho (up, down):  2.117E+00 0.000E+00

     negative rho (up, down):  2.117E+00 0.000E+00

     negative rho (up, down):  2.117E+00 0.000E+00

     negative rho (up, down):  2.117E+00 0.000E+00

     negative rho (up, down):  2.117E+00 0.000E+00

     negative rho (up, down):  2.117E+00 0.000E+00

     negative rho (up, down):  2.117E+00 0.000E+00

     negative rho (up, down):  2.117E+00 0.000E+00

     negative rho (up, down):  2.117E+00 0.000E+00

     negative rho (up, down):  2.117E+00 0.000E+00

     negative rho (up, down):  2.117E+00 0.000E+00

     negative rho (up, down):  2.117E+00 0.000E+00

     negative rho (up, down):  2.117E+00 0.000E+00

     negative rho (up, down):  2.117E+00 0.000E+00

     negative rho (up, down):  2.117E+00 0.000E+00

     negative rho (up, down):  2.117E+00 0.000E+00

     negative rho (up, down):  2.117E+00 0.000E+00

     negative rho (up, down):  2.117E+00 0.000E+00

     negative rho (up, down):  2.117E+00 0.000E+00

     negative rho (up, down):  2.117E+00 0.000E+00

     negative rho (up, down):  2.117E+00 0.000E+00

     negative rho (up, down):  2.117E+00 0.000E+00

     negative rho (up, down):  2.117E+00 0.000E+00

     negative rho (up, down):  2.117E+00 0.000E+00

     negative rho (up, down):  2.117E+00 0.000E+00

     negative rho (up, down):  2.117E+00 0.000E+00

     negative rho (up, down):  2.117E+00 0.000E+00

     negative rho (up, down):  2.117E+00 0.000E+00

     negative rho (up, down):  2.117E+00 0.000E+00
 
     Adding external electric field

     Computed dipole along edir(3) : 
        Dipole               -0.0096 Ry au,         -0.0244 Debye
        Dipole field         -0.0000 Ry au
 
        Potential amp.        0.0024 Ry
        Total length         45.2551 bohr
 

     total cpu time spent up to now is      628.6 secs

     End of self-consistent calculation

          k = 0.0000 0.0000 0.0000 ( 16787 PWs)   bands (ev):

   -51.2540 -51.2534 -51.2236 -51.1844 -51.0871 -51.0692 -51.0679 -51.0034
   -51.0031 -50.9852 -50.9737 -50.9409 -50.9403 -50.9045 -50.9041 -50.8715
   -50.8709 -50.8696 -50.7468 -50.7395 -50.7388 -50.6548 -50.6545 -50.6513
   -50.6199 -50.6197 -50.5732 -50.5731 -50.5719 -50.5395 -50.5386 -50.4692
   -50.4383 -50.4237 -50.4227 -50.4216  -7.0371  -5.3739  -4.8811  -4.5214
    -4.4993  -4.4991  -4.3040  -4.2845  -4.2844  -3.9133  -3.8231  -3.8230
    -3.7013  -3.6683  -3.6681  -2.5324  -2.2724  -2.2720  -1.9075  -1.8879
    -1.8878  -1.7233  -1.6242  -1.6242  -1.4856  -1.3324  -1.3323  -1.1839
    -1.1837  -1.1674  -1.1014  -1.1014  -0.7948  -0.5711  -0.5705  -0.3458
     0.3236   0.3239   0.3281   0.3549   0.3549   0.5264   0.5269   0.6856
     0.9755   0.9756   1.5168   1.5170   1.5175   1.5380   1.5691   1.5695
     1.6863   1.6864   1.9277   1.9282   1.9387   1.9987   2.2042   2.2262
     2.2266   2.3039   2.3042   2.3110   2.9902   3.0800   3.0801   4.1074
     4.7430   4.7434

          k = 0.0000 0.0344 0.0000 ( 16839 PWs)   bands (ev):

   -51.2431 -51.2356 -51.2081 -51.1819 -51.0834 -51.0659 -51.0644 -51.0174
   -51.0050 -50.9783 -50.9731 -50.9309 -50.9295 -50.9222 -50.9090 -50.8633
   -50.8614 -50.8539 -50.7565 -50.7511 -50.7378 -50.6668 -50.6640 -50.6482
   -50.6366 -50.6237 -50.5948 -50.5784 -50.5692 -50.5414 -50.5389 -50.4677
   -50.4381 -50.4250 -50.4231 -50.4213  -6.7985  -5.1382  -4.6572  -4.4964
    -4.3347  -4.3158  -4.2099  -4.1281  -4.1243  -3.8065  -3.7534  -3.7246
    -3.5796  -3.4735  -3.4448  -2.5151  -2.2656  -2.2334  -1.8891  -1.8075
    -1.7967  -1.7965  -1.7399  -1.6437  -1.4552  -1.3785  -1.3574  -1.2565
    -1.2029  -1.1668  -1.1236  -0.9895  -0.9281  -0.7194  -0.6582  -0.5467
     0.1019   0.1261   0.2269   0.2733   0.3313   0.3370   0.3892   0.4154
     0.7798   0.9762   1.1138   1.1234   1.2719   1.3366   1.3589   1.4433
     1.4580   1.5306   1.5970   1.6900   1.6958   1.7145   1.7178   1.9128
     1.9622   2.0127   2.0265   2.0456   2.5860   3.0577   3.6007   3.6093
     4.2121   4.4221

          k = 0.0000 0.0689 0.0000 ( 16852 PWs)   bands (ev):

   -51.2181 -51.1930 -51.1770 -51.1627 -51.0753 -51.0625 -51.0576 -51.0507
   -51.0231 -50.9860 -50.9727 -50.9458 -50.9241 -50.8988 -50.8869 -50.8425
   -50.8360 -50.8056 -50.7865 -50.7837 -50.7309 -50.6967 -50.6909 -50.6767
   -50.6520 -50.6348 -50.6319 -50.5925 -50.5634 -50.5465 -50.5388 -50.4645
   -50.4379 -50.4279 -50.4230 -50.4214  -6.1377  -4.6546  -4.5203  -4.0862
    -4.0108  -3.8711  -3.8444  -3.7519  -3.7333  -3.6070  -3.4431  -3.4090
    -3.2720  -2.9150  -2.8542  -2.5582  -2.3138  -2.2966  -2.1462  -2.0806
    -1.8755  -1.8157  -1.7554  -1.7016  -1.5419  -1.5091  -1.4445  -1.3334
    -1.1127  -1.0714  -1.0107  -1.0012  -0.9851  -0.9125  -0.8846  -0.4349
    -0.3910  -0.3884  -0.3663  -0.2026  -0.1758  -0.0587  -0.0008   0.0370
     0.0647   0.1968   0.2635   0.5522   0.7011   0.7109   0.7474   0.9396
     0.9661   1.0223   1.0744   1.1816   1.3231   1.4242   1.5304   1.5822
     1.7090   1.7775   1.9407   1.9919   2.2477   3.4261   3.8812   3.9502
     4.4630   4.6805

          k = 0.0000-0.1033 0.0000 ( 16880 PWs)   bands (ev):

   -51.2028 -51.1746 -51.1619 -51.1241 -51.0715 -51.0633 -51.0583 -51.0553
   -51.0484 -51.0365 -50.9635 -50.9342 -50.9300 -50.8755 -50.8380 -50.8287
   -50.8280 -50.8163 -50.8107 -50.7404 -50.7284 -50.7268 -50.7103 -50.7083
   -50.7011 -50.6370 -50.6203 -50.6066 -50.5591 -50.5505 -50.5387 -50.4627
   -50.4380 -50.4293 -50.4230 -50.4215  -5.2887  -5.2501  -4.0702  -3.9228
    -3.5941  -3.5597  -3.5415  -3.5334  -3.5186  -3.4945  -3.0067  -3.0067
    -2.8906  -2.7671  -2.6219  -2.6034  -2.5146  -2.2812  -2.2729  -2.2652
    -2.1826  -2.0597  -1.8969  -1.6492  -1.6083  -1.3193  -1.3085  -1.2878
    -1.2419  -1.2019  -1.1293  -0.9523  -0.9482  -0.9412  -0.9396  -0.9284
    -0.8717  -0.8367  -0.8349  -0.7723  -0.2691  -0.2505  -0.2438  -0.0228
     0.0355   0.0435   0.2224   0.2451   0.2999   0.3362   0.4754   0.4949
     0.6041   0.9112   0.9438   0.9517   0.9983   1.1256   1.5293   1.5725
     1.7152   1.7491   1.9769   2.0133   2.5464   3.4510   3.9079   3.9550
     4.3346   4.7842

          k = 0.0298-0.0172 0.0000 ( 16839 PWs)   bands (ev):

   -51.2433 -51.2353 -51.2081 -51.1819 -51.0834 -51.0661 -51.0642 -51.0175
   -51.0047 -50.9785 -50.9732 -50.9310 -50.9293 -50.9223 -50.9089 -50.8630
   -50.8617 -50.8538 -50.7565 -50.7508 -50.7381 -50.6667 -50.6642 -50.6481
   -50.6367 -50.6236 -50.5947 -50.5785 -50.5692 -50.5410 -50.5393 -50.4677
   -50.4381 -50.4246 -50.4235 -50.4213  -6.7985  -5.1382  -4.6572  -4.4964
    -4.3346  -4.3159  -4.2099  -4.1281  -4.1244  -3.8065  -3.7534  -3.7246
    -3.5796  -3.4736  -3.4447  -2.5151  -2.2654  -2.2335  -1.8891  -1.8076
    -1.7967  -1.7965  -1.7399  -1.6437  -1.4552  -1.3786  -1.3573  -1.2566
    -1.2030  -1.1668  -1.1235  -0.9894  -0.9281  -0.7193  -0.6584  -0.5467
     0.1019   0.1261   0.2270   0.2733   0.3313   0.3369   0.3892   0.4154
     0.7799   0.9762   1.1138   1.1234   1.2719   1.3366   1.3589   1.4433
     1.4581   1.5304   1.5971   1.6899   1.6958   1.7146   1.7178   1.9128
     1.9622   2.0126   2.0266   2.0456   2.5860   3.0578   3.6007   3.6093
     4.2120   4.4221

          k = 0.0298 0.0172 0.0000 ( 16839 PWs)   bands (ev):

   -51.2427 -51.2360 -51.2081 -51.1819 -51.0834 -51.0655 -51.0648 -51.0173
   -51.0054 -50.9781 -50.9731 -50.9307 -50.9298 -50.9220 -50.9093 -50.8636
   -50.8611 -50.8539 -50.7565 -50.7514 -50.7375 -50.6669 -50.6637 -50.6484
   -50.6365 -50.6239 -50.5948 -50.5783 -50.5692 -50.5418 -50.5385 -50.4677
   -50.4380 -50.4254 -50.4227 -50.4214  -6.7985  -5.1382  -4.6572  -4.4964
    -4.3348  -4.3158  -4.2099  -4.1282  -4.1243  -3.8065  -3.7533  -3.7247
    -3.5796  -3.4734  -3.4449  -2.5150  -2.2658  -2.2333  -1.8891  -1.8074
    -1.7967  -1.7966  -1.7399  -1.6437  -1.4552  -1.3784  -1.3575  -1.2565
    -1.2027  -1.1668  -1.1237  -0.9895  -0.9281  -0.7196  -0.6580  -0.5468
     0.1020   0.1262   0.2267   0.2733   0.3313   0.3372   0.3892   0.4155
     0.7797   0.9762   1.1139   1.1233   1.2719   1.3367   1.3588   1.4433
     1.4579   1.5308   1.5968   1.6900   1.6958   1.7145   1.7177   1.9128
     1.9622   2.0128   2.0265   2.0456   2.5859   3.0577   3.6007   3.6093
     4.2121   4.4221

          k = 0.0298 0.0517 0.0000 ( 16840 PWs)   bands (ev):

   -51.2244 -51.2027 -51.1804 -51.1775 -51.0776 -51.0626 -51.0596 -51.0489
   -51.0003 -50.9867 -50.9644 -50.9525 -50.9220 -50.9038 -50.9034 -50.8517
   -50.8337 -50.8281 -50.7888 -50.7507 -50.7454 -50.7022 -50.6619 -50.6547
   -50.6540 -50.6328 -50.6321 -50.5893 -50.5650 -50.5452 -50.5387 -50.4654
   -50.4376 -50.4279 -50.4227 -50.4213  -6.3453  -4.7074  -4.3595  -4.3409
    -4.2405  -3.9810  -3.9631  -3.8607  -3.8087  -3.6131  -3.5996  -3.4962
    -3.3156  -3.2357  -2.9623  -2.5414  -2.2804  -2.1996  -2.1729  -1.9141
    -1.8535  -1.7354  -1.6937  -1.6723  -1.6331  -1.5073  -1.3874  -1.2737
    -1.2236  -1.1904  -1.1117  -0.9481  -0.9112  -0.8655  -0.8292  -0.5623
    -0.2654  -0.2130  -0.1951   0.0321   0.0958   0.1263   0.1490   0.1963
     0.2456   0.2749   0.3685   0.4762   0.7750   0.8167   1.0029   1.0595
     1.1844   1.2090   1.3694   1.4357   1.4786   1.5458   1.5787   1.7439
     1.7833   1.8398   2.0370   2.3047   2.3224   2.6631   2.7640   3.6618
     4.8662   5.1430

          k = 0.0298-0.1206 0.0000 ( 16875 PWs)   bands (ev):

   -51.1972 -51.1746 -51.1581 -51.1361 -51.0877 -51.0703 -51.0617 -51.0535
   -51.0369 -51.0045 -50.9740 -50.9397 -50.9249 -50.8747 -50.8603 -50.8342
   -50.8225 -50.8039 -50.7856 -50.7730 -50.7456 -50.7418 -50.6996 -50.6844
   -50.6688 -50.6441 -50.6347 -50.6084 -50.5592 -50.5499 -50.5391 -50.4627
   -50.4371 -50.4307 -50.4225 -50.4214  -5.5502  -4.7315  -4.0789  -4.0329
    -3.7824  -3.6106  -3.5760  -3.4699  -3.4002  -3.3617  -3.2135  -2.9966
    -2.9693  -2.7460  -2.6950  -2.5826  -2.4687  -2.3326  -2.3117  -2.2457
    -2.1436  -1.9977  -1.9197  -1.8006  -1.6947  -1.5079  -1.4197  -1.3339
    -1.3116  -1.2530  -1.1910  -1.1607  -1.1173  -1.0403  -0.8653  -0.7979
    -0.7061  -0.6495  -0.6115  -0.5643  -0.4667  -0.2306  -0.0542  -0.0468
     0.0842   0.1415   0.1671   0.2554   0.3555   0.4380   0.6462   0.7361
     0.8547   1.0776   1.0998   1.1900   1.3150   1.4064   1.4308   1.5108
     1.5764   1.6892   1.7715   1.8032   2.4239   2.5750   3.0225   3.6977
     4.5230   5.2772

          k = 0.0298-0.0861 0.0000 ( 16875 PWs)   bands (ev):

   -51.1973 -51.1746 -51.1583 -51.1361 -51.0867 -51.0701 -51.0622 -51.0531
   -51.0383 -51.0043 -50.9739 -50.9396 -50.9250 -50.8750 -50.8602 -50.8334
   -50.8221 -50.8039 -50.7865 -50.7729 -50.7458 -50.7421 -50.6991 -50.6843
   -50.6689 -50.6440 -50.6347 -50.6084 -50.5593 -50.5495 -50.5393 -50.4627
   -50.4374 -50.4304 -50.4226 -50.4214  -5.5502  -4.7315  -4.0789  -4.0329
    -3.7824  -3.6106  -3.5760  -3.4699  -3.4002  -3.3617  -3.2136  -2.9966
    -2.9693  -2.7458  -2.6950  -2.5827  -2.4687  -2.3326  -2.3117  -2.2457
    -2.1436  -1.9977  -1.9197  -1.8005  -1.6947  -1.5079  -1.4196  -1.3341
    -1.3116  -1.2529  -1.1911  -1.1608  -1.1173  -1.0403  -0.8652  -0.7979
    -0.7060  -0.6496  -0.6115  -0.5644  -0.4667  -0.2305  -0.0543  -0.0468
     0.0843   0.1415   0.1672   0.2551   0.3555   0.4380   0.6463   0.7361
     0.8547   1.0776   1.1000   1.1898   1.3150   1.4063   1.4308   1.5107
     1.5766   1.6892   1.7715   1.8031   2.4239   2.5750   3.0225   3.6976
     4.5231   5.2772

          k = 0.0298-0.0517 0.0000 ( 16840 PWs)   bands (ev):

   -51.2248 -51.2024 -51.1803 -51.1775 -51.0774 -51.0637 -51.0587 -51.0485
   -51.0005 -50.9876 -50.9642 -50.9528 -50.9217 -50.9038 -50.9031 -50.8515
   -50.8340 -50.8280 -50.7881 -50.7511 -50.7459 -50.7024 -50.6620 -50.6543
   -50.6540 -50.6327 -50.6320 -50.5894 -50.5651 -50.5444 -50.5394 -50.4653
   -50.4379 -50.4272 -50.4231 -50.4213  -6.3453  -4.7074  -4.3595  -4.3409
    -4.2406  -3.9810  -3.9631  -3.8607  -3.8088  -3.6130  -3.5996  -3.4963
    -3.3156  -3.2357  -2.9623  -2.5414  -2.2803  -2.1996  -2.1728  -1.9141
    -1.8534  -1.7354  -1.6938  -1.6724  -1.6332  -1.5073  -1.3874  -1.2736
    -1.2236  -1.1903  -1.1117  -0.9482  -0.9110  -0.8657  -0.8292  -0.5624
    -0.2654  -0.2135  -0.1950   0.0321   0.0961   0.1264   0.1486   0.1962
     0.2456   0.2750   0.3685   0.4762   0.7756   0.8160   1.0029   1.0595
     1.1846   1.2089   1.3691   1.4353   1.4789   1.5459   1.5790   1.7439
     1.7832   1.8400   2.0369   2.3047   2.3224   2.6631   2.7640   3.6618
     4.8662   5.1431

          k = 0.0597-0.0344 0.0000 ( 16852 PWs)   bands (ev):

   -51.2185 -51.1926 -51.1770 -51.1627 -51.0751 -51.0631 -51.0572 -51.0509
   -51.0226 -50.9862 -50.9732 -50.9461 -50.9238 -50.8984 -50.8870 -50.8422
   -50.8363 -50.8055 -50.7866 -50.7835 -50.7312 -50.6965 -50.6912 -50.6768
   -50.6519 -50.6346 -50.6317 -50.5926 -50.5635 -50.5460 -50.5392 -50.4645
   -50.4381 -50.4274 -50.4234 -50.4213  -6.1377  -4.6546  -4.5203  -4.0862
    -4.0107  -3.8712  -3.8444  -3.7521  -3.7332  -3.6070  -3.4432  -3.4089
    -3.2720  -2.9151  -2.8541  -2.5583  -2.3136  -2.2967  -2.1461  -2.0806
    -1.8755  -1.8157  -1.7553  -1.7018  -1.5419  -1.5090  -1.4445  -1.3334
    -1.1127  -1.0713  -1.0109  -1.0013  -0.9849  -0.9125  -0.8846  -0.4349
    -0.3911  -0.3884  -0.3662  -0.2025  -0.1758  -0.0587  -0.0007   0.0368
     0.0648   0.1968   0.2634   0.5522   0.7011   0.7110   0.7473   0.9396
     0.9662   1.0221   1.0745   1.1816   1.3231   1.4243   1.5301   1.5825
     1.7088   1.7777   1.9405   1.9920   2.2477   3.4261   3.8812   3.9502
     4.4630   4.6804

          k = 0.0597 0.0000 0.0000 ( 16840 PWs)   bands (ev):

   -51.2246 -51.2026 -51.1804 -51.1775 -51.0775 -51.0631 -51.0592 -51.0487
   -51.0004 -50.9871 -50.9643 -50.9526 -50.9219 -50.9038 -50.9033 -50.8516
   -50.8338 -50.8281 -50.7885 -50.7509 -50.7456 -50.7023 -50.6620 -50.6545
   -50.6540 -50.6328 -50.6321 -50.5893 -50.5650 -50.5449 -50.5390 -50.4654
   -50.4377 -50.4276 -50.4229 -50.4213  -6.3453  -4.7074  -4.3595  -4.3409
    -4.2405  -3.9810  -3.9631  -3.8607  -3.8088  -3.6131  -3.5996  -3.4963
    -3.3156  -3.2357  -2.9623  -2.5414  -2.2803  -2.1996  -2.1729  -1.9141
    -1.8535  -1.7354  -1.6938  -1.6723  -1.6332  -1.5073  -1.3874  -1.2737
    -1.2236  -1.1903  -1.1117  -0.9481  -0.9111  -0.8656  -0.8292  -0.5624
    -0.2654  -0.2132  -0.1950   0.0321   0.0960   0.1264   0.1488   0.1962
     0.2456   0.2749   0.3685   0.4762   0.7753   0.8164   1.0029   1.0595
     1.1845   1.2089   1.3692   1.4355   1.4787   1.5458   1.5788   1.7439
     1.7833   1.8399   2.0370   2.3047   2.3224   2.6631   2.7640   3.6618
     4.8662   5.1430

          k = 0.0597 0.0344 0.0000 ( 16852 PWs)   bands (ev):

   -51.2177 -51.1935 -51.1770 -51.1627 -51.0755 -51.0616 -51.0584 -51.0505
   -51.0236 -50.9857 -50.9722 -50.9455 -50.9245 -50.8992 -50.8869 -50.8428
   -50.8356 -50.8056 -50.7863 -50.7840 -50.7305 -50.6969 -50.6906 -50.6766
   -50.6521 -50.6349 -50.6321 -50.5924 -50.5633 -50.5470 -50.5384 -50.4645
   -50.4376 -50.4285 -50.4226 -50.4215  -6.1377  -4.6546  -4.5203  -4.0861
    -4.0109  -3.8711  -3.8444  -3.7517  -3.7335  -3.6070  -3.4431  -3.4090
    -3.2720  -2.9149  -2.8543  -2.5581  -2.3140  -2.2966  -2.1462  -2.0806
    -1.8754  -1.8157  -1.7555  -1.7015  -1.5419  -1.5091  -1.4445  -1.3334
    -1.1127  -1.0715  -1.0105  -1.0012  -0.9852  -0.9125  -0.8847  -0.4349
    -0.3908  -0.3884  -0.3664  -0.2026  -0.1757  -0.0586  -0.0009   0.0371
     0.0646   0.1968   0.2635   0.5521   0.7011   0.7109   0.7474   0.9397
     0.9660   1.0225   1.0742   1.1816   1.3231   1.4241   1.5308   1.5818
     1.7092   1.7773   1.9409   1.9917   2.2476   3.4261   3.8812   3.9502
     4.4630   4.6807

          k = 0.0597-0.1378 0.0000 ( 16875 PWs)   bands (ev):

   -51.1969 -51.1745 -51.1585 -51.1363 -51.0873 -51.0706 -51.0611 -51.0538
   -51.0374 -51.0043 -50.9734 -50.9401 -50.9246 -50.8751 -50.8606 -50.8339
   -50.8225 -50.8037 -50.7859 -50.7729 -50.7454 -50.7418 -50.6994 -50.6843
   -50.6689 -50.6443 -50.6349 -50.6082 -50.5590 -50.5503 -50.5388 -50.4628
   -50.4368 -50.4311 -50.4223 -50.4214  -5.5502  -4.7315  -4.0789  -4.0329
    -3.7824  -3.6106  -3.5759  -3.4700  -3.4002  -3.3616  -3.2136  -2.9966
    -2.9694  -2.7459  -2.6950  -2.5827  -2.4686  -2.3326  -2.3117  -2.2457
    -2.1436  -1.9978  -1.9197  -1.8006  -1.6946  -1.5078  -1.4196  -1.3339
    -1.3117  -1.2529  -1.1910  -1.1607  -1.1173  -1.0402  -0.8653  -0.7980
    -0.7061  -0.6495  -0.6114  -0.5644  -0.4667  -0.2307  -0.0541  -0.0468
     0.0842   0.1415   0.1671   0.2554   0.3555   0.4380   0.6462   0.7361
     0.8547   1.0776   1.0998   1.1901   1.3150   1.4064   1.4308   1.5105
     1.5767   1.6891   1.7717   1.8030   2.4238   2.5750   3.0225   3.6977
     4.5230   5.2772

          k = 0.0597-0.1033 0.0000 ( 16878 PWs)   bands (ev):

   -51.1733 -51.1616 -51.1613 -51.1048 -51.1036 -51.0841 -51.0652 -51.0634
   -51.0507 -50.9807 -50.9797 -50.9616 -50.8961 -50.8849 -50.8461 -50.8187
   -50.8161 -50.7995 -50.7847 -50.7585 -50.7548 -50.7531 -50.7526 -50.6671
   -50.6662 -50.6429 -50.6424 -50.6300 -50.5554 -50.5528 -50.5396 -50.4618
   -50.4353 -50.4337 -50.4221 -50.4214  -4.7405  -4.7343  -4.7035  -3.6918
    -3.5100  -3.5097  -3.1758  -3.1237  -3.0900  -3.0470  -3.0256  -3.0221
    -2.8803  -2.8390  -2.8244  -2.7084  -2.4781  -2.4709  -2.3131  -2.3032
    -2.2799  -2.0420  -2.0391  -1.9374  -1.7855  -1.7525  -1.7008  -1.6514
    -1.6391  -1.5579  -1.2913  -1.1031  -1.0601  -1.0085  -0.8809  -0.8502
    -0.8353  -0.8159  -0.7960  -0.7784  -0.3637  -0.1903  -0.1635   0.0312
     0.1528   0.1554   0.2967   0.2987   0.4751   0.5658   0.5788   1.1299
     1.1307   1.1319   1.2229   1.2720   1.3532   1.3737   1.3756   1.3876
     1.4663   1.5035   1.5311   1.5401   1.6602   1.6851   2.9505   3.9593
     4.0095   5.0903

          k = 0.0597-0.0689 0.0000 ( 16875 PWs)   bands (ev):

   -51.1975 -51.1746 -51.1580 -51.1359 -51.0870 -51.0697 -51.0627 -51.0529
   -51.0379 -51.0044 -50.9743 -50.9392 -50.9253 -50.8747 -50.8599 -50.8337
   -50.8221 -50.8040 -50.7863 -50.7729 -50.7460 -50.7421 -50.6992 -50.6844
   -50.6689 -50.6439 -50.6345 -50.6086 -50.5595 -50.5492 -50.5395 -50.4627
   -50.4376 -50.4301 -50.4227 -50.4214  -5.5502  -4.7315  -4.0789  -4.0329
    -3.7824  -3.6106  -3.5760  -3.4699  -3.4002  -3.3618  -3.2135  -2.9966
    -2.9692  -2.7459  -2.6950  -2.5827  -2.4687  -2.3326  -2.3118  -2.2457
    -2.1436  -1.9976  -1.9197  -1.8006  -1.6947  -1.5079  -1.4196  -1.3341
    -1.3114  -1.2529  -1.1911  -1.1608  -1.1172  -1.0404  -0.8652  -0.7979
    -0.7060  -0.6496  -0.6116  -0.5643  -0.4667  -0.2304  -0.0544  -0.0468
     0.0844   0.1415   0.1671   0.2551   0.3555   0.4380   0.6463   0.7362
     0.8547   1.0777   1.1000   1.1897   1.3150   1.4063   1.4309   1.5109
     1.5764   1.6894   1.7713   1.8033   2.4239   2.5750   3.0225   3.6976
     4.5231   5.2771

          k =-0.0895 0.0517 0.0000 ( 16880 PWs)   bands (ev):

   -51.2032 -51.1746 -51.1613 -51.1241 -51.0709 -51.0643 -51.0578 -51.0548
   -51.0494 -51.0360 -50.9643 -50.9336 -50.9303 -50.8750 -50.8374 -50.8289
   -50.8278 -50.8167 -50.8109 -50.7404 -50.7287 -50.7272 -50.7097 -50.7087
   -50.7011 -50.6368 -50.6199 -50.6070 -50.5594 -50.5498 -50.5390 -50.4627
   -50.4383 -50.4286 -50.4233 -50.4214  -5.2888  -5.2500  -4.0703  -3.9227
    -3.5941  -3.5598  -3.5417  -3.5334  -3.5186  -3.4943  -3.0070  -3.0065
    -2.8905  -2.7671  -2.6220  -2.6033  -2.5148  -2.2811  -2.2730  -2.2653
    -2.1827  -2.0595  -1.8969  -1.6490  -1.6084  -1.3194  -1.3084  -1.2878
    -1.2420  -1.2018  -1.1293  -0.9523  -0.9483  -0.9413  -0.9397  -0.9283
    -0.8720  -0.8366  -0.8346  -0.7723  -0.2694  -0.2502  -0.2436  -0.0229
     0.0352   0.0436   0.2224   0.2451   0.2998   0.3363   0.4755   0.4948
     0.6042   0.9113   0.9438   0.9518   0.9979   1.1258   1.5290   1.5729
     1.7148   1.7494   1.9767   2.0135   2.5465   3.4509   3.9079   3.9551
     4.3347   4.7840

          k =-0.0895 0.0861 0.0000 ( 16875 PWs)   bands (ev):

   -51.1975 -51.1746 -51.1579 -51.1359 -51.0876 -51.0699 -51.0625 -51.0531
   -51.0372 -51.0045 -50.9744 -50.9393 -50.9252 -50.8745 -50.8600 -50.8341
   -50.8224 -50.8040 -50.7858 -50.7730 -50.7458 -50.7419 -50.6995 -50.6845
   -50.6688 -50.6439 -50.6345 -50.6085 -50.5594 -50.5494 -50.5394 -50.4627
   -50.4374 -50.4303 -50.4227 -50.4214  -5.5502  -4.7315  -4.0789  -4.0329
    -3.7824  -3.6106  -3.5761  -3.4699  -3.4002  -3.3617  -3.2135  -2.9966
    -2.9692  -2.7460  -2.6950  -2.5826  -2.4687  -2.3326  -2.3117  -2.2457
    -2.1436  -1.9976  -1.9197  -1.8006  -1.6947  -1.5079  -1.4197  -1.3339
    -1.3115  -1.2530  -1.1911  -1.1608  -1.1172  -1.0403  -0.8653  -0.7979
    -0.7060  -0.6495  -0.6116  -0.5643  -0.4667  -0.2305  -0.0543  -0.0468
     0.0843   0.1415   0.1671   0.2553   0.3555   0.4380   0.6463   0.7361
     0.8547   1.0776   1.0999   1.1897   1.3150   1.4063   1.4309   1.5109
     1.5763   1.6893   1.7713   1.8033   2.4239   2.5750   3.0225   3.6976
     4.5231   5.2771

          k =-0.0895 0.1206 0.0000 ( 16875 PWs)   bands (ev):

   -51.1969 -51.1746 -51.1586 -51.1363 -51.0868 -51.0706 -51.0613 -51.0536
   -51.0380 -51.0042 -50.9734 -50.9400 -50.9247 -50.8752 -50.8606 -50.8336
   -50.8223 -50.8037 -50.7863 -50.7729 -50.7455 -50.7419 -50.6992 -50.6843
   -50.6689 -50.6442 -50.6349 -50.6082 -50.5591 -50.5501 -50.5389 -50.4628
   -50.4369 -50.4310 -50.4224 -50.4214  -5.5502  -4.7315  -4.0789  -4.0329
    -3.7824  -3.6106  -3.5759  -3.4700  -3.4002  -3.3617  -3.2136  -2.9966
    -2.9694  -2.7458  -2.6950  -2.5827  -2.4687  -2.3326  -2.3117  -2.2457
    -2.1436  -1.9978  -1.9197  -1.8006  -1.6946  -1.5079  -1.4196  -1.3340
    -1.3117  -1.2529  -1.1910  -1.1607  -1.1173  -1.0402  -0.8652  -0.7979
    -0.7060  -0.6495  -0.6114  -0.5644  -0.4667  -0.2306  -0.0542  -0.0467
     0.0843   0.1415   0.1672   0.2553   0.3555   0.4380   0.6463   0.7361
     0.8547   1.0776   1.0999   1.1901   1.3150   1.4064   1.4308   1.5105
     1.5767   1.6891   1.7717   1.8030   2.4238   2.5750   3.0225   3.6977
     4.5230   5.2773

          k =-0.0895-0.0517 0.0000 ( 16880 PWs)   bands (ev):

   -51.2023 -51.1746 -51.1626 -51.1241 -51.0721 -51.0621 -51.0589 -51.0560
   -51.0470 -51.0372 -50.9626 -50.9349 -50.9295 -50.8762 -50.8388 -50.8285
   -50.8281 -50.8159 -50.8104 -50.7405 -50.7279 -50.7264 -50.7110 -50.7079
   -50.7011 -50.6372 -50.6208 -50.6061 -50.5587 -50.5513 -50.5382 -50.4627
   -50.4376 -50.4300 -50.4225 -50.4216  -5.2886  -5.2502  -4.0701  -3.9229
    -3.5941  -3.5595  -3.5413  -3.5334  -3.5185  -3.4949  -3.0070  -3.0064
    -2.8907  -2.7671  -2.6217  -2.6037  -2.5143  -2.2814  -2.2728  -2.2651
    -2.1825  -2.0600  -1.8969  -1.6493  -1.6080  -1.3192  -1.3086  -1.2879
    -1.2418  -1.2021  -1.1292  -0.9523  -0.9480  -0.9412  -0.9396  -0.9284
    -0.8712  -0.8368  -0.8354  -0.7722  -0.2687  -0.2508  -0.2440  -0.0227
     0.0358   0.0434   0.2224   0.2451   0.3000   0.3362   0.4753   0.4950
     0.6040   0.9111   0.9438   0.9516   0.9987   1.1254   1.5296   1.5721
     1.7157   1.7486   1.9771   2.0131   2.5462   3.4510   3.9079   3.9550
     4.3346   4.7843

     the Fermi energy is     1.7665 ev

!    total energy              =   -2549.31247961 Ry
     Harris-Foulkes estimate   =   -2549.31248460 Ry
     estimated scf accuracy    <       0.00000739 Ry

     The total energy is the sum of the following terms:

     one-electron contribution =  -20229.48503039 Ry
     hartree contribution      =   10151.64987662 Ry
     xc contribution           =    -704.08089238 Ry
     ewald contribution        =    8232.71258720 Ry
     electric field correction =       0.00000026 Ry
     smearing contrib. (-TS)   =      -0.10902091 Ry

     convergence has been achieved in  14 iterations
 
 BEEF-vdW xc energy contributions
           1 :   -626.974965347364     
           2 :    583.688679642057     
           3 :   -505.979481247571     
           4 :    408.542304005450     
           5 :   -307.540257750830     
           6 :    216.468968401691     
           7 :   -143.441195314106     
           8 :    90.4613312504476     
           9 :   -54.6339999533051     
          10 :    30.5800296843221     
          11 :   -13.0203587349699     
          12 :   -1.43492396770989     
          13 :    13.7618181520630     
          14 :   -23.1615906801250     
          15 :    28.3141629644994     
          16 :   -28.5797805210467     
          17 :    24.6216112255330     
          18 :   -18.2764420361622     
          19 :    11.8528588571991     
          20 :   -7.26437712399127     
          21 :    5.40124551766542     
          22 :   -5.98487006026676     
          23 :    7.89780060435953     
          24 :   -9.78733132175296     
          25 :    10.6522441320761     
          26 :   -10.1765088555698     
          27 :    8.71371412469000     
          28 :   -6.99286695548790     
          29 :    5.71869002545088     
          30 :   -5.25866494088848     
          31 :   -51.3639013228614     
          32 :   -38.0114093625054     

     Forces acting on atoms (Ry/au):


     negative rho (up, down):  2.117E+00 0.000E+00
     atom    1 type  1   force =     0.00006908    0.00000299   -0.01459807
     atom    2 type  1   force =    -0.00007293   -0.00212073   -0.01652841
     atom    3 type  1   force =    -0.00183940    0.00101550   -0.01649514
     atom    4 type  1   force =     0.00184072    0.00109944   -0.01655589
     atom    5 type  1   force =    -0.00215667    0.00124534   -0.00460270
     atom    6 type  1   force =     0.00212638    0.00123017   -0.00452318
     atom    7 type  1   force =     0.00000482   -0.00000052    0.02225706
     atom    8 type  1   force =    -0.00000169   -0.00248402   -0.00458426
     atom    9 type  1   force =     0.00548649    0.00313278    0.03995021
     atom   10 type  1   force =    -0.00546418    0.00320090    0.03972883
     atom   11 type  1   force =     0.00007066   -0.00631896    0.03982830
     atom   12 type  1   force =    -0.00007235   -0.00000351    0.01064075
     atom   13 type  2   force =     0.00000909    0.00000062   -0.07451749

     Total force =     0.110314     Total SCF correction =     0.021632
     SCF correction compared to forces is large: reduce conv_thr to get better values


     entering subroutine stress ...


     negative rho (up, down):  2.117E+00 0.000E+00
          total   stress  (Ry/bohr**3)                   (kbar)     P=   -9.71
  -0.00012277   0.00000000  -0.00000000        -18.06      0.00     -0.00
   0.00000000  -0.00012279   0.00000000          0.00    -18.06      0.00
  -0.00000000   0.00000000   0.00004750         -0.00      0.00      6.99

 !ASE

     Writing output data file calc.save
 
     init_run     :     11.91s CPU     20.02s WALL (       1 calls)
     electrons    :    370.82s CPU    608.44s WALL (       1 calls)
     forces       :      3.11s CPU      3.95s WALL (       1 calls)
     stress       :      7.92s CPU      9.33s WALL (       1 calls)

     Called by init_run:
     wfcinit      :      9.90s CPU     17.11s WALL (       1 calls)
     potinit      :      1.05s CPU      1.76s WALL (       1 calls)

     Called by electrons:
     c_bands      :    273.11s CPU    442.80s WALL (      14 calls)
     sum_band     :     48.92s CPU     84.90s WALL (      14 calls)
     v_of_rho     :     13.54s CPU     23.49s WALL (      15 calls)
     newd         :      5.79s CPU      6.32s WALL (      15 calls)
     mix_rho      :      0.48s CPU      0.82s WALL (      14 calls)
     vdW_energy   :      2.73s CPU      2.75s WALL (      51 calls)
     vdW_ffts     :     25.56s CPU     48.90s WALL (     104 calls)
     vdW_v        :      5.48s CPU      8.98s WALL (      51 calls)

     Called by c_bands:
     init_us_2    :      0.64s CPU      0.68s WALL (     620 calls)
     cegterg      :    267.97s CPU    436.83s WALL (     280 calls)

     Called by *egterg:
     h_psi        :    192.63s CPU    355.19s WALL (    1080 calls)
     s_psi        :      7.17s CPU      7.24s WALL (    1080 calls)
     g_psi        :      0.41s CPU      0.42s WALL (     780 calls)
     cdiaghg      :     43.54s CPU     46.01s WALL (    1060 calls)

     Called by h_psi:
     add_vuspsi   :      7.28s CPU      7.31s WALL (    1080 calls)

     General routines
     calbec       :     14.65s CPU     18.55s WALL (    1400 calls)
     fft          :     38.53s CPU     73.31s WALL (    3093 calls)
     ffts         :      0.10s CPU      0.19s WALL (      29 calls)
     fftw         :    202.85s CPU    396.02s WALL (  167842 calls)
     interpolate  :      0.46s CPU      0.86s WALL (      29 calls)
     davcio       :      0.00s CPU      0.03s WALL (      20 calls)
 
     Parallel routines
     fft_scatter  :    212.85s CPU    439.71s WALL (  170964 calls)
 
     PWSCF        :  6m34.47s CPU    10m42.86s WALL

 
   This run was terminated on:  14:53:47  16Jan2018            

=------------------------------------------------------------------------------=
   JOB DONE.
=------------------------------------------------------------------------------=
Job  /afs/slac/g/suncat/bin/suncat-tsmpirun -x LD_LIBRARY_PATH -wdir /scratch/qe842471_sN1yI pw.x -in pw.inp

TID   HOST_NAME   COMMAND_LINE            STATUS            TERMINATION_TIME
===== ========== ================  =======================  ===================
00000 suncat0264 pw.x -in pw.inp   Done                     01/16/2018 14:53:47
00001 suncat0264 pw.x -in pw.inp   Done                     01/16/2018 14:53:47
00002 suncat0264 pw.x -in pw.inp   Done                     01/16/2018 14:53:47
00003 suncat0264 pw.x -in pw.inp   Done                     01/16/2018 14:53:47
00004 suncat0264 pw.x -in pw.inp   Done                     01/16/2018 14:53:47
00005 suncat0264 pw.x -in pw.inp   Done                     01/16/2018 14:53:47
00006 suncat0264 pw.x -in pw.inp   Done                     01/16/2018 14:53:47
00007 suncat0264 pw.x -in pw.inp   Done                     01/16/2018 14:53:47
00008 suncat0259 pw.x -in pw.inp   Done                     01/16/2018 14:53:47
00009 suncat0259 pw.x -in pw.inp   Done                     01/16/2018 14:53:47
00010 suncat0259 pw.x -in pw.inp   Done                     01/16/2018 14:53:47
00011 suncat0259 pw.x -in pw.inp   Done                     01/16/2018 14:53:47
00012 suncat0259 pw.x -in pw.inp   Done                     01/16/2018 14:53:47
00013 suncat0259 pw.x -in pw.inp   Done                     01/16/2018 14:53:47
00014 suncat0259 pw.x -in pw.inp   Done                     01/16/2018 14:53:47
00015 suncat0259 pw.x -in pw.inp   Done                     01/16/2018 14:53:47
00016 suncat0258 pw.x -in pw.inp   Done                     01/16/2018 14:53:47
00017 suncat0258 pw.x -in pw.inp   Done                     01/16/2018 14:53:47
00018 suncat0258 pw.x -in pw.inp   Done                     01/16/2018 14:53:47
00019 suncat0258 pw.x -in pw.inp   Done                     01/16/2018 14:53:47
00020 suncat0258 pw.x -in pw.inp   Done                     01/16/2018 14:53:47
00021 suncat0258 pw.x -in pw.inp   Done                     01/16/2018 14:53:47
00022 suncat0258 pw.x -in pw.inp   Done                     01/16/2018 14:53:47
00023 suncat0258 pw.x -in pw.inp   Done                     01/16/2018 14:53:47
00024 suncat0256 pw.x -in pw.inp   Done                     01/16/2018 14:53:47
00025 suncat0256 pw.x -in pw.inp   Done                     01/16/2018 14:53:47
00026 suncat0256 pw.x -in pw.inp   Done                     01/16/2018 14:53:47
00027 suncat0256 pw.x -in pw.inp   Done                     01/16/2018 14:53:47
00028 suncat0256 pw.x -in pw.inp   Done                     01/16/2018 14:53:47
00029 suncat0256 pw.x -in pw.inp   Done                     01/16/2018 14:53:47
00030 suncat0256 pw.x -in pw.inp   Done                     01/16/2018 14:53:47
00031 suncat0256 pw.x -in pw.inp   Done                     01/16/2018 14:53:47

     Program PWSCF v.5.1rc2 (svn rev. 11289) starts on 16Jan2018 at 14:53:52 

     This program is part of the open-source Quantum ESPRESSO suite
     for quantum simulation of materials; please cite
         "P. Giannozzi et al., J. Phys.:Condens. Matter 21 395502 (2009);
          URL http://www.quantum-espresso.org", 
     in publications or presentations arising from this work. More details at
     http://www.quantum-espresso.org/quote

     Parallel version (MPI), running on    32 processors
     R & G space division:  proc/nbgrp/npool/nimage =      32
     Reading input from pw.inp
     Message from routine read_cards :
     DEPRECATED: no units specified in CELL_PARAMETERS card

     Current dimensions of program PWSCF are:
     Max number of different atomic species (ntypx) = 10
     Max number of k-points (npk) =  40000
     Max angular momentum in pseudopotentials (lmaxx) =  3
     Presently stress not available with electric field


     **************************************************************************
     Initializing libbeef V0.1.1 with the BEEF-vdW functional.
     Citation: Wellendorff et al., PRB 85, 235149 (2012).
     **************************************************************************


     IMPORTANT: XC functional enforced from input :
     Exchange-correlation      = BEEF-VDW ( 1  4 27 13 2)
     Any further DFT definition will be discarded
     Please, verify this is what you really want


     Subspace diagonalization in iterative solution of the eigenvalue problem:
     a serial algorithm will be used

 
     Parallelization info
     --------------------
     sticks:   dense  smooth     PW     G-vecs:    dense   smooth      PW
     Min          88      35     10                16662     4195     652
     Max          90      36     13                16672     4240     670
     Sum        2839    1135    337               533365   134957   21217
 


     bravais-lattice index     =            0
     lattice parameter (alat)  =       1.8897  a.u.
     unit-cell volume          =    4481.2752 (a.u.)^3
     number of atoms/cell      =           13
     number of atomic types    =            2
     number of electrons       =       193.00
     number of Kohn-Sham states=          106
     kinetic-energy cutoff     =      36.7493  Ry
     charge density cutoff     =     367.4932  Ry
     convergence threshold     =      1.0E-05
     mixing beta               =       0.3000
     number of iterations used =           10  plain     mixing
     Exchange-correlation      = BEEF-VDW ( 1  4 27 13 2)
     nstep                     =           50


     celldm(1)=   1.889726  celldm(2)=   0.000000  celldm(3)=   0.000000
     celldm(4)=   0.000000  celldm(5)=   0.000000  celldm(6)=   0.000000

     crystal axes: (cart. coord. in units of alat)
               a(1) = (   5.587338   0.000000   0.000000 )  
               a(2) = (   2.793669   4.838777   0.000000 )  
               a(3) = (   0.000000   0.000000  24.562042 )  

     reciprocal axes: (cart. coord. in units 2 pi/alat)
               b(1) = (  0.178976 -0.103332  0.000000 )  
               b(2) = (  0.000000  0.206664  0.000000 )  
               b(3) = (  0.000000  0.000000  0.040713 )  


     PseudoPot. # 1 for Pt read from file:
     /afs/slac.stanford.edu/u/if/mamunm/psp/gbrv1.5pbe/Pt.UPF
     MD5 check sum: f09d6de1a584b5a045c4fc126da2d0c4
     Pseudo is Ultrasoft + core correction, Zval = 16.0
     Generated by new atomic code, or converted to UPF format
     Using radial grid of  985 points,  6 beta functions with: 
                l(1) =   0
                l(2) =   0
                l(3) =   1
                l(4) =   1
                l(5) =   2
                l(6) =   2
     Q(r) pseudized with  8 coefficients,  rinner =    1.300   1.300   1.300
                                                       1.300   1.300

     PseudoPot. # 2 for H  read from file:
     /afs/slac.stanford.edu/u/if/mamunm/psp/gbrv1.5pbe/H.UPF
     MD5 check sum: 761ae9a214b05c3daf00ab9f6b793d6f
     Pseudo is Ultrasoft, Zval =  1.0
     Generated by new atomic code, or converted to UPF format
     Using radial grid of  615 points,  2 beta functions with: 
                l(1) =   0
                l(2) =   0
     Q(r) pseudized with  8 coefficients,  rinner =    0.700

     vdW kernel table read from file vdW_kernel_table
     MD5 check sum: 095c7af220d748ca6e76c0b4c6cfb241

     atomic species   valence    mass     pseudopotential
        Pt1           16.00   195.08400     Pt( 1.00)
        H1             1.00     1.00800     H ( 1.00)

     No symmetry found



   Cartesian axes

     site n.     atom                  positions (alat units)
         1           Pt1 tau(   1) = (   1.3968345   0.8064628  10.0000000  )
         2           Pt1 tau(   2) = (   4.1905036   0.8064628  10.0000000  )
         3           Pt1 tau(   3) = (   2.7936691   3.2258512  10.0000000  )
         4           Pt1 tau(   4) = (   5.5873381   3.2258512  10.0000000  )
         5           Pt1 tau(   5) = (   5.5873381   1.6129256  12.2810212  )
         6           Pt1 tau(   6) = (   2.7936691   1.6129256  12.2810212  )
         7           Pt1 tau(   7) = (   6.9841727   4.0323140  12.2810212  )
         8           Pt1 tau(   8) = (   4.1905036   4.0323140  12.2810212  )
         9           Pt1 tau(   9) = (   0.0141063   0.0080547  14.6647586  )
        10           Pt1 tau(  10) = (   2.7796201   0.0082298  14.6641894  )
        11           Pt1 tau(  11) = (   1.3970162   2.4031417  14.6644451  )
        12           Pt1 tau(  12) = (   4.1903176   2.4193794  14.5894009  )
        13           H1  tau(  13) = (   1.3968579   0.8064644  16.0404503  )

     number of k points=    20  Fermi-Dirac smearing, width (Ry)=  0.0110
                       cart. coord. in units 2pi/alat
        k(    1) = (   0.0000000   0.0000000   0.0000000), wk =   0.0555556
        k(    2) = (   0.0000000   0.0344440   0.0000000), wk =   0.1111111
        k(    3) = (   0.0000000   0.0688879   0.0000000), wk =   0.1111111
        k(    4) = (   0.0000000  -0.1033319   0.0000000), wk =   0.0555556
        k(    5) = (   0.0298294  -0.0172220   0.0000000), wk =   0.1111111
        k(    6) = (   0.0298294   0.0172220   0.0000000), wk =   0.1111111
        k(    7) = (   0.0298294   0.0516660   0.0000000), wk =   0.1111111
        k(    8) = (   0.0298294  -0.1205539   0.0000000), wk =   0.1111111
        k(    9) = (   0.0298294  -0.0861099   0.0000000), wk =   0.1111111
        k(   10) = (   0.0298294  -0.0516660   0.0000000), wk =   0.1111111
        k(   11) = (   0.0596587  -0.0344440   0.0000000), wk =   0.1111111
        k(   12) = (   0.0596587   0.0000000   0.0000000), wk =   0.1111111
        k(   13) = (   0.0596587   0.0344440   0.0000000), wk =   0.1111111
        k(   14) = (   0.0596587  -0.1377759   0.0000000), wk =   0.1111111
        k(   15) = (   0.0596587  -0.1033319   0.0000000), wk =   0.1111111
        k(   16) = (   0.0596587  -0.0688879   0.0000000), wk =   0.1111111
        k(   17) = (  -0.0894881   0.0516660   0.0000000), wk =   0.0555556
        k(   18) = (  -0.0894881   0.0861099   0.0000000), wk =   0.1111111
        k(   19) = (  -0.0894881   0.1205539   0.0000000), wk =   0.1111111
        k(   20) = (  -0.0894881  -0.0516660   0.0000000), wk =   0.0555556

     Dense  grid:   533365 G-vectors     FFT dimensions: (  72,  72, 288)

     Smooth grid:   134957 G-vectors     FFT dimensions: (  45,  45, 180)

     Largest allocated arrays     est. size (Mb)     dimensions
        Kohn-Sham Wavefunctions         0.91 Mb     (     564,  106)
        NL pseudopotentials             1.88 Mb     (     564,  218)
        Each V/rho on FFT grid          0.71 Mb     (   46656)
        Each G-vector array             0.13 Mb     (   16671)
        G-vector shells                 0.06 Mb     (    7602)
     Largest temporary arrays     est. size (Mb)     dimensions
        Auxiliary wavefunctions         3.65 Mb     (     564,  424)
        Each subspace H/S matrix        2.74 Mb     (     424,  424)
        Each <psi_i|beta_j> matrix      0.35 Mb     (     218,  106)
        Arrays for rho mixing           7.12 Mb     (   46656,   10)

     Check: negative/imaginary core charge=   -0.000001    0.000000

     Initial potential from superposition of free atoms
     Check: negative starting charge=   -2.195958

     starting charge  186.99986, renormalised to  193.00000

     negative rho (up, down):  2.266E+00 0.000E+00


     ************************************************************************
     *
     * You are using vdW-DF for exchange-correlation in this calculation.
     * Please cite the following three references that made this development
     * possible:
     *
     *   M. Dion, H. Rydberg, E. Schroder, D. C. Langreth, and
     *   B. I. Lundqvist, Phys. Rev. Lett. 92, 246401 (2004).
     *
     *   T. Thonhauser, V. R. Cooper, S. Li, A. Puzder, P. Hyldgaard, and
     *   D. C. Langreth, Phys. Rev. B 76, 125112 (2007).
     *
     *   G. Roman-Perez and J. M. Soler, Phys. Rev. Lett. 103, 096102 (2009).
     *
     *
     * If you are using vdW-DF2, please also cite:
     *
     *   K. Lee, E. D. Murray, L. Kong, B. I. Lundqvist, and
     *   D. C. Langreth, Phys. Rev. B 82, 081101(R) (2010).
     *
     *
     * If you are calculating the stress with vdW-DF, please also cite:
     *
     *   R. Sabatini, E. Kucukbenli, B. Kolb, T. Thonhauser, and
     *   S. de Gironcoli, J. Phys.: Condens. Matter 24, 424209 (2012).
     *
     ************************************************************************

     Carrying out vdW-DF run using the following parameters:

     Nqs =      20    Nr_points =    1024   r_max =   100.000
     q_mesh =
               0.00001000     0.04494208     0.09755937     0.15916263
               0.23128650     0.31572767     0.41458969     0.53033537
               0.66584808     0.82450364     1.01025438     1.22772762
               1.48234092     1.78043706     2.12944203     2.53805004
               3.01644009     3.57652955     4.23227104     5.00000000

     Gradients computed in reciprocal space

     ************************************************************************


 
     Adding external electric field

     Computed dipole along edir(3) : 
        Dipole               -0.2262 Ry au,         -0.5749 Debye
        Dipole field         -0.0006 Ry au
 
        Potential amp.        0.0574 Ry
        Total length         45.2551 bohr
 
     Starting wfc are  145 randomized atomic wfcs

     total cpu time spent up to now is       19.8 secs

     per-process dynamical memory:    50.0 Mb

     Self-consistent Calculation

     iteration #  1     ecut=    36.75 Ry     beta=0.30
     Davidson diagonalization with overlap
     ethr =  1.00E-02,  avg # of iterations =  2.9

     negative rho (up, down):  2.170E+00 0.000E+00
 
     Adding external electric field

     Computed dipole along edir(3) : 
        Dipole                2.5513 Ry au,          6.4848 Debye
        Dipole field          0.0072 Ry au
 
        Potential amp.       -0.6476 Ry
        Total length         45.2551 bohr
 

     total cpu time spent up to now is       58.3 secs

     total energy              =   -2545.85697972 Ry
     Harris-Foulkes estimate   =   -2552.55994731 Ry
     estimated scf accuracy    <      15.49861400 Ry

     iteration #  2     ecut=    36.75 Ry     beta=0.30
     Davidson diagonalization with overlap
     ethr =  8.03E-03,  avg # of iterations =  5.2

     negative rho (up, down):  2.168E+00 0.000E+00
 
     Adding external electric field

     Computed dipole along edir(3) : 
        Dipole               -2.2076 Ry au,         -5.6111 Debye
        Dipole field         -0.0062 Ry au
 
        Potential amp.        0.5603 Ry
        Total length         45.2551 bohr
 

     total cpu time spent up to now is      109.3 secs

     total energy              =   -2540.41858910 Ry
     Harris-Foulkes estimate   =   -2555.99160061 Ry
     estimated scf accuracy    <     201.97007869 Ry

     iteration #  3     ecut=    36.75 Ry     beta=0.30
     Davidson diagonalization with overlap
     ethr =  8.03E-03,  avg # of iterations =  4.5

     negative rho (up, down):  2.159E+00 0.000E+00
 
     Adding external electric field

     Computed dipole along edir(3) : 
        Dipole                0.3727 Ry au,          0.9473 Debye
        Dipole field          0.0010 Ry au
 
        Potential amp.       -0.0946 Ry
        Total length         45.2551 bohr
 

     total cpu time spent up to now is      162.2 secs

     total energy              =   -2544.27443776 Ry
     Harris-Foulkes estimate   =   -2554.12054840 Ry
     estimated scf accuracy    <     171.68064115 Ry

     iteration #  4     ecut=    36.75 Ry     beta=0.30
     Davidson diagonalization with overlap
     ethr =  8.03E-03,  avg # of iterations =  4.0

     negative rho (up, down):  2.139E+00 0.000E+00
 
     Adding external electric field

     Computed dipole along edir(3) : 
        Dipole                0.1345 Ry au,          0.3420 Debye
        Dipole field          0.0004 Ry au
 
        Potential amp.       -0.0341 Ry
        Total length         45.2551 bohr
 

     total cpu time spent up to now is      206.6 secs

     total energy              =   -2548.48119448 Ry
     Harris-Foulkes estimate   =   -2550.26183015 Ry
     estimated scf accuracy    <      12.78636062 Ry

     iteration #  5     ecut=    36.75 Ry     beta=0.30
     Davidson diagonalization with overlap
     ethr =  6.63E-03,  avg # of iterations =  1.8

     negative rho (up, down):  2.131E+00 0.000E+00
 
     Adding external electric field

     Computed dipole along edir(3) : 
        Dipole                0.0487 Ry au,          0.1239 Debye
        Dipole field          0.0001 Ry au
 
        Potential amp.       -0.0124 Ry
        Total length         45.2551 bohr
 

     total cpu time spent up to now is      241.8 secs

     total energy              =   -2549.32045376 Ry
     Harris-Foulkes estimate   =   -2549.37577307 Ry
     estimated scf accuracy    <       0.33478090 Ry

     iteration #  6     ecut=    36.75 Ry     beta=0.30
     Davidson diagonalization with overlap
     ethr =  1.73E-04,  avg # of iterations =  3.0

     negative rho (up, down):  2.119E+00 0.000E+00
 
     Adding external electric field

     Computed dipole along edir(3) : 
        Dipole                0.0557 Ry au,          0.1415 Debye
        Dipole field          0.0002 Ry au
 
        Potential amp.       -0.0141 Ry
        Total length         45.2551 bohr
 

     total cpu time spent up to now is      281.9 secs

     total energy              =   -2549.34973517 Ry
     Harris-Foulkes estimate   =   -2549.36123257 Ry
     estimated scf accuracy    <       0.04194136 Ry

     iteration #  7     ecut=    36.75 Ry     beta=0.30
     Davidson diagonalization with overlap
     ethr =  2.17E-05,  avg # of iterations =  3.8

     negative rho (up, down):  2.115E+00 0.000E+00
 
     Adding external electric field

     Computed dipole along edir(3) : 
        Dipole                0.0465 Ry au,          0.1182 Debye
        Dipole field          0.0001 Ry au
 
        Potential amp.       -0.0118 Ry
        Total length         45.2551 bohr
 

     total cpu time spent up to now is      327.2 secs

     total energy              =   -2549.35031314 Ry
     Harris-Foulkes estimate   =   -2549.35809691 Ry
     estimated scf accuracy    <       0.04142107 Ry

     iteration #  8     ecut=    36.75 Ry     beta=0.30
     Davidson diagonalization with overlap
     ethr =  2.15E-05,  avg # of iterations =  1.6

     negative rho (up, down):  2.114E+00 0.000E+00
 
     Adding external electric field

     Computed dipole along edir(3) : 
        Dipole                0.0259 Ry au,          0.0658 Debye
        Dipole field          0.0001 Ry au
 
        Potential amp.       -0.0066 Ry
        Total length         45.2551 bohr
 

     total cpu time spent up to now is      362.3 secs

     total energy              =   -2549.35346201 Ry
     Harris-Foulkes estimate   =   -2549.35511248 Ry
     estimated scf accuracy    <       0.00720711 Ry

     iteration #  9     ecut=    36.75 Ry     beta=0.30
     Davidson diagonalization with overlap
     ethr =  3.73E-06,  avg # of iterations =  2.3

     negative rho (up, down):  2.113E+00 0.000E+00
 
     Adding external electric field

     Computed dipole along edir(3) : 
        Dipole                0.0225 Ry au,          0.0571 Debye
        Dipole field          0.0001 Ry au
 
        Potential amp.       -0.0057 Ry
        Total length         45.2551 bohr
 

     total cpu time spent up to now is      399.4 secs

     total energy              =   -2549.35381941 Ry
     Harris-Foulkes estimate   =   -2549.35450375 Ry
     estimated scf accuracy    <       0.00394661 Ry

     iteration # 10     ecut=    36.75 Ry     beta=0.30
     Davidson diagonalization with overlap
     ethr =  2.04E-06,  avg # of iterations =  1.4

     negative rho (up, down):  2.113E+00 0.000E+00
 
     Adding external electric field

     Computed dipole along edir(3) : 
        Dipole                0.0222 Ry au,          0.0563 Debye
        Dipole field          0.0001 Ry au
 
        Potential amp.       -0.0056 Ry
        Total length         45.2551 bohr
 

     total cpu time spent up to now is      433.9 secs

     total energy              =   -2549.35416369 Ry
     Harris-Foulkes estimate   =   -2549.35420350 Ry
     estimated scf accuracy    <       0.00048008 Ry

     iteration # 11     ecut=    36.75 Ry     beta=0.30
     Davidson diagonalization with overlap
     ethr =  2.49E-07,  avg # of iterations =  3.3

     negative rho (up, down):  2.112E+00 0.000E+00
 
     Adding external electric field

     Computed dipole along edir(3) : 
        Dipole                0.0198 Ry au,          0.0503 Debye
        Dipole field          0.0001 Ry au
 
        Potential amp.       -0.0050 Ry
        Total length         45.2551 bohr
 

     total cpu time spent up to now is      477.3 secs

     total energy              =   -2549.35424173 Ry
     Harris-Foulkes estimate   =   -2549.35426236 Ry
     estimated scf accuracy    <       0.00020942 Ry

     iteration # 12     ecut=    36.75 Ry     beta=0.30
     Davidson diagonalization with overlap
     ethr =  1.09E-07,  avg # of iterations =  1.8

     negative rho (up, down):  2.113E+00 0.000E+00
 
     Adding external electric field

     Computed dipole along edir(3) : 
        Dipole                0.0197 Ry au,          0.0500 Debye
        Dipole field          0.0001 Ry au
 
        Potential amp.       -0.0050 Ry
        Total length         45.2551 bohr
 

     total cpu time spent up to now is      512.4 secs

     total energy              =   -2549.35423627 Ry
     Harris-Foulkes estimate   =   -2549.35425806 Ry
     estimated scf accuracy    <       0.00008556 Ry

     iteration # 13     ecut=    36.75 Ry     beta=0.30
     Davidson diagonalization with overlap
     ethr =  4.43E-08,  avg # of iterations =  2.0

     negative rho (up, down):  2.113E+00 0.000E+00
 
     Adding external electric field

     Computed dipole along edir(3) : 
        Dipole                0.0206 Ry au,          0.0524 Debye
        Dipole field          0.0001 Ry au
 
        Potential amp.       -0.0052 Ry
        Total length         45.2551 bohr
 

     total cpu time spent up to now is      549.0 secs

     total energy              =   -2549.35424474 Ry
     Harris-Foulkes estimate   =   -2549.35424820 Ry
     estimated scf accuracy    <       0.00002566 Ry

     iteration # 14     ecut=    36.75 Ry     beta=0.30
     Davidson diagonalization with overlap
     ethr =  1.33E-08,  avg # of iterations =  2.5

     negative rho (up, down):  2.113E+00 0.000E+00

     negative rho (up, down):  2.113E+00 0.000E+00

     negative rho (up, down):  2.113E+00 0.000E+00

     negative rho (up, down):  2.113E+00 0.000E+00

     negative rho (up, down):  2.113E+00 0.000E+00

     negative rho (up, down):  2.113E+00 0.000E+00

     negative rho (up, down):  2.113E+00 0.000E+00

     negative rho (up, down):  2.113E+00 0.000E+00

     negative rho (up, down):  2.113E+00 0.000E+00

     negative rho (up, down):  2.113E+00 0.000E+00

     negative rho (up, down):  2.113E+00 0.000E+00

     negative rho (up, down):  2.113E+00 0.000E+00

     negative rho (up, down):  2.113E+00 0.000E+00

     negative rho (up, down):  2.113E+00 0.000E+00

     negative rho (up, down):  2.113E+00 0.000E+00

     negative rho (up, down):  2.113E+00 0.000E+00

     negative rho (up, down):  2.113E+00 0.000E+00

     negative rho (up, down):  2.113E+00 0.000E+00

     negative rho (up, down):  2.113E+00 0.000E+00

     negative rho (up, down):  2.113E+00 0.000E+00

     negative rho (up, down):  2.113E+00 0.000E+00

     negative rho (up, down):  2.113E+00 0.000E+00

     negative rho (up, down):  2.113E+00 0.000E+00

     negative rho (up, down):  2.113E+00 0.000E+00

     negative rho (up, down):  2.113E+00 0.000E+00

     negative rho (up, down):  2.113E+00 0.000E+00

     negative rho (up, down):  2.113E+00 0.000E+00

     negative rho (up, down):  2.113E+00 0.000E+00

     negative rho (up, down):  2.113E+00 0.000E+00

     negative rho (up, down):  2.113E+00 0.000E+00

     negative rho (up, down):  2.113E+00 0.000E+00

     negative rho (up, down):  2.113E+00 0.000E+00

     negative rho (up, down):  2.113E+00 0.000E+00

     negative rho (up, down):  2.113E+00 0.000E+00

     negative rho (up, down):  2.113E+00 0.000E+00
 
     Adding external electric field

     Computed dipole along edir(3) : 
        Dipole                0.0191 Ry au,          0.0486 Debye
        Dipole field          0.0001 Ry au
 
        Potential amp.       -0.0049 Ry
        Total length         45.2551 bohr
 

     total cpu time spent up to now is      639.5 secs

     End of self-consistent calculation

          k = 0.0000 0.0000 0.0000 ( 16787 PWs)   bands (ev):

   -51.1882 -51.1865 -51.1849 -51.0440 -51.0150 -51.0065 -51.0044 -50.9494
   -50.9428 -50.9416 -50.9343 -50.9084 -50.9080 -50.8613 -50.8609 -50.8564
   -50.8511 -50.8502 -50.7051 -50.7040 -50.6799 -50.6586 -50.6582 -50.6530
   -50.5963 -50.5959 -50.5758 -50.5756 -50.4817 -50.4589 -50.4330 -50.4298
   -50.4290 -50.4193 -50.4184 -50.4175  -6.9287  -5.4929  -4.8623  -4.4309
    -4.3703  -4.3698  -4.2444  -4.1682  -4.1680  -3.9286  -3.6865  -3.6864
    -3.6654  -3.6313  -3.6312  -2.6382  -2.2096  -2.2093  -1.9105  -1.8895
    -1.8894  -1.7471  -1.5361  -1.5361  -1.4044  -1.2482  -1.2482  -1.0869
    -1.0868  -1.0306  -1.0302  -0.9913  -0.8158  -0.4616  -0.4611  -0.3355
     0.3509   0.3512   0.4073   0.4189   0.4189   0.5280   0.5289   0.7448
     1.0171   1.0171   1.4752   1.4837   1.4840   1.5022   1.5547   1.5551
     1.6619   1.6621   1.9821   1.9831   1.9848   2.0183   2.2427   2.2440
     2.2444   2.3031   2.3033   2.3100   2.9893   3.1135   3.1135   4.0739
     4.7245   4.7254

          k = 0.0000 0.0344 0.0000 ( 16839 PWs)   bands (ev):

   -51.1761 -51.1735 -51.1652 -51.0397 -51.0104 -51.0024 -51.0001 -50.9551
   -50.9505 -50.9369 -50.9331 -50.8959 -50.8907 -50.8806 -50.8644 -50.8482
   -50.8475 -50.8423 -50.7156 -50.7091 -50.6833 -50.6707 -50.6659 -50.6514
   -50.6153 -50.6005 -50.5970 -50.5808 -50.4787 -50.4579 -50.4328 -50.4312
   -50.4287 -50.4211 -50.4189 -50.4179  -6.6900  -5.2723  -4.6406  -4.3772
    -4.2314  -4.1852  -4.1176  -4.0322  -3.9997  -3.8004  -3.6340  -3.5900
    -3.5489  -3.4476  -3.4098  -2.6103  -2.1985  -2.1704  -1.8425  -1.8016
    -1.7903  -1.7605  -1.7306  -1.5620  -1.3665  -1.2766  -1.1977  -1.1970
    -1.1390  -1.1114  -1.0107  -0.9667  -0.9098  -0.6271  -0.5507  -0.4970
     0.1556   0.1649   0.2558   0.3315   0.3690   0.3774   0.4226   0.4622
     0.8176   1.0057   1.1242   1.1434   1.2685   1.3079   1.3529   1.4350
     1.4703   1.5121   1.6057   1.6621   1.7072   1.7111   1.7518   1.9203
     1.9738   2.0118   2.0226   2.0443   2.5884   3.1219   3.6293   3.6410
     4.1839   4.4220

          k = 0.0000 0.0689 0.0000 ( 16852 PWs)   bands (ev):

   -51.1469 -51.1447 -51.1069 -51.0306 -51.0026 -50.9974 -50.9971 -50.9815
   -50.9757 -50.9405 -50.9188 -50.9103 -50.8783 -50.8658 -50.8445 -50.8310
   -50.8270 -50.8025 -50.7426 -50.7348 -50.7006 -50.6920 -50.6790 -50.6648
   -50.6536 -50.6381 -50.6105 -50.5946 -50.4721 -50.4549 -50.4377 -50.4309
   -50.4276 -50.4247 -50.4194 -50.4187  -6.0284  -4.7407  -4.4972  -4.0728
    -3.9176  -3.7509  -3.7153  -3.6086  -3.5936  -3.5357  -3.4048  -3.2848
    -3.2319  -2.9688  -2.8148  -2.5671  -2.2331  -2.1991  -2.0879  -1.9905
    -1.8202  -1.6838  -1.6617  -1.6602  -1.5523  -1.4800  -1.4205  -1.3308
    -1.1072  -0.9926  -0.9491  -0.9005  -0.8729  -0.8258  -0.7777  -0.4235
    -0.3796  -0.3296  -0.3062  -0.1850  -0.1505  -0.0649   0.0515   0.0716
     0.0891   0.2389   0.3460   0.6034   0.6802   0.7244   0.7587   0.9562
     0.9971   0.9991   1.0692   1.2131   1.3285   1.4101   1.4956   1.5621
     1.6724   1.7428   1.9370   1.9712   2.3197   3.5461   3.9121   4.0097
     4.4181   4.6730

          k = 0.0000-0.1033 0.0000 ( 16880 PWs)   bands (ev):

   -51.1270 -51.1254 -51.0313 -51.0265 -51.0234 -51.0093 -51.0064 -50.9969
   -50.9832 -50.9820 -50.8991 -50.8978 -50.8934 -50.8452 -50.8158 -50.8135
   -50.7998 -50.7650 -50.7581 -50.7454 -50.7278 -50.7121 -50.7086 -50.7022
   -50.6740 -50.6257 -50.6164 -50.6072 -50.4686 -50.4506 -50.4441 -50.4302
   -50.4270 -50.4262 -50.4197 -50.4192  -5.1964  -5.1201  -4.3169  -3.8435
    -3.5971  -3.4538  -3.4193  -3.4077  -3.3532  -3.3263  -3.0544  -2.8944
    -2.8765  -2.6686  -2.5826  -2.5106  -2.4664  -2.1789  -2.1269  -2.1233
    -2.1196  -2.0240  -1.8425  -1.6544  -1.6024  -1.2926  -1.2662  -1.2425
    -1.2214  -1.2098  -1.0733  -0.9787  -0.9510  -0.8889  -0.8764  -0.8717
    -0.8012  -0.7275  -0.7054  -0.6811  -0.2771  -0.1743  -0.1587  -0.0415
     0.0395   0.0552   0.2050   0.2706   0.3114   0.3785   0.4765   0.5556
     0.6768   0.8917   0.9426   0.9769   0.9987   1.1104   1.4915   1.5484
     1.6689   1.7202   1.9699   1.9889   2.7371   3.3650   3.9447   3.9867
     4.4410   4.7726

          k = 0.0298-0.0172 0.0000 ( 16839 PWs)   bands (ev):

   -51.1757 -51.1740 -51.1651 -51.0397 -51.0104 -51.0023 -51.0001 -50.9556
   -50.9500 -50.9371 -50.9332 -50.8955 -50.8910 -50.8806 -50.8643 -50.8487
   -50.8470 -50.8423 -50.7151 -50.7095 -50.6835 -50.6705 -50.6664 -50.6511
   -50.6155 -50.6002 -50.5969 -50.5810 -50.4787 -50.4580 -50.4328 -50.4307
   -50.4293 -50.4207 -50.4189 -50.4181  -6.6900  -5.2724  -4.6406  -4.3773
    -4.2313  -4.1854  -4.1176  -4.0322  -3.9997  -3.8003  -3.6340  -3.5899
    -3.5490  -3.4477  -3.4096  -2.6103  -2.1983  -2.1706  -1.8425  -1.8016
    -1.7902  -1.7606  -1.7306  -1.5621  -1.3665  -1.2767  -1.1976  -1.1969
    -1.1390  -1.1114  -1.0106  -0.9667  -0.9098  -0.6270  -0.5510  -0.4968
     0.1556   0.1647   0.2559   0.3314   0.3689   0.3774   0.4227   0.4622
     0.8178   1.0057   1.1241   1.1434   1.2685   1.3077   1.3531   1.4349
     1.4706   1.5117   1.6058   1.6621   1.7071   1.7113   1.7518   1.9204
     1.9739   2.0117   2.0227   2.0442   2.5885   3.1219   3.6292   3.6410
     4.1838   4.4220

          k = 0.0298 0.0172 0.0000 ( 16839 PWs)   bands (ev):

   -51.1750 -51.1748 -51.1650 -51.0397 -51.0103 -51.0022 -51.0002 -50.9562
   -50.9489 -50.9371 -50.9336 -50.8959 -50.8907 -50.8806 -50.8643 -50.8492
   -50.8465 -50.8424 -50.7161 -50.7088 -50.6832 -50.6704 -50.6666 -50.6509
[...]
    -3.3228  -3.2140  -3.0115  -2.5644  -2.2158  -2.1630  -2.0648  -1.9450
    -1.8618  -1.6821  -1.6770  -1.6451  -1.5603  -1.4833  -1.3126  -1.2665
    -1.2352  -1.1302  -1.0196  -0.8968  -0.8208  -0.7931  -0.7766  -0.5958
    -0.2701  -0.2056  -0.1807   0.0109   0.0592   0.1249   0.1621   0.2244
     0.2517   0.3018   0.4268   0.5372   0.7549   0.7954   0.9791   1.1255
     1.1316   1.1980   1.3211   1.4347   1.4776   1.5090   1.5389   1.7339
     1.7683   1.7936   2.1484   2.2897   2.3478   2.5960   2.7133   4.2300
     4.7708   5.0222

          k = 0.0597-0.0344 0.0000 ( 16852 PWs)   bands (ev):

   -51.1466 -51.1372 -51.1025 -51.0440 -51.0035 -50.9946 -50.9936 -50.9790
   -50.9759 -50.9567 -50.9363 -50.9168 -50.8964 -50.8911 -50.8741 -50.8446
   -50.8407 -50.8160 -50.8010 -50.7955 -50.7269 -50.7110 -50.7050 -50.6679
   -50.6628 -50.6491 -50.6161 -50.6088 -50.4866 -50.4702 -50.4614 -50.4559
   -50.4463 -50.4380 -50.4349 -50.3956  -6.2560  -5.4841  -4.5016  -4.1615
    -3.9330  -3.7670  -3.7049  -3.6518  -3.6071  -3.5630  -3.4411  -3.2782
    -3.2476  -3.0377  -2.8492  -2.5590  -2.2406  -2.2180  -2.1198  -2.0162
    -1.8904  -1.7049  -1.6556  -1.6544  -1.5908  -1.4980  -1.4666  -1.3525
    -1.1285  -1.0390  -0.9446  -0.8999  -0.8977  -0.8401  -0.7903  -0.4773
    -0.3857  -0.3798  -0.3546  -0.2297  -0.1869  -0.0575  -0.0047   0.0332
     0.0717   0.2218   0.3237   0.6633   0.6682   0.7183   0.7788   0.9037
     0.9772   0.9862   1.0398   1.1720   1.3129   1.4348   1.4885   1.5397
     1.6472   1.7209   1.9306   1.9486   2.4501   3.6704   3.8776   4.0676
     4.4210   4.6262

          k = 0.0597 0.0000 0.0000 ( 16840 PWs)   bands (ev):

   -51.1574 -51.1340 -51.1296 -51.0512 -51.0065 -50.9979 -50.9925 -50.9853
   -50.9613 -50.9386 -50.9369 -50.9161 -50.9047 -50.8983 -50.8708 -50.8518
   -50.8388 -50.8339 -50.8026 -50.7804 -50.7303 -50.7165 -50.6698 -50.6681
   -50.6488 -50.6466 -50.6167 -50.6054 -50.4889 -50.4698 -50.4605 -50.4562
   -50.4461 -50.4380 -50.4345 -50.3954  -6.4430  -5.6115  -4.3431  -4.2098
    -4.1928  -3.9705  -3.8682  -3.7276  -3.7039  -3.6064  -3.4854  -3.4423
    -3.3228  -3.2139  -3.0116  -2.5645  -2.2157  -2.1631  -2.0648  -1.9450
    -1.8618  -1.6820  -1.6771  -1.6451  -1.5603  -1.4833  -1.3126  -1.2664
    -1.2352  -1.1302  -1.0196  -0.8968  -0.8208  -0.7932  -0.7766  -0.5957
    -0.2700  -0.2055  -0.1807   0.0108   0.0592   0.1249   0.1621   0.2244
     0.2517   0.3018   0.4268   0.5371   0.7546   0.7956   0.9791   1.1254
     1.1316   1.1980   1.3212   1.4348   1.4776   1.5090   1.5389   1.7338
     1.7683   1.7936   2.1484   2.2897   2.3478   2.5960   2.7134   4.2300
     4.7709   5.0221

          k = 0.0597 0.0344 0.0000 ( 16852 PWs)   bands (ev):

   -51.1469 -51.1368 -51.1025 -51.0439 -51.0034 -50.9943 -50.9940 -50.9788
   -50.9762 -50.9565 -50.9363 -50.9169 -50.8966 -50.8913 -50.8740 -50.8449
   -50.8403 -50.8161 -50.8010 -50.7954 -50.7266 -50.7112 -50.7047 -50.6680
   -50.6627 -50.6493 -50.6163 -50.6087 -50.4866 -50.4702 -50.4617 -50.4556
   -50.4460 -50.4387 -50.4345 -50.3956  -6.2559  -5.4840  -4.5016  -4.1614
    -3.9331  -3.7668  -3.7049  -3.6520  -3.6069  -3.5631  -3.4412  -3.2783
    -3.2476  -3.0376  -2.8492  -2.5590  -2.2406  -2.2181  -2.1199  -2.0162
    -1.8903  -1.7049  -1.6556  -1.6546  -1.5906  -1.4983  -1.4666  -1.3524
    -1.1284  -1.0389  -0.9448  -0.8999  -0.8978  -0.8399  -0.7905  -0.4773
    -0.3857  -0.3798  -0.3546  -0.2298  -0.1868  -0.0574  -0.0050   0.0333
     0.0716   0.2218   0.3237   0.6630   0.6683   0.7184   0.7788   0.9038
     0.9774   0.9860   1.0397   1.1721   1.3129   1.4348   1.4889   1.5393
     1.6476   1.7205   1.9305   1.9486   2.4501   3.6705   3.8776   4.0675
     4.4211   4.6264

          k = 0.0597-0.1378 0.0000 ( 16875 PWs)   bands (ev):

   -51.1269 -51.1012 -51.0663 -51.0361 -51.0251 -50.9966 -50.9937 -50.9851
   -50.9793 -50.9574 -50.9447 -50.9173 -50.9009 -50.8906 -50.8590 -50.8357
   -50.8181 -50.8109 -50.7972 -50.7834 -50.7569 -50.7466 -50.7133 -50.6842
   -50.6707 -50.6494 -50.6280 -50.6248 -50.4808 -50.4717 -50.4631 -50.4562
   -50.4454 -50.4408 -50.4342 -50.3958  -5.7798  -5.1383  -4.5507  -3.9112
    -3.7705  -3.5913  -3.4574  -3.3472  -3.3160  -3.2381  -3.1605  -3.0846
    -2.8719  -2.7614  -2.5790  -2.5595  -2.4365  -2.2963  -2.2226  -2.1847
    -2.0879  -1.9224  -1.8863  -1.7824  -1.7108  -1.5318  -1.3848  -1.3513
    -1.3171  -1.2282  -1.1875  -1.1418  -1.1026  -1.0198  -0.8618  -0.7483
    -0.6861  -0.6535  -0.5446  -0.4833  -0.4469  -0.1359  -0.1000  -0.0349
     0.0852   0.1194   0.1853   0.2947   0.3895   0.4099   0.6915   0.7429
     0.8472   1.0585   1.0999   1.1853   1.3078   1.3887   1.4127   1.4719
     1.5201   1.6427   1.7431   1.7734   2.4689   2.7623   3.0486   3.8125
     4.8431   5.4061

          k = 0.0597-0.1033 0.0000 ( 16878 PWs)   bands (ev):

   -51.0889 -51.0874 -51.0469 -51.0466 -51.0458 -51.0150 -50.9882 -50.9863
   -50.9828 -50.9343 -50.9335 -50.9212 -50.9199 -50.9139 -50.8279 -50.8138
   -50.8051 -50.8046 -50.7991 -50.7803 -50.7675 -50.7669 -50.7629 -50.6564
   -50.6560 -50.6521 -50.6510 -50.6486 -50.4756 -50.4741 -50.4636 -50.4573
   -50.4437 -50.4432 -50.4339 -50.3958  -5.4630  -4.6112  -4.5755  -4.4274
    -3.4464  -3.4150  -3.1264  -3.0356  -2.9973  -2.9528  -2.9269  -2.9187
    -2.8752  -2.7263  -2.7041  -2.7032  -2.3916  -2.3825  -2.2980  -2.2838
    -2.1885  -2.0838  -2.0595  -1.8520  -1.7174  -1.7130  -1.6934  -1.6823
    -1.6005  -1.5359  -1.3703  -1.1471  -1.0669  -1.0203  -0.8344  -0.8176
    -0.8134  -0.7925  -0.7822  -0.7821  -0.1829  -0.1609  -0.1340   0.0091
     0.1711   0.2083   0.2647   0.3421   0.5059   0.5918   0.6108   1.0673
     1.0738   1.1249   1.2413   1.3168   1.3219   1.3580   1.3602   1.3688
     1.4288   1.4882   1.4884   1.4967   1.6381   1.6528   3.5741   3.8180
     3.8872   6.3696

          k = 0.0597-0.0689 0.0000 ( 16875 PWs)   bands (ev):

   -51.1268 -51.1014 -51.0663 -51.0362 -51.0253 -50.9967 -50.9937 -50.9846
   -50.9795 -50.9574 -50.9449 -50.9172 -50.9006 -50.8907 -50.8587 -50.8356
   -50.8182 -50.8110 -50.7974 -50.7835 -50.7570 -50.7470 -50.7132 -50.6842
   -50.6708 -50.6492 -50.6279 -50.6249 -50.4809 -50.4715 -50.4629 -50.4565
   -50.4457 -50.4402 -50.4345 -50.3958  -5.7800  -5.1384  -4.5507  -3.9112
    -3.7706  -3.5910  -3.4574  -3.3474  -3.3159  -3.2381  -3.1602  -3.0846
    -2.8719  -2.7614  -2.5790  -2.5593  -2.4365  -2.2962  -2.2226  -2.1846
    -2.0879  -1.9225  -1.8863  -1.7824  -1.7108  -1.5319  -1.3848  -1.3514
    -1.3171  -1.2282  -1.1876  -1.1419  -1.1024  -1.0198  -0.8618  -0.7483
    -0.6860  -0.6535  -0.5446  -0.4833  -0.4469  -0.1358  -0.1001  -0.0350
     0.0852   0.1194   0.1854   0.2946   0.3895   0.4099   0.6914   0.7431
     0.8472   1.0585   1.1000   1.1852   1.3078   1.3885   1.4128   1.4720
     1.5199   1.6429   1.7432   1.7734   2.4689   2.7623   3.0486   3.8125
     4.8431   5.4060

          k =-0.0895 0.0517 0.0000 ( 16880 PWs)   bands (ev):

   -51.1274 -51.1165 -51.0290 -51.0254 -51.0240 -51.0064 -50.9960 -50.9916
   -50.9898 -50.9785 -50.9489 -50.8994 -50.8912 -50.8891 -50.8623 -50.8367
   -50.8255 -50.8172 -50.8069 -50.7520 -50.7413 -50.7281 -50.7263 -50.7216
   -50.6906 -50.6335 -50.6247 -50.6201 -50.4801 -50.4730 -50.4630 -50.4556
   -50.4463 -50.4391 -50.4350 -50.3958  -5.7255  -5.1273  -4.8726  -3.8619
    -3.6430  -3.4751  -3.4248  -3.4069  -3.3458  -3.3276  -3.1802  -2.8890
    -2.8793  -2.6924  -2.6315  -2.5240  -2.4692  -2.1801  -2.1489  -2.1226
    -2.1180  -2.0278  -2.0030  -1.6586  -1.6421  -1.3230  -1.3112  -1.2863
    -1.2700  -1.1968  -1.0989  -1.0065  -0.9739  -0.9646  -0.9086  -0.9006
    -0.7992  -0.7764  -0.7110  -0.6872  -0.1821  -0.1583  -0.1532  -0.0712
    -0.0125   0.0264   0.1868   0.2280   0.2567   0.3535   0.4693   0.4837
     0.7793   0.8678   0.8997   0.9743   1.0103   1.0955   1.4866   1.5326
     1.6424   1.7018   1.9573   1.9686   3.0623   3.3293   3.9084   3.9484
     4.5185   4.7232

          k =-0.0895 0.0861 0.0000 ( 16875 PWs)   bands (ev):

   -51.1268 -51.1013 -51.0664 -51.0361 -51.0252 -50.9968 -50.9937 -50.9848
   -50.9794 -50.9574 -50.9449 -50.9172 -50.9006 -50.8907 -50.8587 -50.8357
   -50.8183 -50.8110 -50.7972 -50.7835 -50.7569 -50.7469 -50.7134 -50.6841
   -50.6708 -50.6492 -50.6279 -50.6249 -50.4809 -50.4715 -50.4629 -50.4565
   -50.4456 -50.4404 -50.4344 -50.3958  -5.7799  -5.1384  -4.5507  -3.9112
    -3.7706  -3.5910  -3.4574  -3.3474  -3.3159  -3.2380  -3.1603  -3.0846
    -2.8719  -2.7614  -2.5790  -2.5593  -2.4365  -2.2962  -2.2227  -2.1846
    -2.0879  -1.9225  -1.8863  -1.7824  -1.7108  -1.5319  -1.3849  -1.3514
    -1.3170  -1.2282  -1.1876  -1.1419  -1.1024  -1.0198  -0.8619  -0.7482
    -0.6860  -0.6535  -0.5446  -0.4833  -0.4469  -0.1358  -0.1001  -0.0351
     0.0854   0.1193   0.1853   0.2946   0.3895   0.4099   0.6914   0.7430
     0.8472   1.0586   1.0999   1.1852   1.3078   1.3885   1.4128   1.4720
     1.5199   1.6429   1.7432   1.7734   2.4689   2.7623   3.0486   3.8125
     4.8431   5.4060

          k =-0.0895 0.1206 0.0000 ( 16875 PWs)   bands (ev):

   -51.1269 -51.1012 -51.0663 -51.0361 -51.0252 -50.9966 -50.9936 -50.9850
   -50.9793 -50.9574 -50.9448 -50.9173 -50.9009 -50.8906 -50.8590 -50.8357
   -50.8180 -50.8109 -50.7973 -50.7834 -50.7570 -50.7467 -50.7133 -50.6842
   -50.6707 -50.6494 -50.6280 -50.6248 -50.4808 -50.4716 -50.4631 -50.4563
   -50.4454 -50.4408 -50.4343 -50.3958  -5.7799  -5.1383  -4.5507  -3.9112
    -3.7705  -3.5913  -3.4574  -3.3472  -3.3160  -3.2382  -3.1605  -3.0846
    -2.8719  -2.7614  -2.5790  -2.5595  -2.4365  -2.2963  -2.2225  -2.1847
    -2.0879  -1.9224  -1.8863  -1.7824  -1.7108  -1.5318  -1.3847  -1.3514
    -1.3171  -1.2282  -1.1876  -1.1418  -1.1026  -1.0198  -0.8618  -0.7483
    -0.6861  -0.6535  -0.5446  -0.4833  -0.4469  -0.1359  -0.1000  -0.0349
     0.0852   0.1194   0.1853   0.2947   0.3895   0.4099   0.6915   0.7429
     0.8472   1.0585   1.0999   1.1853   1.3078   1.3887   1.4127   1.4718
     1.5201   1.6427   1.7431   1.7734   2.4689   2.7623   3.0486   3.8125
     4.8431   5.4061

          k =-0.0895-0.0517 0.0000 ( 16880 PWs)   bands (ev):

   -51.1278 -51.1161 -51.0288 -51.0250 -51.0241 -51.0068 -50.9959 -50.9917
   -50.9893 -50.9789 -50.9486 -50.8998 -50.8908 -50.8898 -50.8626 -50.8368
   -50.8250 -50.8173 -50.8066 -50.7520 -50.7409 -50.7278 -50.7270 -50.7212
   -50.6905 -50.6339 -50.6242 -50.6203 -50.4799 -50.4732 -50.4632 -50.4553
   -50.4460 -50.4399 -50.4346 -50.3958  -5.7254  -5.1272  -4.8726  -3.8618
    -3.6432  -3.4750  -3.4245  -3.4069  -3.3460  -3.3276  -3.1807  -2.8892
    -2.8791  -2.6925  -2.6314  -2.5240  -2.4692  -2.1798  -2.1490  -2.1224
    -2.1183  -2.0281  -2.0029  -1.6586  -1.6419  -1.3230  -1.3111  -1.2860
    -1.2696  -1.1971  -1.0991  -1.0065  -0.9739  -0.9648  -0.9089  -0.9004
    -0.7994  -0.7761  -0.7107  -0.6875  -0.1819  -0.1584  -0.1538  -0.0709
    -0.0121   0.0262   0.1871   0.2287   0.2565   0.3529   0.4691   0.4838
     0.7794   0.8677   0.8998   0.9742   1.0105   1.0954   1.4870   1.5323
     1.6428   1.7014   1.9573   1.9686   3.0622   3.3294   3.9083   3.9484
     4.5185   4.7233

     the Fermi energy is     1.7413 ev

!    total energy              =   -2549.38448427 Ry
     Harris-Foulkes estimate   =   -2549.38448551 Ry
     estimated scf accuracy    <       0.00000160 Ry

     The total energy is the sum of the following terms:

     one-electron contribution =  -20012.11827798 Ry
     hartree contribution      =   10043.10065815 Ry
     xc contribution           =    -704.12789402 Ry
     ewald contribution        =    8123.86870140 Ry
     electric field correction =       0.00000060 Ry
     smearing contrib. (-TS)   =      -0.10767241 Ry

     convergence has been achieved in  14 iterations
 
 BEEF-vdW xc energy contributions
           1 :   -627.014177646243     
           2 :    583.687605879893     
           3 :   -505.914060128491     
           4 :    408.416768439243     
           5 :   -307.384919483548     
           6 :    216.323530408030     
           7 :   -143.335864845458     
           8 :    90.4030069495107     
           9 :   -54.6022759258177     
          10 :    30.5369632985180     
          11 :   -12.9309568075957     
          12 :   -1.58095370196497     
          13 :    13.9397602042407     
          14 :   -23.3192548941349     
          15 :    28.3953535555264     
          16 :   -28.5543631648402     
          17 :    24.5049610158967     
          18 :   -18.1251046360308     
          19 :    11.7375833314369     
          20 :   -7.23513841153874     
          21 :    5.46235066807242     
          22 :   -6.09228042060795     
          23 :    7.98106639856542     
          24 :   -9.78715385404348     
          25 :    10.5534579761464     
          26 :   -10.0180103885248     
          27 :    8.56911340684155     
          28 :   -6.93211340295443     
          29 :    5.77072056189161     
          30 :   -5.39480133168399     
          31 :   -51.3669315163584     
          32 :   -38.0028432209385     

     Forces acting on atoms (Ry/au):


     negative rho (up, down):  2.121E+00 0.000E+00
     atom    1 type  1   force =     0.00001445    0.00000684   -0.01484858
     atom    2 type  1   force =    -0.00001368   -0.00074182   -0.01778355
     atom    3 type  1   force =    -0.00064596    0.00035827   -0.01776833
     atom    4 type  1   force =     0.00064977    0.00037637   -0.01781961
     atom    5 type  1   force =     0.00128659   -0.00075856    0.01472183
     atom    6 type  1   force =    -0.00129315   -0.00074527    0.01475078
     atom    7 type  1   force =     0.00002108    0.00000977    0.02336578
     atom    8 type  1   force =    -0.00001476    0.00149660    0.01473674
     atom    9 type  1   force =    -0.00060637   -0.00038820   -0.00008862
     atom   10 type  1   force =     0.00059414   -0.00027256   -0.00008161
     atom   11 type  1   force =     0.00009476    0.00067392   -0.00007205
     atom   12 type  1   force =    -0.00010356   -0.00001764    0.00030527
     atom   13 type  2   force =     0.00001669    0.00000228    0.00058195

     Total force =     0.048761     Total SCF correction =     0.007019
     SCF correction compared to forces is large: reduce conv_thr to get better values


     entering subroutine stress ...


     negative rho (up, down):  2.121E+00 0.000E+00
          total   stress  (Ry/bohr**3)                   (kbar)     P=  -11.19
  -0.00013950  -0.00000000   0.00000001        -20.52     -0.00      0.00
  -0.00000000  -0.00013950   0.00000000         -0.00    -20.52      0.00
   0.00000001   0.00000000   0.00005084          0.00      0.00      7.48

 !ASE

     Writing output data file calc.save
 
     init_run     :     11.71s CPU     19.99s WALL (       1 calls)
     electrons    :    372.10s CPU    606.28s WALL (       1 calls)
     forces       :      3.18s CPU      3.96s WALL (       1 calls)
     stress       :      8.17s CPU      9.63s WALL (       1 calls)

     Called by init_run:
     wfcinit      :      9.55s CPU     16.75s WALL (       1 calls)
     potinit      :      1.05s CPU      1.79s WALL (       1 calls)

     Called by electrons:
     c_bands      :    274.72s CPU    441.53s WALL (      14 calls)
     sum_band     :     49.13s CPU     84.37s WALL (      14 calls)
     v_of_rho     :     13.56s CPU     23.60s WALL (      15 calls)
     newd         :      5.58s CPU      5.87s WALL (      15 calls)
     mix_rho      :      0.47s CPU      0.84s WALL (      14 calls)
     vdW_energy   :      2.37s CPU      2.39s WALL (      51 calls)
     vdW_ffts     :     26.10s CPU     49.46s WALL (     104 calls)
     vdW_v        :      5.53s CPU      9.04s WALL (      51 calls)

     Called by c_bands:
     init_us_2    :      0.64s CPU      0.65s WALL (     620 calls)
     cegterg      :    269.58s CPU    435.57s WALL (     280 calls)

     Called by *egterg:
     h_psi        :    195.31s CPU    355.46s WALL (    1050 calls)
     s_psi        :      7.25s CPU      7.35s WALL (    1050 calls)
     g_psi        :      0.42s CPU      0.42s WALL (     750 calls)
     cdiaghg      :     41.87s CPU     44.15s WALL (    1030 calls)

     Called by h_psi:
     add_vuspsi   :      7.52s CPU      7.52s WALL (    1050 calls)

     General routines
     calbec       :     14.69s CPU     18.71s WALL (    1370 calls)
     fft          :     38.71s CPU     73.64s WALL (    3093 calls)
     ffts         :      0.10s CPU      0.20s WALL (      29 calls)
     fftw         :    205.09s CPU    395.66s WALL (  168542 calls)
     interpolate  :      0.47s CPU      0.89s WALL (      29 calls)
     davcio       :      0.00s CPU      0.02s WALL (      20 calls)
 
     Parallel routines
     fft_scatter  :    215.34s CPU    439.98s WALL (  171664 calls)
 
     PWSCF        :  6m35.79s CPU    10m40.97s WALL

 
   This run was terminated on:  16:12:21  16Jan2018            

=------------------------------------------------------------------------------=
   JOB DONE.
=------------------------------------------------------------------------------=
Job  /afs/slac/g/suncat/bin/suncat-tsmpirun -x LD_LIBRARY_PATH -wdir /scratch/qe842471_sN1yI pw.x -in pw.inp

TID   HOST_NAME   COMMAND_LINE            STATUS            TERMINATION_TIME
===== ========== ================  =======================  ===================
00000 suncat0264 pw.x -in pw.inp   Done                     01/16/2018 16:12:21
00001 suncat0264 pw.x -in pw.inp   Done                     01/16/2018 16:12:21
00002 suncat0264 pw.x -in pw.inp   Done                     01/16/2018 16:12:21
00003 suncat0264 pw.x -in pw.inp   Done                     01/16/2018 16:12:21
00004 suncat0264 pw.x -in pw.inp   Done                     01/16/2018 16:12:21
00005 suncat0264 pw.x -in pw.inp   Done                     01/16/2018 16:12:21
00006 suncat0264 pw.x -in pw.inp   Done                     01/16/2018 16:12:21
00007 suncat0264 pw.x -in pw.inp   Done                     01/16/2018 16:12:21
00008 suncat0259 pw.x -in pw.inp   Done                     01/16/2018 16:12:21
00009 suncat0259 pw.x -in pw.inp   Done                     01/16/2018 16:12:21
00010 suncat0259 pw.x -in pw.inp   Done                     01/16/2018 16:12:21
00011 suncat0259 pw.x -in pw.inp   Done                     01/16/2018 16:12:21
00012 suncat0259 pw.x -in pw.inp   Done                     01/16/2018 16:12:21
00013 suncat0259 pw.x -in pw.inp   Done                     01/16/2018 16:12:21
00014 suncat0259 pw.x -in pw.inp   Done                     01/16/2018 16:12:21
00015 suncat0259 pw.x -in pw.inp   Done                     01/16/2018 16:12:21
00016 suncat0258 pw.x -in pw.inp   Done                     01/16/2018 16:12:21
00017 suncat0258 pw.x -in pw.inp   Done                     01/16/2018 16:12:21
00018 suncat0258 pw.x -in pw.inp   Done                     01/16/2018 16:12:21
00019 suncat0258 pw.x -in pw.inp   Done                     01/16/2018 16:12:21
00020 suncat0258 pw.x -in pw.inp   Done                     01/16/2018 16:12:21
00021 suncat0258 pw.x -in pw.inp   Done                     01/16/2018 16:12:21
00022 suncat0258 pw.x -in pw.inp   Done                     01/16/2018 16:12:21
00023 suncat0258 pw.x -in pw.inp   Done                     01/16/2018 16:12:21
00024 suncat0256 pw.x -in pw.inp   Done                     01/16/2018 16:12:21
00025 suncat0256 pw.x -in pw.inp   Done                     01/16/2018 16:12:21
00026 suncat0256 pw.x -in pw.inp   Done                     01/16/2018 16:12:21
00027 suncat0256 pw.x -in pw.inp   Done                     01/16/2018 16:12:21
00028 suncat0256 pw.x -in pw.inp   Done                     01/16/2018 16:12:21
00029 suncat0256 pw.x -in pw.inp   Done                     01/16/2018 16:12:21
00030 suncat0256 pw.x -in pw.inp   Done                     01/16/2018 16:12:21
00031 suncat0256 pw.x -in pw.inp   Done                     01/16/2018 16:12:21
