  python dir          : /home/mamunm/src/espresso
  espresso dir        : /home/vossj/suncat/esdld/espresso-dynpy-beef/bin
  pseudo dir          : /home/mamunm/src/pseudo/gbrv1.5pbe
  ase-espresso py git : GITVERSION



     Program PWSCF v.5.1rc2 (svn rev. ) starts on  4Feb2018 at 11:48:42 

     This program is part of the open-source Quantum ESPRESSO suite
     for quantum simulation of materials; please cite
         "P. Giannozzi et al., J. Phys.:Condens. Matter 21 395502 (2009);
          URL http://www.quantum-espresso.org", 
     in publications or presentations arising from this work. More details at
     http://www.quantum-espresso.org/quote

     Parallel version (MPI), running on    16 processors
     R & G space division:  proc/nbgrp/npool/nimage =      16
     Reading input from pw.inp
     Message from routine read_cards :
     DEPRECATED: no units specified in CELL_PARAMETERS card

     Current dimensions of program PWSCF are:
     Max number of different atomic species (ntypx) = 10
     Max number of k-points (npk) =  40000
     Max angular momentum in pseudopotentials (lmaxx) =  3
     Presently stress not available with electric field


     **************************************************************************
     Initializing libbeef V0.1.1 with the BEEF-vdW functional.
     Citation: Wellendorff et al., PRB 85, 235149 (2012).
     **************************************************************************


     IMPORTANT: XC functional enforced from input :
     Exchange-correlation      = BEEF-VDW ( 1  4 27 13 2)
     Any further DFT definition will be discarded
     Please, verify this is what you really want


     Subspace diagonalization in iterative solution of the eigenvalue problem:
     a serial algorithm will be used

 
     Parallelization info
     --------------------
     sticks:   dense  smooth     PW     G-vecs:    dense   smooth      PW
     Min         315     126     35                63229    15971    2391
     Max         316     127     37                63240    16003    2398
     Sum        5041    2029    571              1011733   255863   38327
 


     bravais-lattice index     =            0
     lattice parameter (alat)  =       1.8897  a.u.
     unit-cell volume          =    8507.0471 (a.u.)^3
     number of atoms/cell      =           13
     number of atomic types    =            2
     number of electrons       =       136.00
     number of Kohn-Sham states=           78
     kinetic-energy cutoff     =      36.7493  Ry
     charge density cutoff     =     367.4932  Ry
     convergence threshold     =      1.0E-05
     mixing beta               =       0.3000
     number of iterations used =           10  plain     mixing
     Exchange-correlation      = BEEF-VDW ( 1  4 27 13 2)
     nstep                     =           50


     celldm(1)=   1.889726  celldm(2)=   0.000000  celldm(3)=   0.000000
     celldm(4)=   0.000000  celldm(5)=   0.000000  celldm(6)=   0.000000

     crystal axes: (cart. coord. in units of alat)
               a(1) = (   7.468327   0.000000   0.000000 )  
               a(2) = (   3.734164   6.467761   0.000000 )  
               a(3) = (   0.000000   0.000000  26.097863 )  

     reciprocal axes: (cart. coord. in units 2 pi/alat)
               b(1) = (  0.133899 -0.077307  0.000000 )  
               b(2) = (  0.000000  0.154613  0.000000 )  
               b(3) = (  0.000000  0.000000  0.038317 )  


     PseudoPot. # 1 for La read from file:
     /home/mamunm/src/pseudo/gbrv1.5pbe/La.UPF
     MD5 check sum: 5937b0c7494ba0601a847275249473aa
     Pseudo is Ultrasoft + core correction, Zval = 11.0
     Generated by new atomic code, or converted to UPF format
     Using radial grid of  995 points,  8 beta functions with: 
                l(1) =   0
                l(2) =   0
                l(3) =   1
                l(4) =   1
                l(5) =   2
                l(6) =   2
                l(7) =   3
                l(8) =   3
     Q(r) pseudized with  8 coefficients,  rinner =    1.700   1.700   1.700
                                                       1.700   1.700   1.700
                                                       1.700

     PseudoPot. # 2 for C  read from file:
     /home/mamunm/src/pseudo/gbrv1.5pbe/C.UPF
     MD5 check sum: d1aef80898a10debaa0f26306b886e00
     Pseudo is Ultrasoft + core correction, Zval =  4.0
     Generated by new atomic code, or converted to UPF format
     Using radial grid of  721 points,  4 beta functions with: 
                l(1) =   0
                l(2) =   0
                l(3) =   1
                l(4) =   1
     Q(r) pseudized with  8 coefficients,  rinner =    1.100   1.100   1.100


     vdW kernel table read from file vdW_kernel_table
     MD5 check sum: 095c7af220d748ca6e76c0b4c6cfb241

     atomic species   valence    mass     pseudopotential
        La1           11.00   138.90547     La( 1.00)
        C1             4.00    12.01100     C ( 1.00)

     No symmetry found



   Cartesian axes

     site n.     atom                  positions (alat units)
         1           La1 tau(   1) = (   1.8670818   1.0779602  10.0000000  )
         2           La1 tau(   2) = (   5.6012453   1.0779602  10.0000000  )
         3           La1 tau(   3) = (   3.7341635   4.3118406  10.0000000  )
         4           La1 tau(   4) = (   7.4683270   4.3118406  10.0000000  )
         5           La1 tau(   5) = (   7.4683270   2.1559203  13.0489317  )
         6           La1 tau(   6) = (   3.7341635   2.1559203  13.0489317  )
         7           La1 tau(   7) = (   9.3354088   5.3898008  13.0489317  )
         8           La1 tau(   8) = (   5.6012453   5.3898008  13.0489317  )
         9           La1 tau(   9) = (   0.0000000   0.0000000  16.0978635  )
        10           La1 tau(  10) = (   3.7341635   0.0000000  16.0978635  )
        11           La1 tau(  11) = (   1.8670818   3.2338805  16.0978635  )
        12           La1 tau(  12) = (   5.6012453   3.2338805  16.0978635  )
        13           C1  tau(  13) = (   1.8670818   1.0779602  17.9373635  )

     number of k points=    20  Fermi-Dirac smearing, width (Ry)=  0.0110
                       cart. coord. in units 2pi/alat
        k(    1) = (   0.0000000   0.0000000   0.0000000), wk =   0.0555556
        k(    2) = (   0.0000000   0.0257688   0.0000000), wk =   0.1111111
        k(    3) = (   0.0000000   0.0515377   0.0000000), wk =   0.1111111
        k(    4) = (   0.0000000  -0.0773065   0.0000000), wk =   0.0555556
        k(    5) = (   0.0223165  -0.0128844   0.0000000), wk =   0.1111111
        k(    6) = (   0.0223165   0.0128844   0.0000000), wk =   0.1111111
        k(    7) = (   0.0223165   0.0386533   0.0000000), wk =   0.1111111
        k(    8) = (   0.0223165  -0.0901909   0.0000000), wk =   0.1111111
        k(    9) = (   0.0223165  -0.0644221   0.0000000), wk =   0.1111111
        k(   10) = (   0.0223165  -0.0386533   0.0000000), wk =   0.1111111
        k(   11) = (   0.0446329  -0.0257688   0.0000000), wk =   0.1111111
        k(   12) = (   0.0446329   0.0000000   0.0000000), wk =   0.1111111
        k(   13) = (   0.0446329   0.0257688   0.0000000), wk =   0.1111111
        k(   14) = (   0.0446329  -0.1030753   0.0000000), wk =   0.1111111
        k(   15) = (   0.0446329  -0.0773065   0.0000000), wk =   0.1111111
        k(   16) = (   0.0446329  -0.0515377   0.0000000), wk =   0.1111111
        k(   17) = (  -0.0669494   0.0386533   0.0000000), wk =   0.0555556
        k(   18) = (  -0.0669494   0.0644221   0.0000000), wk =   0.1111111
        k(   19) = (  -0.0669494   0.0901909   0.0000000), wk =   0.1111111
        k(   20) = (  -0.0669494  -0.0386533   0.0000000), wk =   0.0555556

     Dense  grid:  1011733 G-vectors     FFT dimensions: (  90,  90, 320)

     Smooth grid:   255863 G-vectors     FFT dimensions: (  60,  60, 192)

     Largest allocated arrays     est. size (Mb)     dimensions
        Kohn-Sham Wavefunctions         2.46 Mb     (    2068,   78)
        NL pseudopotentials            12.37 Mb     (    2068,  392)
        Each V/rho on FFT grid          2.47 Mb     (  162000)
        Each G-vector array             0.48 Mb     (   63235)
        G-vector shells                 0.18 Mb     (   23142)
     Largest temporary arrays     est. size (Mb)     dimensions
        Auxiliary wavefunctions         9.85 Mb     (    2068,  312)
        Each subspace H/S matrix        1.49 Mb     (     312,  312)
        Each <psi_i|beta_j> matrix      0.47 Mb     (     392,   78)
        Arrays for rho mixing          24.72 Mb     (  162000,   10)

     Initial potential from superposition of free atoms
     Check: negative starting charge=   -0.831111

     starting charge  135.61514, renormalised to  136.00000

     negative rho (up, down):  8.335E-01 0.000E+00


     ************************************************************************
     *
     * You are using vdW-DF for exchange-correlation in this calculation.
     * Please cite the following three references that made this development
     * possible:
     *
     *   M. Dion, H. Rydberg, E. Schroder, D. C. Langreth, and
     *   B. I. Lundqvist, Phys. Rev. Lett. 92, 246401 (2004).
     *
     *   T. Thonhauser, V. R. Cooper, S. Li, A. Puzder, P. Hyldgaard, and
     *   D. C. Langreth, Phys. Rev. B 76, 125112 (2007).
     *
     *   G. Roman-Perez and J. M. Soler, Phys. Rev. Lett. 103, 096102 (2009).
     *
     *
     * If you are using vdW-DF2, please also cite:
     *
     *   K. Lee, E. D. Murray, L. Kong, B. I. Lundqvist, and
     *   D. C. Langreth, Phys. Rev. B 82, 081101(R) (2010).
     *
     *
     * If you are calculating the stress with vdW-DF, please also cite:
     *
     *   R. Sabatini, E. Kucukbenli, B. Kolb, T. Thonhauser, and
     *   S. de Gironcoli, J. Phys.: Condens. Matter 24, 424209 (2012).
     *
     ************************************************************************

     Carrying out vdW-DF run using the following parameters:

     Nqs =      20    Nr_points =    1024   r_max =   100.000
     q_mesh =
               0.00001000     0.04494208     0.09755937     0.15916263
               0.23128650     0.31572767     0.41458969     0.53033537
               0.66584808     0.82450364     1.01025438     1.22772762
               1.48234092     1.78043706     2.12944203     2.53805004
               3.01644009     3.57652955     4.23227104     5.00000000

     Gradients computed in reciprocal space

     ************************************************************************


 
     Adding external electric field

     Computed dipole along edir(3) : 
        Dipole               -0.1045 Ry au,         -0.2656 Debye
        Dipole field         -0.0002 Ry au
 
        Potential amp.        0.0148 Ry
        Total length         48.0849 bohr
 
     Starting wfc are  244 randomized atomic wfcs

     total cpu time spent up to now is       32.0 secs

     Self-consistent Calculation

     iteration #  1     ecut=    36.75 Ry     beta=0.30
     Davidson diagonalization with overlap
     ethr =  1.00E-02,  avg # of iterations =  2.0

     negative rho (up, down):  7.223E-01 0.000E+00
 
     Adding external electric field

     Computed dipole along edir(3) : 
        Dipole               -5.0997 Ry au,        -12.9622 Debye
        Dipole field         -0.0075 Ry au
 
        Potential amp.        0.7245 Ry
        Total length         48.0849 bohr
 

     total cpu time spent up to now is       65.0 secs

     total energy              =   -1257.03688131 Ry
     Harris-Foulkes estimate   =   -1260.22416056 Ry
     estimated scf accuracy    <       6.78384310 Ry

     iteration #  2     ecut=    36.75 Ry     beta=0.30
     Davidson diagonalization with overlap
     ethr =  4.99E-03,  avg # of iterations =  8.7

     negative rho (up, down):  6.568E-01 0.000E+00
 
     Adding external electric field

     Computed dipole along edir(3) : 
        Dipole                1.6862 Ry au,          4.2858 Debye
        Dipole field          0.0025 Ry au
 
        Potential amp.       -0.2395 Ry
        Total length         48.0849 bohr
 

     total cpu time spent up to now is      122.2 secs

     total energy              =   -1251.22572935 Ry
     Harris-Foulkes estimate   =   -1271.05615310 Ry
     estimated scf accuracy    <     421.51811057 Ry

     iteration #  3     ecut=    36.75 Ry     beta=0.30
     Davidson diagonalization with overlap
     ethr =  4.99E-03,  avg # of iterations = 13.5

     negative rho (up, down):  5.579E-01 0.000E+00
 
     Adding external electric field

     Computed dipole along edir(3) : 
        Dipole               -0.1942 Ry au,         -0.4937 Debye
        Dipole field         -0.0003 Ry au
 
        Potential amp.        0.0276 Ry
        Total length         48.0849 bohr
 

     total cpu time spent up to now is      193.1 secs

     total energy              =   -1254.35385640 Ry
     Harris-Foulkes estimate   =   -1265.37172613 Ry
     estimated scf accuracy    <     361.74057008 Ry

     iteration #  4     ecut=    36.75 Ry     beta=0.30
     Davidson diagonalization with overlap
     ethr =  4.99E-03,  avg # of iterations =  9.1

     negative rho (up, down):  5.532E-01 0.000E+00
 
     Adding external electric field

     Computed dipole along edir(3) : 
        Dipole               -0.9568 Ry au,         -2.4319 Debye
        Dipole field         -0.0014 Ry au
 
        Potential amp.        0.1359 Ry
        Total length         48.0849 bohr
 

     total cpu time spent up to now is      245.6 secs

     total energy              =   -1258.72941720 Ry
     Harris-Foulkes estimate   =   -1259.86895466 Ry
     estimated scf accuracy    <      23.45627786 Ry

     iteration #  5     ecut=    36.75 Ry     beta=0.30
     Davidson diagonalization with overlap
     ethr =  4.99E-03,  avg # of iterations =  7.4

     negative rho (up, down):  5.460E-01 0.000E+00
 
     Adding external electric field

     Computed dipole along edir(3) : 
        Dipole               -0.3980 Ry au,         -1.0117 Debye
        Dipole field         -0.0006 Ry au
 
        Potential amp.        0.0565 Ry
        Total length         48.0849 bohr
 

     total cpu time spent up to now is      288.8 secs

     total energy              =   -1259.28895825 Ry
     Harris-Foulkes estimate   =   -1259.65734290 Ry
     estimated scf accuracy    <       6.29305145 Ry

     iteration #  6     ecut=    36.75 Ry     beta=0.30
     Davidson diagonalization with overlap
     ethr =  4.63E-03,  avg # of iterations =  1.6

     negative rho (up, down):  5.503E-01 0.000E+00
 
     Adding external electric field

     Computed dipole along edir(3) : 
        Dipole               -0.5074 Ry au,         -1.2896 Debye
        Dipole field         -0.0007 Ry au
 
        Potential amp.        0.0721 Ry
        Total length         48.0849 bohr
 

     total cpu time spent up to now is      320.9 secs

     total energy              =   -1259.48196678 Ry
     Harris-Foulkes estimate   =   -1259.60808807 Ry
     estimated scf accuracy    <       0.90126574 Ry

     iteration #  7     ecut=    36.75 Ry     beta=0.30
     Davidson diagonalization with overlap
     ethr =  6.63E-04,  avg # of iterations =  6.2

     negative rho (up, down):  5.426E-01 0.000E+00
 
     Adding external electric field

     Computed dipole along edir(3) : 
        Dipole               -0.6304 Ry au,         -1.6022 Debye
        Dipole field         -0.0009 Ry au
 
        Potential amp.        0.0895 Ry
        Total length         48.0849 bohr
 

     total cpu time spent up to now is      360.4 secs

     total energy              =   -1259.51759148 Ry
     Harris-Foulkes estimate   =   -1259.56309685 Ry
     estimated scf accuracy    <       0.22012095 Ry

     iteration #  8     ecut=    36.75 Ry     beta=0.30
     Davidson diagonalization with overlap
     ethr =  1.62E-04,  avg # of iterations =  7.8

     negative rho (up, down):  5.453E-01 0.000E+00
 
     Adding external electric field

     Computed dipole along edir(3) : 
        Dipole               -0.6072 Ry au,         -1.5434 Debye
        Dipole field         -0.0009 Ry au
 
        Potential amp.        0.0863 Ry
        Total length         48.0849 bohr
 

     total cpu time spent up to now is      404.2 secs

     total energy              =   -1259.53269328 Ry
     Harris-Foulkes estimate   =   -1259.55467478 Ry
     estimated scf accuracy    <       0.21185289 Ry

     iteration #  9     ecut=    36.75 Ry     beta=0.30
     Davidson diagonalization with overlap
     ethr =  1.56E-04,  avg # of iterations =  5.0

     negative rho (up, down):  5.517E-01 0.000E+00
 
     Adding external electric field

     Computed dipole along edir(3) : 
        Dipole               -0.6350 Ry au,         -1.6141 Debye
        Dipole field         -0.0009 Ry au
 
        Potential amp.        0.0902 Ry
        Total length         48.0849 bohr
 

     total cpu time spent up to now is      438.7 secs

     total energy              =   -1259.53376171 Ry
     Harris-Foulkes estimate   =   -1259.54228142 Ry
     estimated scf accuracy    <       0.09206622 Ry

     iteration # 10     ecut=    36.75 Ry     beta=0.30
     Davidson diagonalization with overlap
     ethr =  6.77E-05,  avg # of iterations =  7.7

     negative rho (up, down):  5.568E-01 0.000E+00
 
     Adding external electric field

     Computed dipole along edir(3) : 
        Dipole               -0.6345 Ry au,         -1.6128 Debye
        Dipole field         -0.0009 Ry au
 
        Potential amp.        0.0901 Ry
        Total length         48.0849 bohr
 

     total cpu time spent up to now is      478.4 secs

     total energy              =   -1259.53504010 Ry
     Harris-Foulkes estimate   =   -1259.53850198 Ry
     estimated scf accuracy    <       0.05384011 Ry

     iteration # 11     ecut=    36.75 Ry     beta=0.30
     Davidson diagonalization with overlap
     ethr =  3.96E-05,  avg # of iterations =  3.8

     negative rho (up, down):  5.605E-01 0.000E+00
 
     Adding external electric field

     Computed dipole along edir(3) : 
        Dipole               -0.6387 Ry au,         -1.6233 Debye
        Dipole field         -0.0009 Ry au
 
        Potential amp.        0.0907 Ry
        Total length         48.0849 bohr
 

     total cpu time spent up to now is      512.2 secs

     total energy              =   -1259.53452113 Ry
     Harris-Foulkes estimate   =   -1259.53669926 Ry
     estimated scf accuracy    <       0.04168952 Ry

     iteration # 12     ecut=    36.75 Ry     beta=0.30
     Davidson diagonalization with overlap
     c_bands:  1 eigenvalues not converged
     ethr =  3.07E-05,  avg # of iterations =  3.5

     negative rho (up, down):  5.708E-01 0.000E+00
 
     Adding external electric field

     Computed dipole along edir(3) : 
        Dipole               -0.6284 Ry au,         -1.5972 Debye
        Dipole field         -0.0009 Ry au
 
        Potential amp.        0.0893 Ry
        Total length         48.0849 bohr
 

     total cpu time spent up to now is      545.4 secs

     total energy              =   -1259.53195440 Ry
     Harris-Foulkes estimate   =   -1259.53542116 Ry
     estimated scf accuracy    <       0.01915838 Ry

     iteration # 13     ecut=    36.75 Ry     beta=0.30
     Davidson diagonalization with overlap
     c_bands:  2 eigenvalues not converged
     c_bands:  1 eigenvalues not converged
     ethr =  1.41E-05,  avg # of iterations = 12.1

     negative rho (up, down):  5.726E-01 0.000E+00
 
     Adding external electric field

     Computed dipole along edir(3) : 
        Dipole               -0.6309 Ry au,         -1.6037 Debye
        Dipole field         -0.0009 Ry au
 
        Potential amp.        0.0896 Ry
        Total length         48.0849 bohr
 

     total cpu time spent up to now is      593.8 secs

     total energy              =   -1259.53414303 Ry
     Harris-Foulkes estimate   =   -1259.53434885 Ry
     estimated scf accuracy    <       0.00284328 Ry

     iteration # 14     ecut=    36.75 Ry     beta=0.30
     Davidson diagonalization with overlap
     c_bands:  1 eigenvalues not converged
     c_bands:  1 eigenvalues not converged
     c_bands:  2 eigenvalues not converged
     c_bands:  1 eigenvalues not converged
     c_bands:  1 eigenvalues not converged
     c_bands:  1 eigenvalues not converged
     c_bands:  2 eigenvalues not converged
     c_bands:  1 eigenvalues not converged
     ethr =  2.09E-06,  avg # of iterations = 14.3

     negative rho (up, down):  5.798E-01 0.000E+00
 
     Adding external electric field

     Computed dipole along edir(3) : 
        Dipole               -0.6374 Ry au,         -1.6201 Debye
        Dipole field         -0.0009 Ry au
 
        Potential amp.        0.0905 Ry
        Total length         48.0849 bohr
 

     total cpu time spent up to now is      643.8 secs

     total energy              =   -1259.53387469 Ry
     Harris-Foulkes estimate   =   -1259.53450198 Ry
     estimated scf accuracy    <       0.00271275 Ry

     iteration # 15     ecut=    36.75 Ry     beta=0.30
     Davidson diagonalization with overlap
     c_bands:  1 eigenvalues not converged
     ethr =  1.99E-06,  avg # of iterations =  8.7

     negative rho (up, down):  5.809E-01 0.000E+00
 
     Adding external electric field

     Computed dipole along edir(3) : 
        Dipole               -0.6557 Ry au,         -1.6667 Debye
        Dipole field         -0.0010 Ry au
 
        Potential amp.        0.0932 Ry
        Total length         48.0849 bohr
 

     total cpu time spent up to now is      688.3 secs

     total energy              =   -1259.53374358 Ry
     Harris-Foulkes estimate   =   -1259.53423377 Ry
     estimated scf accuracy    <       0.00360269 Ry

     iteration # 16     ecut=    36.75 Ry     beta=0.30
     Davidson diagonalization with overlap
     ethr =  1.99E-06,  avg # of iterations =  5.5

     negative rho (up, down):  5.818E-01 0.000E+00
 
     Adding external electric field

     Computed dipole along edir(3) : 
        Dipole               -0.6480 Ry au,         -1.6472 Debye
        Dipole field         -0.0010 Ry au
 
        Potential amp.        0.0921 Ry
        Total length         48.0849 bohr
 

     total cpu time spent up to now is      726.8 secs

     total energy              =   -1259.53389496 Ry
     Harris-Foulkes estimate   =   -1259.53402528 Ry
     estimated scf accuracy    <       0.00104220 Ry

     iteration # 17     ecut=    36.75 Ry     beta=0.30
     Davidson diagonalization with overlap
     ethr =  7.66E-07,  avg # of iterations =  6.0

     negative rho (up, down):  5.826E-01 0.000E+00
 
     Adding external electric field

     Computed dipole along edir(3) : 
        Dipole               -0.6512 Ry au,         -1.6552 Debye
        Dipole field         -0.0010 Ry au
 
        Potential amp.        0.0925 Ry
        Total length         48.0849 bohr
 

     total cpu time spent up to now is      763.6 secs

     total energy              =   -1259.53389964 Ry
     Harris-Foulkes estimate   =   -1259.53395664 Ry
     estimated scf accuracy    <       0.00023134 Ry

     iteration # 18     ecut=    36.75 Ry     beta=0.30
     Davidson diagonalization with overlap
     c_bands:  2 eigenvalues not converged
     c_bands:  1 eigenvalues not converged
     ethr =  1.70E-07,  avg # of iterations = 10.2

     negative rho (up, down):  5.826E-01 0.000E+00
 
     Adding external electric field

     Computed dipole along edir(3) : 
        Dipole               -0.6537 Ry au,         -1.6614 Debye
        Dipole field         -0.0010 Ry au
 
        Potential amp.        0.0929 Ry
        Total length         48.0849 bohr
 

     total cpu time spent up to now is      814.3 secs

     total energy              =   -1259.53394550 Ry
     Harris-Foulkes estimate   =   -1259.53395351 Ry
     estimated scf accuracy    <       0.00008007 Ry

     iteration # 19     ecut=    36.75 Ry     beta=0.30
     Davidson diagonalization with overlap
     c_bands:  1 eigenvalues not converged
     c_bands:  1 eigenvalues not converged
     ethr =  5.89E-08,  avg # of iterations =  7.0

     negative rho (up, down):  5.830E-01 0.000E+00
 
     Adding external electric field

     Computed dipole along edir(3) : 
        Dipole               -0.6531 Ry au,         -1.6600 Debye
        Dipole field         -0.0010 Ry au
 
        Potential amp.        0.0928 Ry
        Total length         48.0849 bohr
 

     total cpu time spent up to now is      855.3 secs

     total energy              =   -1259.53395387 Ry
     Harris-Foulkes estimate   =   -1259.53395851 Ry
     estimated scf accuracy    <       0.00002424 Ry

     iteration # 20     ecut=    36.75 Ry     beta=0.30
     Davidson diagonalization with overlap
     c_bands:  1 eigenvalues not converged
     c_bands:  1 eigenvalues not converged
     ethr =  1.78E-08,  avg # of iterations =  7.5

     negative rho (up, down):  5.832E-01 0.000E+00

     negative rho (up, down):  5.832E-01 0.000E+00

     negative rho (up, down):  5.832E-01 0.000E+00

     negative rho (up, down):  5.832E-01 0.000E+00

     negative rho (up, down):  5.832E-01 0.000E+00

     negative rho (up, down):  5.832E-01 0.000E+00

     negative rho (up, down):  5.832E-01 0.000E+00

     negative rho (up, down):  5.832E-01 0.000E+00

     negative rho (up, down):  5.832E-01 0.000E+00

     negative rho (up, down):  5.832E-01 0.000E+00

     negative rho (up, down):  5.832E-01 0.000E+00

     negative rho (up, down):  5.832E-01 0.000E+00

     negative rho (up, down):  5.832E-01 0.000E+00

     negative rho (up, down):  5.832E-01 0.000E+00

     negative rho (up, down):  5.832E-01 0.000E+00

     negative rho (up, down):  5.832E-01 0.000E+00

     negative rho (up, down):  5.832E-01 0.000E+00

     negative rho (up, down):  5.832E-01 0.000E+00

     negative rho (up, down):  5.832E-01 0.000E+00

     negative rho (up, down):  5.832E-01 0.000E+00

     negative rho (up, down):  5.832E-01 0.000E+00

     negative rho (up, down):  5.832E-01 0.000E+00

     negative rho (up, down):  5.832E-01 0.000E+00

     negative rho (up, down):  5.832E-01 0.000E+00

     negative rho (up, down):  5.832E-01 0.000E+00

     negative rho (up, down):  5.832E-01 0.000E+00

     negative rho (up, down):  5.832E-01 0.000E+00

     negative rho (up, down):  5.832E-01 0.000E+00

     negative rho (up, down):  5.832E-01 0.000E+00

     negative rho (up, down):  5.832E-01 0.000E+00

     negative rho (up, down):  5.832E-01 0.000E+00

     negative rho (up, down):  5.832E-01 0.000E+00

     negative rho (up, down):  5.832E-01 0.000E+00

     negative rho (up, down):  5.832E-01 0.000E+00

     negative rho (up, down):  5.832E-01 0.000E+00
 
     Adding external electric field

     Computed dipole along edir(3) : 
        Dipole               -0.6738 Ry au,         -1.7125 Debye
        Dipole field         -0.0010 Ry au
 
        Potential amp.        0.0957 Ry
        Total length         48.0849 bohr
 

     total cpu time spent up to now is      931.2 secs

     End of self-consistent calculation

          k = 0.0000 0.0000 0.0000 ( 31997 PWs)   bands (ev):

   -31.9035 -31.8687 -31.7442 -31.7321 -31.7316 -31.5995 -31.5049 -31.5048
   -31.4229 -31.3234 -31.2860 -31.2857 -15.9622 -15.9620 -15.9456 -15.8744
   -15.8744 -15.8137 -15.7616 -15.7114 -15.7040 -15.7039 -15.5161 -15.3303
   -15.2890 -15.2887 -15.1989 -15.1313 -15.1311 -15.1250 -15.1024 -15.1023
   -15.0027 -15.0027 -14.9502 -14.8738 -14.8738 -14.8298 -14.7813 -14.7811
   -14.7411 -14.7218 -14.7217 -14.6801 -14.6613 -14.6612 -14.4671 -14.4671
    -6.3827  -1.2670  -0.5116  -0.1992  -0.1992  -0.1872  -0.1541   0.1190
     0.1191   0.1313   0.2708   0.2709   0.2796   0.4333   0.4333   0.4448
     1.0404   1.0405   1.1490   1.5915   1.5916   1.6874   2.0466   2.1429
     2.1987   2.1987   2.3842   2.5075   2.6676   2.6928

          k = 0.0000 0.0258 0.0000 ( 32061 PWs)   bands (ev):

   -31.9015 -31.8601 -31.7489 -31.7360 -31.7321 -31.5955 -31.5112 -31.5049
   -31.4159 -31.3256 -31.2911 -31.2857 -15.9268 -15.9169 -15.8931 -15.8428
   -15.8207 -15.7929 -15.7206 -15.6828 -15.6750 -15.6617 -15.5136 -15.3431
   -15.3090 -15.2984 -15.1826 -15.1725 -15.1704 -15.1243 -15.1154 -15.1008
   -15.0388 -15.0063 -14.9684 -14.9568 -14.8913 -14.8328 -14.8003 -14.7767
   -14.7588 -14.7335 -14.7311 -14.7027 -14.6930 -14.6617 -14.5393 -14.4822
    -6.3731  -1.0904  -0.3401  -0.1020  -0.0528  -0.0201   0.0061   0.1391
     0.2504   0.2647   0.3641   0.4391   0.4498   0.5244   0.5642   0.5668
     1.0875   1.1031   1.1898   1.5224   1.5422   1.6752   2.0359   2.0680
     2.1994   2.2107   2.2391   2.3303   2.4390   2.4953

          k = 0.0000 0.0515 0.0000 ( 32002 PWs)   bands (ev):

   -31.8976 -31.8366 -31.7706 -31.7388 -31.7321 -31.5847 -31.5266 -31.5050
   -31.3979 -31.3350 -31.3003 -31.2857 -15.8405 -15.8236 -15.7679 -15.7448
   -15.7324 -15.6817 -15.6406 -15.6076 -15.5963 -15.5655 -15.5126 -15.3679
   -15.3486 -15.3420 -15.2673 -15.2520 -15.2209 -15.1638 -15.1438 -15.1239
   -15.0657 -15.0526 -15.0198 -14.9878 -14.9563 -14.9381 -14.8435 -14.8267
   -14.7757 -14.7596 -14.7369 -14.7302 -14.7246 -14.7034 -14.6319 -14.5231
    -6.3541  -0.6314   0.0341   0.1311   0.1662   0.2937   0.3387   0.4253
     0.5324   0.6184   0.6196   0.7421   0.8081   0.8966   0.9657   0.9736
     1.1762   1.2705   1.2856   1.3842   1.5122   1.5618   1.7273   1.8717
     1.9113   2.0410   2.0843   2.1516   2.2167   2.2924

          k = 0.0000-0.0773 0.0000 ( 31970 PWs)   bands (ev):

   -31.8956 -31.8081 -31.7990 -31.7392 -31.7322 -31.5762 -31.5375 -31.5050
   -31.3836 -31.3461 -31.3039 -31.2857 -15.7822 -15.7592 -15.7218 -15.7004
   -15.6474 -15.5976 -15.5625 -15.5568 -15.5403 -15.4792 -15.4495 -15.4370
   -15.4003 -15.3918 -15.3489 -15.3042 -15.2816 -15.2454 -15.1825 -15.1648
   -15.0803 -15.0077 -15.0047 -14.9955 -14.9458 -14.9388 -14.9259 -14.9080
   -14.8807 -14.7735 -14.7680 -14.7347 -14.7211 -14.7144 -14.5867 -14.5708
    -6.3448  -0.1609  -0.0830   0.2573   0.3662   0.5683   0.6022   0.6612
     0.7342   0.7463   0.7742   0.9064   1.0106   1.1320   1.2483   1.2558
     1.3261   1.3568   1.4538   1.4552   1.6108   1.6307   1.7176   1.7219
     1.7664   1.8112   1.9059   1.9282   2.0721   2.0909

          k = 0.0223-0.0129 0.0000 ( 32061 PWs)   bands (ev):

   -31.9015 -31.8601 -31.7488 -31.7366 -31.7317 -31.5955 -31.5112 -31.5049
   -31.4159 -31.3257 -31.2908 -31.2859 -15.9269 -15.9167 -15.8931 -15.8428
   -15.8207 -15.7929 -15.7206 -15.6828 -15.6748 -15.6618 -15.5136 -15.3430
   -15.3094 -15.2981 -15.1826 -15.1726 -15.1703 -15.1243 -15.1154 -15.1008
   -15.0388 -15.0063 -14.9684 -14.9568 -14.8913 -14.8328 -14.8002 -14.7769
   -14.7587 -14.7336 -14.7310 -14.7026 -14.6930 -14.6617 -14.5393 -14.4822
    -6.3731  -1.0904  -0.3401  -0.1020  -0.0528  -0.0201   0.0061   0.1391
     0.2505   0.2646   0.3641   0.4390   0.4498   0.5243   0.5643   0.5668
     1.0876   1.1031   1.1898   1.5224   1.5422   1.6752   2.0359   2.0681
     2.1994   2.2107   2.2391   2.3302   2.4392   2.4952

          k = 0.0223 0.0129 0.0000 ( 32061 PWs)   bands (ev):

   -31.9015 -31.8601 -31.7489 -31.7362 -31.7319 -31.5955 -31.5112 -31.5050
   -31.4159 -31.3257 -31.2908 -31.2859 -15.9268 -15.9168 -15.8931 -15.8428
   -15.8208 -15.7929 -15.7206 -15.6828 -15.6749 -15.6617 -15.5136 -15.3431
   -15.3091 -15.2983 -15.1826 -15.1725 -15.1704 -15.1242 -15.1154 -15.1009
   -15.0388 -15.0063 -14.9684 -14.9568 -14.8913 -14.8327 -14.8002 -14.7769
   -14.7587 -14.7336 -14.7310 -14.7026 -14.6930 -14.6617 -14.5393 -14.4822
    -6.3731  -1.0904  -0.3401  -0.1020  -0.0528  -0.0201   0.0061   0.1391
     0.2505   0.2646   0.3641   0.4390   0.4498   0.5243   0.5643   0.5668
     1.0875   1.1031   1.1898   1.5224   1.5422   1.6752   2.0359   2.0680
     2.1994   2.2107   2.2391   2.3302   2.4392   2.4951

          k = 0.0223 0.0387 0.0000 ( 32007 PWs)   bands (ev):

   -31.8985 -31.8440 -31.7581 -31.7486 -31.7271 -31.5878 -31.5228 -31.5046
   -31.4033 -31.3304 -31.3012 -31.2839 -15.8740 -15.8162 -15.8109 -15.7807
   -15.7560 -15.7239 -15.6611 -15.6255 -15.6206 -15.5955 -15.5126 -15.3611
   -15.3442 -15.3299 -15.2827 -15.2139 -15.1558 -15.1337 -15.1277 -15.0961
   -15.0922 -15.0573 -15.0088 -14.9906 -14.9309 -14.9234 -14.8423 -14.7918
   -14.7793 -14.7504 -14.7316 -14.7022 -14.6909 -14.6901 -14.6538 -14.5163
    -6.3588  -0.7681  -0.0443   0.1217   0.1442   0.2337   0.2645   0.3098
     0.3271   0.5569   0.5805   0.6455   0.6833   0.6997   0.8547   0.8941
     1.1766   1.1935   1.2775   1.4018   1.4882   1.6050   1.8444   1.9022
     1.9771   2.0431   2.1737   2.1971   2.2558   2.3833

          k = 0.0223-0.0902 0.0000 ( 31991 PWs)   bands (ev):

   -31.8956 -31.8163 -31.7824 -31.7569 -31.7230 -31.5749 -31.5398 -31.5039
   -31.3853 -31.3394 -31.3129 -31.2816 -15.7791 -15.7312 -15.7084 -15.6915
   -15.6571 -15.6016 -15.5824 -15.5596 -15.5410 -15.5154 -15.4926 -15.4615
   -15.3868 -15.3748 -15.3393 -15.3070 -15.2940 -15.1918 -15.1737 -15.0983
   -15.0781 -15.0659 -15.0099 -15.0007 -14.9952 -14.9607 -14.9438 -14.8578
   -14.7957 -14.7867 -14.7594 -14.7313 -14.7159 -14.7063 -14.6402 -14.5754
    -6.3448  -0.2542   0.1535   0.3330   0.4319   0.5154   0.5425   0.6141
     0.7239   0.8276   0.8606   0.9200   0.9744   1.0717   1.1460   1.1603
     1.2603   1.3666   1.4089   1.4201   1.5134   1.5465   1.6656   1.6973
     1.7332   1.8316   1.8700   1.9717   2.0281   2.0813

          k = 0.0223-0.0644 0.0000 ( 31991 PWs)   bands (ev):

   -31.8956 -31.8163 -31.7824 -31.7569 -31.7230 -31.5749 -31.5399 -31.5039
   -31.3853 -31.3394 -31.3129 -31.2817 -15.7791 -15.7312 -15.7084 -15.6915
   -15.6571 -15.6016 -15.5824 -15.5595 -15.5410 -15.5154 -15.4926 -15.4615
   -15.3868 -15.3749 -15.3393 -15.3069 -15.2941 -15.1918 -15.1738 -15.0983
   -15.0781 -15.0659 -15.0099 -15.0007 -14.9952 -14.9607 -14.9438 -14.8578
   -14.7957 -14.7867 -14.7593 -14.7313 -14.7159 -14.7063 -14.6402 -14.5754
    -6.3448  -0.2542   0.1535   0.3330   0.4319   0.5154   0.5425   0.6141
     0.7239   0.8276   0.8606   0.9200   0.9743   1.0716   1.1460   1.1603
     1.2603   1.3666   1.4089   1.4201   1.5134   1.5465   1.6656   1.6973
     1.7332   1.8316   1.8700   1.9717   2.0281   2.0812

          k = 0.0223-0.0387 0.0000 ( 32007 PWs)   bands (ev):

   -31.8985 -31.8440 -31.7579 -31.7488 -31.7271 -31.5877 -31.5229 -31.5045
   -31.4033 -31.3304 -31.3011 -31.2839 -15.8740 -15.8161 -15.8109 -15.7808
   -15.7560 -15.7238 -15.6611 -15.6254 -15.6205 -15.5956 -15.5126 -15.3610
   -15.3443 -15.3298 -15.2827 -15.2139 -15.1559 -15.1337 -15.1277 -15.0961
   -15.0922 -15.0573 -15.0089 -14.9906 -14.9309 -14.9234 -14.8423 -14.7918
   -14.7793 -14.7504 -14.7316 -14.7022 -14.6908 -14.6901 -14.6538 -14.5163
    -6.3588  -0.7681  -0.0443   0.1217   0.1442   0.2337   0.2645   0.3098
     0.3271   0.5569   0.5805   0.6455   0.6833   0.6996   0.8547   0.8941
     1.1766   1.1935   1.2775   1.4018   1.4882   1.6050   1.8445   1.9022
     1.9771   2.0431   2.1737   2.1971   2.2558   2.3836

          k = 0.0446-0.0258 0.0000 ( 32002 PWs)   bands (ev):

   -31.8976 -31.8366 -31.7705 -31.7393 -31.7317 -31.5847 -31.5267 -31.5050
   -31.3979 -31.3352 -31.2999 -31.2859 -15.8407 -15.8233 -15.7680 -15.7449
   -15.7324 -15.6817 -15.6406 -15.6073 -15.5964 -15.5656 -15.5126 -15.3678
   -15.3488 -15.3418 -15.2675 -15.2517 -15.2209 -15.1639 -15.1437 -15.1240
   -15.0657 -15.0527 -15.0197 -14.9878 -14.9563 -14.9381 -14.8434 -14.8268
   -14.7756 -14.7597 -14.7369 -14.7302 -14.7245 -14.7034 -14.6319 -14.5231
    -6.3541  -0.6314   0.0341   0.1311   0.1662   0.2938   0.3387   0.4253
     0.5325   0.6184   0.6196   0.7421   0.8080   0.8966   0.9658   0.9736
     1.1762   1.2705   1.2855   1.3842   1.5123   1.5618   1.7273   1.8717
     1.9113   2.0411   2.0843   2.1516   2.2168   2.3000

          k = 0.0446 0.0000 0.0000 ( 32007 PWs)   bands (ev):

   -31.8985 -31.8440 -31.7578 -31.7490 -31.7271 -31.5877 -31.5228 -31.5045
   -31.4033 -31.3305 -31.3009 -31.2841 -15.8740 -15.8161 -15.8109 -15.7808
   -15.7560 -15.7238 -15.6611 -15.6254 -15.6204 -15.5957 -15.5126 -15.3610
   -15.3443 -15.3298 -15.2827 -15.2139 -15.1559 -15.1337 -15.1277 -15.0961
   -15.0922 -15.0573 -15.0089 -14.9905 -14.9309 -14.9234 -14.8423 -14.7917
   -14.7794 -14.7502 -14.7318 -14.7022 -14.6909 -14.6901 -14.6538 -14.5163
    -6.3588  -0.7681  -0.0443   0.1217   0.1442   0.2337   0.2644   0.3098
     0.3271   0.5569   0.5805   0.6455   0.6833   0.6996   0.8547   0.8941
     1.1766   1.1936   1.2775   1.4018   1.4882   1.6050   1.8445   1.9022
     1.9771   2.0432   2.1737   2.1971   2.2558   2.3836

          k = 0.0446 0.0258 0.0000 ( 32002 PWs)   bands (ev):

   -31.8976 -31.8366 -31.7706 -31.7390 -31.7320 -31.5847 -31.5265 -31.5051
   -31.3979 -31.3352 -31.3000 -31.2859 -15.8405 -15.8234 -15.7680 -15.7448
   -15.7324 -15.6818 -15.6406 -15.6074 -15.5963 -15.5655 -15.5126 -15.3679
   -15.3486 -15.3419 -15.2674 -15.2519 -15.2209 -15.1639 -15.1438 -15.1240
   -15.0657 -15.0526 -15.0198 -14.9878 -14.9562 -14.9381 -14.8434 -14.8268
   -14.7755 -14.7597 -14.7369 -14.7302 -14.7245 -14.7033 -14.6319 -14.5231
    -6.3541  -0.6314   0.0341   0.1311   0.1662   0.2938   0.3387   0.4253
     0.5325   0.6184   0.6196   0.7421   0.8081   0.8966   0.9658   0.9736
     1.1762   1.2705   1.2856   1.3842   1.5123   1.5618   1.7273   1.8717
     1.9113   2.0411   2.0843   2.1516   2.2168   2.2973

          k = 0.0446-0.1031 0.0000 ( 31991 PWs)   bands (ev):

   -31.8956 -31.8163 -31.7824 -31.7569 -31.7230 -31.5750 -31.5397 -31.5040
   -31.3853 -31.3395 -31.3127 -31.2817 -15.7791 -15.7311 -15.7085 -15.6915
   -15.6571 -15.6016 -15.5824 -15.5595 -15.5410 -15.5154 -15.4926 -15.4614
   -15.3869 -15.3749 -15.3393 -15.3070 -15.2940 -15.1918 -15.1737 -15.0983
   -15.0781 -15.0659 -15.0100 -15.0007 -14.9952 -14.9607 -14.9438 -14.8578
   -14.7957 -14.7867 -14.7594 -14.7313 -14.7159 -14.7063 -14.6402 -14.5754
    -6.3448  -0.2542   0.1535   0.3330   0.4319   0.5155   0.5425   0.6141
     0.7238   0.8275   0.8606   0.9200   0.9744   1.0717   1.1460   1.1603
     1.2603   1.3667   1.4089   1.4202   1.5134   1.5465   1.6656   1.6973
     1.7332   1.8316   1.8700   1.9717   2.0281   2.0812

          k = 0.0446-0.0773 0.0000 ( 31986 PWs)   bands (ev):

   -31.8947 -31.7956 -31.7825 -31.7820 -31.7187 -31.5611 -31.5558 -31.5029
   -31.3780 -31.3322 -31.3304 -31.2788 -15.6845 -15.6812 -15.6535 -15.6322
   -15.6313 -15.5872 -15.5802 -15.5666 -15.5002 -15.4946 -15.4897 -15.4801
   -15.4169 -15.3860 -15.3664 -15.3608 -15.3245 -15.3028 -15.1112 -15.0929
   -15.0867 -15.0612 -15.0254 -15.0161 -15.0030 -14.9997 -14.9373 -14.9265
   -14.7998 -14.7899 -14.7380 -14.7273 -14.7202 -14.6672 -14.6635 -14.6510
    -6.3401   0.1310   0.2804   0.3056   0.6153   0.6486   0.7649   0.8016
     0.8439   0.9413   0.9438   1.0820   1.1812   1.1887   1.1925   1.2151
     1.2916   1.2980   1.3352   1.3879   1.4360   1.4514   1.5625   1.5958
     1.6916   1.7766   1.8251   1.8500   1.8965   1.9087

          k = 0.0446-0.0515 0.0000 ( 31991 PWs)   bands (ev):

   -31.8956 -31.8163 -31.7822 -31.7571 -31.7230 -31.5749 -31.5399 -31.5039
   -31.3853 -31.3396 -31.3127 -31.2817 -15.7792 -15.7311 -15.7085 -15.6916
   -15.6571 -15.6016 -15.5824 -15.5594 -15.5411 -15.5153 -15.4926 -15.4614
   -15.3869 -15.3749 -15.3392 -15.3070 -15.2940 -15.1918 -15.1737 -15.0984
   -15.0781 -15.0660 -15.0100 -15.0007 -14.9951 -14.9607 -14.9438 -14.8578
   -14.7956 -14.7867 -14.7594 -14.7314 -14.7159 -14.7063 -14.6402 -14.5754
    -6.3448  -0.2542   0.1535   0.3330   0.4320   0.5155   0.5425   0.6141
     0.7239   0.8275   0.8606   0.9200   0.9744   1.0717   1.1460   1.1603
     1.2603   1.3667   1.4089   1.4201   1.5134   1.5465   1.6656   1.6973
     1.7332   1.8316   1.8700   1.9717   2.0281   2.0812

          k =-0.0669 0.0387 0.0000 ( 31970 PWs)   bands (ev):

   -31.8956 -31.8084 -31.7986 -31.7397 -31.7318 -31.5761 -31.5375 -31.5050
   -31.3835 -31.3463 -31.3035 -31.2859 -15.7825 -15.7588 -15.7219 -15.7004
   -15.6473 -15.5977 -15.5623 -15.5569 -15.5403 -15.4792 -15.4493 -15.4373
   -15.4001 -15.3919 -15.3488 -15.3045 -15.2814 -15.2453 -15.1824 -15.1648
   -15.0805 -15.0080 -15.0046 -14.9952 -14.9459 -14.9387 -14.9261 -14.9077
   -14.8809 -14.7735 -14.7678 -14.7348 -14.7212 -14.7142 -14.5865 -14.5710
    -6.3448  -0.1608  -0.0831   0.2573   0.3663   0.5683   0.6023   0.6612
     0.7341   0.7463   0.7742   0.9064   1.0106   1.1319   1.2483   1.2557
     1.3261   1.3568   1.4538   1.4552   1.6108   1.6308   1.7176   1.7219
     1.7664   1.8112   1.9059   1.9283   2.0720   2.0909

          k =-0.0669 0.0644 0.0000 ( 31991 PWs)   bands (ev):

   -31.8956 -31.8163 -31.7822 -31.7571 -31.7230 -31.5749 -31.5398 -31.5039
   -31.3853 -31.3396 -31.3126 -31.2818 -15.7792 -15.7311 -15.7085 -15.6916
   -15.6571 -15.6016 -15.5824 -15.5593 -15.5411 -15.5154 -15.4926 -15.4614
   -15.3868 -15.3749 -15.3392 -15.3070 -15.2941 -15.1918 -15.1737 -15.0984
   -15.0781 -15.0660 -15.0099 -15.0007 -14.9952 -14.9607 -14.9438 -14.8578
   -14.7956 -14.7868 -14.7594 -14.7314 -14.7159 -14.7062 -14.6402 -14.5754
    -6.3448  -0.2542   0.1534   0.3330   0.4320   0.5155   0.5425   0.6141
     0.7239   0.8275   0.8606   0.9200   0.9744   1.0716   1.1460   1.1603
     1.2603   1.3666   1.4089   1.4201   1.5134   1.5465   1.6656   1.6973
     1.7332   1.8316   1.8700   1.9716   2.0281   2.0812

          k =-0.0669 0.0902 0.0000 ( 31991 PWs)   bands (ev):

   -31.8956 -31.8163 -31.7823 -31.7570 -31.7230 -31.5750 -31.5397 -31.5039
   -31.3853 -31.3396 -31.3126 -31.2817 -15.7792 -15.7311 -15.7084 -15.6915
   -15.6571 -15.6016 -15.5824 -15.5594 -15.5411 -15.5154 -15.4926 -15.4615
   -15.3868 -15.3749 -15.3392 -15.3069 -15.2941 -15.1918 -15.1737 -15.0983
   -15.0781 -15.0659 -15.0099 -15.0007 -14.9952 -14.9607 -14.9438 -14.8578
   -14.7956 -14.7868 -14.7594 -14.7314 -14.7159 -14.7062 -14.6402 -14.5754
    -6.3448  -0.2542   0.1535   0.3330   0.4320   0.5155   0.5425   0.6141
     0.7239   0.8275   0.8606   0.9200   0.9744   1.0716   1.1460   1.1603
     1.2603   1.3666   1.4089   1.4201   1.5134   1.5465   1.6656   1.6973
     1.7332   1.8316   1.8700   1.9717   2.0281   2.0812

          k =-0.0669-0.0387 0.0000 ( 31970 PWs)   bands (ev):

   -31.8956 -31.8082 -31.7989 -31.7394 -31.7320 -31.5762 -31.5374 -31.5051
   -31.3835 -31.3463 -31.3035 -31.2859 -15.7823 -15.7591 -15.7218 -15.7004
   -15.6473 -15.5977 -15.5624 -15.5569 -15.5403 -15.4792 -15.4494 -15.4371
   -15.4002 -15.3918 -15.3489 -15.3043 -15.2816 -15.2454 -15.1825 -15.1647
   -15.0804 -15.0078 -15.0047 -14.9954 -14.9458 -14.9387 -14.9261 -14.9077
   -14.8808 -14.7736 -14.7678 -14.7348 -14.7212 -14.7143 -14.5865 -14.5710
    -6.3448  -0.1608  -0.0830   0.2573   0.3663   0.5683   0.6023   0.6612
     0.7342   0.7463   0.7742   0.9064   1.0106   1.1319   1.2483   1.2557
     1.3261   1.3568   1.4538   1.4552   1.6108   1.6308   1.7176   1.7219
     1.7664   1.8112   1.9059   1.9283   2.0721   2.0909

     the Fermi energy is     1.4815 ev

!    total energy              =   -1259.53395066 Ry
     Harris-Foulkes estimate   =   -1259.53391566 Ry
     estimated scf accuracy    <       0.00000741 Ry

     The total energy is the sum of the following terms:

     one-electron contribution =   -4739.02116277 Ry
     hartree contribution      =    2381.03166422 Ry
     xc contribution           =    -611.90255812 Ry
     ewald contribution        =    1710.48716766 Ry
     electric field correction =       0.00067058 Ry
     smearing contrib. (-TS)   =      -0.12973223 Ry

     convergence has been achieved in  20 iterations
 
 BEEF-vdW xc energy contributions
           1 :   -542.127305788329     
           2 :    498.753466445150     
           3 :   -421.989642844848     
           4 :    328.152815311814     
           5 :   -234.640883091903     
           6 :    155.285694889369     
           7 :   -97.7059712001710     
           8 :    62.9636954359181     
           9 :   -47.0298253173484     
          10 :    43.1687950094167     
          11 :   -44.3379354052042     
          12 :    44.9252653851727     
          13 :   -41.5682113936402     
          14 :    33.1959244782886     
          15 :   -20.6372301039876     
          16 :    6.05379709534031     
          17 :    7.72079410614958     
          18 :   -17.9445393010174     
          19 :    22.7538420310121     
          20 :   -21.7641898518385     
          21 :    16.2371122529365     
          22 :   -8.68418839808055     
          23 :    1.99472312556418     
          24 :    1.59723125398227     
          25 :   -1.28498261475124     
          26 :   -2.13606158603261     
          27 :    6.75950728979842     
          28 :   -10.4803388876405     
          29 :    11.8922742561469     
          30 :   -10.7749990295530     
          31 :   -46.1497549920946     
          32 :   -33.1332535021855     

     Forces acting on atoms (Ry/au):


     negative rho (up, down):  5.832E-01 0.000E+00
     atom    1 type  1   force =     0.00000752   -0.00002523    0.00396157
     atom    2 type  1   force =    -0.00001389   -0.00187631    0.00349536
     atom    3 type  1   force =    -0.00161701    0.00094986    0.00351657
     atom    4 type  1   force =     0.00161385    0.00095950    0.00347156
     atom    5 type  1   force =    -0.00286283    0.00167179   -0.00486439
     atom    6 type  1   force =     0.00285870    0.00165741   -0.00485273
     atom    7 type  1   force =     0.00000777   -0.00001471   -0.00717249
     atom    8 type  1   force =    -0.00000221   -0.00330699   -0.00486683
     atom    9 type  1   force =     0.04163265    0.02402744    0.03790056
     atom   10 type  1   force =    -0.04163841    0.02401462    0.03789917
     atom   11 type  1   force =     0.00000097   -0.04806055    0.03789334
     atom   12 type  1   force =     0.00001227    0.00000552    0.00671288
     atom   13 type  2   force =     0.00000063   -0.00000235   -0.11309456

     Total force =     0.155161     Total SCF correction =     0.002363


     entering subroutine stress ...


     negative rho (up, down):  5.832E-01 0.000E+00
          total   stress  (Ry/bohr**3)                   (kbar)     P=   -5.25
  -0.00002770   0.00000002   0.00000001         -4.07      0.00      0.00
   0.00000002  -0.00002771   0.00000000          0.00     -4.08      0.00
   0.00000001   0.00000000  -0.00005171          0.00      0.00     -7.61


     BFGS Geometry Optimization

     number of scf cycles    =   1
     number of bfgs steps    =   0

     energy   new            =   -1259.5339506613 Ry

     new trust radius        =       0.1130945650 bohr
     new conv_thr            =       0.0000099958 Ry


ATOMIC_POSITIONS (crystal)
La1      0.166666667   0.166666667   0.383173129    0   0   0
La1      0.666666667   0.166666667   0.383173129    0   0   0
La1      0.166666667   0.666666667   0.383173129    0   0   0
La1      0.666666667   0.666666667   0.383173129    0   0   0
La1      0.833333333   0.333333333   0.500000000    0   0   0
La1      0.333333333   0.333333333   0.500000000    0   0   0
La1      0.833333333   0.833333333   0.500000000    0   0   0
La1      0.333333333   0.833333333   0.500000000    0   0   0
La1      0.001966997   0.001965869   0.617595367
La1      0.496067251   0.001964820   0.617595339
La1      0.001966170   0.496067797   0.617595221
La1      0.500000644   0.500000452   0.616962986
C1       0.166666807   0.166666475   0.685018389



     Writing output data file calc.save
     Check: negative starting charge=   -0.831111
     NEW-OLD atomic charge density approx. for the potential
     Check: negative starting charge=   -0.832311

     negative rho (up, down):  5.838E-01 0.000E+00
 
     Adding external electric field

     Computed dipole along edir(3) : 
        Dipole               -0.6699 Ry au,         -1.7027 Debye
        Dipole field         -0.0010 Ry au
 
        Potential amp.        0.0952 Ry
        Total length         48.0849 bohr
 

     total cpu time spent up to now is     1029.9 secs

     Self-consistent Calculation

     iteration #  1     ecut=    36.75 Ry     beta=0.30
     Davidson diagonalization with overlap
     c_bands:  1 eigenvalues not converged
     c_bands:  1 eigenvalues not converged
     c_bands:  1 eigenvalues not converged
     c_bands:  1 eigenvalues not converged
     ethr =  1.00E-06,  avg # of iterations = 15.6

     negative rho (up, down):  5.847E-01 0.000E+00
 
     Adding external electric field

     Computed dipole along edir(3) : 
        Dipole               -0.8847 Ry au,         -2.2487 Debye
        Dipole field         -0.0013 Ry au
 
        Potential amp.        0.1257 Ry
        Total length         48.0849 bohr
 

     total cpu time spent up to now is     1109.8 secs

     total energy              =   -1259.53114726 Ry
     Harris-Foulkes estimate   =   -1259.56191030 Ry
     estimated scf accuracy    <       0.06662569 Ry

     iteration #  2     ecut=    36.75 Ry     beta=0.30
     Davidson diagonalization with overlap
     ethr =  4.90E-05,  avg # of iterations =  9.0

     negative rho (up, down):  5.835E-01 0.000E+00
 
     Adding external electric field

     Computed dipole along edir(3) : 
        Dipole               -0.2446 Ry au,         -0.6218 Debye
        Dipole field         -0.0004 Ry au
 
        Potential amp.        0.0348 Ry
        Total length         48.0849 bohr
 

     total cpu time spent up to now is     1160.0 secs

     total energy              =   -1259.42901377 Ry
     Harris-Foulkes estimate   =   -1259.65293179 Ry
     estimated scf accuracy    <       4.32278106 Ry

     iteration #  3     ecut=    36.75 Ry     beta=0.30
     Davidson diagonalization with overlap
     ethr =  4.90E-05,  avg # of iterations = 11.8

     negative rho (up, down):  5.826E-01 0.000E+00
 
     Adding external electric field

     Computed dipole along edir(3) : 
        Dipole               -0.6438 Ry au,         -1.6364 Debye
        Dipole field         -0.0010 Ry au
 
        Potential amp.        0.0915 Ry
        Total length         48.0849 bohr
 

     total cpu time spent up to now is     1219.1 secs

     total energy              =   -1259.47049878 Ry
     Harris-Foulkes estimate   =   -1259.64310567 Ry
     estimated scf accuracy    <       7.52694328 Ry

     iteration #  4     ecut=    36.75 Ry     beta=0.30
     Davidson diagonalization with overlap
     ethr =  4.90E-05,  avg # of iterations = 11.8

     negative rho (up, down):  5.825E-01 0.000E+00
 
     Adding external electric field

     Computed dipole along edir(3) : 
        Dipole               -0.6035 Ry au,         -1.5340 Debye
        Dipole field         -0.0009 Ry au
 
        Potential amp.        0.0857 Ry
        Total length         48.0849 bohr
 

     total cpu time spent up to now is     1275.1 secs

     total energy              =   -1259.55508125 Ry
     Harris-Foulkes estimate   =   -1259.55977302 Ry
     estimated scf accuracy    <       0.04644939 Ry

     iteration #  5     ecut=    36.75 Ry     beta=0.30
     Davidson diagonalization with overlap
     ethr =  3.42E-05,  avg # of iterations =  3.3

     negative rho (up, down):  5.827E-01 0.000E+00
 
     Adding external electric field

     Computed dipole along edir(3) : 
        Dipole               -0.6248 Ry au,         -1.5881 Debye
        Dipole field         -0.0009 Ry au
 
        Potential amp.        0.0888 Ry
        Total length         48.0849 bohr
 

     total cpu time spent up to now is     1308.9 secs

     total energy              =   -1259.55693728 Ry
     Harris-Foulkes estimate   =   -1259.55726904 Ry
     estimated scf accuracy    <       0.00676654 Ry

     iteration #  6     ecut=    36.75 Ry     beta=0.30
     Davidson diagonalization with overlap
     ethr =  4.98E-06,  avg # of iterations =  8.3

     negative rho (up, down):  5.829E-01 0.000E+00
 
     Adding external electric field

     Computed dipole along edir(3) : 
        Dipole               -0.6232 Ry au,         -1.5840 Debye
        Dipole field         -0.0009 Ry au
 
        Potential amp.        0.0885 Ry
        Total length         48.0849 bohr
 

     total cpu time spent up to now is     1355.5 secs

     total energy              =   -1259.55773680 Ry
     Harris-Foulkes estimate   =   -1259.55794052 Ry
     estimated scf accuracy    <       0.00247965 Ry

     iteration #  7     ecut=    36.75 Ry     beta=0.30
     Davidson diagonalization with overlap
     ethr =  1.82E-06,  avg # of iterations =  3.6

     negative rho (up, down):  5.832E-01 0.000E+00
 
     Adding external electric field

     Computed dipole along edir(3) : 
        Dipole               -0.6226 Ry au,         -1.5824 Debye
        Dipole field         -0.0009 Ry au
 
        Potential amp.        0.0884 Ry
        Total length         48.0849 bohr
 

     total cpu time spent up to now is     1389.9 secs

     total energy              =   -1259.55773223 Ry
     Harris-Foulkes estimate   =   -1259.55782029 Ry
     estimated scf accuracy    <       0.00054592 Ry

     iteration #  8     ecut=    36.75 Ry     beta=0.30
     Davidson diagonalization with overlap
     ethr =  4.01E-07,  avg # of iterations =  6.3

     negative rho (up, down):  5.833E-01 0.000E+00
 
     Adding external electric field

     Computed dipole along edir(3) : 
        Dipole               -0.6244 Ry au,         -1.5872 Debye
        Dipole field         -0.0009 Ry au
 
        Potential amp.        0.0887 Ry
        Total length         48.0849 bohr
 

     total cpu time spent up to now is     1433.9 secs

     total energy              =   -1259.55783931 Ry
     Harris-Foulkes estimate   =   -1259.55785915 Ry
     estimated scf accuracy    <       0.00024023 Ry

     iteration #  9     ecut=    36.75 Ry     beta=0.30
     Davidson diagonalization with overlap
     ethr =  1.77E-07,  avg # of iterations =  3.4

     negative rho (up, down):  5.834E-01 0.000E+00
 
     Adding external electric field

     Computed dipole along edir(3) : 
        Dipole               -0.6242 Ry au,         -1.5867 Debye
        Dipole field         -0.0009 Ry au
 
        Potential amp.        0.0887 Ry
        Total length         48.0849 bohr
 

     total cpu time spent up to now is     1468.0 secs

     total energy              =   -1259.55782935 Ry
     Harris-Foulkes estimate   =   -1259.55784734 Ry
     estimated scf accuracy    <       0.00010748 Ry

     iteration # 10     ecut=    36.75 Ry     beta=0.30
     Davidson diagonalization with overlap
     c_bands:  1 eigenvalues not converged
     ethr =  7.90E-08,  avg # of iterations =  8.3

     negative rho (up, down):  5.834E-01 0.000E+00
 
     Adding external electric field

     Computed dipole along edir(3) : 
        Dipole               -0.6239 Ry au,         -1.5859 Debye
        Dipole field         -0.0009 Ry au
 
        Potential amp.        0.0886 Ry
        Total length         48.0849 bohr
 

     total cpu time spent up to now is     1513.5 secs

     total energy              =   -1259.55784724 Ry
     Harris-Foulkes estimate   =   -1259.55785174 Ry
     estimated scf accuracy    <       0.00002747 Ry

     iteration # 11     ecut=    36.75 Ry     beta=0.30
     Davidson diagonalization with overlap
     ethr =  2.02E-08,  avg # of iterations =  4.6

     negative rho (up, down):  5.835E-01 0.000E+00

     negative rho (up, down):  5.835E-01 0.000E+00

     negative rho (up, down):  5.835E-01 0.000E+00

     negative rho (up, down):  5.835E-01 0.000E+00

     negative rho (up, down):  5.835E-01 0.000E+00

     negative rho (up, down):  5.835E-01 0.000E+00

     negative rho (up, down):  5.835E-01 0.000E+00

     negative rho (up, down):  5.835E-01 0.000E+00

     negative rho (up, down):  5.835E-01 0.000E+00

     negative rho (up, down):  5.835E-01 0.000E+00

     negative rho (up, down):  5.835E-01 0.000E+00

     negative rho (up, down):  5.835E-01 0.000E+00

     negative rho (up, down):  5.835E-01 0.000E+00

     negative rho (up, down):  5.835E-01 0.000E+00

     negative rho (up, down):  5.835E-01 0.000E+00

     negative rho (up, down):  5.835E-01 0.000E+00

     negative rho (up, down):  5.835E-01 0.000E+00

     negative rho (up, down):  5.835E-01 0.000E+00

     negative rho (up, down):  5.835E-01 0.000E+00

     negative rho (up, down):  5.835E-01 0.000E+00

     negative rho (up, down):  5.835E-01 0.000E+00

     negative rho (up, down):  5.835E-01 0.000E+00

     negative rho (up, down):  5.835E-01 0.000E+00

     negative rho (up, down):  5.835E-01 0.000E+00

     negative rho (up, down):  5.835E-01 0.000E+00

     negative rho (up, down):  5.835E-01 0.000E+00

     negative rho (up, down):  5.835E-01 0.000E+00

     negative rho (up, down):  5.835E-01 0.000E+00

     negative rho (up, down):  5.835E-01 0.000E+00

     negative rho (up, down):  5.835E-01 0.000E+00

     negative rho (up, down):  5.835E-01 0.000E+00

     negative rho (up, down):  5.835E-01 0.000E+00

     negative rho (up, down):  5.835E-01 0.000E+00

     negative rho (up, down):  5.835E-01 0.000E+00

     negative rho (up, down):  5.835E-01 0.000E+00
 
     Adding external electric field

     Computed dipole along edir(3) : 
        Dipole               -0.6388 Ry au,         -1.6236 Debye
        Dipole field         -0.0009 Ry au
 
        Potential amp.        0.0907 Ry
        Total length         48.0849 bohr
 

     total cpu time spent up to now is     1586.7 secs

     End of self-consistent calculation

          k = 0.0000 0.0000 0.0000 ( 31997 PWs)   bands (ev):

   -31.8883 -31.8485 -31.7240 -31.7116 -31.7114 -31.5531 -31.4551 -31.4551
   -31.4146 -31.3164 -31.2712 -31.2711 -15.9405 -15.9404 -15.9241 -15.8490
   -15.8489 -15.7927 -15.7313 -15.6858 -15.6848 -15.6848 -15.4972 -15.3008
   -15.2640 -15.2639 -15.1776 -15.1101 -15.1100 -15.1049 -15.0733 -15.0733
   -14.9696 -14.9696 -14.9081 -14.8535 -14.8535 -14.8295 -14.7620 -14.7620
   -14.7266 -14.7032 -14.7032 -14.6642 -14.6236 -14.6236 -14.4546 -14.4546
    -6.3468  -1.2466  -0.4900  -0.1841  -0.1841  -0.1646  -0.1302   0.1402
     0.1402   0.1447   0.2777   0.2778   0.2914   0.4563   0.4563   0.4680
     1.0395   1.0395   1.1707   1.6068   1.6068   1.7071   2.0723   2.1712
     2.2102   2.2102   2.4024   2.5379   2.6886   2.7168

          k = 0.0000 0.0258 0.0000 ( 32061 PWs)   bands (ev):

   -31.8865 -31.8399 -31.7286 -31.7160 -31.7115 -31.5487 -31.4616 -31.4552
   -31.4081 -31.3180 -31.2762 -31.2711 -15.9053 -15.8953 -15.8715 -15.8179
   -15.7956 -15.7718 -15.6938 -15.6560 -15.6557 -15.6398 -15.4948 -15.3122
   -15.2830 -15.2724 -15.1619 -15.1522 -15.1502 -15.0955 -15.0932 -15.0731
   -15.0086 -14.9723 -14.9365 -14.9276 -14.8710 -14.8247 -14.7781 -14.7572
   -14.7404 -14.7177 -14.7168 -14.6771 -14.6629 -14.6322 -14.5269 -14.4696
    -6.3355  -1.0707  -0.3197  -0.0880  -0.0390   0.0046   0.0250   0.1547
     0.2645   0.2851   0.3790   0.4438   0.4575   0.5467   0.5891   0.5914
     1.0865   1.1041   1.2083   1.5388   1.5615   1.6945   2.0650   2.0961
     2.2132   2.2271   2.2628   2.3482   2.4695   2.5198

          k = 0.0000 0.0515 0.0000 ( 32002 PWs)   bands (ev):

   -31.8830 -31.8163 -31.7502 -31.7188 -31.7116 -31.5371 -31.4775 -31.4552
   -31.3921 -31.3244 -31.2864 -31.2711 -15.8192 -15.8021 -15.7448 -15.7244
   -15.7108 -15.6557 -15.6210 -15.5883 -15.5715 -15.5368 -15.4926 -15.3319
   -15.3223 -15.3161 -15.2450 -15.2284 -15.1907 -15.1450 -15.1092 -15.1026
   -15.0452 -15.0277 -14.9886 -14.9551 -14.9223 -14.9156 -14.8348 -14.8104
   -14.7634 -14.7359 -14.7183 -14.7111 -14.6940 -14.6871 -14.6160 -14.5101
    -6.3131  -0.6146   0.0359   0.1490   0.1877   0.3047   0.3580   0.4434
     0.5409   0.6354   0.6477   0.7570   0.8092   0.9071   0.9872   0.9882
     1.1854   1.2862   1.3031   1.3969   1.5357   1.5817   1.7583   1.8923
     1.9393   2.0679   2.1053   2.1850   2.2387   2.3121

          k = 0.0000-0.0773 0.0000 ( 31970 PWs)   bands (ev):

   -31.8813 -31.7881 -31.7785 -31.7192 -31.7116 -31.5279 -31.4888 -31.4553
   -31.3809 -31.3313 -31.2910 -31.2711 -15.7614 -15.7377 -15.6999 -15.6823
   -15.6251 -15.5764 -15.5438 -15.5244 -15.5185 -15.4604 -15.4262 -15.4167
   -15.3758 -15.3680 -15.3149 -15.2741 -15.2535 -15.2068 -15.1446 -15.1280
   -15.0578 -14.9873 -14.9825 -14.9710 -14.9342 -14.9136 -14.9089 -14.8951
   -14.8610 -14.7565 -14.7397 -14.7059 -14.7039 -14.6988 -14.5745 -14.5560
    -6.3022  -0.1571  -0.0651   0.2588   0.3919   0.5758   0.6094   0.6824
     0.7539   0.7728   0.7953   0.9000   0.9957   1.1603   1.2593   1.2752
     1.3467   1.3909   1.4664   1.4715   1.6361   1.6523   1.7349   1.7423
     1.7931   1.8362   1.9328   1.9634   2.0923   2.1098

          k = 0.0223-0.0129 0.0000 ( 32061 PWs)   bands (ev):

   -31.8865 -31.8399 -31.7286 -31.7159 -31.7116 -31.5487 -31.4616 -31.4551
   -31.4081 -31.3180 -31.2763 -31.2711 -15.9052 -15.8953 -15.8715 -15.8179
   -15.7956 -15.7718 -15.6938 -15.6560 -15.6557 -15.6398 -15.4948 -15.3122
   -15.2829 -15.2725 -15.1619 -15.1522 -15.1502 -15.0955 -15.0932 -15.0731
   -15.0086 -14.9723 -14.9365 -14.9276 -14.8710 -14.8247 -14.7781 -14.7572
   -14.7404 -14.7177 -14.7168 -14.6771 -14.6629 -14.6322 -14.5269 -14.4696
    -6.3355  -1.0707  -0.3197  -0.0880  -0.0390   0.0046   0.0250   0.1547
     0.2645   0.2851   0.3790   0.4438   0.4575   0.5467   0.5890   0.5914
     1.0865   1.1041   1.2083   1.5388   1.5615   1.6945   2.0650   2.0961
     2.2133   2.2271   2.2628   2.3482   2.4695   2.5198

          k = 0.0223 0.0129 0.0000 ( 32061 PWs)   bands (ev):

   -31.8865 -31.8399 -31.7286 -31.7160 -31.7115 -31.5487 -31.4616 -31.4551
   -31.4081 -31.3180 -31.2762 -31.2711 -15.9053 -15.8953 -15.8715 -15.8179
   -15.7956 -15.7718 -15.6938 -15.6560 -15.6557 -15.6398 -15.4948 -15.3122
   -15.2830 -15.2724 -15.1619 -15.1522 -15.1502 -15.0955 -15.0932 -15.0731
   -15.0086 -14.9723 -14.9365 -14.9276 -14.8710 -14.8247 -14.7781 -14.7572
   -14.7404 -14.7177 -14.7168 -14.6771 -14.6629 -14.6322 -14.5269 -14.4696
    -6.3355  -1.0707  -0.3197  -0.0880  -0.0390   0.0046   0.0250   0.1547
     0.2645   0.2851   0.3790   0.4438   0.4575   0.5467   0.5891   0.5914
     1.0865   1.1041   1.2083   1.5388   1.5615   1.6945   2.0650   2.0961
     2.2132   2.2271   2.2628   2.3482   2.4696   2.5200

          k = 0.0223 0.0387 0.0000 ( 32007 PWs)   bands (ev):

   -31.8839 -31.8238 -31.7376 -31.7285 -31.7067 -31.5404 -31.4735 -31.4548
   -31.3968 -31.3212 -31.2863 -31.2697 -15.8527 -15.7945 -15.7889 -15.7570
   -15.7358 -15.6993 -15.6409 -15.6034 -15.5948 -15.5686 -15.4936 -15.3266
   -15.3161 -15.3063 -15.2586 -15.1827 -15.1363 -15.1131 -15.1078 -15.0713
   -15.0677 -15.0313 -14.9768 -14.9512 -14.9092 -14.8937 -14.8306 -14.7765
   -14.7564 -14.7315 -14.7067 -14.6864 -14.6747 -14.6685 -14.6354 -14.5037
    -6.3187  -0.7503  -0.0306   0.1258   0.1617   0.2540   0.2782   0.3323
     0.3505   0.5624   0.5898   0.6643   0.7012   0.7214   0.8716   0.9089
     1.1777   1.2081   1.2840   1.4225   1.5125   1.6242   1.8772   1.9239
     2.0085   2.0624   2.1969   2.2201   2.2836   2.4052

          k = 0.0223-0.0902 0.0000 ( 31991 PWs)   bands (ev):

   -31.8813 -31.7961 -31.7620 -31.7367 -31.7027 -31.5268 -31.4908 -31.4543
   -31.3820 -31.3261 -31.2986 -31.2677 -15.7582 -15.7095 -15.6888 -15.6702
   -15.6354 -15.5826 -15.5590 -15.5397 -15.5202 -15.4938 -15.4645 -15.4395
   -15.3538 -15.3393 -15.3093 -15.2771 -15.2644 -15.1666 -15.1402 -15.0769
   -15.0532 -15.0439 -14.9919 -14.9775 -14.9689 -14.9299 -14.9238 -14.8400
   -14.7802 -14.7685 -14.7301 -14.7119 -14.6988 -14.6888 -14.6265 -14.5623
    -6.3021  -0.2424   0.1523   0.3409   0.4512   0.5286   0.5611   0.6351
     0.7387   0.8451   0.8708   0.9213   0.9886   1.0820   1.1565   1.1858
     1.2796   1.3854   1.4268   1.4415   1.5372   1.5663   1.6908   1.7232
     1.7549   1.8582   1.8939   1.9956   2.0546   2.1084

          k = 0.0223-0.0644 0.0000 ( 31991 PWs)   bands (ev):

   -31.8813 -31.7960 -31.7620 -31.7367 -31.7027 -31.5268 -31.4908 -31.4543
   -31.3820 -31.3261 -31.2986 -31.2677 -15.7582 -15.7095 -15.6888 -15.6702
   -15.6354 -15.5826 -15.5590 -15.5397 -15.5202 -15.4938 -15.4645 -15.4395
   -15.3538 -15.3393 -15.3093 -15.2771 -15.2644 -15.1666 -15.1402 -15.0769
   -15.0532 -15.0439 -14.9919 -14.9775 -14.9689 -14.9299 -14.9238 -14.8401
   -14.7802 -14.7685 -14.7302 -14.7119 -14.6988 -14.6888 -14.6265 -14.5623
    -6.3021  -0.2424   0.1523   0.3409   0.4512   0.5286   0.5611   0.6351
     0.7387   0.8451   0.8708   0.9213   0.9886   1.0820   1.1565   1.1858
     1.2796   1.3854   1.4268   1.4416   1.5372   1.5663   1.6908   1.7232
     1.7549   1.8582   1.8939   1.9956   2.0546   2.1084

          k = 0.0223-0.0387 0.0000 ( 32007 PWs)   bands (ev):

   -31.8839 -31.8238 -31.7377 -31.7284 -31.7068 -31.5404 -31.4735 -31.4548
   -31.3968 -31.3212 -31.2863 -31.2696 -15.8527 -15.7945 -15.7889 -15.7570
   -15.7358 -15.6993 -15.6408 -15.6034 -15.5948 -15.5686 -15.4936 -15.3266
   -15.3161 -15.3063 -15.2586 -15.1827 -15.1363 -15.1131 -15.1078 -15.0713
   -15.0677 -15.0313 -14.9768 -14.9512 -14.9092 -14.8937 -14.8306 -14.7765
   -14.7563 -14.7315 -14.7067 -14.6864 -14.6747 -14.6685 -14.6354 -14.5037
    -6.3187  -0.7503  -0.0306   0.1258   0.1617   0.2540   0.2782   0.3323
     0.3505   0.5624   0.5898   0.6643   0.7012   0.7214   0.8716   0.9089
     1.1777   1.2081   1.2840   1.4225   1.5125   1.6242   1.8772   1.9239
     2.0085   2.0624   2.1969   2.2201   2.2836   2.4053

          k = 0.0446-0.0258 0.0000 ( 32002 PWs)   bands (ev):

   -31.8830 -31.8163 -31.7503 -31.7187 -31.7117 -31.5370 -31.4775 -31.4552
   -31.3921 -31.3244 -31.2865 -31.2711 -15.8192 -15.8021 -15.7448 -15.7244
   -15.7108 -15.6557 -15.6210 -15.5884 -15.5715 -15.5368 -15.4926 -15.3319
   -15.3222 -15.3162 -15.2450 -15.2285 -15.1907 -15.1450 -15.1092 -15.1026
   -15.0452 -15.0277 -14.9886 -14.9551 -14.9224 -14.9156 -14.8348 -14.8103
   -14.7634 -14.7359 -14.7183 -14.7112 -14.6940 -14.6871 -14.6159 -14.5101
    -6.3131  -0.6146   0.0359   0.1490   0.1877   0.3047   0.3580   0.4434
     0.5408   0.6354   0.6477   0.7570   0.8092   0.9071   0.9872   0.9882
     1.1854   1.2862   1.3031   1.3970   1.5357   1.5817   1.7583   1.8923
     1.9393   2.0679   2.1053   2.1850   2.2387   2.3122

          k = 0.0446 0.0000 0.0000 ( 32007 PWs)   bands (ev):

   -31.8839 -31.8238 -31.7377 -31.7284 -31.7068 -31.5404 -31.4735 -31.4548
   -31.3968 -31.3212 -31.2863 -31.2696 -15.8527 -15.7945 -15.7889 -15.7570
   -15.7358 -15.6993 -15.6408 -15.6034 -15.5947 -15.5686 -15.4936 -15.3266
   -15.3161 -15.3063 -15.2586 -15.1826 -15.1363 -15.1131 -15.1078 -15.0713
   -15.0677 -15.0313 -14.9768 -14.9512 -14.9092 -14.8937 -14.8306 -14.7765
   -14.7563 -14.7315 -14.7067 -14.6864 -14.6747 -14.6685 -14.6354 -14.5037
    -6.3187  -0.7503  -0.0306   0.1258   0.1617   0.2540   0.2782   0.3323
     0.3505   0.5624   0.5898   0.6643   0.7012   0.7214   0.8716   0.9089
     1.1777   1.2081   1.2840   1.4225   1.5125   1.6242   1.8772   1.9239
     2.0085   2.0624   2.1968   2.2201   2.2836   2.4052

          k = 0.0446 0.0258 0.0000 ( 32002 PWs)   bands (ev):

   -31.8830 -31.8163 -31.7503 -31.7188 -31.7116 -31.5370 -31.4775 -31.4552
   -31.3921 -31.3244 -31.2864 -31.2711 -15.8192 -15.8021 -15.7448 -15.7244
   -15.7108 -15.6557 -15.6210 -15.5883 -15.5715 -15.5368 -15.4926 -15.3319
   -15.3222 -15.3162 -15.2450 -15.2285 -15.1907 -15.1450 -15.1092 -15.1026
   -15.0452 -15.0277 -14.9886 -14.9551 -14.9224 -14.9156 -14.8348 -14.8104
   -14.7634 -14.7359 -14.7183 -14.7111 -14.6940 -14.6871 -14.6159 -14.5101
    -6.3131  -0.6146   0.0359   0.1490   0.1877   0.3047   0.3580   0.4434
     0.5409   0.6354   0.6477   0.7570   0.8092   0.9071   0.9872   0.9882
     1.1854   1.2862   1.3031   1.3969   1.5357   1.5817   1.7583   1.8923
     1.9393   2.0679   2.1053   2.1850   2.2387   2.3121

          k = 0.0446-0.1031 0.0000 ( 31991 PWs)   bands (ev):

   -31.8813 -31.7960 -31.7620 -31.7367 -31.7027 -31.5268 -31.4908 -31.4543
   -31.3820 -31.3261 -31.2986 -31.2677 -15.7582 -15.7096 -15.6888 -15.6702
   -15.6354 -15.5826 -15.5590 -15.5397 -15.5202 -15.4938 -15.4645 -15.4395
   -15.3538 -15.3393 -15.3093 -15.2771 -15.2644 -15.1666 -15.1401 -15.0769
   -15.0533 -15.0439 -14.9919 -14.9775 -14.9689 -14.9299 -14.9239 -14.8400
   -14.7802 -14.7685 -14.7301 -14.7119 -14.6988 -14.6888 -14.6265 -14.5623
    -6.3021  -0.2424   0.1523   0.3409   0.4512   0.5286   0.5611   0.6351
     0.7387   0.8451   0.8708   0.9213   0.9886   1.0820   1.1565   1.1858
     1.2796   1.3854   1.4268   1.4415   1.5372   1.5663   1.6908   1.7232
     1.7549   1.8582   1.8939   1.9956   2.0546   2.1084

          k = 0.0446-0.0773 0.0000 ( 31986 PWs)   bands (ev):

   -31.8805 -31.7753 -31.7621 -31.7619 -31.6983 -31.5133 -31.5063 -31.4534
   -31.3766 -31.3174 -31.3154 -31.2652 -15.6667 -15.6617 -15.6319 -15.6112
   -15.6106 -15.5624 -15.5613 -15.5487 -15.4799 -15.4737 -15.4695 -15.4629
   -15.3922 -15.3355 -15.3338 -15.3028 -15.2897 -15.2851 -15.0924 -15.0704
   -15.0670 -15.0492 -14.9994 -14.9940 -14.9785 -14.9737 -14.9118 -14.9006
   -14.7795 -14.7558 -14.7217 -14.7106 -14.7043 -14.6546 -14.6529 -14.6353
    -6.2966   0.1128   0.2980   0.3252   0.6182   0.6528   0.7855   0.8145
     0.8696   0.9455   0.9640   1.0603   1.2087   1.2092   1.2260   1.2308
     1.3125   1.3175   1.3670   1.4214   1.4592   1.4719   1.5739   1.6110
     1.7024   1.8145   1.8437   1.8736   1.9217   1.9338

          k = 0.0446-0.0515 0.0000 ( 31991 PWs)   bands (ev):

   -31.8813 -31.7960 -31.7621 -31.7366 -31.7027 -31.5268 -31.4908 -31.4543
   -31.3820 -31.3261 -31.2986 -31.2677 -15.7582 -15.7096 -15.6888 -15.6702
   -15.6354 -15.5826 -15.5590 -15.5398 -15.5201 -15.4938 -15.4645 -15.4395
   -15.3538 -15.3393 -15.3093 -15.2771 -15.2644 -15.1666 -15.1401 -15.0769
   -15.0533 -15.0438 -14.9919 -14.9775 -14.9689 -14.9299 -14.9239 -14.8400
   -14.7803 -14.7685 -14.7302 -14.7119 -14.6988 -14.6888 -14.6265 -14.5623
    -6.3021  -0.2424   0.1523   0.3409   0.4511   0.5286   0.5611   0.6351
     0.7387   0.8451   0.8708   0.9213   0.9886   1.0820   1.1565   1.1858
     1.2796   1.3854   1.4268   1.4415   1.5372   1.5663   1.6908   1.7232
     1.7549   1.8582   1.8939   1.9956   2.0546   2.1084

          k =-0.0669 0.0387 0.0000 ( 31970 PWs)   bands (ev):

   -31.8813 -31.7880 -31.7786 -31.7191 -31.7117 -31.5279 -31.4888 -31.4553
   -31.3810 -31.3312 -31.2911 -31.2711 -15.7613 -15.7378 -15.6999 -15.6823
   -15.6251 -15.5764 -15.5439 -15.5244 -15.5184 -15.4604 -15.4262 -15.4166
   -15.3759 -15.3680 -15.3149 -15.2740 -15.2536 -15.2068 -15.1446 -15.1280
   -15.0577 -14.9872 -14.9825 -14.9710 -14.9342 -14.9136 -14.9089 -14.8951
   -14.8610 -14.7565 -14.7396 -14.7058 -14.7039 -14.6988 -14.5745 -14.5559
    -6.3022  -0.1571  -0.0650   0.2588   0.3919   0.5759   0.6094   0.6824
     0.7539   0.7728   0.7953   0.9000   0.9956   1.1603   1.2593   1.2752
     1.3467   1.3909   1.4664   1.4715   1.6361   1.6523   1.7349   1.7423
     1.7931   1.8362   1.9328   1.9633   2.0923   2.1098

          k =-0.0669 0.0644 0.0000 ( 31991 PWs)   bands (ev):

   -31.8813 -31.7960 -31.7621 -31.7366 -31.7027 -31.5268 -31.4908 -31.4543
   -31.3820 -31.3261 -31.2986 -31.2677 -15.7582 -15.7096 -15.6888 -15.6702
   -15.6354 -15.5826 -15.5590 -15.5398 -15.5201 -15.4938 -15.4645 -15.4395
   -15.3538 -15.3393 -15.3093 -15.2771 -15.2644 -15.1666 -15.1402 -15.0769
   -15.0533 -15.0438 -14.9919 -14.9775 -14.9689 -14.9299 -14.9239 -14.8400
   -14.7803 -14.7685 -14.7302 -14.7119 -14.6988 -14.6888 -14.6265 -14.5623
    -6.3021  -0.2424   0.1523   0.3409   0.4511   0.5286   0.5611   0.6351
     0.7387   0.8451   0.8708   0.9213   0.9886   1.0820   1.1565   1.1858
     1.2796   1.3854   1.4268   1.4416   1.5372   1.5663   1.6908   1.7232
     1.7549   1.8582   1.8939   1.9956   2.0546   2.1084

          k =-0.0669 0.0902 0.0000 ( 31991 PWs)   bands (ev):

   -31.8813 -31.7960 -31.7620 -31.7367 -31.7027 -31.5268 -31.4909 -31.4543
   -31.3820 -31.3261 -31.2986 -31.2677 -15.7582 -15.7096 -15.6888 -15.6702
   -15.6354 -15.5826 -15.5590 -15.5398 -15.5201 -15.4938 -15.4645 -15.4395
   -15.3538 -15.3393 -15.3093 -15.2771 -15.2644 -15.1666 -15.1402 -15.0769
   -15.0533 -15.0439 -14.9920 -14.9775 -14.9689 -14.9299 -14.9239 -14.8401
   -14.7802 -14.7685 -14.7301 -14.7119 -14.6988 -14.6888 -14.6265 -14.5623
    -6.3021  -0.2424   0.1523   0.3409   0.4512   0.5286   0.5611   0.6351
     0.7387   0.8451   0.8708   0.9213   0.9886   1.0821   1.1565   1.1858
     1.2796   1.3854   1.4268   1.4416   1.5372   1.5663   1.6908   1.7232
     1.7549   1.8582   1.8939   1.9956   2.0546   2.1084

          k =-0.0669-0.0387 0.0000 ( 31970 PWs)   bands (ev):

   -31.8813 -31.7880 -31.7786 -31.7192 -31.7116 -31.5279 -31.4888 -31.4553
   -31.3810 -31.3313 -31.2910 -31.2711 -15.7614 -15.7378 -15.6999 -15.6823
   -15.6251 -15.5764 -15.5438 -15.5244 -15.5184 -15.4604 -15.4262 -15.4166
   -15.3758 -15.3680 -15.3149 -15.2741 -15.2535 -15.2068 -15.1446 -15.1280
   -15.0578 -14.9872 -14.9825 -14.9710 -14.9342 -14.9137 -14.9089 -14.8951
   -14.8610 -14.7565 -14.7396 -14.7058 -14.7039 -14.6988 -14.5745 -14.5560
    -6.3022  -0.1571  -0.0651   0.2588   0.3919   0.5758   0.6094   0.6824
     0.7539   0.7728   0.7953   0.9000   0.9957   1.1603   1.2593   1.2752
     1.3467   1.3909   1.4664   1.4715   1.6361   1.6523   1.7349   1.7423
     1.7931   1.8362   1.9328   1.9634   2.0923   2.1098

     the Fermi energy is     1.5014 ev

!    total energy              =   -1259.55784179 Ry
     Harris-Foulkes estimate   =   -1259.55782135 Ry
     estimated scf accuracy    <       0.00000884 Ry

     The total energy is the sum of the following terms:

     one-electron contribution =   -4734.78467939 Ry
     hartree contribution      =    2379.03549132 Ry
     xc contribution           =    -611.93053635 Ry
     ewald contribution        =    1708.24943706 Ry
     electric field correction =       0.00060272 Ry
     smearing contrib. (-TS)   =      -0.12815715 Ry

     convergence has been achieved in  11 iterations
 
 BEEF-vdW xc energy contributions
           1 :   -542.155114258917     
           2 :    498.786653781783     
           3 :   -422.029523138261     
           4 :    328.196259976304     
           5 :   -234.680907474256     
           6 :    155.312005063447     
           7 :   -97.7077674306811     
           8 :    62.9348783188710     
           9 :   -46.9736174266073     
          10 :    43.0986742300123     
          11 :   -44.2736298546200     
          12 :    44.8848744489752     
          13 :   -41.5598145261771     
          14 :    33.2131935481443     
          15 :   -20.6626818130942     
          16 :    6.06871876541572     
          17 :    7.72592656048016     
          18 :   -17.9656409255670     
          19 :    22.7773757206812     
          20 :   -21.7769394967573     
          21 :    16.2351153157610     
          22 :   -8.67518693529462     
          23 :    1.99268624246554     
          24 :    1.58210819255100     
          25 :   -1.25419836568994     
          26 :   -2.16930745236482     
          27 :    6.77868834633148     
          28 :   -10.4766775462559     
          29 :    11.8707410321888     
          30 :   -10.7514530858258     
          31 :   -46.1517804553170     
          32 :   -33.1366181673975     

     Forces acting on atoms (Ry/au):


     negative rho (up, down):  5.835E-01 0.000E+00
     atom    1 type  1   force =     0.00000054   -0.00000024    0.00427088
     atom    2 type  1   force =     0.00000120   -0.00173992    0.00387332
     atom    3 type  1   force =    -0.00151015    0.00086992    0.00385859
     atom    4 type  1   force =     0.00150829    0.00086900    0.00387064
     atom    5 type  1   force =    -0.00298777    0.00171890   -0.00496734
     atom    6 type  1   force =     0.00298997    0.00171974   -0.00496443
     atom    7 type  1   force =    -0.00000693    0.00000606   -0.00644624
     atom    8 type  1   force =     0.00000348   -0.00344448   -0.00496067
     atom    9 type  1   force =     0.03963798    0.02289406    0.03753366
     atom   10 type  1   force =    -0.03963945    0.02288845    0.03752626
     atom   11 type  1   force =     0.00000109   -0.04577327    0.03752215
     atom   12 type  1   force =     0.00000146   -0.00000599    0.00535172
     atom   13 type  2   force =     0.00000029   -0.00000223   -0.11246855

     Total force =     0.152277     Total SCF correction =     0.002349


     entering subroutine stress ...


     negative rho (up, down):  5.835E-01 0.000E+00
          total   stress  (Ry/bohr**3)                   (kbar)     P=   -5.13
  -0.00002662  -0.00000000  -0.00000000         -3.92     -0.00     -0.00
  -0.00000000  -0.00002662   0.00000000         -0.00     -3.92      0.00
  -0.00000000   0.00000000  -0.00005130         -0.00      0.00     -7.55


     number of scf cycles    =   2
     number of bfgs steps    =   1

     energy   old            =   -1259.5339506613 Ry
     energy   new            =   -1259.5578417932 Ry

     CASE: energy  _new < energy  _old


     WARNING: bfgs curvature condition failed, Theta= 0.815
     new trust radius        =       0.1696418475 bohr
     new conv_thr            =       0.0000001000 Ry


ATOMIC_POSITIONS (crystal)
La1      0.166666667   0.166666667   0.383173129    0   0   0
La1      0.666666667   0.166666667   0.383173129    0   0   0
La1      0.166666667   0.666666667   0.383173129    0   0   0
La1      0.666666667   0.666666667   0.383173129    0   0   0
La1      0.833333333   0.333333333   0.500000000    0   0   0
La1      0.333333333   0.333333333   0.500000000    0   0   0
La1      0.833333333   0.833333333   0.500000000    0   0   0
La1      0.333333333   0.833333333   0.500000000    0   0   0
La1      0.004879535   0.004877725   0.618746674
La1      0.490243036   0.004875366   0.618746548
La1      0.004878102   0.490244147   0.618746268
La1      0.500001478   0.500000705   0.617155039
C1       0.166667005   0.166666190   0.681578621



     Writing output data file calc.save
     Check: negative starting charge=   -0.832311
     NEW-OLD atomic charge density approx. for the potential
     Check: negative starting charge=   -0.833175

     negative rho (up, down):  5.860E-01 0.000E+00
 
     Adding external electric field

     Computed dipole along edir(3) : 
        Dipole               -0.6330 Ry au,         -1.6089 Debye
        Dipole field         -0.0009 Ry au
 
        Potential amp.        0.0899 Ry
        Total length         48.0849 bohr
 

     total cpu time spent up to now is     1685.8 secs

     Self-consistent Calculation

     iteration #  1     ecut=    36.75 Ry     beta=0.30
     Davidson diagonalization with overlap
     c_bands:  1 eigenvalues not converged
     c_bands:  1 eigenvalues not converged
     c_bands:  1 eigenvalues not converged
     c_bands:  1 eigenvalues not converged
     c_bands:  1 eigenvalues not converged
     c_bands:  1 eigenvalues not converged
     c_bands:  1 eigenvalues not converged
     c_bands:  1 eigenvalues not converged
     c_bands:  1 eigenvalues not converged
     c_bands:  1 eigenvalues not converged
     ethr =  1.00E-06,  avg # of iterations = 17.2

     negative rho (up, down):  5.862E-01 0.000E+00
 
     Adding external electric field

     Computed dipole along edir(3) : 
        Dipole               -1.1738 Ry au,         -2.9835 Debye
        Dipole field         -0.0017 Ry au
 
        Potential amp.        0.1667 Ry
        Total length         48.0849 bohr
 

     total cpu time spent up to now is     1771.8 secs

     total energy              =   -1259.53941625 Ry
[...]
     1.6978   1.7376   1.7884   1.8272   2.0014   2.0506   2.0681   2.0897
     2.1462   2.1529   2.3524   2.3982   2.4180   2.4313

          k = 0.0223-0.0129 0.0000 ( 32061 PWs)   bands (ev):

   -31.4951 -31.3798 -31.3712 -31.3699 -31.3588 -31.1463 -31.0259 -31.0099
   -30.9739 -30.9691 -30.9170 -30.9105 -15.6387 -15.5488 -15.5446 -15.5212
   -15.4579 -15.3399 -15.3390 -15.3200 -15.2903 -15.2753 -15.0638 -14.9206
   -14.9092 -14.8893 -14.8145 -14.8057 -14.7509 -14.7468 -14.6907 -14.6391
   -14.5960 -14.5925 -14.5798 -14.5268 -14.5213 -14.4469 -14.4455 -14.4145
   -14.4141 -14.3970 -14.3932 -14.3406 -14.2974 -14.2490 -14.2211 -14.1625
    -5.7643  -0.7124  -0.1546  -0.0307   0.0760   0.0899   0.3892   0.4704
     0.5209   0.5901   0.6491   0.7058   0.7402   0.9426   0.9833   1.0160
     1.3382   1.4291   1.6936   1.7170   1.8670   2.0569   2.2136   2.3863
     2.5049   2.5656   2.5656   2.7073   2.7880   2.8790

          k = 0.0223 0.0129 0.0000 ( 32061 PWs)   bands (ev):

   -31.4951 -31.3798 -31.3712 -31.3699 -31.3588 -31.1463 -31.0259 -31.0099
   -30.9739 -30.9691 -30.9170 -30.9105 -15.6387 -15.5488 -15.5446 -15.5212
   -15.4579 -15.3399 -15.3390 -15.3200 -15.2903 -15.2753 -15.0638 -14.9206
   -14.9092 -14.8893 -14.8145 -14.8057 -14.7509 -14.7468 -14.6907 -14.6391
   -14.5960 -14.5925 -14.5798 -14.5268 -14.5213 -14.4469 -14.4455 -14.4145
   -14.4141 -14.3970 -14.3932 -14.3406 -14.2974 -14.2490 -14.2211 -14.1625
    -5.7643  -0.7124  -0.1546  -0.0307   0.0760   0.0899   0.3892   0.4704
     0.5209   0.5901   0.6491   0.7058   0.7402   0.9426   0.9833   1.0160
     1.3382   1.4291   1.6936   1.7169   1.8670   2.0569   2.2136   2.3863
     2.5049   2.5656   2.5656   2.7073   2.7880   2.8790

          k = 0.0223 0.0387 0.0000 ( 32007 PWs)   bands (ev):

   -31.4787 -31.3882 -31.3870 -31.3627 -31.3562 -31.1387 -31.0267 -31.0014
   -30.9825 -30.9679 -30.9289 -30.9104 -15.5437 -15.4969 -15.4388 -15.4354
   -15.4127 -15.3006 -15.2740 -15.2468 -15.2422 -15.2088 -15.0896 -14.9555
   -14.9303 -14.8994 -14.8780 -14.7909 -14.7704 -14.7664 -14.7453 -14.7074
   -14.6430 -14.6103 -14.5817 -14.5651 -14.5214 -14.5169 -14.4909 -14.4537
   -14.4147 -14.4054 -14.3934 -14.3701 -14.3501 -14.3296 -14.2793 -14.1973
    -5.6485  -0.4248  -0.1002   0.0357   0.3209   0.3752   0.5812   0.6547
     0.7106   0.7641   0.8663   0.8796   1.0583   1.1026   1.1769   1.2811
     1.3993   1.5847   1.7092   1.7408   1.8887   1.9914   2.1378   2.2785
     2.2893   2.3961   2.5036   2.5551   2.6324   2.6769

          k = 0.0223-0.0902 0.0000 ( 31991 PWs)   bands (ev):

   -31.4501 -31.4168 -31.3922 -31.3582 -31.3536 -31.1301 -31.0268 -30.9990
   -30.9816 -30.9660 -30.9466 -30.9102 -15.4184 -15.3952 -15.3511 -15.3441
   -15.2823 -15.2377 -15.2059 -15.1888 -15.1758 -15.1449 -15.0960 -15.0546
   -14.9682 -14.9387 -14.9095 -14.8906 -14.8273 -14.7985 -14.7351 -14.7016
   -14.6876 -14.6621 -14.6345 -14.6318 -14.5675 -14.5606 -14.5294 -14.5010
   -14.4624 -14.4412 -14.4084 -14.3890 -14.3519 -14.3439 -14.3180 -14.2528
    -5.5291  -0.2684   0.1384   0.2293   0.5856   0.6236   0.7868   0.9270
     0.9676   1.0467   1.1207   1.2141   1.3063   1.4088   1.4919   1.5306
     1.6010   1.6777   1.7493   1.8055   1.8871   1.9576   2.0359   2.0696
     2.1496   2.2185   2.3273   2.3575   2.3924   2.4673

          k = 0.0223-0.0644 0.0000 ( 31991 PWs)   bands (ev):

   -31.4501 -31.4168 -31.3922 -31.3582 -31.3536 -31.1301 -31.0268 -30.9990
   -30.9816 -30.9660 -30.9466 -30.9102 -15.4184 -15.3952 -15.3511 -15.3441
   -15.2823 -15.2377 -15.2059 -15.1888 -15.1758 -15.1449 -15.0960 -15.0546
   -14.9682 -14.9387 -14.9095 -14.8906 -14.8273 -14.7985 -14.7351 -14.7016
   -14.6876 -14.6621 -14.6345 -14.6318 -14.5675 -14.5606 -14.5294 -14.5010
   -14.4624 -14.4412 -14.4084 -14.3890 -14.3519 -14.3439 -14.3180 -14.2528
    -5.5291  -0.2684   0.1383   0.2293   0.5856   0.6236   0.7868   0.9270
     0.9676   1.0467   1.1207   1.2141   1.3063   1.4088   1.4919   1.5306
     1.6010   1.6777   1.7493   1.8055   1.8871   1.9576   2.0359   2.0696
     2.1496   2.2185   2.3273   2.3575   2.3924   2.4673

          k = 0.0223-0.0387 0.0000 ( 32007 PWs)   bands (ev):

   -31.4787 -31.3882 -31.3870 -31.3627 -31.3562 -31.1387 -31.0267 -31.0014
   -30.9825 -30.9679 -30.9289 -30.9104 -15.5437 -15.4969 -15.4388 -15.4354
   -15.4127 -15.3006 -15.2740 -15.2468 -15.2422 -15.2088 -15.0896 -14.9555
   -14.9303 -14.8994 -14.8780 -14.7909 -14.7704 -14.7664 -14.7453 -14.7074
   -14.6430 -14.6103 -14.5817 -14.5651 -14.5214 -14.5169 -14.4909 -14.4537
   -14.4147 -14.4054 -14.3934 -14.3701 -14.3501 -14.3296 -14.2793 -14.1973
    -5.6485  -0.4248  -0.1002   0.0357   0.3209   0.3752   0.5812   0.6547
     0.7106   0.7641   0.8663   0.8796   1.0583   1.1026   1.1769   1.2811
     1.3993   1.5847   1.7092   1.7408   1.8887   1.9914   2.1378   2.2785
     2.2893   2.3961   2.5036   2.5551   2.6324   2.6769

          k = 0.0446-0.0258 0.0000 ( 32002 PWs)   bands (ev):

   -31.4711 -31.4045 -31.3714 -31.3699 -31.3553 -31.1359 -31.0280 -30.9983
   -30.9823 -30.9692 -30.9335 -30.9105 -15.5075 -15.4599 -15.4521 -15.3948
   -15.3576 -15.2825 -15.2667 -15.2313 -15.2185 -15.1707 -15.0895 -14.9497
   -14.9491 -14.8941 -14.8714 -14.8684 -14.8042 -14.7891 -14.7155 -14.7018
   -14.6498 -14.6199 -14.5959 -14.5742 -14.5581 -14.5478 -14.4850 -14.4800
   -14.4513 -14.4225 -14.4031 -14.3863 -14.3452 -14.3240 -14.2873 -14.2013
    -5.6096  -0.3361  -0.0789   0.0837   0.4211   0.4730   0.5385   0.6887
     0.8143   0.9157   0.9268   1.0719   1.0841   1.1630   1.3388   1.3544
     1.4739   1.6027   1.7262   1.7569   1.8955   1.9658   2.1023   2.2157
     2.2335   2.3823   2.4070   2.5340   2.5921   2.6487

          k = 0.0446 0.0000 0.0000 ( 32007 PWs)   bands (ev):

   -31.4787 -31.3882 -31.3870 -31.3627 -31.3562 -31.1387 -31.0267 -31.0014
   -30.9825 -30.9679 -30.9289 -30.9104 -15.5437 -15.4969 -15.4388 -15.4354
   -15.4127 -15.3006 -15.2740 -15.2468 -15.2422 -15.2088 -15.0896 -14.9555
   -14.9303 -14.8994 -14.8780 -14.7909 -14.7704 -14.7664 -14.7453 -14.7074
   -14.6430 -14.6103 -14.5817 -14.5651 -14.5214 -14.5169 -14.4909 -14.4537
   -14.4147 -14.4054 -14.3934 -14.3701 -14.3501 -14.3296 -14.2793 -14.1973
    -5.6485  -0.4248  -0.1002   0.0357   0.3209   0.3752   0.5812   0.6547
     0.7106   0.7641   0.8663   0.8796   1.0583   1.1026   1.1769   1.2811
     1.3993   1.5847   1.7092   1.7408   1.8887   1.9914   2.1378   2.2785
     2.2893   2.3961   2.5036   2.5551   2.6325   2.6769

          k = 0.0446 0.0258 0.0000 ( 32002 PWs)   bands (ev):

   -31.4711 -31.4045 -31.3714 -31.3699 -31.3553 -31.1359 -31.0280 -30.9983
   -30.9823 -30.9692 -30.9335 -30.9105 -15.5075 -15.4599 -15.4521 -15.3948
   -15.3576 -15.2825 -15.2667 -15.2313 -15.2185 -15.1707 -15.0895 -14.9497
   -14.9491 -14.8941 -14.8714 -14.8684 -14.8042 -14.7891 -14.7155 -14.7018
   -14.6498 -14.6199 -14.5959 -14.5742 -14.5581 -14.5478 -14.4850 -14.4800
   -14.4513 -14.4225 -14.4031 -14.3863 -14.3452 -14.3240 -14.2873 -14.2013
    -5.6096  -0.3361  -0.0789   0.0837   0.4210   0.4730   0.5385   0.6887
     0.8143   0.9157   0.9268   1.0719   1.0841   1.1630   1.3388   1.3544
     1.4739   1.6027   1.7262   1.7569   1.8955   1.9658   2.1023   2.2157
     2.2335   2.3823   2.4070   2.5340   2.5921   2.6487

          k = 0.0446-0.1031 0.0000 ( 31991 PWs)   bands (ev):

   -31.4501 -31.4168 -31.3922 -31.3582 -31.3536 -31.1301 -31.0268 -30.9990
   -30.9816 -30.9660 -30.9466 -30.9102 -15.4184 -15.3952 -15.3511 -15.3441
   -15.2823 -15.2377 -15.2059 -15.1888 -15.1758 -15.1449 -15.0960 -15.0546
   -14.9682 -14.9387 -14.9095 -14.8906 -14.8273 -14.7985 -14.7351 -14.7016
   -14.6876 -14.6621 -14.6345 -14.6318 -14.5675 -14.5606 -14.5294 -14.5010
   -14.4624 -14.4412 -14.4084 -14.3890 -14.3519 -14.3439 -14.3180 -14.2528
    -5.5291  -0.2683   0.1384   0.2293   0.5856   0.6236   0.7868   0.9270
     0.9676   1.0467   1.1207   1.2141   1.3063   1.4088   1.4919   1.5306
     1.6010   1.6777   1.7493   1.8055   1.8871   1.9576   2.0359   2.0696
     2.1496   2.2185   2.3273   2.3575   2.3924   2.4673

          k = 0.0446-0.0773 0.0000 ( 31986 PWs)   bands (ev):

   -31.4222 -31.4210 -31.4206 -31.3537 -31.3528 -31.1271 -31.0213 -31.0088
   -30.9708 -30.9644 -30.9593 -30.9098 -15.3299 -15.3196 -15.3022 -15.2728
   -15.2618 -15.2575 -15.1991 -15.1596 -15.1370 -15.1307 -15.1213 -15.1022
   -15.0464 -14.9769 -14.9267 -14.8791 -14.8430 -14.7929 -14.7426 -14.7254
   -14.7062 -14.7061 -14.6484 -14.6370 -14.6259 -14.5379 -14.5135 -14.4607
   -14.4514 -14.4434 -14.4136 -14.4006 -14.3912 -14.3508 -14.3225 -14.3205
    -5.4875  -0.2704   0.1874   0.6332   0.6730   0.7138   0.7949   1.1096
     1.1229   1.2054   1.2194   1.2981   1.4744   1.4849   1.5916   1.6001
     1.6249   1.6791   1.6939   1.6977   1.7228   1.9576   2.0073   2.0264
     2.0946   2.1698   2.1856   2.2532   2.3431   2.4172

          k = 0.0446-0.0515 0.0000 ( 31991 PWs)   bands (ev):

   -31.4501 -31.4168 -31.3922 -31.3582 -31.3536 -31.1301 -31.0268 -30.9990
   -30.9816 -30.9660 -30.9466 -30.9102 -15.4184 -15.3952 -15.3511 -15.3441
   -15.2823 -15.2377 -15.2059 -15.1888 -15.1758 -15.1449 -15.0960 -15.0546
   -14.9682 -14.9387 -14.9095 -14.8906 -14.8273 -14.7985 -14.7351 -14.7016
   -14.6876 -14.6621 -14.6345 -14.6318 -14.5675 -14.5606 -14.5294 -14.5010
   -14.4624 -14.4412 -14.4084 -14.3890 -14.3519 -14.3439 -14.3180 -14.2528
    -5.5291  -0.2683   0.1383   0.2293   0.5856   0.6236   0.7868   0.9270
     0.9676   1.0467   1.1207   1.2141   1.3063   1.4088   1.4919   1.5306
     1.6010   1.6777   1.7493   1.8055   1.8871   1.9576   2.0359   2.0696
     2.1496   2.2185   2.3273   2.3575   2.3924   2.4673

          k =-0.0669 0.0387 0.0000 ( 31970 PWs)   bands (ev):

   -31.4384 -31.4375 -31.3714 -31.3700 -31.3536 -31.1299 -31.0299 -30.9951
   -30.9795 -30.9692 -30.9461 -30.9105 -15.4209 -15.3981 -15.3872 -15.3458
   -15.2736 -15.2294 -15.2262 -15.1898 -15.1570 -15.0793 -15.0691 -15.0129
   -15.0027 -15.0003 -14.8818 -14.8726 -14.8588 -14.8015 -14.7466 -14.6749
   -14.6713 -14.6395 -14.6375 -14.6105 -14.5949 -14.5919 -14.5817 -14.5484
   -14.4754 -14.4325 -14.4019 -14.3964 -14.3480 -14.3354 -14.2711 -14.2409
    -5.5302  -0.2771   0.1406   0.3204   0.3807   0.6362   0.7210   0.8732
     1.0140   1.0958   1.1491   1.1776   1.2963   1.3778   1.5408   1.5782
     1.6978   1.7376   1.7884   1.8272   2.0014   2.0505   2.0681   2.0897
     2.1462   2.1529   2.3524   2.3982   2.4180   2.4313

          k =-0.0669 0.0644 0.0000 ( 31991 PWs)   bands (ev):

   -31.4501 -31.4168 -31.3922 -31.3582 -31.3536 -31.1301 -31.0268 -30.9990
   -30.9816 -30.9660 -30.9465 -30.9102 -15.4184 -15.3952 -15.3511 -15.3441
   -15.2823 -15.2377 -15.2059 -15.1888 -15.1758 -15.1449 -15.0960 -15.0546
   -14.9682 -14.9387 -14.9095 -14.8906 -14.8273 -14.7985 -14.7351 -14.7016
   -14.6876 -14.6621 -14.6345 -14.6318 -14.5675 -14.5606 -14.5294 -14.5010
   -14.4624 -14.4412 -14.4084 -14.3890 -14.3519 -14.3439 -14.3180 -14.2528
    -5.5291  -0.2683   0.1384   0.2293   0.5856   0.6236   0.7868   0.9270
     0.9676   1.0467   1.1207   1.2141   1.3063   1.4088   1.4919   1.5306
     1.6010   1.6777   1.7493   1.8055   1.8871   1.9576   2.0359   2.0696
     2.1496   2.2185   2.3273   2.3575   2.3924   2.4673

          k =-0.0669 0.0902 0.0000 ( 31991 PWs)   bands (ev):

   -31.4501 -31.4168 -31.3922 -31.3582 -31.3536 -31.1301 -31.0268 -30.9990
   -30.9816 -30.9660 -30.9465 -30.9102 -15.4184 -15.3952 -15.3511 -15.3441
   -15.2823 -15.2377 -15.2059 -15.1888 -15.1758 -15.1449 -15.0960 -15.0546
   -14.9682 -14.9387 -14.9095 -14.8906 -14.8273 -14.7985 -14.7351 -14.7016
   -14.6876 -14.6621 -14.6345 -14.6318 -14.5675 -14.5606 -14.5294 -14.5010
   -14.4624 -14.4412 -14.4084 -14.3890 -14.3519 -14.3439 -14.3180 -14.2528
    -5.5291  -0.2683   0.1384   0.2293   0.5856   0.6236   0.7868   0.9270
     0.9676   1.0467   1.1207   1.2141   1.3063   1.4088   1.4919   1.5306
     1.6010   1.6777   1.7493   1.8055   1.8871   1.9576   2.0359   2.0696
     2.1496   2.2185   2.3273   2.3575   2.3924   2.4673

          k =-0.0669-0.0387 0.0000 ( 31970 PWs)   bands (ev):

   -31.4384 -31.4375 -31.3714 -31.3700 -31.3536 -31.1299 -31.0299 -30.9951
   -30.9795 -30.9692 -30.9461 -30.9105 -15.4209 -15.3981 -15.3872 -15.3458
   -15.2736 -15.2294 -15.2262 -15.1898 -15.1570 -15.0793 -15.0691 -15.0129
   -15.0027 -15.0003 -14.8818 -14.8726 -14.8588 -14.8015 -14.7466 -14.6749
   -14.6713 -14.6395 -14.6375 -14.6105 -14.5949 -14.5919 -14.5817 -14.5484
   -14.4755 -14.4325 -14.4019 -14.3964 -14.3480 -14.3354 -14.2711 -14.2409
    -5.5302  -0.2771   0.1406   0.3204   0.3807   0.6362   0.7210   0.8732
     1.0140   1.0958   1.1491   1.1776   1.2963   1.3778   1.5408   1.5782
     1.6978   1.7376   1.7884   1.8272   2.0014   2.0505   2.0681   2.0897
     2.1462   2.1529   2.3524   2.3982   2.4180   2.4313

     the Fermi energy is     1.8439 ev

!    total energy              =   -1259.68851142 Ry
     Harris-Foulkes estimate   =   -1259.68851145 Ry
     estimated scf accuracy    <       0.00000003 Ry

     The total energy is the sum of the following terms:

     one-electron contribution =   -4725.74147136 Ry
     hartree contribution      =    2376.28529027 Ry
     xc contribution           =    -612.41298900 Ry
     ewald contribution        =    1702.30403231 Ry
     electric field correction =       0.00002087 Ry
     smearing contrib. (-TS)   =      -0.12339452 Ry

     convergence has been achieved in  12 iterations
 
 BEEF-vdW xc energy contributions
           1 :   -542.622262485606     
           2 :    499.301514911226     
           3 :   -422.590764327993     
           4 :    328.763986179010     
           5 :   -235.194939611135     
           6 :    155.683352506468     
           7 :   -97.8229291364975     
           8 :    62.7035803239859     
           9 :   -46.3966073201493     
          10 :    42.3008405714938     
          11 :   -43.4658145908902     
          12 :    44.2673856305502     
          13 :   -41.2243014383300     
          14 :    33.1055088390253     
          15 :   -20.6315569157440     
          16 :    5.96769580724117     
          17 :    7.95112676022654     
          18 :   -18.2590047603778     
          19 :    23.0293583186751     
          20 :   -21.9138515858615     
          21 :    16.2792102280096     
          22 :   -8.73431882214095     
          23 :    2.18657640003994     
          24 :    1.20783075313989     
          25 :  -0.764895266708436     
          26 :   -2.63683099718378     
          27 :    7.10336908999341     
          28 :   -10.6260098211881     
          29 :    11.9118377486890     
          30 :   -10.7990606534930     
          31 :   -46.1797976219930     
          32 :   -33.1741004984183     

     Forces acting on atoms (Ry/au):


     negative rho (up, down):  5.718E-01 0.000E+00
     atom    1 type  1   force =    -0.00000051    0.00000007    0.00251164
     atom    2 type  1   force =     0.00000011   -0.00144098    0.00597483
     atom    3 type  1   force =    -0.00124756    0.00072039    0.00597514
     atom    4 type  1   force =     0.00124769    0.00072000    0.00597469
     atom    5 type  1   force =    -0.00398277    0.00230019   -0.00478967
     atom    6 type  1   force =     0.00398317    0.00230033   -0.00478974
     atom    7 type  1   force =    -0.00000038   -0.00000038   -0.00397900
     atom    8 type  1   force =     0.00000036   -0.00459970   -0.00479010
     atom    9 type  1   force =    -0.00029561   -0.00016849   -0.00095501
     atom   10 type  1   force =     0.00029563   -0.00016747   -0.00095414
     atom   11 type  1   force =     0.00000092    0.00033420   -0.00095420
     atom   12 type  1   force =    -0.00000140   -0.00000263    0.00148128
     atom   13 type  2   force =     0.00000034    0.00000448   -0.00070573

     Total force =     0.002402     Total SCF correction =     0.000304
     SCF correction compared to forces is large: reduce conv_thr to get better values


     entering subroutine stress ...


     negative rho (up, down):  5.718E-01 0.000E+00
          total   stress  (Ry/bohr**3)                   (kbar)     P=    0.77
   0.00001615  -0.00000000   0.00000000          2.38     -0.00      0.00
  -0.00000000   0.00001615   0.00000000         -0.00      2.38      0.00
   0.00000000   0.00000000  -0.00001657          0.00      0.00     -2.44


     bfgs converged in  19 scf cycles and  18 bfgs steps
     (criteria: energy <  1.0E+00, force <  1.9E-03)

     End of BFGS Geometry Optimization

     Final energy   =   -1259.6885114242 Ry
Begin final coordinates

ATOMIC_POSITIONS (crystal)
La1      0.166666667   0.166666667   0.383173129    0   0   0
La1      0.666666667   0.166666667   0.383173129    0   0   0
La1      0.166666667   0.666666667   0.383173129    0   0   0
La1      0.666666667   0.666666667   0.383173129    0   0   0
La1      0.833333333   0.333333333   0.500000000    0   0   0
La1      0.333333333   0.333333333   0.500000000    0   0   0
La1      0.833333333   0.833333333   0.500000000    0   0   0
La1      0.333333333   0.833333333   0.500000000    0   0   0
La1     -0.000868878  -0.000876492   0.627416956
La1      0.501745951  -0.000876054   0.627416325
La1     -0.000872355   0.501744927   0.627416203
La1      0.500000793   0.500001726   0.608256478
C1       0.166668022   0.166664452   0.649620319
End final coordinates



     Writing output data file calc.save
 
     init_run     :     26.50s CPU     31.51s WALL (       1 calls)
     electrons    :  10830.05s CPU  12575.22s WALL (      19 calls)
     update_pot   :     39.53s CPU     44.29s WALL (      18 calls)
     forces       :    421.92s CPU    444.37s WALL (      19 calls)
     stress       :   1229.31s CPU   1294.17s WALL (      19 calls)

     Called by init_run:
     wfcinit      :     20.02s CPU     24.18s WALL (       1 calls)
     potinit      :      1.30s CPU      1.54s WALL (       1 calls)

     Called by electrons:
     c_bands      :   7209.29s CPU   8393.28s WALL (     255 calls)
     sum_band     :   1762.62s CPU   2005.52s WALL (     255 calls)
     v_of_rho     :    263.42s CPU    319.76s WALL (     274 calls)
     newd         :   1116.54s CPU   1257.88s WALL (     274 calls)
     mix_rho      :      8.46s CPU     10.59s WALL (     255 calls)
     vdW_energy   :    190.42s CPU    221.33s WALL (     958 calls)
     vdW_ffts     :    312.01s CPU    385.06s WALL (    1954 calls)
     vdW_v        :    114.16s CPU    128.97s WALL (     958 calls)

     Called by c_bands:
     init_us_2    :     64.95s CPU     73.22s WALL (   10980 calls)
     cegterg      :   6578.89s CPU   7741.42s WALL (    5100 calls)

     Called by *egterg:
     h_psi        :   4063.36s CPU   5044.01s WALL (   45279 calls)
     s_psi        :    528.54s CPU    549.19s WALL (   45279 calls)
     g_psi        :     20.07s CPU     20.75s WALL (   40159 calls)
     cdiaghg      :    942.88s CPU    969.59s WALL (   44899 calls)

     Called by h_psi:
     add_vuspsi   :    548.92s CPU    568.56s WALL (   45279 calls)

     General routines
     calbec       :    790.31s CPU    812.42s WALL (   51139 calls)
     fft          :    496.93s CPU    605.74s WALL (   58059 calls)
     ffts         :      0.59s CPU      0.82s WALL (     529 calls)
     fftw         :   2206.90s CPU   3302.35s WALL ( 2849094 calls)
     interpolate  :      5.02s CPU      7.39s WALL (     529 calls)
     davcio       :      0.02s CPU      0.32s WALL (      20 calls)
 
     Parallel routines
     fft_scatter  :   1540.75s CPU   2245.15s WALL ( 2907682 calls)
 
     PWSCF        :     3h30m CPU        4h 1m WALL

 
   This run was terminated on:  15:50: 7   4Feb2018            

=------------------------------------------------------------------------------=
   JOB DONE.
=------------------------------------------------------------------------------=
