  python dir          : /nfs/slac/g/suncatfs/sw/espv20/lib/python2.7/site-packages/espresso
  espresso dir        : /nfs/slac/g/suncatfs/sw/espv18/espresso-dynpy-beef/bin
  pseudo dir          : /afs/slac.stanford.edu/u/if/mamunm/psp/gbrv1.5pbe
  ase-espresso py git : ffa2778-git



     Program PWSCF v.5.1rc2 (svn rev. 11289) starts on 18Jan2018 at  3:49:34 

     This program is part of the open-source Quantum ESPRESSO suite
     for quantum simulation of materials; please cite
         "P. Giannozzi et al., J. Phys.:Condens. Matter 21 395502 (2009);
          URL http://www.quantum-espresso.org", 
     in publications or presentations arising from this work. More details at
     http://www.quantum-espresso.org/quote

     Parallel version (MPI), running on    32 processors
     R & G space division:  proc/nbgrp/npool/nimage =      32
     Reading input from pw.inp
     Message from routine read_cards :
     DEPRECATED: no units specified in CELL_PARAMETERS card

     Current dimensions of program PWSCF are:
     Max number of different atomic species (ntypx) = 10
     Max number of k-points (npk) =  40000
     Max angular momentum in pseudopotentials (lmaxx) =  3
     Presently stress not available with electric field


     **************************************************************************
     Initializing libbeef V0.1.1 with the BEEF-vdW functional.
     Citation: Wellendorff et al., PRB 85, 235149 (2012).
     **************************************************************************


     IMPORTANT: XC functional enforced from input :
     Exchange-correlation      = BEEF-VDW ( 1  4 27 13 2)
     Any further DFT definition will be discarded
     Please, verify this is what you really want


     Subspace diagonalization in iterative solution of the eigenvalue problem:
     a serial algorithm will be used

 
     Parallelization info
     --------------------
     sticks:   dense  smooth     PW     G-vecs:    dense   smooth      PW
     Min          83      33      9                15627     3935     617
     Max          84      34     10                15638     3974     644
     Sum        2677    1069    313               500285   126611   20281
 


     bravais-lattice index     =            0
     lattice parameter (alat)  =       1.8897  a.u.
     unit-cell volume          =    4204.8134 (a.u.)^3
     number of atoms/cell      =           13
     number of atomic types    =            2
     number of electrons       =       184.00
     number of Kohn-Sham states=          102
     kinetic-energy cutoff     =      36.7493  Ry
     charge density cutoff     =     367.4932  Ry
     convergence threshold     =      1.0E-05
     mixing beta               =       0.3000
     number of iterations used =           10  plain     mixing
     Exchange-correlation      = BEEF-VDW ( 1  4 27 13 2)
     nstep                     =           50


     celldm(1)=   1.889726  celldm(2)=   0.000000  celldm(3)=   0.000000
     celldm(4)=   0.000000  celldm(5)=   0.000000  celldm(6)=   0.000000

     crystal axes: (cart. coord. in units of alat)
               a(1) = (   5.426750   0.000000   0.000000 )  
               a(2) = (   2.713375   4.699703   0.000000 )  
               a(3) = (   0.000000   0.000000  24.430923 )  

     reciprocal axes: (cart. coord. in units 2 pi/alat)
               b(1) = (  0.184272 -0.106390  0.000000 )  
               b(2) = (  0.000000  0.212779  0.000000 )  
               b(3) = (  0.000000  0.000000  0.040932 )  


     PseudoPot. # 1 for Rh read from file:
     /afs/slac.stanford.edu/u/if/mamunm/psp/gbrv1.5pbe/Rh.UPF
     MD5 check sum: 761627e959a2e3a1f56b0b5fe687810e
     Pseudo is Ultrasoft + core correction, Zval = 15.0
     Generated by new atomic code, or converted to UPF format
     Using radial grid of  969 points,  7 beta functions with: 
                l(1) =   0
                l(2) =   0
                l(3) =   1
                l(4) =   1
                l(5) =   2
                l(6) =   2
                l(7) =   2
     Q(r) pseudized with  8 coefficients,  rinner =    1.200   1.200   1.200
                                                       1.200   1.200

     PseudoPot. # 2 for C  read from file:
     /afs/slac.stanford.edu/u/if/mamunm/psp/gbrv1.5pbe/C.UPF
     MD5 check sum: d1aef80898a10debaa0f26306b886e00
     Pseudo is Ultrasoft + core correction, Zval =  4.0
     Generated by new atomic code, or converted to UPF format
     Using radial grid of  721 points,  4 beta functions with: 
                l(1) =   0
                l(2) =   0
                l(3) =   1
                l(4) =   1
     Q(r) pseudized with  8 coefficients,  rinner =    1.100   1.100   1.100


     vdW kernel table read from file vdW_kernel_table
     MD5 check sum: 095c7af220d748ca6e76c0b4c6cfb241

     atomic species   valence    mass     pseudopotential
        Rh1           15.00   102.90550     Rh( 1.00)
        C1             4.00    12.01100     C ( 1.00)

     No symmetry found



   Cartesian axes

     site n.     atom                  positions (alat units)
         1           Rh1 tau(   1) = (   1.3566875   0.7832839  10.0000000  )
         2           Rh1 tau(   2) = (   4.0700625   0.7832839  10.0000000  )
         3           Rh1 tau(   3) = (   2.7133750   3.1331356  10.0000000  )
         4           Rh1 tau(   4) = (   5.4267500   3.1331356  10.0000000  )
         5           Rh1 tau(   5) = (   5.4267500   1.5665678  12.2154614  )
         6           Rh1 tau(   6) = (   2.7133750   1.5665678  12.2154614  )
         7           Rh1 tau(   7) = (   6.7834375   3.9164194  12.2154614  )
         8           Rh1 tau(   8) = (   4.0700625   3.9164194  12.2154614  )
         9           Rh1 tau(   9) = (   0.0000000   0.0000000  14.4309228  )
        10           Rh1 tau(  10) = (   2.7133750   0.0000000  14.4309228  )
        11           Rh1 tau(  11) = (   1.3566875   2.3498517  14.4309228  )
        12           Rh1 tau(  12) = (   4.0700625   2.3498517  14.4309228  )
        13           C1  tau(  13) = (   0.0000000   0.0000000  16.6109228  )

     number of k points=    20  Fermi-Dirac smearing, width (Ry)=  0.0110
                       cart. coord. in units 2pi/alat
        k(    1) = (   0.0000000   0.0000000   0.0000000), wk =   0.0555556
        k(    2) = (   0.0000000   0.0354632   0.0000000), wk =   0.1111111
        k(    3) = (   0.0000000   0.0709265   0.0000000), wk =   0.1111111
        k(    4) = (   0.0000000  -0.1063897   0.0000000), wk =   0.0555556
        k(    5) = (   0.0307121  -0.0177316   0.0000000), wk =   0.1111111
        k(    6) = (   0.0307121   0.0177316   0.0000000), wk =   0.1111111
        k(    7) = (   0.0307121   0.0531948   0.0000000), wk =   0.1111111
        k(    8) = (   0.0307121  -0.1241213   0.0000000), wk =   0.1111111
        k(    9) = (   0.0307121  -0.0886581   0.0000000), wk =   0.1111111
        k(   10) = (   0.0307121  -0.0531948   0.0000000), wk =   0.1111111
        k(   11) = (   0.0614241  -0.0354632   0.0000000), wk =   0.1111111
        k(   12) = (   0.0614241   0.0000000   0.0000000), wk =   0.1111111
        k(   13) = (   0.0614241   0.0354632   0.0000000), wk =   0.1111111
        k(   14) = (   0.0614241  -0.1418529   0.0000000), wk =   0.1111111
        k(   15) = (   0.0614241  -0.1063897   0.0000000), wk =   0.1111111
        k(   16) = (   0.0614241  -0.0709265   0.0000000), wk =   0.1111111
        k(   17) = (  -0.0921362   0.0531948   0.0000000), wk =   0.0555556
        k(   18) = (  -0.0921362   0.0886581   0.0000000), wk =   0.1111111
        k(   19) = (  -0.0921362   0.1241213   0.0000000), wk =   0.1111111
        k(   20) = (  -0.0921362  -0.0531948   0.0000000), wk =   0.0555556

     Dense  grid:   500285 G-vectors     FFT dimensions: (  64,  64, 288)

     Smooth grid:   126611 G-vectors     FFT dimensions: (  40,  40, 180)

     Largest allocated arrays     est. size (Mb)     dimensions
        Kohn-Sham Wavefunctions         0.83 Mb     (     535,  102)
        NL pseudopotentials             2.32 Mb     (     535,  284)
        Each V/rho on FFT grid          0.56 Mb     (   36864)
        Each G-vector array             0.12 Mb     (   15636)
        G-vector shells                 0.05 Mb     (    7022)
     Largest temporary arrays     est. size (Mb)     dimensions
        Auxiliary wavefunctions         3.33 Mb     (     535,  408)
        Each subspace H/S matrix        2.54 Mb     (     408,  408)
        Each <psi_i|beta_j> matrix      0.44 Mb     (     284,  102)
        Arrays for rho mixing           5.62 Mb     (   36864,   10)

     Initial potential from superposition of free atoms
     Check: negative starting charge=   -0.652782

     starting charge  177.99878, renormalised to  184.00000

     negative rho (up, down):  6.748E-01 0.000E+00


     ************************************************************************
     *
     * You are using vdW-DF for exchange-correlation in this calculation.
     * Please cite the following three references that made this development
     * possible:
     *
     *   M. Dion, H. Rydberg, E. Schroder, D. C. Langreth, and
     *   B. I. Lundqvist, Phys. Rev. Lett. 92, 246401 (2004).
     *
     *   T. Thonhauser, V. R. Cooper, S. Li, A. Puzder, P. Hyldgaard, and
     *   D. C. Langreth, Phys. Rev. B 76, 125112 (2007).
     *
     *   G. Roman-Perez and J. M. Soler, Phys. Rev. Lett. 103, 096102 (2009).
     *
     *
     * If you are using vdW-DF2, please also cite:
     *
     *   K. Lee, E. D. Murray, L. Kong, B. I. Lundqvist, and
     *   D. C. Langreth, Phys. Rev. B 82, 081101(R) (2010).
     *
     *
     * If you are calculating the stress with vdW-DF, please also cite:
     *
     *   R. Sabatini, E. Kucukbenli, B. Kolb, T. Thonhauser, and
     *   S. de Gironcoli, J. Phys.: Condens. Matter 24, 424209 (2012).
     *
     ************************************************************************

     Carrying out vdW-DF run using the following parameters:

     Nqs =      20    Nr_points =    1024   r_max =   100.000
     q_mesh =
               0.00001000     0.04494208     0.09755937     0.15916263
               0.23128650     0.31572767     0.41458969     0.53033537
               0.66584808     0.82450364     1.01025438     1.22772762
               1.48234092     1.78043706     2.12944203     2.53805004
               3.01644009     3.57652955     4.23227104     5.00000000

     Gradients computed in reciprocal space

     ************************************************************************


 
     Adding external electric field

     Computed dipole along edir(3) : 
        Dipole               -1.1198 Ry au,         -2.8463 Debye
        Dipole field         -0.0033 Ry au
 
        Potential amp.        0.3013 Ry
        Total length         45.0136 bohr
 
     Starting wfc are  148 randomized atomic wfcs

     total cpu time spent up to now is       18.2 secs

     per-process dynamical memory:    46.8 Mb

     Self-consistent Calculation

     iteration #  1     ecut=    36.75 Ry     beta=0.30
     Davidson diagonalization with overlap
     ethr =  1.00E-02,  avg # of iterations =  2.0

     negative rho (up, down):  6.861E-01 0.000E+00
 
     Adding external electric field

     Computed dipole along edir(3) : 
        Dipole               16.6403 Ry au,         42.2954 Debye
        Dipole field          0.0497 Ry au
 
        Potential amp.       -4.4771 Ry
        Total length         45.0136 bohr
 

     total cpu time spent up to now is       52.3 secs

     total energy              =   -2052.46283279 Ry
     Harris-Foulkes estimate   =   -2078.90331906 Ry
     estimated scf accuracy    <      54.80575795 Ry

     iteration #  2     ecut=    36.75 Ry     beta=0.30
     Davidson diagonalization with overlap
     ethr =  1.00E-02,  avg # of iterations = 12.8

     negative rho (up, down):  6.892E-01 0.000E+00
 
     Adding external electric field

     Computed dipole along edir(3) : 
        Dipole               -2.3021 Ry au,         -5.8513 Debye
        Dipole field         -0.0069 Ry au
 
        Potential amp.        0.6194 Ry
        Total length         45.0136 bohr
 

     total cpu time spent up to now is      143.0 secs

     total energy              =   -2010.96417152 Ry
     Harris-Foulkes estimate   =   -2246.65880081 Ry
     estimated scf accuracy    <    6066.91322235 Ry

     iteration #  3     ecut=    36.75 Ry     beta=0.30
     Davidson diagonalization with overlap
     ethr =  1.00E-02,  avg # of iterations =  6.8

     negative rho (up, down):  6.903E-01 0.000E+00
 
     Adding external electric field

     Computed dipole along edir(3) : 
        Dipole               -1.5387 Ry au,         -3.9109 Debye
        Dipole field         -0.0046 Ry au
 
        Potential amp.        0.4140 Ry
        Total length         45.0136 bohr
 

     total cpu time spent up to now is      204.9 secs

     total energy              =   -2062.39914096 Ry
     Harris-Foulkes estimate   =   -2111.89146347 Ry
     estimated scf accuracy    <     968.15703209 Ry

     iteration #  4     ecut=    36.75 Ry     beta=0.30
     Davidson diagonalization with overlap
     ethr =  1.00E-02,  avg # of iterations =  5.5

     negative rho (up, down):  6.884E-01 0.000E+00
 
     Adding external electric field

     Computed dipole along edir(3) : 
        Dipole               -0.3962 Ry au,         -1.0072 Debye
        Dipole field         -0.0012 Ry au
 
        Potential amp.        0.1066 Ry
        Total length         45.0136 bohr
 

     total cpu time spent up to now is      258.0 secs

     total energy              =   -2076.35249812 Ry
     Harris-Foulkes estimate   =   -2080.26206279 Ry
     estimated scf accuracy    <      29.20394432 Ry

     iteration #  5     ecut=    36.75 Ry     beta=0.30
     Davidson diagonalization with overlap
     ethr =  1.00E-02,  avg # of iterations =  2.0

     negative rho (up, down):  6.848E-01 0.000E+00
 
     Adding external electric field

     Computed dipole along edir(3) : 
        Dipole               -0.9536 Ry au,         -2.4239 Debye
        Dipole field         -0.0028 Ry au
 
        Potential amp.        0.2566 Ry
        Total length         45.0136 bohr
 

     total cpu time spent up to now is      288.3 secs

     total energy              =   -2076.76012137 Ry
     Harris-Foulkes estimate   =   -2078.11045951 Ry
     estimated scf accuracy    <      25.56135843 Ry

     iteration #  6     ecut=    36.75 Ry     beta=0.30
     Davidson diagonalization with overlap
     ethr =  1.00E-02,  avg # of iterations =  1.9

     negative rho (up, down):  6.853E-01 0.000E+00
 
     Adding external electric field

     Computed dipole along edir(3) : 
        Dipole               -0.8774 Ry au,         -2.2301 Debye
        Dipole field         -0.0026 Ry au
 
        Potential amp.        0.2361 Ry
        Total length         45.0136 bohr
 

     total cpu time spent up to now is      318.1 secs

     total energy              =   -2077.54992408 Ry
     Harris-Foulkes estimate   =   -2077.76241455 Ry
     estimated scf accuracy    <       3.22470038 Ry

     iteration #  7     ecut=    36.75 Ry     beta=0.30
     Davidson diagonalization with overlap
     ethr =  1.75E-03,  avg # of iterations =  4.5

     negative rho (up, down):  6.868E-01 0.000E+00
 
     Adding external electric field

     Computed dipole along edir(3) : 
        Dipole               -0.9453 Ry au,         -2.4028 Debye
        Dipole field         -0.0028 Ry au
 
        Potential amp.        0.2543 Ry
        Total length         45.0136 bohr
 

     total cpu time spent up to now is      352.7 secs

     total energy              =   -2077.42455357 Ry
     Harris-Foulkes estimate   =   -2077.80149577 Ry
     estimated scf accuracy    <      12.06904274 Ry

     iteration #  8     ecut=    36.75 Ry     beta=0.30
     Davidson diagonalization with overlap
     ethr =  1.75E-03,  avg # of iterations =  1.4

     negative rho (up, down):  6.869E-01 0.000E+00
 
     Adding external electric field

     Computed dipole along edir(3) : 
        Dipole               -0.8848 Ry au,         -2.2489 Debye
        Dipole field         -0.0026 Ry au
 
        Potential amp.        0.2381 Ry
        Total length         45.0136 bohr
 

     total cpu time spent up to now is      381.5 secs

     total energy              =   -2077.63245057 Ry
     Harris-Foulkes estimate   =   -2077.64822625 Ry
     estimated scf accuracy    <       0.17857544 Ry

     iteration #  9     ecut=    36.75 Ry     beta=0.30
     Davidson diagonalization with overlap
     ethr =  9.71E-05,  avg # of iterations =  5.8

     negative rho (up, down):  6.865E-01 0.000E+00
 
     Adding external electric field

     Computed dipole along edir(3) : 
        Dipole               -0.8445 Ry au,         -2.1464 Debye
        Dipole field         -0.0025 Ry au
 
        Potential amp.        0.2272 Ry
        Total length         45.0136 bohr
 

     total cpu time spent up to now is      421.2 secs

     total energy              =   -2077.63940724 Ry
     Harris-Foulkes estimate   =   -2077.65646612 Ry
     estimated scf accuracy    <       0.75335596 Ry

     iteration # 10     ecut=    36.75 Ry     beta=0.30
     Davidson diagonalization with overlap
     ethr =  9.71E-05,  avg # of iterations =  1.0

     negative rho (up, down):  6.856E-01 0.000E+00
 
     Adding external electric field

     Computed dipole along edir(3) : 
        Dipole               -0.7475 Ry au,         -1.8998 Debye
        Dipole field         -0.0022 Ry au
 
        Potential amp.        0.2011 Ry
        Total length         45.0136 bohr
 

     total cpu time spent up to now is      449.6 secs

     total energy              =   -2077.63804441 Ry
     Harris-Foulkes estimate   =   -2077.64736565 Ry
     estimated scf accuracy    <       0.04467617 Ry

     iteration # 11     ecut=    36.75 Ry     beta=0.30
     Davidson diagonalization with overlap
     ethr =  2.43E-05,  avg # of iterations =  4.2

     negative rho (up, down):  6.856E-01 0.000E+00
 
     Adding external electric field

     Computed dipole along edir(3) : 
        Dipole               -0.7130 Ry au,         -1.8123 Debye
        Dipole field         -0.0021 Ry au
 
        Potential amp.        0.1918 Ry
        Total length         45.0136 bohr
 

     total cpu time spent up to now is      486.0 secs

     total energy              =   -2077.63864358 Ry
     Harris-Foulkes estimate   =   -2077.65351223 Ry
     estimated scf accuracy    <       0.79550166 Ry

     iteration # 12     ecut=    36.75 Ry     beta=0.30
     Davidson diagonalization with overlap
     ethr =  2.43E-05,  avg # of iterations =  3.4

     negative rho (up, down):  6.859E-01 0.000E+00
 
     Adding external electric field

     Computed dipole along edir(3) : 
        Dipole               -0.6745 Ry au,         -1.7145 Debye
        Dipole field         -0.0020 Ry au
 
        Potential amp.        0.1815 Ry
        Total length         45.0136 bohr
 

     total cpu time spent up to now is      517.3 secs

     total energy              =   -2077.63797083 Ry
     Harris-Foulkes estimate   =   -2077.64449413 Ry
     estimated scf accuracy    <       0.10208452 Ry

     iteration # 13     ecut=    36.75 Ry     beta=0.30
     Davidson diagonalization with overlap
     ethr =  2.43E-05,  avg # of iterations =  3.5

     negative rho (up, down):  6.858E-01 0.000E+00
 
     Adding external electric field

     Computed dipole along edir(3) : 
        Dipole               -0.4918 Ry au,         -1.2500 Debye
        Dipole field         -0.0015 Ry au
 
        Potential amp.        0.1323 Ry
        Total length         45.0136 bohr
 

     total cpu time spent up to now is      550.0 secs

     total energy              =   -2077.63500720 Ry
     Harris-Foulkes estimate   =   -2077.64459362 Ry
     estimated scf accuracy    <       0.11096269 Ry

     iteration # 14     ecut=    36.75 Ry     beta=0.30
     Davidson diagonalization with overlap
     ethr =  2.43E-05,  avg # of iterations =  2.0

     negative rho (up, down):  6.861E-01 0.000E+00
 
     Adding external electric field

     Computed dipole along edir(3) : 
        Dipole               -0.3696 Ry au,         -0.9395 Debye
        Dipole field         -0.0011 Ry au
 
        Potential amp.        0.0994 Ry
        Total length         45.0136 bohr
 

     total cpu time spent up to now is      580.0 secs

     total energy              =   -2077.63761536 Ry
     Harris-Foulkes estimate   =   -2077.64057456 Ry
     estimated scf accuracy    <       0.07799878 Ry

     iteration # 15     ecut=    36.75 Ry     beta=0.30
     Davidson diagonalization with overlap
     ethr =  2.43E-05,  avg # of iterations =  1.1

     negative rho (up, down):  6.862E-01 0.000E+00
 
     Adding external electric field

     Computed dipole along edir(3) : 
        Dipole               -0.2823 Ry au,         -0.7174 Debye
        Dipole field         -0.0008 Ry au
 
        Potential amp.        0.0759 Ry
        Total length         45.0136 bohr
 

     total cpu time spent up to now is      608.9 secs

     total energy              =   -2077.63804488 Ry
     Harris-Foulkes estimate   =   -2077.63894219 Ry
     estimated scf accuracy    <       0.00685182 Ry

     iteration # 16     ecut=    36.75 Ry     beta=0.30
     Davidson diagonalization with overlap
     ethr =  3.72E-06,  avg # of iterations =  2.9

     negative rho (up, down):  6.862E-01 0.000E+00
 
     Adding external electric field

     Computed dipole along edir(3) : 
        Dipole               -0.2973 Ry au,         -0.7557 Debye
        Dipole field         -0.0009 Ry au
 
        Potential amp.        0.0800 Ry
        Total length         45.0136 bohr
 

     total cpu time spent up to now is      639.9 secs

     total energy              =   -2077.63820245 Ry
     Harris-Foulkes estimate   =   -2077.63861351 Ry
     estimated scf accuracy    <       0.00270347 Ry

     iteration # 17     ecut=    36.75 Ry     beta=0.30
     Davidson diagonalization with overlap
     ethr =  1.47E-06,  avg # of iterations =  1.9

     negative rho (up, down):  6.863E-01 0.000E+00
 
     Adding external electric field

     Computed dipole along edir(3) : 
        Dipole               -0.2332 Ry au,         -0.5928 Debye
        Dipole field         -0.0007 Ry au
 
        Potential amp.        0.0628 Ry
        Total length         45.0136 bohr
 

     total cpu time spent up to now is      669.5 secs

     total energy              =   -2077.63851393 Ry
     Harris-Foulkes estimate   =   -2077.63864301 Ry
     estimated scf accuracy    <       0.00213884 Ry

     iteration # 18     ecut=    36.75 Ry     beta=0.30
     Davidson diagonalization with overlap
     ethr =  1.16E-06,  avg # of iterations =  1.0

     negative rho (up, down):  6.863E-01 0.000E+00
 
     Adding external electric field

     Computed dipole along edir(3) : 
        Dipole               -0.2251 Ry au,         -0.5721 Debye
        Dipole field         -0.0007 Ry au
 
        Potential amp.        0.0606 Ry
        Total length         45.0136 bohr
 

     total cpu time spent up to now is      698.2 secs

     total energy              =   -2077.63857437 Ry
     Harris-Foulkes estimate   =   -2077.63858724 Ry
     estimated scf accuracy    <       0.00021578 Ry

     iteration # 19     ecut=    36.75 Ry     beta=0.30
     Davidson diagonalization with overlap
     ethr =  1.17E-07,  avg # of iterations =  4.5

     negative rho (up, down):  6.863E-01 0.000E+00
 
     Adding external electric field

     Computed dipole along edir(3) : 
        Dipole               -0.2139 Ry au,         -0.5438 Debye
        Dipole field         -0.0006 Ry au
 
        Potential amp.        0.0576 Ry
        Total length         45.0136 bohr
 

     total cpu time spent up to now is      732.3 secs

     total energy              =   -2077.63858848 Ry
     Harris-Foulkes estimate   =   -2077.63861369 Ry
     estimated scf accuracy    <       0.00020700 Ry

     iteration # 20     ecut=    36.75 Ry     beta=0.30
     Davidson diagonalization with overlap
     ethr =  1.12E-07,  avg # of iterations =  1.8

     negative rho (up, down):  6.863E-01 0.000E+00
 
     Adding external electric field

     Computed dipole along edir(3) : 
        Dipole               -0.2122 Ry au,         -0.5394 Debye
        Dipole field         -0.0006 Ry au
 
        Potential amp.        0.0571 Ry
        Total length         45.0136 bohr
 

     total cpu time spent up to now is      761.6 secs

     total energy              =   -2077.63859930 Ry
     Harris-Foulkes estimate   =   -2077.63860310 Ry
     estimated scf accuracy    <       0.00004787 Ry

     iteration # 21     ecut=    36.75 Ry     beta=0.30
     Davidson diagonalization with overlap
     ethr =  2.60E-08,  avg # of iterations =  3.1

     negative rho (up, down):  6.865E-01 0.000E+00

     negative rho (up, down):  6.865E-01 0.000E+00

     negative rho (up, down):  6.865E-01 0.000E+00

     negative rho (up, down):  6.865E-01 0.000E+00

     negative rho (up, down):  6.865E-01 0.000E+00

     negative rho (up, down):  6.865E-01 0.000E+00

     negative rho (up, down):  6.865E-01 0.000E+00

     negative rho (up, down):  6.865E-01 0.000E+00

     negative rho (up, down):  6.865E-01 0.000E+00

     negative rho (up, down):  6.865E-01 0.000E+00

     negative rho (up, down):  6.865E-01 0.000E+00

     negative rho (up, down):  6.865E-01 0.000E+00

     negative rho (up, down):  6.865E-01 0.000E+00

     negative rho (up, down):  6.865E-01 0.000E+00

     negative rho (up, down):  6.865E-01 0.000E+00

     negative rho (up, down):  6.865E-01 0.000E+00

     negative rho (up, down):  6.865E-01 0.000E+00

     negative rho (up, down):  6.865E-01 0.000E+00

     negative rho (up, down):  6.865E-01 0.000E+00

     negative rho (up, down):  6.865E-01 0.000E+00

     negative rho (up, down):  6.865E-01 0.000E+00

     negative rho (up, down):  6.865E-01 0.000E+00

     negative rho (up, down):  6.865E-01 0.000E+00

     negative rho (up, down):  6.865E-01 0.000E+00

     negative rho (up, down):  6.865E-01 0.000E+00

     negative rho (up, down):  6.865E-01 0.000E+00

     negative rho (up, down):  6.865E-01 0.000E+00

     negative rho (up, down):  6.865E-01 0.000E+00

     negative rho (up, down):  6.865E-01 0.000E+00

     negative rho (up, down):  6.865E-01 0.000E+00

     negative rho (up, down):  6.865E-01 0.000E+00

     negative rho (up, down):  6.865E-01 0.000E+00

     negative rho (up, down):  6.865E-01 0.000E+00

     negative rho (up, down):  6.865E-01 0.000E+00

     negative rho (up, down):  6.865E-01 0.000E+00
 
     Adding external electric field

     Computed dipole along edir(3) : 
        Dipole               -0.2105 Ry au,         -0.5351 Debye
        Dipole field         -0.0006 Ry au
 
        Potential amp.        0.0566 Ry
        Total length         45.0136 bohr
 

     total cpu time spent up to now is      840.4 secs

     End of self-consistent calculation

          k = 0.0000 0.0000 0.0000 ( 15785 PWs)   bands (ev):

   -45.5077 -45.4975 -45.4966 -45.4173 -45.3747 -45.3744 -45.3055 -45.2263
   -45.2188 -45.2178 -45.1114 -45.0921 -45.0910 -45.0904 -45.0254 -45.0248
   -45.0083 -44.9714 -44.9711 -44.8223 -44.8221 -44.7093 -44.6902 -44.6897
   -44.6845 -44.6815 -44.6342 -44.6337 -44.6241 -44.6237 -44.6072 -44.5939
   -44.5930 -44.5764 -44.5763 -44.5406  -7.3765  -5.1208  -3.9158  -3.9155
    -3.9030  -3.8635  -3.7277  -3.6101  -3.6097  -3.5938  -3.4228  -3.4226
    -3.3782  -3.0907  -3.0906  -3.0686  -2.0910  -2.0909  -1.9305  -1.5502
    -1.5234  -1.5233  -1.3296  -1.2016  -1.2015  -0.9075  -0.9075  -0.8634
    -0.8212  -0.8208  -0.7883  -0.6737  -0.6736  -0.4095  -0.0093  -0.0091
     0.3751   0.3753   0.6772   0.6998   0.7000   0.7108   0.7111   0.7848
     1.0374   1.2336   1.2337   1.6256   1.6900   1.6904   1.7978   1.8067
     1.8069   1.9025   1.9026   2.1165   2.1168   2.1734   2.1834   2.1840
     2.4254   2.4259   2.5171   2.5599   2.5603   2.5655

          k = 0.0000 0.0355 0.0000 ( 15795 PWs)   bands (ev):

   -45.4924 -45.4782 -45.4682 -45.4071 -45.3659 -45.3587 -45.2998 -45.2269
   -45.2148 -45.2105 -45.1272 -45.1096 -45.0867 -45.0680 -45.0133 -45.0126
   -45.0012 -44.9946 -44.9791 -44.8360 -44.8159 -44.7237 -44.7083 -44.6920
   -44.6861 -44.6787 -44.6534 -44.6334 -44.6327 -44.6296 -44.6143 -44.6017
   -44.5955 -44.5947 -44.5842 -44.5403  -7.3651  -4.8936  -3.8114  -3.7356
    -3.7204  -3.6724  -3.5180  -3.5018  -3.4660  -3.4529  -3.3289  -3.2983
    -3.2607  -2.9772  -2.8838  -2.8658  -2.0694  -2.0246  -1.8923  -1.4994
    -1.4375  -1.4350  -1.3799  -1.3227  -1.2118  -1.0369  -0.9766  -0.9402
    -0.7826  -0.7553  -0.7520  -0.7293  -0.5039  -0.4564  -0.1834  -0.1574
     0.1365   0.2367   0.4576   0.5314   0.5582   0.6342   0.6371   0.6864
     0.7563   1.0255   1.2177   1.3183   1.4013   1.4808   1.5734   1.6099
     1.6875   1.6953   1.7791   1.8879   1.9041   1.9622   1.9697   2.0412
     2.1552   2.2157   2.2756   2.2795   2.3066   2.3912

          k = 0.0000 0.0709 0.0000 ( 15819 PWs)   bands (ev):

   -45.4625 -45.4325 -45.4038 -45.3603 -45.3480 -45.3297 -45.2871 -45.2203
   -45.2121 -45.2089 -45.1682 -45.1526 -45.0939 -45.0662 -45.0193 -45.0031
   -44.9753 -44.9698 -44.9344 -44.8570 -44.8001 -44.7678 -44.7522 -44.7329
   -44.7158 -44.6985 -44.6673 -44.6618 -44.6444 -44.6345 -44.6266 -44.6069
   -44.6055 -44.6004 -44.5964 -44.5397  -7.3437  -4.2931  -3.5908  -3.3176
    -3.3014  -3.2858  -3.2320  -3.0807  -3.0624  -3.0542  -2.9680  -2.9484
    -2.9253  -2.6840  -2.3590  -2.3273  -2.0365  -1.9540  -1.8673  -1.7378
    -1.6474  -1.4170  -1.3101  -1.3012  -1.2519  -1.1472  -1.1322  -0.8706
    -0.7808  -0.7302  -0.6788  -0.6323  -0.5987  -0.5957  -0.4792  -0.3332
    -0.0967  -0.0297  -0.0202   0.0923   0.1601   0.2856   0.3019   0.3898
     0.3949   0.5228   0.5906   0.5915   0.7673   1.0486   1.0640   1.1242
     1.1612   1.2673   1.2816   1.2913   1.5018   1.5417   1.6241   1.7883
     1.8924   1.9115   2.0044   2.1695   2.2154   2.3613

          k = 0.0000-0.1064 0.0000 ( 15852 PWs)   bands (ev):

   -45.4484 -45.4007 -45.3744 -45.3398 -45.3210 -45.2838 -45.2590 -45.2420
   -45.2242 -45.2195 -45.1929 -45.1845 -45.1465 -45.0442 -45.0247 -44.9956
   -44.9489 -44.9463 -44.8363 -44.8272 -44.8224 -44.8108 -44.8015 -44.7867
   -44.7671 -44.7323 -44.6519 -44.6506 -44.6454 -44.6397 -44.6271 -44.6243
   -44.6084 -44.6022 -44.5979 -44.5395  -7.3335  -3.6774  -3.6715  -3.1177
    -3.0818  -3.0514  -3.0379  -2.8544  -2.7866  -2.6698  -2.6656  -2.5735
    -2.5647  -2.3370  -2.2814  -2.2128  -2.1709  -1.8409  -1.7796  -1.7024
    -1.6968  -1.6509  -1.6058  -1.3400  -1.2582  -1.0525  -1.0354  -0.8686
    -0.8621  -0.7509  -0.6961  -0.6593  -0.5424  -0.4886  -0.4751  -0.4610
    -0.4241  -0.3800  -0.3734  -0.3553  -0.3225   0.0002   0.0977   0.1297
     0.2350   0.3359   0.3564   0.5100   0.6148   0.6512   0.7379   0.7761
     0.8343   0.8919   1.0049   1.2114   1.2620   1.2929   1.3208   1.7360
     1.7750   1.9048   1.9771   2.1766   2.2428   2.3509

          k = 0.0307-0.0177 0.0000 ( 15795 PWs)   bands (ev):

   -45.4922 -45.4787 -45.4679 -45.4071 -45.3658 -45.3589 -45.2998 -45.2270
   -45.2144 -45.2108 -45.1269 -45.1099 -45.0867 -45.0680 -45.0134 -45.0125
   -45.0015 -44.9946 -44.9789 -44.8360 -44.8160 -44.7238 -44.7082 -44.6922
   -44.6861 -44.6787 -44.6536 -44.6334 -44.6325 -44.6294 -44.6143 -44.6016
   -44.5963 -44.5940 -44.5842 -44.5403  -7.3651  -4.8936  -3.8113  -3.7358
    -3.7202  -3.6724  -3.5179  -3.5018  -3.4662  -3.4527  -3.3289  -3.2983
    -3.2608  -2.9772  -2.8838  -2.8658  -2.0695  -2.0245  -1.8923  -1.4994
    -1.4374  -1.4351  -1.3799  -1.3227  -1.2118  -1.0369  -0.9768  -0.9399
    -0.7826  -0.7554  -0.7520  -0.7294  -0.5039  -0.4564  -0.1836  -0.1573
     0.1364   0.2369   0.4575   0.5313   0.5582   0.6343   0.6371   0.6865
     0.7563   1.0255   1.2177   1.3183   1.4014   1.4807   1.5733   1.6102
     1.6873   1.6953   1.7791   1.8878   1.9042   1.9622   1.9699   2.0412
     2.1551   2.2158   2.2757   2.2792   2.3067   2.3914

          k = 0.0307 0.0177 0.0000 ( 15795 PWs)   bands (ev):

   -45.4921 -45.4791 -45.4676 -45.4071 -45.3657 -45.3590 -45.2998 -45.2271
   -45.2139 -45.2112 -45.1266 -45.1102 -45.0867 -45.0680 -45.0136 -45.0122
   -45.0018 -44.9945 -44.9788 -44.8359 -44.8160 -44.7239 -44.7079 -44.6923
   -44.6863 -44.6787 -44.6537 -44.6330 -44.6327 -44.6295 -44.6143 -44.6016
   -44.5965 -44.5938 -44.5841 -44.5403  -7.3651  -4.8936  -3.8113  -3.7360
    -3.7201  -3.6724  -3.5179  -3.5017  -3.4664  -3.4526  -3.3290  -3.2981
    -3.2608  -2.9772  -2.8838  -2.8658  -2.0695  -2.0245  -1.8923  -1.4994
    -1.4374  -1.4352  -1.3799  -1.3227  -1.2118  -1.0369  -0.9769  -0.9397
    -0.7825  -0.7556  -0.7520  -0.7294  -0.5039  -0.4564  -0.1835  -0.1573
     0.1364   0.2370   0.4575   0.5312   0.5581   0.6344   0.6371   0.6865
     0.7563   1.0254   1.2176   1.3183   1.4015   1.4806   1.5733   1.6103
     1.6873   1.6954   1.7790   1.8877   1.9043   1.9620   1.9700   2.0411
     2.1551   2.2159   2.2757   2.2792   2.3068   2.3914

          k = 0.0307 0.0532 0.0000 ( 15818 PWs)   bands (ev):

   -45.4707 -45.4416 -45.4189 -45.3829 -45.3503 -45.3382 -45.2908 -45.2221
   -45.2177 -45.2052 -45.1698 -45.1072 -45.0915 -45.0666 -45.0298 -44.9986
   -44.9876 -44.9713 -44.9634 -44.8588 -44.7998 -44.7731 -44.7240 -44.7029
   -44.6935 -44.6909 -44.6690 -44.6657 -44.6460 -44.6324 -44.6287 -44.6064
   -44.6006 -44.5999 -44.5950 -44.5398  -7.3489  -4.4720  -3.5421  -3.5305
    -3.3993  -3.3319  -3.2924  -3.2789  -3.1573  -3.1479  -3.1322  -3.0905
    -2.9831  -2.6761  -2.6623  -2.4367  -2.0580  -1.9288  -1.8458  -1.7112
    -1.5245  -1.4317  -1.3249  -1.3186  -1.2449  -1.2326  -0.9624  -0.8972
    -0.8660  -0.7872  -0.7068  -0.6171  -0.5573  -0.5132  -0.4813  -0.1786
    -0.1420  -0.0247   0.1216   0.2373   0.3126   0.3869   0.4809   0.5144
     0.6408   0.6561   0.7099   0.7411   0.7867   0.9687   1.1652   1.2899
     1.3062   1.4146   1.4608   1.5006   1.6563   1.7280   1.7919   1.8092
     1.9823   2.0257   2.0827   2.2448   2.2906   2.5867

          k = 0.0307-0.1241 0.0000 ( 15838 PWs)   bands (ev):

   -45.4470 -45.3966 -45.3595 -45.3341 -45.3234 -45.3097 -45.2807 -45.2641
   -45.2156 -45.2042 -45.1980 -45.1602 -45.1187 -45.0682 -45.0268 -44.9828
   -44.9514 -44.9268 -44.8883 -44.8676 -44.8364 -44.8023 -44.7720 -44.7661
   -44.7203 -44.7197 -44.6692 -44.6657 -44.6512 -44.6360 -44.6304 -44.6264
   -44.6078 -44.6034 -44.5963 -44.5394  -7.3336  -3.7999  -3.3837  -3.0711
    -3.0578  -3.0366  -2.9597  -2.9210  -2.8110  -2.7779  -2.7011  -2.6015
    -2.5437  -2.3481  -2.3148  -2.1556  -2.1330  -1.8849  -1.8555  -1.8099
    -1.6446  -1.6094  -1.5095  -1.4270  -1.3265  -1.1443  -1.0575  -1.0354
    -0.9417  -0.8868  -0.8304  -0.8049  -0.7704  -0.6245  -0.5126  -0.4612
    -0.3974  -0.2777  -0.2163  -0.1875  -0.1553  -0.0912   0.0851   0.2128
     0.3028   0.3724   0.4477   0.5314   0.5586   0.7187   0.7791   0.9189
     1.0375   1.0811   1.2171   1.4002   1.4559   1.5412   1.6657   1.7148
     1.7891   1.8397   1.9194   2.0185   2.0464   2.3036

          k = 0.0307-0.0887 0.0000 ( 15838 PWs)   bands (ev):

   -45.4470 -45.3966 -45.3595 -45.3342 -45.3232 -45.3097 -45.2807 -45.2640
   -45.2159 -45.2045 -45.1981 -45.1596 -45.1188 -45.0681 -45.0269 -44.9829
   -44.9514 -44.9268 -44.8883 -44.8676 -44.8366 -44.8021 -44.7717 -44.7661
   -44.7204 -44.7198 -44.6692 -44.6657 -44.6511 -44.6361 -44.6304 -44.6262
   -44.6078 -44.6033 -44.5963 -44.5394  -7.3336  -3.7999  -3.3837  -3.0711
    -3.0578  -3.0366  -2.9597  -2.9211  -2.8110  -2.7778  -2.7010  -2.6015
    -2.5437  -2.3480  -2.3148  -2.1556  -2.1329  -1.8850  -1.8555  -1.8099
    -1.6446  -1.6094  -1.5095  -1.4270  -1.3264  -1.1443  -1.0575  -1.0355
    -0.9417  -0.8868  -0.8303  -0.8050  -0.7705  -0.6245  -0.5126  -0.4612
    -0.3975  -0.2777  -0.2163  -0.1876  -0.1552  -0.0912   0.0852   0.2129
     0.3026   0.3723   0.4476   0.5314   0.5585   0.7187   0.7791   0.9191
     1.0373   1.0812   1.2171   1.4002   1.4559   1.5412   1.6655   1.7149
     1.7891   1.8397   1.9194   2.0185   2.0464   2.3036

          k = 0.0307-0.0532 0.0000 ( 15818 PWs)   bands (ev):

   -45.4708 -45.4412 -45.4192 -45.3829 -45.3504 -45.3379 -45.2908 -45.2221
   -45.2174 -45.2055 -45.1702 -45.1068 -45.0916 -45.0664 -45.0298 -44.9987
   -44.9877 -44.9713 -44.9634 -44.8589 -44.7997 -44.7732 -44.7237 -44.7030
   -44.6933 -44.6910 -44.6690 -44.6658 -44.6460 -44.6328 -44.6284 -44.6064
   -44.6006 -44.5997 -44.5952 -44.5398  -7.3489  -4.4720  -3.5422  -3.5304
    -3.3993  -3.3319  -3.2925  -3.2788  -3.1574  -3.1479  -3.1322  -3.0905
    -2.9831  -2.6761  -2.6623  -2.4367  -2.0580  -1.9288  -1.8458  -1.7112
    -1.5245  -1.4318  -1.3249  -1.3186  -1.2449  -1.2327  -0.9625  -0.8972
    -0.8660  -0.7871  -0.7067  -0.6170  -0.5574  -0.5133  -0.4812  -0.1785
    -0.1420  -0.0248   0.1217   0.2372   0.3126   0.3870   0.4808   0.5144
     0.6408   0.6560   0.7100   0.7411   0.7866   0.9687   1.1652   1.2900
     1.3064   1.4145   1.4607   1.5004   1.6562   1.7281   1.7920   1.8093
     1.9823   2.0257   2.0827   2.2448   2.2906   2.5867

          k = 0.0614-0.0355 0.0000 ( 15819 PWs)   bands (ev):

   -45.4623 -45.4331 -45.4033 -45.3602 -45.3479 -45.3301 -45.2871 -45.2206
   -45.2117 -45.2089 -45.1676 -45.1528 -45.0944 -45.0664 -45.0191 -45.0029
   -44.9751 -44.9699 -44.9343 -44.8572 -44.7999 -44.7679 -44.7521 -44.7332
   -44.7165 -44.6986 -44.6673 -44.6618 -44.6438 -44.6345 -44.6267 -44.6065
   -44.6055 -44.6014 -44.5957 -44.5397  -7.3437  -4.2931  -3.5908  -3.3179
    -3.3013  -3.2857  -3.2320  -3.0805  -3.0626  -3.0542  -2.9679  -2.9484
    -2.9253  -2.6840  -2.3591  -2.3272  -2.0365  -1.9540  -1.8674  -1.7377
    -1.6474  -1.4170  -1.3099  -1.3012  -1.2519  -1.1474  -1.1321  -0.8706
    -0.7808  -0.7300  -0.6787  -0.6324  -0.5989  -0.5957  -0.4792  -0.3332
    -0.0965  -0.0297  -0.0202   0.0921   0.1600   0.2857   0.3019   0.3896
     0.3951   0.5225   0.5906   0.5917   0.7671   1.0488   1.0638   1.1243
     1.1613   1.2676   1.2814   1.2912   1.5018   1.5417   1.6241   1.7883
     1.8923   1.9116   2.0043   2.1691   2.2158   2.3615

          k = 0.0614 0.0000 0.0000 ( 15818 PWs)   bands (ev):

   -45.4705 -45.4419 -45.4187 -45.3828 -45.3501 -45.3385 -45.2908 -45.2220
   -45.2181 -45.2047 -45.1695 -45.1076 -45.0914 -45.0667 -45.0298 -44.9985
   -44.9875 -44.9713 -44.9633 -44.8585 -44.8001 -44.7731 -44.7247 -44.7029
   -44.6936 -44.6905 -44.6690 -44.6657 -44.6457 -44.6323 -44.6288 -44.6062
   -44.6011 -44.5999 -44.5947 -44.5398  -7.3489  -4.4720  -3.5420  -3.5307
    -3.3993  -3.3319  -3.2924  -3.2789  -3.1573  -3.1480  -3.1322  -3.0904
    -2.9832  -2.6760  -2.6623  -2.4367  -2.0581  -1.9287  -1.8459  -1.7112
    -1.5245  -1.4316  -1.3249  -1.3186  -1.2449  -1.2326  -0.9623  -0.8972
    -0.8660  -0.7871  -0.7068  -0.6173  -0.5572  -0.5132  -0.4813  -0.1785
    -0.1420  -0.0247   0.1216   0.2372   0.3125   0.3867   0.4810   0.5144
     0.6408   0.6560   0.7098   0.7412   0.7867   0.9688   1.1651   1.2899
     1.3061   1.4148   1.4608   1.5006   1.6563   1.7281   1.7918   1.8090
     1.9822   2.0257   2.0829   2.2449   2.2907   2.5866

          k = 0.0614 0.0355 0.0000 ( 15819 PWs)   bands (ev):

   -45.4621 -45.4336 -45.4029 -45.3602 -45.3478 -45.3305 -45.2871 -45.2208
   -45.2112 -45.2090 -45.1671 -45.1530 -45.0948 -45.0666 -45.0192 -45.0027
   -44.9746 -44.9702 -44.9343 -44.8572 -44.7998 -44.7682 -44.7516 -44.7333
   -44.7168 -44.6986 -44.6675 -44.6618 -44.6436 -44.6340 -44.6271 -44.6064
   -44.6054 -44.6017 -44.5955 -44.5397  -7.3437  -4.2931  -3.5908  -3.3181
    -3.3012  -3.2856  -3.2320  -3.0804  -3.0628  -3.0541  -2.9678  -2.9484
    -2.9254  -2.6840  -2.3590  -2.3272  -2.0365  -1.9541  -1.8674  -1.7377
    -1.6474  -1.4169  -1.3098  -1.3013  -1.2519  -1.1474  -1.1320  -0.8705
    -0.7809  -0.7299  -0.6785  -0.6325  -0.5990  -0.5957  -0.4792  -0.3332
    -0.0965  -0.0297  -0.0202   0.0921   0.1600   0.2856   0.3019   0.3895
     0.3951   0.5224   0.5907   0.5918   0.7671   1.0489   1.0638   1.1243
     1.1613   1.2676   1.2813   1.2913   1.5018   1.5417   1.6241   1.7881
     1.8923   1.9117   2.0042   2.1690   2.2161   2.3616

          k = 0.0614-0.1419 0.0000 ( 15838 PWs)   bands (ev):

   -45.4468 -45.3974 -45.3590 -45.3339 -45.3236 -45.3099 -45.2808 -45.2640
   -45.2158 -45.2042 -45.1977 -45.1594 -45.1196 -45.0688 -45.0263 -44.9827
   -44.9511 -44.9266 -44.8884 -44.8681 -44.8366 -44.8016 -44.7716 -44.7665
   -44.7213 -44.7198 -44.6693 -44.6651 -44.6512 -44.6355 -44.6302 -44.6268
   -44.6074 -44.6041 -44.5959 -44.5394  -7.3336  -3.7999  -3.3837  -3.0714
    -3.0577  -3.0364  -2.9598  -2.9211  -2.8111  -2.7777  -2.7012  -2.6016
    -2.5437  -2.3480  -2.3148  -2.1556  -2.1330  -1.8849  -1.8555  -1.8100
    -1.6447  -1.6094  -1.5093  -1.4271  -1.3263  -1.1443  -1.0575  -1.0354
    -0.9416  -0.8869  -0.8303  -0.8050  -0.7704  -0.6245  -0.5125  -0.4612
    -0.3975  -0.2777  -0.2163  -0.1876  -0.1550  -0.0913   0.0850   0.2128
     0.3026   0.3724   0.4476   0.5314   0.5585   0.7187   0.7791   0.9190
     1.0372   1.0814   1.2171   1.4001   1.4560   1.5414   1.6654   1.7147
     1.7893   1.8396   1.9191   2.0182   2.0470   2.3037

          k = 0.0614-0.1064 0.0000 ( 15840 PWs)   bands (ev):

   -45.4383 -45.3459 -45.3369 -45.3206 -45.3192 -45.2899 -45.2855 -45.2788
   -45.2740 -45.2027 -45.1923 -45.1776 -45.0878 -45.0830 -45.0542 -44.9243
   -44.9236 -44.9154 -44.8815 -44.8663 -44.8586 -44.8476 -44.8328 -44.7250
   -44.7235 -44.7020 -44.6847 -44.6709 -44.6700 -44.6430 -44.6375 -44.6291
   -44.6083 -44.6049 -44.5957 -44.5392  -7.3287  -3.2126  -3.2079  -3.2059
    -2.7400  -2.7228  -2.7048  -2.6891  -2.6849  -2.5741  -2.4997  -2.4659
    -2.4549  -2.4259  -2.4212  -2.4156  -2.0016  -1.9676  -1.6580  -1.6099
    -1.6053  -1.5449  -1.5322  -1.5169  -1.4886  -1.4296  -1.2343  -1.2093
    -1.1930  -1.1912  -1.0800  -0.8948  -0.8816  -0.6987  -0.6887  -0.5973
    -0.5464  -0.4848  -0.4439  -0.4388  -0.4293  -0.0237   0.0827   0.1806
     0.4385   0.4530   0.4562   0.5450   0.6216   0.8209   0.8210   0.8634
     1.1518   1.4240   1.4403   1.4993   1.5424   1.6138   1.7023   1.7237
     1.7643   1.8025   1.8296   1.8436   1.8760   1.9692

          k = 0.0614-0.0709 0.0000 ( 15838 PWs)   bands (ev):

   -45.4469 -45.3969 -45.3592 -45.3341 -45.3233 -45.3099 -45.2807 -45.2639
   -45.2160 -45.2045 -45.1979 -45.1592 -45.1193 -45.0684 -45.0266 -44.9826
   -44.9513 -44.9267 -44.8884 -44.8680 -44.8367 -44.8015 -44.7716 -44.7664
   -44.7212 -44.7198 -44.6692 -44.6652 -44.6511 -44.6361 -44.6304 -44.6263
   -44.6076 -44.6038 -44.5961 -44.5394  -7.3336  -3.7999  -3.3837  -3.0713
    -3.0577  -3.0365  -2.9597  -2.9211  -2.8111  -2.7778  -2.7011  -2.6016
    -2.5437  -2.3480  -2.3148  -2.1556  -2.1329  -1.8849  -1.8555  -1.8100
    -1.6447  -1.6094  -1.5094  -1.4271  -1.3264  -1.1443  -1.0575  -1.0354
    -0.9417  -0.8868  -0.8303  -0.8051  -0.7705  -0.6245  -0.5125  -0.4612
    -0.3976  -0.2776  -0.2163  -0.1877  -0.1551  -0.0912   0.0851   0.2130
     0.3026   0.3723   0.4476   0.5314   0.5584   0.7187   0.7792   0.9191
     1.0372   1.0813   1.2171   1.4002   1.4559   1.5414   1.6654   1.7149
     1.7892   1.8396   1.9193   2.0183   2.0468   2.3037

          k =-0.0921 0.0532 0.0000 ( 15852 PWs)   bands (ev):

   -45.4481 -45.4016 -45.3738 -45.3396 -45.3214 -45.2837 -45.2592 -45.2421
   -45.2234 -45.2196 -45.1926 -45.1838 -45.1476 -45.0450 -45.0239 -44.9952
   -44.9486 -44.9462 -44.8369 -44.8275 -44.8226 -44.8104 -44.8016 -44.7860
   -44.7671 -44.7336 -44.6512 -44.6506 -44.6455 -44.6396 -44.6270 -44.6244
   -44.6081 -44.6033 -44.5971 -44.5395  -7.3335  -3.6775  -3.6714  -3.1176
    -3.0819  -3.0518  -3.0375  -2.8543  -2.7867  -2.6695  -2.6659  -2.5731
    -2.5651  -2.3372  -2.2812  -2.2128  -2.1709  -1.8410  -1.7797  -1.7026
    -1.6969  -1.6506  -1.6056  -1.3400  -1.2581  -1.0525  -1.0354  -0.8684
    -0.8619  -0.7512  -0.6960  -0.6591  -0.5423  -0.4887  -0.4749  -0.4614
    -0.4242  -0.3802  -0.3734  -0.3553  -0.3224   0.0001   0.0975   0.1299
     0.2351   0.3357   0.3565   0.5098   0.6151   0.6508   0.7383   0.7761
     0.8343   0.8917   1.0052   1.2112   1.2623   1.2928   1.3208   1.7359
     1.7749   1.9050   1.9770   2.1762   2.2433   2.3510

          k =-0.0921 0.0887 0.0000 ( 15838 PWs)   bands (ev):

   -45.4468 -45.3971 -45.3592 -45.3339 -45.3236 -45.3099 -45.2808 -45.2642
   -45.2154 -45.2039 -45.1978 -45.1605 -45.1190 -45.0686 -45.0264 -44.9825
   -44.9512 -44.9267 -44.8883 -44.8677 -44.8364 -44.8026 -44.7720 -44.7666
   -44.7206 -44.7197 -44.6692 -44.6652 -44.6511 -44.6358 -44.6304 -44.6265
   -44.6074 -44.6040 -44.5959 -44.5394  -7.3336  -3.7999  -3.3837  -3.0713
    -3.0577  -3.0364  -2.9598  -2.9210  -2.8110  -2.7779  -2.7011  -2.6015
    -2.5437  -2.3481  -2.3148  -2.1556  -2.1330  -1.8849  -1.8555  -1.8099
    -1.6446  -1.6094  -1.5094  -1.4271  -1.3264  -1.1443  -1.0575  -1.0354
    -0.9416  -0.8869  -0.8304  -0.8049  -0.7703  -0.6245  -0.5126  -0.4612
    -0.3975  -0.2778  -0.2163  -0.1874  -0.1553  -0.0912   0.0849   0.2126
     0.3028   0.3724   0.4477   0.5314   0.5585   0.7188   0.7790   0.9188
     1.0375   1.0812   1.2171   1.4002   1.4560   1.5412   1.6657   1.7148
     1.7891   1.8397   1.9193   2.0182   2.0468   2.3037

          k =-0.0921 0.1241 0.0000 ( 15838 PWs)   bands (ev):

   -45.4468 -45.3975 -45.3589 -45.3337 -45.3238 -45.3099 -45.2808 -45.2641
   -45.2154 -45.2039 -45.1976 -45.1601 -45.1195 -45.0688 -45.0262 -44.9826
   -44.9511 -44.9266 -44.8883 -44.8678 -44.8365 -44.8024 -44.7718 -44.7667
   -44.7208 -44.7198 -44.6693 -44.6651 -44.6512 -44.6354 -44.6302 -44.6269
   -44.6073 -44.6042 -44.5958 -44.5394  -7.3336  -3.7999  -3.3837  -3.0714
    -3.0576  -3.0364  -2.9598  -2.9211  -2.8111  -2.7778  -2.7012  -2.6015
    -2.5437  -2.3481  -2.3148  -2.1556  -2.1330  -1.8848  -1.8555  -1.8099
    -1.6446  -1.6094  -1.5093  -1.4271  -1.3263  -1.1443  -1.0575  -1.0354
    -0.9416  -0.8869  -0.8304  -0.8050  -0.7703  -0.6246  -0.5126  -0.4612
    -0.3975  -0.2777  -0.2164  -0.1875  -0.1551  -0.0913   0.0848   0.2127
     0.3027   0.3724   0.4477   0.5314   0.5585   0.7188   0.7791   0.9188
     1.0374   1.0812   1.2171   1.4002   1.4561   1.5413   1.6656   1.7147
     1.7892   1.8396   1.9192   2.0181   2.0470   2.3037

          k =-0.0921-0.0532 0.0000 ( 15852 PWs)   bands (ev):

   -45.4480 -45.4023 -45.3733 -45.3395 -45.3218 -45.2837 -45.2595 -45.2421
   -45.2228 -45.2197 -45.1923 -45.1834 -45.1485 -45.0457 -45.0232 -44.9953
   -44.9481 -44.9465 -44.8374 -44.8276 -44.8224 -44.8099 -44.8020 -44.7858
   -44.7670 -44.7341 -44.6511 -44.6508 -44.6458 -44.6389 -44.6266 -44.6249
   -44.6078 -44.6037 -44.5969 -44.5395  -7.3335  -3.6777  -3.6713  -3.1174
    -3.0821  -3.0521  -3.0372  -2.8542  -2.7869  -2.6693  -2.6661  -2.5728
    -2.5654  -2.3373  -2.2812  -2.2127  -2.1710  -1.8410  -1.7797  -1.7026
    -1.6967  -1.6504  -1.6057  -1.3401  -1.2579  -1.0525  -1.0354  -0.8683
    -0.8619  -0.7514  -0.6960  -0.6591  -0.5423  -0.4887  -0.4746  -0.4617
    -0.4241  -0.3802  -0.3735  -0.3552  -0.3224   0.0000   0.0973   0.1301
     0.2352   0.3358   0.3563   0.5098   0.6152   0.6507   0.7385   0.7762
     0.8342   0.8915   1.0053   1.2110   1.2625   1.2927   1.3209   1.7360
     1.7747   1.9052   1.9768   2.1760   2.2436   2.3511

     the Fermi energy is     1.5527 ev

!    total energy              =   -2077.63859786 Ry
     Harris-Foulkes estimate   =   -2077.63860491 Ry
     estimated scf accuracy    <       0.00000800 Ry

     The total energy is the sum of the following terms:

     one-electron contribution =  -19294.41280736 Ry
     hartree contribution      =    9688.89197343 Ry
     xc contribution           =    -375.30530046 Ry
     ewald contribution        =    7903.31297511 Ry
     electric field correction =       0.00013245 Ry
     smearing contrib. (-TS)   =      -0.12557103 Ry

     convergence has been achieved in  21 iterations
 
 BEEF-vdW xc energy contributions
           1 :   -326.775115803664     
           2 :    300.021687177344     
           3 :   -253.793640360914     
           4 :    199.610339693419     
           5 :   -149.033132063219     
           6 :    110.112515589520     
           7 :   -85.5793102030300     
           8 :    73.1679338660988     
           9 :   -67.6366003726588     
          10 :    63.4571998698221     
          11 :   -57.0178174522275     
          12 :    47.5427402598092     
          13 :   -36.6056049013665     
          14 :    26.7379822429696     
          15 :   -19.9285955962280     
          16 :    16.6932265758873     
          17 :   -16.0264125319889     
          18 :    16.1059889274644     
          19 :   -15.2903186926840     
          20 :    12.8766094921069     
          21 :   -9.27872932763324     
          22 :    5.61925561719460     
          23 :   -3.02823757759745     
          24 :    2.04067262305153     
          25 :   -2.37978505251596     
          26 :    3.18656445881362     
          27 :   -3.52576570414845     
          28 :    2.87920509736625     
          29 :   -1.37219960311307     
          30 :  -0.362360326943929     
          31 :   -32.4081327262678     
          32 :   -24.2975087561275     

     Forces acting on atoms (Ry/au):


     negative rho (up, down):  6.865E-01 0.000E+00
     atom    1 type  1   force =    -0.00087924   -0.00047168    0.00835520
     atom    2 type  1   force =     0.00088561   -0.00045060    0.00828145
     atom    3 type  1   force =     0.00000409    0.00096432    0.00819872
     atom    4 type  1   force =    -0.00001591   -0.00005986   -0.00493382
     atom    5 type  1   force =    -0.00000679    0.00000201    0.00149405
     atom    6 type  1   force =     0.00000517    0.00000635    0.00042718
     atom    7 type  1   force =     0.00004334   -0.00000617    0.00146332
     atom    8 type  1   force =    -0.00005558    0.00003898    0.00149920
     atom    9 type  1   force =     0.00001407    0.00005851    0.17229634
     atom   10 type  1   force =     0.00002021   -0.00177166   -0.00537692
     atom   11 type  1   force =    -0.00158347    0.00082400   -0.00538238
     atom   12 type  1   force =     0.00156359    0.00086483   -0.00537054
     atom   13 type  2   force =     0.00000490    0.00000097   -0.18095180

     Total force =     0.250530     Total SCF correction =     0.007829


     entering subroutine stress ...


     negative rho (up, down):  6.865E-01 0.000E+00
          total   stress  (Ry/bohr**3)                   (kbar)     P=  -39.95
  -0.00021659   0.00000004   0.00000001        -31.86      0.01      0.00
   0.00000004  -0.00021665   0.00000001          0.01    -31.87      0.00
   0.00000001   0.00000001  -0.00038154          0.00      0.00    -56.13

 !ASE

     Writing output data file calc.save
 
     init_run     :     11.80s CPU     17.79s WALL (       1 calls)
     electrons    :    562.01s CPU    822.36s WALL (       1 calls)
     forces       :      3.97s CPU      4.80s WALL (       1 calls)
     stress       :     11.61s CPU     12.93s WALL (       1 calls)

     Called by init_run:
     wfcinit      :      9.20s CPU     14.34s WALL (       1 calls)
     potinit      :      1.11s CPU      1.66s WALL (       1 calls)

     Called by electrons:
     c_bands      :    432.92s CPU    622.22s WALL (      21 calls)
     sum_band     :     69.11s CPU    106.98s WALL (      21 calls)
     v_of_rho     :     19.56s CPU     31.73s WALL (      22 calls)
     newd         :     13.16s CPU     13.77s WALL (      22 calls)
     mix_rho      :      0.78s CPU      1.26s WALL (      21 calls)
     vdW_energy   :      2.31s CPU      2.32s WALL (      58 calls)
     vdW_ffts     :     29.31s CPU     53.00s WALL (     118 calls)
     vdW_v        :      5.88s CPU      9.29s WALL (      58 calls)

     Called by c_bands:
     init_us_2    :      1.00s CPU      1.06s WALL (     900 calls)
     cegterg      :    421.66s CPU    609.81s WALL (     420 calls)

     Called by *egterg:
     h_psi        :    274.05s CPU    448.93s WALL (    1906 calls)
     s_psi        :     13.57s CPU     13.73s WALL (    1906 calls)
     g_psi        :      0.63s CPU      0.64s WALL (    1466 calls)
     cdiaghg      :     81.76s CPU     84.37s WALL (    1886 calls)

     Called by h_psi:
     add_vuspsi   :     13.79s CPU     13.85s WALL (    1906 calls)

     General routines
     calbec       :     29.96s CPU     36.63s WALL (    2366 calls)
     fft          :     45.47s CPU     81.08s WALL (    3555 calls)
     ffts         :      0.16s CPU      0.27s WALL (      43 calls)
     fftw         :    275.12s CPU    478.83s WALL (  258814 calls)
     interpolate  :      0.68s CPU      1.19s WALL (      43 calls)
     davcio       :      0.00s CPU      0.02s WALL (      20 calls)
 
     Parallel routines
     fft_scatter  :    288.56s CPU    525.61s WALL (  262412 calls)
 
     PWSCF        :  9m50.10s CPU    14m19.24s WALL

 
   This run was terminated on:   4: 3:53  18Jan2018            

=------------------------------------------------------------------------------=
   JOB DONE.
=------------------------------------------------------------------------------=
Job  /afs/slac/g/suncat/bin/suncat-tsmpirun -x LD_LIBRARY_PATH -wdir /scratch/qe842475_o54l9 pw.x -in pw.inp

TID   HOST_NAME   COMMAND_LINE            STATUS            TERMINATION_TIME
===== ========== ================  =======================  ===================
00000 suncat0273 pw.x -in pw.inp   Done                     01/18/2018 04:03:53
00001 suncat0273 pw.x -in pw.inp   Done                     01/18/2018 04:03:53
00002 suncat0273 pw.x -in pw.inp   Done                     01/18/2018 04:03:53
00003 suncat0273 pw.x -in pw.inp   Done                     01/18/2018 04:03:53
00004 suncat0273 pw.x -in pw.inp   Done                     01/18/2018 04:03:53
00005 suncat0273 pw.x -in pw.inp   Done                     01/18/2018 04:03:53
00006 suncat0273 pw.x -in pw.inp   Done                     01/18/2018 04:03:53
00007 suncat0273 pw.x -in pw.inp   Done                     01/18/2018 04:03:53
00008 suncat0268 pw.x -in pw.inp   Done                     01/18/2018 04:03:53
00009 suncat0268 pw.x -in pw.inp   Done                     01/18/2018 04:03:53
00010 suncat0268 pw.x -in pw.inp   Done                     01/18/2018 04:03:53
00011 suncat0268 pw.x -in pw.inp   Done                     01/18/2018 04:03:53
00012 suncat0268 pw.x -in pw.inp   Done                     01/18/2018 04:03:53
00013 suncat0268 pw.x -in pw.inp   Done                     01/18/2018 04:03:53
00014 suncat0268 pw.x -in pw.inp   Done                     01/18/2018 04:03:53
00015 suncat0268 pw.x -in pw.inp   Done                     01/18/2018 04:03:53
00016 suncat0266 pw.x -in pw.inp   Done                     01/18/2018 04:03:53
00017 suncat0266 pw.x -in pw.inp   Done                     01/18/2018 04:03:53
00018 suncat0266 pw.x -in pw.inp   Done                     01/18/2018 04:03:53
00019 suncat0266 pw.x -in pw.inp   Done                     01/18/2018 04:03:53
00020 suncat0266 pw.x -in pw.inp   Done                     01/18/2018 04:03:53
00021 suncat0266 pw.x -in pw.inp   Done                     01/18/2018 04:03:53
00022 suncat0266 pw.x -in pw.inp   Done                     01/18/2018 04:03:53
00023 suncat0266 pw.x -in pw.inp   Done                     01/18/2018 04:03:53
00024 suncat0233 pw.x -in pw.inp   Done                     01/18/2018 04:03:53
00025 suncat0233 pw.x -in pw.inp   Done                     01/18/2018 04:03:53
00026 suncat0233 pw.x -in pw.inp   Done                     01/18/2018 04:03:53
00027 suncat0233 pw.x -in pw.inp   Done                     01/18/2018 04:03:53
00028 suncat0233 pw.x -in pw.inp   Done                     01/18/2018 04:03:53
00029 suncat0233 pw.x -in pw.inp   Done                     01/18/2018 04:03:53
00030 suncat0233 pw.x -in pw.inp   Done                     01/18/2018 04:03:53
00031 suncat0233 pw.x -in pw.inp   Done                     01/18/2018 04:03:53

     Program PWSCF v.5.1rc2 (svn rev. 11289) starts on 18Jan2018 at  4: 3:59 

     This program is part of the open-source Quantum ESPRESSO suite
     for quantum simulation of materials; please cite
         "P. Giannozzi et al., J. Phys.:Condens. Matter 21 395502 (2009);
          URL http://www.quantum-espresso.org", 
     in publications or presentations arising from this work. More details at
     http://www.quantum-espresso.org/quote

     Parallel version (MPI), running on    32 processors
     R & G space division:  proc/nbgrp/npool/nimage =      32
     Reading input from pw.inp
     Message from routine read_cards :
     DEPRECATED: no units specified in CELL_PARAMETERS card

     Current dimensions of program PWSCF are:
     Max number of different atomic species (ntypx) = 10
     Max number of k-points (npk) =  40000
     Max angular momentum in pseudopotentials (lmaxx) =  3
     Presently stress not available with electric field


     **************************************************************************
     Initializing libbeef V0.1.1 with the BEEF-vdW functional.
     Citation: Wellendorff et al., PRB 85, 235149 (2012).
     **************************************************************************


     IMPORTANT: XC functional enforced from input :
     Exchange-correlation      = BEEF-VDW ( 1  4 27 13 2)
     Any further DFT definition will be discarded
     Please, verify this is what you really want


     Subspace diagonalization in iterative solution of the eigenvalue problem:
     a serial algorithm will be used

 
     Parallelization info
     --------------------
     sticks:   dense  smooth     PW     G-vecs:    dense   smooth      PW
     Min          83      33      9                15627     3935     617
     Max          84      34     10                15638     3974     644
     Sum        2677    1069    313               500285   126611   20281
 


     bravais-lattice index     =            0
     lattice parameter (alat)  =       1.8897  a.u.
     unit-cell volume          =    4204.8134 (a.u.)^3
     number of atoms/cell      =           13
     number of atomic types    =            2
     number of electrons       =       184.00
     number of Kohn-Sham states=          102
     kinetic-energy cutoff     =      36.7493  Ry
     charge density cutoff     =     367.4932  Ry
     convergence threshold     =      1.0E-05
     mixing beta               =       0.3000
     number of iterations used =           10  plain     mixing
     Exchange-correlation      = BEEF-VDW ( 1  4 27 13 2)
     nstep                     =           50


     celldm(1)=   1.889726  celldm(2)=   0.000000  celldm(3)=   0.000000
     celldm(4)=   0.000000  celldm(5)=   0.000000  celldm(6)=   0.000000

     crystal axes: (cart. coord. in units of alat)
               a(1) = (   5.426750   0.000000   0.000000 )  
               a(2) = (   2.713375   4.699703   0.000000 )  
               a(3) = (   0.000000   0.000000  24.430923 )  

     reciprocal axes: (cart. coord. in units 2 pi/alat)
               b(1) = (  0.184272 -0.106390  0.000000 )  
               b(2) = (  0.000000  0.212779  0.000000 )  
               b(3) = (  0.000000  0.000000  0.040932 )  


     PseudoPot. # 1 for Rh read from file:
     /afs/slac.stanford.edu/u/if/mamunm/psp/gbrv1.5pbe/Rh.UPF
     MD5 check sum: 761627e959a2e3a1f56b0b5fe687810e
     Pseudo is Ultrasoft + core correction, Zval = 15.0
     Generated by new atomic code, or converted to UPF format
     Using radial grid of  969 points,  7 beta functions with: 
                l(1) =   0
                l(2) =   0
                l(3) =   1
                l(4) =   1
                l(5) =   2
                l(6) =   2
                l(7) =   2
     Q(r) pseudized with  8 coefficients,  rinner =    1.200   1.200   1.200
                                                       1.200   1.200

     PseudoPot. # 2 for C  read from file:
     /afs/slac.stanford.edu/u/if/mamunm/psp/gbrv1.5pbe/C.UPF
     MD5 check sum: d1aef80898a10debaa0f26306b886e00
     Pseudo is Ultrasoft + core correction, Zval =  4.0
     Generated by new atomic code, or converted to UPF format
     Using radial grid of  721 points,  4 beta functions with: 
                l(1) =   0
                l(2) =   0
                l(3) =   1
                l(4) =   1
     Q(r) pseudized with  8 coefficients,  rinner =    1.100   1.100   1.100


     vdW kernel table read from file vdW_kernel_table
     MD5 check sum: 095c7af220d748ca6e76c0b4c6cfb241

     atomic species   valence    mass     pseudopotential
        Rh1           15.00   102.90550     Rh( 1.00)
        C1             4.00    12.01100     C ( 1.00)

     No symmetry found



   Cartesian axes

     site n.     atom                  positions (alat units)
         1           Rh1 tau(   1) = (   1.3566875   0.7832839  10.0000000  )
         2           Rh1 tau(   2) = (   4.0700625   0.7832839  10.0000000  )
         3           Rh1 tau(   3) = (   2.7133750   3.1331356  10.0000000  )
         4           Rh1 tau(   4) = (   5.4267500   3.1331356  10.0000000  )
         5           Rh1 tau(   5) = (   5.4267500   1.5665678  12.2154614  )
         6           Rh1 tau(   6) = (   2.7133750   1.5665678  12.2154614  )
         7           Rh1 tau(   7) = (   6.7834375   3.9164194  12.2154614  )
         8           Rh1 tau(   8) = (   4.0700625   3.9164194  12.2154614  )
         9           Rh1 tau(   9) = (   5.4267663   0.0000679  14.6309228  )
        10           Rh1 tau(  10) = (   5.4267734   4.6976468  14.4246813  )
        11           Rh1 tau(  11) = (   6.7815994   2.3508082  14.4246750  )
        12           Rh1 tau(  12) = (   4.0718775   2.3508556  14.4246887  )
        13           C1  tau(  13) = (   0.0000057   0.0000011  16.4008756  )

     number of k points=    20  Fermi-Dirac smearing, width (Ry)=  0.0110
                       cart. coord. in units 2pi/alat
        k(    1) = (   0.0000000   0.0000000   0.0000000), wk =   0.0555556
        k(    2) = (   0.0000000   0.0354632   0.0000000), wk =   0.1111111
        k(    3) = (   0.0000000   0.0709265   0.0000000), wk =   0.1111111
        k(    4) = (   0.0000000  -0.1063897   0.0000000), wk =   0.0555556
        k(    5) = (   0.0307121  -0.0177316   0.0000000), wk =   0.1111111
        k(    6) = (   0.0307121   0.0177316   0.0000000), wk =   0.1111111
        k(    7) = (   0.0307121   0.0531948   0.0000000), wk =   0.1111111
        k(    8) = (   0.0307121  -0.1241213   0.0000000), wk =   0.1111111
        k(    9) = (   0.0307121  -0.0886581   0.0000000), wk =   0.1111111
        k(   10) = (   0.0307121  -0.0531948   0.0000000), wk =   0.1111111
        k(   11) = (   0.0614241  -0.0354632   0.0000000), wk =   0.1111111
        k(   12) = (   0.0614241   0.0000000   0.0000000), wk =   0.1111111
        k(   13) = (   0.0614241   0.0354632   0.0000000), wk =   0.1111111
        k(   14) = (   0.0614241  -0.1418529   0.0000000), wk =   0.1111111
        k(   15) = (   0.0614241  -0.1063897   0.0000000), wk =   0.1111111
        k(   16) = (   0.0614241  -0.0709265   0.0000000), wk =   0.1111111
        k(   17) = (  -0.0921362   0.0531948   0.0000000), wk =   0.0555556
        k(   18) = (  -0.0921362   0.0886581   0.0000000), wk =   0.1111111
        k(   19) = (  -0.0921362   0.1241213   0.0000000), wk =   0.1111111
        k(   20) = (  -0.0921362  -0.0531948   0.0000000), wk =   0.0555556

     Dense  grid:   500285 G-vectors     FFT dimensions: (  64,  64, 288)

     Smooth grid:   126611 G-vectors     FFT dimensions: (  40,  40, 180)

     Largest allocated arrays     est. size (Mb)     dimensions
        Kohn-Sham Wavefunctions         0.83 Mb     (     535,  102)
        NL pseudopotentials             2.32 Mb     (     535,  284)
        Each V/rho on FFT grid          0.56 Mb     (   36864)
        Each G-vector array             0.12 Mb     (   15636)
        G-vector shells                 0.05 Mb     (    7022)
     Largest temporary arrays     est. size (Mb)     dimensions
        Auxiliary wavefunctions         3.33 Mb     (     535,  408)
        Each subspace H/S matrix        2.54 Mb     (     408,  408)
        Each <psi_i|beta_j> matrix      0.44 Mb     (     284,  102)
        Arrays for rho mixing           5.62 Mb     (   36864,   10)

     Initial potential from superposition of free atoms
     Check: negative starting charge=   -0.654256

     starting charge  177.99878, renormalised to  184.00000

     negative rho (up, down):  6.763E-01 0.000E+00


     ************************************************************************
     *
     * You are using vdW-DF for exchange-correlation in this calculation.
     * Please cite the following three references that made this development
     * possible:
     *
     *   M. Dion, H. Rydberg, E. Schroder, D. C. Langreth, and
     *   B. I. Lundqvist, Phys. Rev. Lett. 92, 246401 (2004).
     *
     *   T. Thonhauser, V. R. Cooper, S. Li, A. Puzder, P. Hyldgaard, and
     *   D. C. Langreth, Phys. Rev. B 76, 125112 (2007).
     *
     *   G. Roman-Perez and J. M. Soler, Phys. Rev. Lett. 103, 096102 (2009).
     *
     *
     * If you are using vdW-DF2, please also cite:
     *
     *   K. Lee, E. D. Murray, L. Kong, B. I. Lundqvist, and
     *   D. C. Langreth, Phys. Rev. B 82, 081101(R) (2010).
     *
     *
     * If you are calculating the stress with vdW-DF, please also cite:
     *
     *   R. Sabatini, E. Kucukbenli, B. Kolb, T. Thonhauser, and
     *   S. de Gironcoli, J. Phys.: Condens. Matter 24, 424209 (2012).
     *
     ************************************************************************

     Carrying out vdW-DF run using the following parameters:

     Nqs =      20    Nr_points =    1024   r_max =   100.000
     q_mesh =
               0.00001000     0.04494208     0.09755937     0.15916263
               0.23128650     0.31572767     0.41458969     0.53033537
               0.66584808     0.82450364     1.01025438     1.22772762
               1.48234092     1.78043706     2.12944203     2.53805004
               3.01644009     3.57652955     4.23227104     5.00000000

     Gradients computed in reciprocal space

     ************************************************************************


 
     Adding external electric field

     Computed dipole along edir(3) : 
        Dipole               -1.0625 Ry au,         -2.7005 Debye
        Dipole field         -0.0032 Ry au
 
        Potential amp.        0.2859 Ry
        Total length         45.0136 bohr
 
     Starting wfc are  148 randomized atomic wfcs

     total cpu time spent up to now is       17.9 secs

     per-process dynamical memory:    46.8 Mb

     Self-consistent Calculation

     iteration #  1     ecut=    36.75 Ry     beta=0.30
     Davidson diagonalization with overlap
     ethr =  1.00E-02,  avg # of iterations =  2.0

     negative rho (up, down):  6.892E-01 0.000E+00
 
     Adding external electric field

     Computed dipole along edir(3) : 
        Dipole               16.0673 Ry au,         40.8390 Debye
        Dipole field          0.0480 Ry au
 
        Potential amp.       -4.3229 Ry
        Total length         45.0136 bohr
 

     total cpu time spent up to now is       52.9 secs

     total energy              =   -2053.93277084 Ry
     Harris-Foulkes estimate   =   -2079.12772504 Ry
     estimated scf accuracy    <      52.28094026 Ry

     iteration #  2     ecut=    36.75 Ry     beta=0.30
     Davidson diagonalization with overlap
     ethr =  1.00E-02,  avg # of iterations = 12.7

     negative rho (up, down):  6.923E-01 0.000E+00
 
     Adding external electric field

     Computed dipole along edir(3) : 
        Dipole               -2.2296 Ry au,         -5.6672 Debye
        Dipole field         -0.0067 Ry au
 
        Potential amp.        0.5999 Ry
        Total length         45.0136 bohr
 

     total cpu time spent up to now is      141.4 secs

     total energy              =   -2011.63832219 Ry
     Harris-Foulkes estimate   =   -2237.07856193 Ry
     estimated scf accuracy    <    5911.70422927 Ry

     iteration #  3     ecut=    36.75 Ry     beta=0.30
     Davidson diagonalization with overlap
     ethr =  1.00E-02,  avg # of iterations =  6.8

     negative rho (up, down):  6.931E-01 0.000E+00
 
     Adding external electric field

     Computed dipole along edir(3) : 
        Dipole               -1.4397 Ry au,         -3.6593 Debye
        Dipole field         -0.0043 Ry au
 
        Potential amp.        0.3874 Ry
        Total length         45.0136 bohr
 

     total cpu time spent up to now is      203.3 secs

     total energy              =   -2062.19266923 Ry
     Harris-Foulkes estimate   =   -2109.45000882 Ry
     estimated scf accuracy    <     952.06421734 Ry

     iteration #  4     ecut=    36.75 Ry     beta=0.30
     Davidson diagonalization with overlap
     ethr =  1.00E-02,  avg # of iterations =  5.5

     negative rho (up, down):  6.911E-01 0.000E+00
 
     Adding external electric field

     Computed dipole along edir(3) : 
        Dipole               -0.2522 Ry au,         -0.6411 Debye
        Dipole field         -0.0008 Ry au
 
        Potential amp.        0.0679 Ry
        Total length         45.0136 bohr
 

     total cpu time spent up to now is      256.5 secs

     total energy              =   -2076.25756074 Ry
     Harris-Foulkes estimate   =   -2080.27730078 Ry
     estimated scf accuracy    <      28.02667437 Ry

     iteration #  5     ecut=    36.75 Ry     beta=0.30
     Davidson diagonalization with overlap
     ethr =  1.00E-02,  avg # of iterations =  2.0

     negative rho (up, down):  6.878E-01 0.000E+00
 
     Adding external electric field

     Computed dipole along edir(3) : 
        Dipole               -0.8718 Ry au,         -2.2158 Debye
        Dipole field         -0.0026 Ry au
 
        Potential amp.        0.2345 Ry
        Total length         45.0136 bohr
 

     total cpu time spent up to now is      286.5 secs

     total energy              =   -2077.11772264 Ry
     Harris-Foulkes estimate   =   -2078.15826036 Ry
     estimated scf accuracy    <      18.57689439 Ry

     iteration #  6     ecut=    36.75 Ry     beta=0.30
     Davidson diagonalization with overlap
     ethr =  1.00E-02,  avg # of iterations =  1.1

     negative rho (up, down):  6.891E-01 0.000E+00
 
     Adding external electric field

     Computed dipole along edir(3) : 
        Dipole               -0.9782 Ry au,         -2.4864 Debye
        Dipole field         -0.0029 Ry au
 
        Potential amp.        0.2632 Ry
        Total length         45.0136 bohr
 

     total cpu time spent up to now is      315.6 secs

     total energy              =   -2077.63986906 Ry
     Harris-Foulkes estimate   =   -2077.78959790 Ry
     estimated scf accuracy    <       2.32614259 Ry

     iteration #  7     ecut=    36.75 Ry     beta=0.30
     Davidson diagonalization with overlap
     ethr =  1.26E-03,  avg # of iterations =  2.8

     negative rho (up, down):  6.890E-01 0.000E+00
 
     Adding external electric field

     Computed dipole along edir(3) : 
        Dipole               -0.8961 Ry au,         -2.2777 Debye
        Dipole field         -0.0027 Ry au
 
        Potential amp.        0.2411 Ry
        Total length         45.0136 bohr
 

     total cpu time spent up to now is      346.6 secs

     total energy              =   -2077.72221439 Ry
     Harris-Foulkes estimate   =   -2077.81033836 Ry
     estimated scf accuracy    <       0.74631118 Ry

     iteration #  8     ecut=    36.75 Ry     beta=0.30
     Davidson diagonalization with overlap
     ethr =  4.06E-04,  avg # of iterations =  4.3

     negative rho (up, down):  6.894E-01 0.000E+00
 
     Adding external electric field

     Computed dipole along edir(3) : 
        Dipole               -0.8331 Ry au,         -2.1176 Debye
        Dipole field         -0.0025 Ry au
 
        Potential amp.        0.2242 Ry
        Total length         45.0136 bohr
 

     total cpu time spent up to now is      380.6 secs

     total energy              =   -2077.74028865 Ry
     Harris-Foulkes estimate   =   -2077.79506195 Ry
     estimated scf accuracy    <       1.21942396 Ry

     iteration #  9     ecut=    36.75 Ry     beta=0.30
     Davidson diagonalization with overlap
     ethr =  4.06E-04,  avg # of iterations =  1.0

     negative rho (up, down):  6.892E-01 0.000E+00
 
     Adding external electric field

     Computed dipole along edir(3) : 
        Dipole               -0.8008 Ry au,         -2.0355 Debye
        Dipole field         -0.0024 Ry au
 
        Potential amp.        0.2155 Ry
        Total length         45.0136 bohr
 

     total cpu time spent up to now is      409.3 secs

     total energy              =   -2077.77114712 Ry
     Harris-Foulkes estimate   =   -2077.77929082 Ry
     estimated scf accuracy    <       0.25727526 Ry

     iteration # 10     ecut=    36.75 Ry     beta=0.30
     Davidson diagonalization with overlap
     ethr =  1.40E-04,  avg # of iterations =  1.3

     negative rho (up, down):  6.882E-01 0.000E+00
 
     Adding external electric field

     Computed dipole along edir(3) : 
        Dipole               -0.6912 Ry au,         -1.7569 Debye
        Dipole field         -0.0021 Ry au
 
        Potential amp.        0.1860 Ry
        Total length         45.0136 bohr
 

     total cpu time spent up to now is      438.6 secs

     total energy              =   -2077.76423789 Ry
     Harris-Foulkes estimate   =   -2077.77729317 Ry
     estimated scf accuracy    <       0.12834132 Ry

     iteration # 11     ecut=    36.75 Ry     beta=0.30
     Davidson diagonalization with overlap
     ethr =  6.98E-05,  avg # of iterations =  1.5

     negative rho (up, down):  6.882E-01 0.000E+00
 
     Adding external electric field

     Computed dipole along edir(3) : 
        Dipole               -0.6661 Ry au,         -1.6929 Debye
        Dipole field         -0.0020 Ry au
 
        Potential amp.        0.1792 Ry
        Total length         45.0136 bohr
 

     total cpu time spent up to now is      468.0 secs

     total energy              =   -2077.76893306 Ry
     Harris-Foulkes estimate   =   -2077.77914002 Ry
     estimated scf accuracy    <       0.66089901 Ry

     iteration # 12     ecut=    36.75 Ry     beta=0.30
     Davidson diagonalization with overlap
     ethr =  6.98E-05,  avg # of iterations =  1.8

     negative rho (up, down):  6.885E-01 0.000E+00
 
     Adding external electric field

     Computed dipole along edir(3) : 
        Dipole               -0.6817 Ry au,         -1.7327 Debye
        Dipole field         -0.0020 Ry au
 
        Potential amp.        0.1834 Ry
        Total length         45.0136 bohr
 

     total cpu time spent up to now is      498.2 secs

     total energy              =   -2077.77133146 Ry
     Harris-Foulkes estimate   =   -2077.77372524 Ry
     estimated scf accuracy    <       0.07696658 Ry

     iteration # 13     ecut=    36.75 Ry     beta=0.30
     Davidson diagonalization with overlap
     ethr =  4.18E-05,  avg # of iterations =  1.2

     negative rho (up, down):  6.881E-01 0.000E+00
 
     Adding external electric field

     Computed dipole along edir(3) : 
        Dipole               -0.4678 Ry au,         -1.1891 Debye
        Dipole field         -0.0014 Ry au
 
        Potential amp.        0.1259 Ry
        Total length         45.0136 bohr
 

     total cpu time spent up to now is      527.3 secs

     total energy              =   -2077.76388204 Ry
     Harris-Foulkes estimate   =   -2077.77617581 Ry
     estimated scf accuracy    <       0.13134753 Ry

     iteration # 14     ecut=    36.75 Ry     beta=0.30
     Davidson diagonalization with overlap
     ethr =  4.18E-05,  avg # of iterations =  1.9

     negative rho (up, down):  6.884E-01 0.000E+00
 
     Adding external electric field

     Computed dipole along edir(3) : 
        Dipole               -0.4049 Ry au,         -1.0292 Debye
        Dipole field         -0.0012 Ry au
 
        Potential amp.        0.1089 Ry
        Total length         45.0136 bohr
 

     total cpu time spent up to now is      557.4 secs

     total energy              =   -2077.76680895 Ry
     Harris-Foulkes estimate   =   -2077.77165309 Ry
     estimated scf accuracy    <       0.13494536 Ry

     iteration # 15     ecut=    36.75 Ry     beta=0.30
     Davidson diagonalization with overlap
     ethr =  4.18E-05,  avg # of iterations =  1.4

     negative rho (up, down):  6.886E-01 0.000E+00
 
     Adding external electric field

     Computed dipole along edir(3) : 
        Dipole               -0.2645 Ry au,         -0.6723 Debye
        Dipole field         -0.0008 Ry au
 
        Potential amp.        0.0712 Ry
        Total length         45.0136 bohr
 

     total cpu time spent up to now is      587.1 secs

     total energy              =   -2077.76811031 Ry
     Harris-Foulkes estimate   =   -2077.76968178 Ry
     estimated scf accuracy    <       0.00661675 Ry

     iteration # 16     ecut=    36.75 Ry     beta=0.30
     Davidson diagonalization with overlap
     ethr =  3.60E-06,  avg # of iterations =  4.8

     negative rho (up, down):  6.887E-01 0.000E+00
 
     Adding external electric field

     Computed dipole along edir(3) : 
        Dipole               -0.1972 Ry au,         -0.5011 Debye
        Dipole field         -0.0006 Ry au
 
        Potential amp.        0.0530 Ry
        Total length         45.0136 bohr
 

     total cpu time spent up to now is      621.1 secs

     total energy              =   -2077.76860842 Ry
     Harris-Foulkes estimate   =   -2077.76884211 Ry
     estimated scf accuracy    <       0.00134631 Ry

     iteration # 17     ecut=    36.75 Ry     beta=0.30
     Davidson diagonalization with overlap
     ethr =  7.32E-07,  avg # of iterations =  4.0

     negative rho (up, down):  6.887E-01 0.000E+00
 
     Adding external electric field

     Computed dipole along edir(3) : 
        Dipole               -0.1850 Ry au,         -0.4703 Debye
        Dipole field         -0.0006 Ry au
 
        Potential amp.        0.0498 Ry
        Total length         45.0136 bohr
 

     total cpu time spent up to now is      654.9 secs

     total energy              =   -2077.76870552 Ry
     Harris-Foulkes estimate   =   -2077.76880827 Ry
     estimated scf accuracy    <       0.00065178 Ry

     iteration # 18     ecut=    36.75 Ry     beta=0.30
     Davidson diagonalization with overlap
     ethr =  3.54E-07,  avg # of iterations =  1.4

     negative rho (up, down):  6.887E-01 0.000E+00
 
     Adding external electric field

     Computed dipole along edir(3) : 
        Dipole               -0.1713 Ry au,         -0.4354 Debye
        Dipole field         -0.0005 Ry au
 
        Potential amp.        0.0461 Ry
        Total length         45.0136 bohr
 

     total cpu time spent up to now is      684.0 secs

     total energy              =   -2077.76878214 Ry
     Harris-Foulkes estimate   =   -2077.76878181 Ry
     estimated scf accuracy    <       0.00005569 Ry

     iteration # 19     ecut=    36.75 Ry     beta=0.30
     Davidson diagonalization with overlap
     ethr =  3.03E-08,  avg # of iterations =  4.0

     negative rho (up, down):  6.887E-01 0.000E+00
 
     Adding external electric field

     Computed dipole along edir(3) : 
        Dipole               -0.1676 Ry au,         -0.4259 Debye
        Dipole field         -0.0005 Ry au
[...]

   -46.4716 -45.5410 -45.5294 -45.3419 -45.3103 -45.2632 -45.2352 -45.1079
   -45.0968 -45.0916 -45.0506 -44.9884 -44.9734 -44.9335 -44.8972 -44.8873
   -44.8649 -44.8586 -44.8166 -44.7569 -44.7118 -44.6716 -44.6158 -44.6017
   -44.5927 -44.5777 -44.5720 -44.5693 -44.5513 -44.5346 -44.5306 -44.5123
   -44.5101 -44.5071 -44.5018 -44.4810  -8.4377  -4.3439  -3.4960  -3.4446
    -3.3601  -3.2673  -3.1852  -3.1440  -3.1199  -3.0721  -3.0088  -2.9541
    -2.9114  -2.6088  -2.5506  -2.4897  -2.4178  -2.2843  -2.0341  -1.8108
    -1.5886  -1.4903  -1.3683  -1.3344  -1.1726  -1.1003  -0.9705  -0.9046
    -0.8610  -0.7701  -0.6923  -0.5970  -0.5492  -0.4915  -0.4294  -0.2560
    -0.1561   0.0245   0.1663   0.1860   0.3047   0.3396   0.4036   0.5730
     0.6586   0.7496   0.7686   0.8573   0.9110   1.0363   1.2940   1.3100
     1.4067   1.4446   1.5761   1.6293   1.7781   1.8547   1.8942   1.9042
     2.0728   2.1436   2.2510   2.6534   2.7405   2.8618

          k = 0.0614-0.0355 0.0000 ( 15819 PWs)   bands (ev):

   -46.4716 -45.5404 -45.5228 -45.3327 -45.2886 -45.2587 -45.2183 -45.1116
   -45.0919 -45.0892 -45.0499 -45.0316 -44.9507 -44.9286 -44.9125 -44.8817
   -44.8621 -44.8317 -44.8171 -44.7532 -44.7058 -44.6650 -44.6523 -44.6295
   -44.6037 -44.5995 -44.5686 -44.5665 -44.5424 -44.5372 -44.5262 -44.5144
   -44.5096 -44.5089 -44.5077 -44.4806  -8.4350  -4.1640  -3.5029  -3.3146
    -3.2942  -3.1674  -3.1249  -3.0233  -3.0043  -2.9248  -2.9030  -2.8689
    -2.8034  -2.6043  -2.4761  -2.3801  -2.2320  -2.1929  -2.0496  -1.7894
    -1.6728  -1.5181  -1.4684  -1.3349  -1.1345  -1.1056  -1.0713  -0.8761
    -0.8631  -0.7880  -0.7357  -0.5399  -0.5307  -0.4990  -0.3841  -0.3742
    -0.1628   0.0209   0.0525   0.1165   0.1736   0.1992   0.2992   0.4028
     0.4718   0.6082   0.6106   0.6359   0.8821   1.0392   1.1995   1.2063
     1.3325   1.3357   1.3632   1.4621   1.5988   1.6518   1.7177   1.9286
     1.9683   2.1235   2.1532   2.2362   2.3929   3.0345

          k = 0.0614 0.0000 0.0000 ( 15818 PWs)   bands (ev):

   -46.4716 -45.5410 -45.5294 -45.3424 -45.3100 -45.2632 -45.2350 -45.1087
   -45.0973 -45.0900 -45.0495 -44.9892 -44.9739 -44.9334 -44.8976 -44.8874
   -44.8650 -44.8589 -44.8158 -44.7570 -44.7117 -44.6716 -44.6158 -44.6019
   -44.5926 -44.5777 -44.5720 -44.5693 -44.5513 -44.5347 -44.5305 -44.5124
   -44.5099 -44.5071 -44.5018 -44.4810  -8.4377  -4.3439  -3.4960  -3.4449
    -3.3601  -3.2672  -3.1850  -3.1443  -3.1200  -3.0719  -3.0089  -2.9540
    -2.9115  -2.6088  -2.5506  -2.4898  -2.4178  -2.2842  -2.0341  -1.8108
    -1.5884  -1.4905  -1.3683  -1.3343  -1.1725  -1.1003  -0.9703  -0.9046
    -0.8610  -0.7701  -0.6924  -0.5971  -0.5494  -0.4915  -0.4294  -0.2560
    -0.1560   0.0245   0.1663   0.1860   0.3048   0.3396   0.4037   0.5731
     0.6585   0.7496   0.7687   0.8572   0.9110   1.0362   1.2943   1.3099
     1.4067   1.4448   1.5762   1.6292   1.7781   1.8546   1.8942   1.9043
     2.0726   2.1436   2.2513   2.6534   2.7406   2.8618

          k = 0.0614 0.0355 0.0000 ( 15819 PWs)   bands (ev):

   -46.4716 -45.5404 -45.5228 -45.3332 -45.2881 -45.2588 -45.2182 -45.1123
   -45.0913 -45.0889 -45.0499 -45.0312 -44.9514 -44.9289 -44.9129 -44.8816
   -44.8622 -44.8317 -44.8166 -44.7531 -44.7057 -44.6649 -44.6524 -44.6295
   -44.6037 -44.5992 -44.5686 -44.5665 -44.5427 -44.5371 -44.5264 -44.5145
   -44.5097 -44.5088 -44.5077 -44.4806  -8.4350  -4.1640  -3.5029  -3.3147
    -3.2943  -3.1674  -3.1248  -3.0231  -3.0046  -2.9247  -2.9029  -2.8690
    -2.8034  -2.6044  -2.4761  -2.3801  -2.2320  -2.1928  -2.0496  -1.7895
    -1.6727  -1.5181  -1.4684  -1.3348  -1.1343  -1.1057  -1.0713  -0.8761
    -0.8629  -0.7881  -0.7357  -0.5403  -0.5307  -0.4987  -0.3842  -0.3743
    -0.1628   0.0209   0.0526   0.1165   0.1737   0.1992   0.2992   0.4028
     0.4719   0.6082   0.6106   0.6358   0.8820   1.0391   1.1994   1.2063
     1.3325   1.3357   1.3633   1.4621   1.5988   1.6518   1.7177   1.9285
     1.9684   2.1234   2.1530   2.2361   2.3931   3.0345

          k = 0.0614-0.1419 0.0000 ( 15838 PWs)   bands (ev):

   -46.4717 -45.5324 -45.5166 -45.2981 -45.2520 -45.2329 -45.1856 -45.1409
   -45.1052 -45.0842 -45.0685 -45.0319 -44.9653 -44.9475 -44.8859 -44.8618
   -44.8355 -44.8179 -44.7854 -44.7625 -44.7343 -44.6891 -44.6707 -44.6630
   -44.6236 -44.6075 -44.5685 -44.5630 -44.5559 -44.5376 -44.5332 -44.5267
   -44.5149 -44.5141 -44.5090 -44.4795  -8.4296  -3.6758  -3.3120  -3.1927
    -3.0656  -2.9242  -2.8678  -2.8304  -2.7720  -2.7200  -2.6396  -2.5437
    -2.4791  -2.4191  -2.2854  -2.2184  -2.1355  -2.0333  -1.9566  -1.8733
    -1.6949  -1.6102  -1.5600  -1.4542  -1.3899  -1.2536  -1.1911  -1.0378
    -0.9963  -0.9348  -0.7682  -0.7536  -0.6832  -0.5473  -0.4952  -0.4267
    -0.3684  -0.2963  -0.1897  -0.1085  -0.0738   0.0002   0.1322   0.2311
     0.3151   0.4101   0.4994   0.5860   0.6937   0.7837   0.9377   0.9840
     1.1130   1.2190   1.3268   1.4720   1.5822   1.6928   1.7745   1.8492
     1.8695   1.9746   2.0421   2.1875   2.2269   2.8869

          k = 0.0614-0.1064 0.0000 ( 15840 PWs)   bands (ev):

   -46.4718 -45.5211 -45.5210 -45.2486 -45.2399 -45.2371 -45.1542 -45.1515
   -45.1480 -45.0803 -45.0604 -45.0493 -44.9630 -44.9553 -44.8683 -44.8286
   -44.8216 -44.8141 -44.7774 -44.7634 -44.7542 -44.7460 -44.7055 -44.6127
   -44.6121 -44.6053 -44.5800 -44.5785 -44.5736 -44.5452 -44.5367 -44.5345
   -44.5159 -44.5116 -44.5109 -44.4790  -8.4270  -3.2250  -3.2187  -3.0615
    -2.8917  -2.8755  -2.6284  -2.6005  -2.5809  -2.4835  -2.4500  -2.4458
    -2.3842  -2.3198  -2.2697  -2.2456  -2.1244  -2.0399  -2.0182  -1.7911
    -1.7316  -1.5978  -1.5747  -1.4741  -1.4501  -1.3867  -1.2420  -1.1343
    -1.1173  -1.1170  -1.0665  -0.9728  -0.9504  -0.9251  -0.6210  -0.5903
    -0.5469  -0.4143  -0.3594  -0.3167  -0.2583   0.0191   0.0516   0.2256
     0.3928   0.4965   0.5575   0.6523   0.8411   0.9194   0.9435   0.9936
     1.1924   1.4474   1.4775   1.6070   1.6313   1.6426   1.8018   1.8669
     1.8723   1.8941   1.9586   1.9936   2.2019   2.2157

          k = 0.0614-0.0709 0.0000 ( 15838 PWs)   bands (ev):

   -46.4717 -45.5324 -45.5166 -45.2977 -45.2519 -45.2332 -45.1858 -45.1409
   -45.1052 -45.0844 -45.0689 -45.0318 -44.9646 -44.9471 -44.8858 -44.8619
   -44.8356 -44.8180 -44.7854 -44.7626 -44.7343 -44.6891 -44.6707 -44.6632
   -44.6236 -44.6076 -44.5685 -44.5627 -44.5559 -44.5377 -44.5332 -44.5266
   -44.5147 -44.5142 -44.5091 -44.4795  -8.4296  -3.6758  -3.3120  -3.1927
    -3.0655  -2.9241  -2.8676  -2.8303  -2.7720  -2.7201  -2.6394  -2.5436
    -2.4791  -2.4192  -2.2854  -2.2185  -2.1355  -2.0332  -1.9568  -1.8733
    -1.6949  -1.6103  -1.5599  -1.4543  -1.3899  -1.2535  -1.1911  -1.0377
    -0.9963  -0.9348  -0.7682  -0.7536  -0.6833  -0.5474  -0.4953  -0.4266
    -0.3685  -0.2963  -0.1897  -0.1086  -0.0738   0.0002   0.1322   0.2310
     0.3152   0.4101   0.4993   0.5860   0.6937   0.7837   0.9377   0.9840
     1.1131   1.2190   1.3268   1.4719   1.5822   1.6928   1.7744   1.8492
     1.8695   1.9747   2.0423   2.1875   2.2267   2.8869

          k =-0.0921 0.0532 0.0000 ( 15852 PWs)   bands (ev):

   -46.4718 -45.5363 -45.5125 -45.3076 -45.2518 -45.2290 -45.1700 -45.1268
   -45.1210 -45.0895 -45.0532 -45.0510 -44.9792 -44.9418 -44.8940 -44.8654
   -44.8364 -44.8188 -44.7437 -44.7268 -44.7166 -44.6975 -44.6885 -44.6776
   -44.6771 -44.6303 -44.5545 -44.5454 -44.5443 -44.5377 -44.5360 -44.5194
   -44.5154 -44.5150 -44.5122 -44.4797  -8.4296  -3.5939  -3.5132  -3.1549
    -3.0978  -2.9751  -2.9282  -2.8626  -2.8335  -2.6440  -2.5625  -2.5458
    -2.4864  -2.4100  -2.3289  -2.1507  -2.1276  -1.9951  -1.8649  -1.8352
    -1.6568  -1.5761  -1.5637  -1.5004  -1.4638  -1.2562  -1.1222  -1.0291
    -0.9269  -0.6938  -0.6351  -0.5351  -0.5181  -0.4513  -0.4428  -0.3984
    -0.3458  -0.3106  -0.3031  -0.2453  -0.2078  -0.0526   0.1298   0.2427
     0.2903   0.3483   0.4933   0.5579   0.6276   0.6933   0.8205   0.8425
     0.9130   1.0076   1.1020   1.3679   1.3942   1.5232   1.6053   1.7527
     1.9034   1.9580   2.1331   2.2173   2.4075   3.2539

          k =-0.0921 0.0887 0.0000 ( 15838 PWs)   bands (ev):

   -46.4717 -45.5324 -45.5166 -45.2978 -45.2519 -45.2335 -45.1857 -45.1400
   -45.1054 -45.0845 -45.0677 -45.0334 -44.9648 -44.9471 -44.8858 -44.8619
   -44.8355 -44.8180 -44.7854 -44.7626 -44.7344 -44.6892 -44.6707 -44.6632
   -44.6236 -44.6076 -44.5685 -44.5627 -44.5559 -44.5377 -44.5331 -44.5267
   -44.5147 -44.5140 -44.5092 -44.4795  -8.4296  -3.6758  -3.3120  -3.1928
    -3.0655  -2.9242  -2.8675  -2.8305  -2.7719  -2.7201  -2.6396  -2.5436
    -2.4793  -2.4191  -2.2853  -2.2184  -2.1355  -2.0331  -1.9567  -1.8733
    -1.6949  -1.6102  -1.5598  -1.4543  -1.3900  -1.2537  -1.1911  -1.0377
    -0.9965  -0.9346  -0.7682  -0.7536  -0.6833  -0.5474  -0.4952  -0.4267
    -0.3685  -0.2963  -0.1897  -0.1086  -0.0738   0.0003   0.1321   0.2308
     0.3151   0.4100   0.4997   0.5860   0.6937   0.7838   0.9376   0.9839
     1.1133   1.2190   1.3268   1.4719   1.5822   1.6927   1.7746   1.8493
     1.8695   1.9747   2.0423   2.1873   2.2268   2.8869

          k =-0.0921 0.1241 0.0000 ( 15838 PWs)   bands (ev):

   -46.4717 -45.5324 -45.5166 -45.2982 -45.2520 -45.2331 -45.1855 -45.1405
   -45.1053 -45.0843 -45.0678 -45.0327 -44.9654 -44.9475 -44.8859 -44.8618
   -44.8354 -44.8179 -44.7854 -44.7624 -44.7344 -44.6893 -44.6708 -44.6631
   -44.6236 -44.6072 -44.5685 -44.5630 -44.5559 -44.5375 -44.5331 -44.5268
   -44.5147 -44.5141 -44.5091 -44.4795  -8.4296  -3.6758  -3.3120  -3.1927
    -3.0656  -2.9243  -2.8677  -2.8304  -2.7720  -2.7200  -2.6396  -2.5438
    -2.4791  -2.4191  -2.2853  -2.2184  -2.1355  -2.0332  -1.9566  -1.8733
    -1.6949  -1.6101  -1.5600  -1.4542  -1.3900  -1.2537  -1.1910  -1.0378
    -0.9963  -0.9347  -0.7682  -0.7536  -0.6832  -0.5473  -0.4951  -0.4267
    -0.3685  -0.2962  -0.1897  -0.1085  -0.0738   0.0002   0.1320   0.2309
     0.3151   0.4101   0.4996   0.5860   0.6938   0.7837   0.9376   0.9839
     1.1131   1.2190   1.3269   1.4720   1.5823   1.6928   1.7746   1.8492
     1.8695   1.9746   2.0421   2.1874   2.2270   2.8868

          k =-0.0921-0.0532 0.0000 ( 15852 PWs)   bands (ev):

   -46.4718 -45.5363 -45.5125 -45.3082 -45.2518 -45.2284 -45.1700 -45.1269
   -45.1214 -45.0890 -45.0523 -45.0509 -44.9803 -44.9426 -44.8941 -44.8652
   -44.8366 -44.8184 -44.7433 -44.7267 -44.7167 -44.6974 -44.6887 -44.6777
   -44.6773 -44.6297 -44.5546 -44.5457 -44.5440 -44.5377 -44.5360 -44.5196
   -44.5155 -44.5151 -44.5119 -44.4797  -8.4296  -3.5942  -3.5130  -3.1550
    -3.0981  -2.9751  -2.9279  -2.8629  -2.8337  -2.6441  -2.5625  -2.5457
    -2.4867  -2.4099  -2.3286  -2.1507  -2.1275  -1.9954  -1.8647  -1.8351
    -1.6567  -1.5759  -1.5635  -1.5004  -1.4639  -1.2565  -1.1223  -1.0292
    -0.9270  -0.6937  -0.6349  -0.5352  -0.5177  -0.4513  -0.4427  -0.3989
    -0.3458  -0.3106  -0.3031  -0.2453  -0.2079  -0.0526   0.1298   0.2429
     0.2902   0.3483   0.4934   0.5579   0.6277   0.6935   0.8204   0.8425
     0.9130   1.0074   1.1019   1.3679   1.3942   1.5232   1.6053   1.7528
     1.9034   1.9581   2.1329   2.2170   2.4077   3.2539

     the Fermi energy is     1.6559 ev

!    total energy              =   -2077.78219734 Ry
     Harris-Foulkes estimate   =   -2077.78219688 Ry
     estimated scf accuracy    <       0.00000938 Ry

     The total energy is the sum of the following terms:

     one-electron contribution =  -19180.29779237 Ry
     hartree contribution      =    9631.90947419 Ry
     xc contribution           =    -375.58817267 Ry
     ewald contribution        =    7846.31468865 Ry
     electric field correction =       0.00006751 Ry
     smearing contrib. (-TS)   =      -0.12046267 Ry

     convergence has been achieved in  21 iterations
 
 BEEF-vdW xc energy contributions
           1 :   -327.047659503660     
           2 :    300.312257597067     
           3 :   -254.112186007944     
           4 :    199.946176050124     
           5 :   -149.354889063932     
           6 :    110.380786439919     
           7 :   -85.7588597254136     
           8 :    73.2357670120995     
           9 :   -67.5890500261073     
          10 :    63.3169764798603     
          11 :   -56.8354115879450     
          12 :    47.3840494957711     
          13 :   -36.5267101519538     
          14 :    26.7600821439354     
          15 :   -20.0270988360291     
          16 :    16.8078069524956     
          17 :   -16.0904775135594     
          18 :    16.0817609222970     
          19 :   -15.1886573335664     
          20 :    12.7496149159603     
          21 :   -9.18985337200814     
          22 :    5.60803650472957     
          23 :   -3.08996871003478     
          24 :    2.13301520108865     
          25 :   -2.45127531524662     
          26 :    3.20745366400530     
          27 :   -3.50284445992480     
          28 :    2.84876219140739     
          29 :   -1.37589279712296     
          30 :  -0.305956821906705     
          31 :   -32.4242204718353     
          32 :   -24.3166701255068     

     Forces acting on atoms (Ry/au):


     negative rho (up, down):  6.952E-01 0.000E+00
     atom    1 type  1   force =    -0.00052083   -0.00031555    0.00817807
     atom    2 type  1   force =     0.00051700   -0.00031827    0.00806164
     atom    3 type  1   force =    -0.00000571    0.00059776    0.00806111
     atom    4 type  1   force =     0.00000842    0.00000661   -0.00201513
     atom    5 type  1   force =    -0.00000733   -0.01254673   -0.00435081
     atom    6 type  1   force =     0.00000214   -0.00001316   -0.01118676
     atom    7 type  1   force =     0.01093975    0.00632116   -0.00435716
     atom    8 type  1   force =    -0.01091391    0.00629535   -0.00433365
     atom    9 type  1   force =     0.00004683    0.00000204    0.00068278
     atom   10 type  1   force =    -0.00004114   -0.00169539   -0.00023059
     atom   11 type  1   force =    -0.00150845    0.00081337   -0.00017374
     atom   12 type  1   force =     0.00147885    0.00085785   -0.00025003
     atom   13 type  2   force =     0.00000437   -0.00000504    0.00191428

     Total force =     0.029541     Total SCF correction =     0.022310
     SCF correction compared to forces is large: reduce conv_thr to get better values


     entering subroutine stress ...


     negative rho (up, down):  6.952E-01 0.000E+00
          total   stress  (Ry/bohr**3)                   (kbar)     P=  -31.33
  -0.00022279  -0.00000000   0.00000002        -32.77     -0.00      0.00
  -0.00000000  -0.00022284   0.00000003         -0.00    -32.78      0.00
   0.00000002   0.00000003  -0.00019334          0.00      0.00    -28.44

 !ASE

     Writing output data file calc.save
 
     init_run     :     11.22s CPU     17.81s WALL (       1 calls)
     electrons    :    565.96s CPU    832.28s WALL (       1 calls)
     forces       :      4.03s CPU      4.66s WALL (       1 calls)
     stress       :     12.05s CPU     13.11s WALL (       1 calls)

     Called by init_run:
     wfcinit      :      8.69s CPU     14.18s WALL (       1 calls)
     potinit      :      0.97s CPU      1.64s WALL (       1 calls)

     Called by electrons:
     c_bands      :    430.07s CPU    628.90s WALL (      21 calls)
     sum_band     :     71.07s CPU    109.16s WALL (      21 calls)
     v_of_rho     :     20.73s CPU     32.64s WALL (      22 calls)
     newd         :     13.22s CPU     13.85s WALL (      22 calls)
     mix_rho      :      0.95s CPU      1.53s WALL (      21 calls)
     vdW_energy   :      2.38s CPU      2.40s WALL (      58 calls)
     vdW_ffts     :     31.57s CPU     52.21s WALL (     118 calls)
     vdW_v        :      6.50s CPU      9.28s WALL (      58 calls)

     Called by c_bands:
     init_us_2    :      1.05s CPU      1.06s WALL (     900 calls)
     cegterg      :    418.95s CPU    616.73s WALL (     420 calls)

     Called by *egterg:
     h_psi        :    277.60s CPU    458.91s WALL (    1721 calls)
     s_psi        :     13.36s CPU     13.64s WALL (    1721 calls)
     g_psi        :      0.63s CPU      0.64s WALL (    1281 calls)
     cdiaghg      :     73.49s CPU     76.35s WALL (    1701 calls)

     Called by h_psi:
     add_vuspsi   :     13.70s CPU     13.79s WALL (    1721 calls)

     General routines
     calbec       :     30.27s CPU     38.36s WALL (    2181 calls)
     fft          :     49.43s CPU     81.13s WALL (    3555 calls)
     ffts         :      0.16s CPU      0.27s WALL (      43 calls)
     fftw         :    278.84s CPU    487.71s WALL (  257342 calls)
     interpolate  :      0.74s CPU      1.22s WALL (      43 calls)
     davcio       :      0.00s CPU      0.02s WALL (      20 calls)
 
     Parallel routines
     fft_scatter  :    297.22s CPU    535.36s WALL (  260940 calls)
 
     PWSCF        :  9m53.98s CPU    14m29.12s WALL

 
   This run was terminated on:   6:34: 9  18Jan2018            

=------------------------------------------------------------------------------=
   JOB DONE.
=------------------------------------------------------------------------------=
Job  /afs/slac/g/suncat/bin/suncat-tsmpirun -x LD_LIBRARY_PATH -wdir /scratch/qe842475_o54l9 pw.x -in pw.inp

TID   HOST_NAME   COMMAND_LINE            STATUS            TERMINATION_TIME
===== ========== ================  =======================  ===================
00000 suncat0273 pw.x -in pw.inp   Done                     01/18/2018 06:34:09
00001 suncat0273 pw.x -in pw.inp   Done                     01/18/2018 06:34:09
00002 suncat0273 pw.x -in pw.inp   Done                     01/18/2018 06:34:09
00003 suncat0273 pw.x -in pw.inp   Done                     01/18/2018 06:34:09
00004 suncat0273 pw.x -in pw.inp   Done                     01/18/2018 06:34:09
00005 suncat0273 pw.x -in pw.inp   Done                     01/18/2018 06:34:09
00006 suncat0273 pw.x -in pw.inp   Done                     01/18/2018 06:34:09
00007 suncat0273 pw.x -in pw.inp   Done                     01/18/2018 06:34:09
00008 suncat0268 pw.x -in pw.inp   Done                     01/18/2018 06:34:09
00009 suncat0268 pw.x -in pw.inp   Done                     01/18/2018 06:34:09
00010 suncat0268 pw.x -in pw.inp   Done                     01/18/2018 06:34:09
00011 suncat0268 pw.x -in pw.inp   Done                     01/18/2018 06:34:09
00012 suncat0268 pw.x -in pw.inp   Done                     01/18/2018 06:34:09
00013 suncat0268 pw.x -in pw.inp   Done                     01/18/2018 06:34:09
00014 suncat0268 pw.x -in pw.inp   Done                     01/18/2018 06:34:09
00015 suncat0268 pw.x -in pw.inp   Done                     01/18/2018 06:34:09
00016 suncat0266 pw.x -in pw.inp   Done                     01/18/2018 06:34:09
00017 suncat0266 pw.x -in pw.inp   Done                     01/18/2018 06:34:09
00018 suncat0266 pw.x -in pw.inp   Done                     01/18/2018 06:34:09
00019 suncat0266 pw.x -in pw.inp   Done                     01/18/2018 06:34:09
00020 suncat0266 pw.x -in pw.inp   Done                     01/18/2018 06:34:09
00021 suncat0266 pw.x -in pw.inp   Done                     01/18/2018 06:34:09
00022 suncat0266 pw.x -in pw.inp   Done                     01/18/2018 06:34:09
00023 suncat0266 pw.x -in pw.inp   Done                     01/18/2018 06:34:09
00024 suncat0233 pw.x -in pw.inp   Done                     01/18/2018 06:34:09
00025 suncat0233 pw.x -in pw.inp   Done                     01/18/2018 06:34:09
00026 suncat0233 pw.x -in pw.inp   Done                     01/18/2018 06:34:09
00027 suncat0233 pw.x -in pw.inp   Done                     01/18/2018 06:34:09
00028 suncat0233 pw.x -in pw.inp   Done                     01/18/2018 06:34:09
00029 suncat0233 pw.x -in pw.inp   Done                     01/18/2018 06:34:09
00030 suncat0233 pw.x -in pw.inp   Done                     01/18/2018 06:34:09
00031 suncat0233 pw.x -in pw.inp   Done                     01/18/2018 06:34:09
