  python dir          : /nfs/slac/g/suncatfs/sw/espv20/lib/python2.7/site-packages/espresso
  espresso dir        : /nfs/slac/g/suncatfs/sw/espv18/espresso-dynpy-beef/bin
  pseudo dir          : /afs/slac.stanford.edu/u/if/mamunm/psp/gbrv1.5pbe
  ase-espresso py git : ffa2778-git



     Program PWSCF v.5.1rc2 (svn rev. 11289) starts on 19Jan2018 at 23:18:52 

     This program is part of the open-source Quantum ESPRESSO suite
     for quantum simulation of materials; please cite
         "P. Giannozzi et al., J. Phys.:Condens. Matter 21 395502 (2009);
          URL http://www.quantum-espresso.org", 
     in publications or presentations arising from this work. More details at
     http://www.quantum-espresso.org/quote

     Parallel version (MPI), running on    32 processors
     R & G space division:  proc/nbgrp/npool/nimage =      32
     Reading input from pw.inp
     Message from routine read_cards :
     DEPRECATED: no units specified in CELL_PARAMETERS card

     Current dimensions of program PWSCF are:
     Max number of different atomic species (ntypx) = 10
     Max number of k-points (npk) =  40000
     Max angular momentum in pseudopotentials (lmaxx) =  3
     Presently stress not available with electric field


     **************************************************************************
     Initializing libbeef V0.1.1 with the BEEF-vdW functional.
     Citation: Wellendorff et al., PRB 85, 235149 (2012).
     **************************************************************************


     IMPORTANT: XC functional enforced from input :
     Exchange-correlation      = BEEF-VDW ( 1  4 27 13 2)
     Any further DFT definition will be discarded
     Please, verify this is what you really want


     Subspace diagonalization in iterative solution of the eigenvalue problem:
     a serial algorithm will be used

 
     Parallelization info
     --------------------
     sticks:   dense  smooth     PW     G-vecs:    dense   smooth      PW
     Min          84      33      9                16000     4018     623
     Max          85      34     10                16029     4064     652
     Sum        2713    1075    313               512659   129281   20533
 


     bravais-lattice index     =            0
     lattice parameter (alat)  =       1.8897  a.u.
     unit-cell volume          =    4306.9643 (a.u.)^3
     number of atoms/cell      =           13
     number of atomic types    =            2
     number of electrons       =       186.00
     number of Kohn-Sham states=          103
     kinetic-energy cutoff     =      36.7493  Ry
     charge density cutoff     =     367.4932  Ry
     convergence threshold     =      1.0E-05
     mixing beta               =       0.3000
     number of iterations used =           10  plain     mixing
     Exchange-correlation      = BEEF-VDW ( 1  4 27 13 2)
     nstep                     =           50


     celldm(1)=   1.889726  celldm(2)=   0.000000  celldm(3)=   0.000000
     celldm(4)=   0.000000  celldm(5)=   0.000000  celldm(6)=   0.000000

     crystal axes: (cart. coord. in units of alat)
               a(1) = (   5.486772   0.000000   0.000000 )  
               a(2) = (   2.743386   4.751684   0.000000 )  
               a(3) = (   0.000000   0.000000  24.479931 )  

     reciprocal axes: (cart. coord. in units 2 pi/alat)
               b(1) = (  0.182257 -0.105226  0.000000 )  
               b(2) = (  0.000000  0.210452  0.000000 )  
               b(3) = (  0.000000  0.000000  0.040850 )  


     PseudoPot. # 1 for Re read from file:
     /afs/slac.stanford.edu/u/if/mamunm/psp/gbrv1.5pbe/Re.UPF
     MD5 check sum: 85f993410f3e006da9d71c142b4ad953
     Pseudo is Ultrasoft + core correction, Zval = 15.0
     Generated by new atomic code, or converted to UPF format
     Using radial grid of  981 points,  8 beta functions with: 
                l(1) =   0
                l(2) =   0
                l(3) =   1
                l(4) =   1
                l(5) =   2
                l(6) =   2
                l(7) =   3
                l(8) =   3
     Q(r) pseudized with  8 coefficients,  rinner =    1.150   1.150   1.150
                                                       1.150   1.150   1.150
                                                       1.150

     PseudoPot. # 2 for S  read from file:
     /afs/slac.stanford.edu/u/if/mamunm/psp/gbrv1.5pbe/S.UPF
     MD5 check sum: 88d86576ff6df21479756cfb9bdac1df
     Pseudo is Ultrasoft + core correction, Zval =  6.0
     Generated by new atomic code, or converted to UPF format
     Using radial grid of  907 points,  6 beta functions with: 
                l(1) =   0
                l(2) =   0
                l(3) =   1
                l(4) =   1
                l(5) =   2
                l(6) =   2
     Q(r) pseudized with  8 coefficients,  rinner =    1.300   1.300   1.300
                                                       1.300   1.300

     vdW kernel table read from file vdW_kernel_table
     MD5 check sum: 095c7af220d748ca6e76c0b4c6cfb241

     atomic species   valence    mass     pseudopotential
        Re1           15.00   186.20700     Re( 1.00)
        S1             6.00    32.06000     S ( 1.00)

     No symmetry found



   Cartesian axes

     site n.     atom                  positions (alat units)
         1           Re1 tau(   1) = (   1.3716930   0.7919474  10.0000000  )
         2           Re1 tau(   2) = (   4.1150791   0.7919474  10.0000000  )
         3           Re1 tau(   3) = (   2.7433861   3.1677894  10.0000000  )
         4           Re1 tau(   4) = (   5.4867722   3.1677894  10.0000000  )
         5           Re1 tau(   5) = (   5.4867722   1.5838947  12.2399654  )
         6           Re1 tau(   6) = (   2.7433861   1.5838947  12.2399654  )
         7           Re1 tau(   7) = (   6.8584652   3.9597368  12.2399654  )
         8           Re1 tau(   8) = (   4.1150791   3.9597368  12.2399654  )
         9           Re1 tau(   9) = (   0.0000000   0.0000000  14.4799307  )
        10           Re1 tau(  10) = (   2.7433861   0.0000000  14.4799307  )
        11           Re1 tau(  11) = (   1.3716930   2.3758421  14.4799307  )
        12           Re1 tau(  12) = (   4.1150791   2.3758421  14.4799307  )
        13           S1  tau(  13) = (   2.7433861   1.5838947  17.0399307  )

     number of k points=    20  Fermi-Dirac smearing, width (Ry)=  0.0110
                       cart. coord. in units 2pi/alat
        k(    1) = (   0.0000000   0.0000000   0.0000000), wk =   0.0555556
        k(    2) = (   0.0000000   0.0350753   0.0000000), wk =   0.1111111
        k(    3) = (   0.0000000   0.0701506   0.0000000), wk =   0.1111111
        k(    4) = (   0.0000000  -0.1052259   0.0000000), wk =   0.0555556
        k(    5) = (   0.0303761  -0.0175376   0.0000000), wk =   0.1111111
        k(    6) = (   0.0303761   0.0175376   0.0000000), wk =   0.1111111
        k(    7) = (   0.0303761   0.0526129   0.0000000), wk =   0.1111111
        k(    8) = (   0.0303761  -0.1227635   0.0000000), wk =   0.1111111
        k(    9) = (   0.0303761  -0.0876882   0.0000000), wk =   0.1111111
        k(   10) = (   0.0303761  -0.0526129   0.0000000), wk =   0.1111111
        k(   11) = (   0.0607522  -0.0350753   0.0000000), wk =   0.1111111
        k(   12) = (   0.0607522   0.0000000   0.0000000), wk =   0.1111111
        k(   13) = (   0.0607522   0.0350753   0.0000000), wk =   0.1111111
        k(   14) = (   0.0607522  -0.1403011   0.0000000), wk =   0.1111111
        k(   15) = (   0.0607522  -0.1052259   0.0000000), wk =   0.1111111
        k(   16) = (   0.0607522  -0.0701506   0.0000000), wk =   0.1111111
        k(   17) = (  -0.0911283   0.0526129   0.0000000), wk =   0.0555556
        k(   18) = (  -0.0911283   0.0876882   0.0000000), wk =   0.1111111
        k(   19) = (  -0.0911283   0.1227635   0.0000000), wk =   0.1111111
        k(   20) = (  -0.0911283  -0.0526129   0.0000000), wk =   0.0555556

     Dense  grid:   512659 G-vectors     FFT dimensions: (  64,  64, 288)

     Smooth grid:   129281 G-vectors     FFT dimensions: (  45,  45, 180)

     Largest allocated arrays     est. size (Mb)     dimensions
        Kohn-Sham Wavefunctions         0.81 Mb     (     516,  103)
        NL pseudopotentials             3.17 Mb     (     516,  402)
        Each V/rho on FFT grid          0.56 Mb     (   36864)
        Each G-vector array             0.12 Mb     (   16029)
        G-vector shells                 0.06 Mb     (    7603)
     Largest temporary arrays     est. size (Mb)     dimensions
        Auxiliary wavefunctions         3.24 Mb     (     516,  412)
        Each subspace H/S matrix        2.59 Mb     (     412,  412)
        Each <psi_i|beta_j> matrix      0.63 Mb     (     402,  103)
        Arrays for rho mixing           5.62 Mb     (   36864,   10)

     Initial potential from superposition of free atoms
     Check: negative starting charge=   -1.539558

     starting charge  179.99942, renormalised to  186.00000

     negative rho (up, down):  1.591E+00 0.000E+00


     ************************************************************************
     *
     * You are using vdW-DF for exchange-correlation in this calculation.
     * Please cite the following three references that made this development
     * possible:
     *
     *   M. Dion, H. Rydberg, E. Schroder, D. C. Langreth, and
     *   B. I. Lundqvist, Phys. Rev. Lett. 92, 246401 (2004).
     *
     *   T. Thonhauser, V. R. Cooper, S. Li, A. Puzder, P. Hyldgaard, and
     *   D. C. Langreth, Phys. Rev. B 76, 125112 (2007).
     *
     *   G. Roman-Perez and J. M. Soler, Phys. Rev. Lett. 103, 096102 (2009).
     *
     *
     * If you are using vdW-DF2, please also cite:
     *
     *   K. Lee, E. D. Murray, L. Kong, B. I. Lundqvist, and
     *   D. C. Langreth, Phys. Rev. B 82, 081101(R) (2010).
     *
     *
     * If you are calculating the stress with vdW-DF, please also cite:
     *
     *   R. Sabatini, E. Kucukbenli, B. Kolb, T. Thonhauser, and
     *   S. de Gironcoli, J. Phys.: Condens. Matter 24, 424209 (2012).
     *
     ************************************************************************

     Carrying out vdW-DF run using the following parameters:

     Nqs =      20    Nr_points =    1024   r_max =   100.000
     q_mesh =
               0.00001000     0.04494208     0.09755937     0.15916263
               0.23128650     0.31572767     0.41458969     0.53033537
               0.66584808     0.82450364     1.01025438     1.22772762
               1.48234092     1.78043706     2.12944203     2.53805004
               3.01644009     3.57652955     4.23227104     5.00000000

     Gradients computed in reciprocal space

     ************************************************************************


 
     Adding external electric field

     Computed dipole along edir(3) : 
        Dipole               -1.8140 Ry au,         -4.6106 Debye
        Dipole field         -0.0053 Ry au
 
        Potential amp.        0.4774 Ry
        Total length         45.1039 bohr
 
     Starting wfc are  160 randomized atomic wfcs

     total cpu time spent up to now is       20.8 secs

     per-process dynamical memory:    49.9 Mb

     Self-consistent Calculation

     iteration #  1     ecut=    36.75 Ry     beta=0.30
     Davidson diagonalization with overlap
     ethr =  1.00E-02,  avg # of iterations =  2.0

     negative rho (up, down):  1.594E+00 0.000E+00
 
     Adding external electric field

     Computed dipole along edir(3) : 
        Dipole               28.7135 Ry au,         72.9824 Debye
        Dipole field          0.0838 Ry au
 
        Potential amp.       -7.5573 Ry
        Total length         45.1039 bohr
 

     total cpu time spent up to now is       57.9 secs

     total energy              =   -2278.68417372 Ry
     Harris-Foulkes estimate   =   -2329.91766749 Ry
     estimated scf accuracy    <     106.30974704 Ry

     iteration #  2     ecut=    36.75 Ry     beta=0.30
     Davidson diagonalization with overlap
     ethr =  1.00E-02,  avg # of iterations = 13.5

     negative rho (up, down):  1.587E+00 0.000E+00
 
     Adding external electric field

     Computed dipole along edir(3) : 
        Dipole               -2.5343 Ry au,         -6.4415 Debye
        Dipole field         -0.0074 Ry au
 
        Potential amp.        0.6670 Ry
        Total length         45.1039 bohr
 

     total cpu time spent up to now is      191.7 secs

     total energy              =   -2044.74660350 Ry
     Harris-Foulkes estimate   =   -2701.05036947 Ry
     estimated scf accuracy    <   19793.13118193 Ry

     iteration #  3     ecut=    36.75 Ry     beta=0.30
     Davidson diagonalization with overlap
     ethr =  1.00E-02,  avg # of iterations =  9.0

     negative rho (up, down):  1.592E+00 0.000E+00
 
     Adding external electric field

     Computed dipole along edir(3) : 
        Dipole               -2.3244 Ry au,         -5.9080 Debye
        Dipole field         -0.0068 Ry au
 
        Potential amp.        0.6118 Ry
        Total length         45.1039 bohr
 

     total cpu time spent up to now is      286.5 secs

     total energy              =   -2316.52688465 Ry
     Harris-Foulkes estimate   =   -2388.50091791 Ry
     estimated scf accuracy    <    1216.51357214 Ry

     iteration #  4     ecut=    36.75 Ry     beta=0.30
     Davidson diagonalization with overlap
     ethr =  1.00E-02,  avg # of iterations =  7.0

     negative rho (up, down):  1.599E+00 0.000E+00
 
     Adding external electric field

     Computed dipole along edir(3) : 
        Dipole               -2.6578 Ry au,         -6.7554 Debye
        Dipole field         -0.0078 Ry au
 
        Potential amp.        0.6995 Ry
        Total length         45.1039 bohr
 

     total cpu time spent up to now is      347.6 secs

     total energy              =   -2328.80939124 Ry
     Harris-Foulkes estimate   =   -2332.23543944 Ry
     estimated scf accuracy    <     102.92528381 Ry

     iteration #  5     ecut=    36.75 Ry     beta=0.30
     Davidson diagonalization with overlap
     ethr =  1.00E-02,  avg # of iterations =  4.9

     negative rho (up, down):  1.604E+00 0.000E+00
 
     Adding external electric field

     Computed dipole along edir(3) : 
        Dipole               -1.8182 Ry au,         -4.6215 Debye
        Dipole field         -0.0053 Ry au
 
        Potential amp.        0.4786 Ry
        Total length         45.1039 bohr
 

     total cpu time spent up to now is      386.5 secs

     total energy              =   -2329.93870304 Ry
     Harris-Foulkes estimate   =   -2330.70537689 Ry
     estimated scf accuracy    <       5.83696571 Ry

     iteration #  6     ecut=    36.75 Ry     beta=0.30
     Davidson diagonalization with overlap
     ethr =  3.14E-03,  avg # of iterations =  3.9

     negative rho (up, down):  1.614E+00 0.000E+00
 
     Adding external electric field

     Computed dipole along edir(3) : 
        Dipole               -1.4496 Ry au,         -3.6846 Debye
        Dipole field         -0.0042 Ry au
 
        Potential amp.        0.3815 Ry
        Total length         45.1039 bohr
 

     total cpu time spent up to now is      423.4 secs

     total energy              =   -2330.27455451 Ry
     Harris-Foulkes estimate   =   -2330.41837838 Ry
     estimated scf accuracy    <       2.01671877 Ry

     iteration #  7     ecut=    36.75 Ry     beta=0.30
     Davidson diagonalization with overlap
     ethr =  1.08E-03,  avg # of iterations =  4.8

     negative rho (up, down):  1.626E+00 0.000E+00
 
     Adding external electric field

     Computed dipole along edir(3) : 
        Dipole               -1.4577 Ry au,         -3.7050 Debye
        Dipole field         -0.0043 Ry au
 
        Potential amp.        0.3837 Ry
        Total length         45.1039 bohr
 

     total cpu time spent up to now is      462.1 secs

     total energy              =   -2329.91207555 Ry
     Harris-Foulkes estimate   =   -2330.49996105 Ry
     estimated scf accuracy    <      10.70053987 Ry

     iteration #  8     ecut=    36.75 Ry     beta=0.30
     Davidson diagonalization with overlap
     ethr =  1.08E-03,  avg # of iterations =  5.5

     negative rho (up, down):  1.622E+00 0.000E+00
 
     Adding external electric field

     Computed dipole along edir(3) : 
        Dipole               -1.5000 Ry au,         -3.8127 Debye
        Dipole field         -0.0044 Ry au
 
        Potential amp.        0.3948 Ry
        Total length         45.1039 bohr
 

     total cpu time spent up to now is      502.0 secs

     total energy              =   -2330.12022255 Ry
     Harris-Foulkes estimate   =   -2330.35360191 Ry
     estimated scf accuracy    <       6.79479703 Ry

     iteration #  9     ecut=    36.75 Ry     beta=0.30
     Davidson diagonalization with overlap
     ethr =  1.08E-03,  avg # of iterations =  1.9

     negative rho (up, down):  1.620E+00 0.000E+00
 
     Adding external electric field

     Computed dipole along edir(3) : 
        Dipole               -1.4612 Ry au,         -3.7141 Debye
        Dipole field         -0.0043 Ry au
 
        Potential amp.        0.3846 Ry
        Total length         45.1039 bohr
 

     total cpu time spent up to now is      535.8 secs

     total energy              =   -2330.25946235 Ry
     Harris-Foulkes estimate   =   -2330.26997306 Ry
     estimated scf accuracy    <       0.18784424 Ry

     iteration # 10     ecut=    36.75 Ry     beta=0.30
     Davidson diagonalization with overlap
     ethr =  1.01E-04,  avg # of iterations =  7.7

     negative rho (up, down):  1.618E+00 0.000E+00
 
     Adding external electric field

     Computed dipole along edir(3) : 
        Dipole               -1.3890 Ry au,         -3.5306 Debye
        Dipole field         -0.0041 Ry au
 
        Potential amp.        0.3656 Ry
        Total length         45.1039 bohr
 

     total cpu time spent up to now is      585.4 secs

     total energy              =   -2330.28154266 Ry
     Harris-Foulkes estimate   =   -2330.28897714 Ry
     estimated scf accuracy    <       0.16523566 Ry

     iteration # 11     ecut=    36.75 Ry     beta=0.30
     Davidson diagonalization with overlap
     ethr =  8.88E-05,  avg # of iterations =  1.1

     negative rho (up, down):  1.617E+00 0.000E+00
 
     Adding external electric field

     Computed dipole along edir(3) : 
        Dipole               -1.2543 Ry au,         -3.1882 Debye
        Dipole field         -0.0037 Ry au
 
        Potential amp.        0.3301 Ry
        Total length         45.1039 bohr
 

     total cpu time spent up to now is      617.2 secs

     total energy              =   -2330.26367835 Ry
     Harris-Foulkes estimate   =   -2330.28610991 Ry
     estimated scf accuracy    <       0.38441344 Ry

     iteration # 12     ecut=    36.75 Ry     beta=0.30
     Davidson diagonalization with overlap
     ethr =  8.88E-05,  avg # of iterations =  1.1

     negative rho (up, down):  1.617E+00 0.000E+00
 
     Adding external electric field

     Computed dipole along edir(3) : 
        Dipole               -1.1082 Ry au,         -2.8168 Debye
        Dipole field         -0.0032 Ry au
 
        Potential amp.        0.2917 Ry
        Total length         45.1039 bohr
 

     total cpu time spent up to now is      649.6 secs

     total energy              =   -2330.26659628 Ry
     Harris-Foulkes estimate   =   -2330.27157549 Ry
     estimated scf accuracy    <       0.01748741 Ry

     iteration # 13     ecut=    36.75 Ry     beta=0.30
     Davidson diagonalization with overlap
     ethr =  9.40E-06,  avg # of iterations =  7.1

     negative rho (up, down):  1.616E+00 0.000E+00
 
     Adding external electric field

     Computed dipole along edir(3) : 
        Dipole               -0.6996 Ry au,         -1.7783 Debye
        Dipole field         -0.0020 Ry au
 
        Potential amp.        0.1841 Ry
        Total length         45.1039 bohr
 

     total cpu time spent up to now is      695.9 secs

     total energy              =   -2330.26892381 Ry
     Harris-Foulkes estimate   =   -2330.27189019 Ry
     estimated scf accuracy    <       0.07504298 Ry

     iteration # 14     ecut=    36.75 Ry     beta=0.30
     Davidson diagonalization with overlap
     ethr =  9.40E-06,  avg # of iterations =  5.7

     negative rho (up, down):  1.617E+00 0.000E+00
 
     Adding external electric field

     Computed dipole along edir(3) : 
        Dipole               -0.4676 Ry au,         -1.1886 Debye
        Dipole field         -0.0014 Ry au
 
        Potential amp.        0.1231 Ry
        Total length         45.1039 bohr
 

     total cpu time spent up to now is      738.7 secs

     total energy              =   -2330.24758354 Ry
     Harris-Foulkes estimate   =   -2330.27640894 Ry
     estimated scf accuracy    <       0.66429149 Ry

     iteration # 15     ecut=    36.75 Ry     beta=0.30
     Davidson diagonalization with overlap
     ethr =  9.40E-06,  avg # of iterations =  5.5

     negative rho (up, down):  1.619E+00 0.000E+00
 
     Adding external electric field

     Computed dipole along edir(3) : 
        Dipole               -0.4104 Ry au,         -1.0433 Debye
        Dipole field         -0.0012 Ry au
 
        Potential amp.        0.1080 Ry
        Total length         45.1039 bohr
 

     total cpu time spent up to now is      783.3 secs

     total energy              =   -2330.26008947 Ry
     Harris-Foulkes estimate   =   -2330.26142087 Ry
     estimated scf accuracy    <       0.00860059 Ry

     iteration # 16     ecut=    36.75 Ry     beta=0.30
     Davidson diagonalization with overlap
     ethr =  4.62E-06,  avg # of iterations =  3.2

     negative rho (up, down):  1.619E+00 0.000E+00
 
     Adding external electric field

     Computed dipole along edir(3) : 
        Dipole               -0.3099 Ry au,         -0.7877 Debye
        Dipole field         -0.0009 Ry au
 
        Potential amp.        0.0816 Ry
        Total length         45.1039 bohr
 

     total cpu time spent up to now is      818.3 secs

     total energy              =   -2330.26080051 Ry
     Harris-Foulkes estimate   =   -2330.26114098 Ry
     estimated scf accuracy    <       0.00178289 Ry

     iteration # 17     ecut=    36.75 Ry     beta=0.30
     Davidson diagonalization with overlap
     ethr =  9.59E-07,  avg # of iterations =  4.5

     negative rho (up, down):  1.619E+00 0.000E+00
 
     Adding external electric field

     Computed dipole along edir(3) : 
        Dipole               -0.3110 Ry au,         -0.7905 Debye
        Dipole field         -0.0009 Ry au
 
        Potential amp.        0.0819 Ry
        Total length         45.1039 bohr
 

     total cpu time spent up to now is      857.9 secs

     total energy              =   -2330.26082442 Ry
     Harris-Foulkes estimate   =   -2330.26101428 Ry
     estimated scf accuracy    <       0.00123580 Ry

     iteration # 18     ecut=    36.75 Ry     beta=0.30
     Davidson diagonalization with overlap
     ethr =  6.64E-07,  avg # of iterations =  3.4

     negative rho (up, down):  1.620E+00 0.000E+00
 
     Adding external electric field

     Computed dipole along edir(3) : 
        Dipole               -0.2795 Ry au,         -0.7105 Debye
        Dipole field         -0.0008 Ry au
 
        Potential amp.        0.0736 Ry
        Total length         45.1039 bohr
 

     total cpu time spent up to now is      894.0 secs

     total energy              =   -2330.26101348 Ry
     Harris-Foulkes estimate   =   -2330.26103649 Ry
     estimated scf accuracy    <       0.00065769 Ry

     iteration # 19     ecut=    36.75 Ry     beta=0.30
     Davidson diagonalization with overlap
     ethr =  3.54E-07,  avg # of iterations =  1.0

     negative rho (up, down):  1.620E+00 0.000E+00
 
     Adding external electric field

     Computed dipole along edir(3) : 
        Dipole               -0.2723 Ry au,         -0.6920 Debye
        Dipole field         -0.0008 Ry au
 
        Potential amp.        0.0717 Ry
        Total length         45.1039 bohr
 

     total cpu time spent up to now is      925.8 secs

     total energy              =   -2330.26102144 Ry
     Harris-Foulkes estimate   =   -2330.26104154 Ry
     estimated scf accuracy    <       0.00010609 Ry

     iteration # 20     ecut=    36.75 Ry     beta=0.30
     Davidson diagonalization with overlap
     ethr =  5.70E-08,  avg # of iterations =  5.3

     negative rho (up, down):  1.620E+00 0.000E+00

     negative rho (up, down):  1.620E+00 0.000E+00

     negative rho (up, down):  1.620E+00 0.000E+00

     negative rho (up, down):  1.620E+00 0.000E+00

     negative rho (up, down):  1.620E+00 0.000E+00

     negative rho (up, down):  1.620E+00 0.000E+00

     negative rho (up, down):  1.620E+00 0.000E+00

     negative rho (up, down):  1.620E+00 0.000E+00

     negative rho (up, down):  1.620E+00 0.000E+00

     negative rho (up, down):  1.620E+00 0.000E+00

     negative rho (up, down):  1.620E+00 0.000E+00

     negative rho (up, down):  1.620E+00 0.000E+00

     negative rho (up, down):  1.620E+00 0.000E+00

     negative rho (up, down):  1.620E+00 0.000E+00

     negative rho (up, down):  1.620E+00 0.000E+00

     negative rho (up, down):  1.620E+00 0.000E+00

     negative rho (up, down):  1.620E+00 0.000E+00

     negative rho (up, down):  1.620E+00 0.000E+00

     negative rho (up, down):  1.620E+00 0.000E+00

     negative rho (up, down):  1.620E+00 0.000E+00

     negative rho (up, down):  1.620E+00 0.000E+00

     negative rho (up, down):  1.620E+00 0.000E+00

     negative rho (up, down):  1.620E+00 0.000E+00

     negative rho (up, down):  1.620E+00 0.000E+00

     negative rho (up, down):  1.620E+00 0.000E+00

     negative rho (up, down):  1.620E+00 0.000E+00

     negative rho (up, down):  1.620E+00 0.000E+00

     negative rho (up, down):  1.620E+00 0.000E+00

     negative rho (up, down):  1.620E+00 0.000E+00

     negative rho (up, down):  1.620E+00 0.000E+00

     negative rho (up, down):  1.620E+00 0.000E+00

     negative rho (up, down):  1.620E+00 0.000E+00

     negative rho (up, down):  1.620E+00 0.000E+00

     negative rho (up, down):  1.620E+00 0.000E+00

     negative rho (up, down):  1.620E+00 0.000E+00
 
     Adding external electric field

     Computed dipole along edir(3) : 
        Dipole               -0.2666 Ry au,         -0.6777 Debye
        Dipole field         -0.0008 Ry au
 
        Potential amp.        0.0702 Ry
        Total length         45.1039 bohr
 

     total cpu time spent up to now is     1013.4 secs

     End of self-consistent calculation

          k = 0.0000 0.0000 0.0000 ( 16091 PWs)   bands (ev):

   -77.8089 -77.7293 -77.7206 -77.7203 -77.6982 -77.6716 -77.6688 -77.6669
   -77.6310 -77.6057 -77.6047 -77.5979 -40.0692 -40.0530 -40.0528 -39.9589
   -39.8854 -39.8745 -39.8739 -39.7660 -39.7507 -39.7501 -39.5369 -39.4221
   -39.4209 -39.4195 -39.3877 -39.3873 -39.3802 -39.3043 -39.2996 -39.2995
   -39.1871 -39.1868 -39.1750 -39.0977 -39.0846 -39.0836 -39.0818 -39.0537
   -39.0536 -39.0203 -39.0153 -39.0150 -38.8707 -38.8705 -38.8182 -38.8180
    -8.3512  -6.3753  -4.4230  -3.8778  -3.4886  -3.4823  -3.4822  -3.1888
    -3.1719  -3.1719  -2.4930  -2.4929  -2.4927  -2.3272  -2.3007  -2.3005
    -0.8584  -0.7666  -0.7661   0.1444   0.2918   0.2919   0.4071   0.6220
     0.9718   0.9718   1.1704   1.1708   1.1966   1.4185   1.4186   1.4654
     1.4715   1.4717   1.4925   1.7232   1.7232   2.1900   2.1902   2.5003
     3.1305   3.1308   3.1960   3.4799   3.4902   3.4907   4.0443   4.0443
     4.0600   4.5723   4.5726   4.6007   4.6008   4.9121   5.2176

          k = 0.0000 0.0351 0.0000 ( 16151 PWs)   bands (ev):

   -77.8029 -77.7263 -77.7238 -77.7205 -77.6998 -77.6709 -77.6676 -77.6670
   -77.6322 -77.6090 -77.6048 -77.5990 -40.0330 -40.0198 -40.0007 -39.9387
   -39.8555 -39.8463 -39.8385 -39.7319 -39.7190 -39.6975 -39.5373 -39.4706
   -39.4517 -39.4505 -39.3745 -39.3732 -39.3564 -39.3154 -39.3090 -39.2851
   -39.2034 -39.2013 -39.1658 -39.1211 -39.1072 -39.1037 -39.0937 -39.0758
   -39.0644 -39.0519 -39.0484 -39.0040 -38.9262 -38.8846 -38.8776 -38.8320
    -8.3405  -6.0995  -4.1416  -3.5861  -3.4578  -3.2533  -3.2490  -3.0914
    -2.9779  -2.9670  -2.4045  -2.3321  -2.3301  -2.1592  -2.0193  -2.0026
    -0.7992  -0.7342  -0.6882   0.0933   0.2711   0.4001   0.4091   0.6057
     0.7260   0.8131   0.8550   1.0412   1.0730   1.2139   1.3797   1.4571
     1.5519   1.5597   1.6001   1.6164   1.9565   2.0283   2.0340   2.2455
     2.7406   2.8106   2.8221   3.2605   3.3212   3.5033   3.5061   3.7508
     3.7576   3.8226   3.8464   4.5356   4.6520   4.9119   5.0828

          k = 0.0000 0.0702 0.0000 ( 16185 PWs)   bands (ev):

   -77.7865 -77.7405 -77.7206 -77.7142 -77.7012 -77.6790 -77.6677 -77.6548
   -77.6344 -77.6206 -77.6048 -77.5999 -39.9513 -39.9374 -39.8851 -39.8542
   -39.7926 -39.7820 -39.7762 -39.6578 -39.6435 -39.5619 -39.5432 -39.5262
   -39.5236 -39.4797 -39.3570 -39.3546 -39.3387 -39.3288 -39.3196 -39.2659
   -39.2614 -39.2512 -39.2398 -39.1786 -39.1639 -39.1579 -39.1236 -39.1185
   -39.1057 -39.0958 -39.0751 -39.0309 -39.0032 -38.9684 -38.9218 -38.8689
    -8.3211  -5.3432  -3.6412  -3.4214  -2.8518  -2.8259  -2.6789  -2.6739
    -2.4868  -2.4779  -2.1755  -1.8510  -1.8436  -1.7296  -1.2679  -1.2358
    -0.6906  -0.6807  -0.4895  -0.4117  -0.0400   0.0723   0.0726   0.2725
     0.4602   0.6023   0.8001   0.8861   0.9357   1.0743   1.1949   1.2102
     1.4283   1.4885   1.5291   1.7736   1.8017   1.8657   1.9932   2.0145
     2.0537   2.0920   2.2496   2.4156   2.4369   2.7144   2.8940   3.0110
     3.3534   3.4647   3.6409   3.9608   4.1022   4.2260   4.2913

          k = 0.0000-0.1052 0.0000 ( 16164 PWs)   bands (ev):

   -77.7674 -77.7593 -77.7206 -77.7077 -77.6978 -77.6881 -77.6677 -77.6396
   -77.6368 -77.6343 -77.6048 -77.6001 -39.8953 -39.8791 -39.8225 -39.8114
   -39.7532 -39.7439 -39.6683 -39.6601 -39.6029 -39.5981 -39.5799 -39.5778
   -39.4042 -39.3772 -39.3461 -39.3454 -39.3439 -39.3215 -39.3175 -39.3110
   -39.3025 -39.2978 -39.2765 -39.2639 -39.2288 -39.2245 -39.1868 -39.1738
   -39.1174 -39.1069 -39.0832 -39.0692 -38.9926 -38.9613 -38.9196 -38.9175
    -8.3122  -4.3729  -4.3551  -2.8129  -2.7926  -2.2407  -2.2347  -2.2256
    -2.2137  -2.1414  -2.1253  -1.4023  -1.3906  -1.0938  -1.0776  -0.9091
    -0.8885  -0.5585  -0.5579  -0.4546  -0.4433  -0.0763  -0.0718   0.0786
     0.4205   0.5379   0.6844   0.7588   0.8671   0.8807   0.8839   0.9040
     0.9842   1.2089   1.3024   1.3247   1.3843   1.4096   1.4393   1.8980
     1.9737   2.0083   2.0478   2.4392   2.8830   2.8891   2.9145   2.9747
     3.1420   3.1891   3.3809   3.4211   3.8339   3.8464   4.0067

          k = 0.0304-0.0175 0.0000 ( 16151 PWs)   bands (ev):

   -77.8028 -77.7265 -77.7238 -77.7203 -77.6998 -77.6700 -77.6685 -77.6670
   -77.6322 -77.6084 -77.6057 -77.5988 -40.0329 -40.0199 -40.0007 -39.9387
   -39.8557 -39.8459 -39.8386 -39.7322 -39.7185 -39.6977 -39.5373 -39.4705
   -39.4523 -39.4499 -39.3748 -39.3728 -39.3564 -39.3156 -39.3088 -39.2851
   -39.2036 -39.2012 -39.1657 -39.1211 -39.1071 -39.1040 -39.0935 -39.0759
   -39.0645 -39.0522 -39.0483 -39.0039 -38.9263 -38.8845 -38.8777 -38.8318
    -8.3405  -6.0995  -4.1416  -3.5861  -3.4578  -3.2534  -3.2490  -3.0914
    -2.9778  -2.9670  -2.4045  -2.3322  -2.3300  -2.1591  -2.0195  -2.0024
    -0.7993  -0.7339  -0.6884   0.0933   0.2711   0.4000   0.4091   0.6057
     0.7260   0.8129   0.8552   1.0412   1.0729   1.2139   1.3797   1.4570
     1.5519   1.5597   1.6001   1.6165   1.9565   2.0283   2.0340   2.2455
     2.7405   2.8105   2.8223   3.2606   3.3209   3.5034   3.5061   3.7505
     3.7577   3.8227   3.8464   4.5357   4.6519   4.9116   5.0835

          k = 0.0304 0.0175 0.0000 ( 16151 PWs)   bands (ev):

   -77.8029 -77.7262 -77.7240 -77.7205 -77.6998 -77.6714 -77.6671 -77.6669
   -77.6322 -77.6089 -77.6049 -77.5990 -40.0330 -40.0197 -40.0007 -39.9387
   -39.8554 -39.8464 -39.8384 -39.7318 -39.7190 -39.6975 -39.5373 -39.4705
   -39.4514 -39.4508 -39.3744 -39.3733 -39.3564 -39.3153 -39.3090 -39.2851
   -39.2033 -39.2015 -39.1659 -39.1212 -39.1073 -39.1034 -39.0939 -39.0756
   -39.0645 -39.0519 -39.0485 -39.0039 -38.9261 -38.8847 -38.8777 -38.8319
    -8.3405  -6.0995  -4.1416  -3.5861  -3.4578  -3.2533  -3.2490  -3.0914
    -2.9779  -2.9670  -2.4045  -2.3321  -2.3301  -2.1591  -2.0193  -2.0026
    -0.7991  -0.7342  -0.6882   0.0933   0.2711   0.4001   0.4091   0.6057
     0.7260   0.8132   0.8549   1.0413   1.0730   1.2139   1.3797   1.4571
     1.5519   1.5597   1.6001   1.6164   1.9565   2.0282   2.0340   2.2455
     2.7405   2.8106   2.8221   3.2605   3.3213   3.5032   3.5061   3.7507
     3.7576   3.8226   3.8464   4.5356   4.6520   4.9118   5.0827

          k = 0.0304 0.0526 0.0000 ( 16230 PWs)   bands (ev):

   -77.7916 -77.7323 -77.7256 -77.7163 -77.7003 -77.6759 -77.6680 -77.6587
   -77.6339 -77.6142 -77.6095 -77.5978 -39.9837 -39.9285 -39.9219 -39.9016
   -39.8087 -39.7945 -39.7899 -39.6897 -39.6299 -39.6185 -39.5454 -39.5161
   -39.4997 -39.4921 -39.3733 -39.3456 -39.3423 -39.3300 -39.2939 -39.2853
   -39.2782 -39.2019 -39.1838 -39.1681 -39.1641 -39.1608 -39.1224 -39.0999
   -39.0773 -39.0687 -39.0271 -39.0216 -39.0199 -38.9672 -38.9128 -38.8625
    -8.3258  -5.5789  -3.6279  -3.2748  -3.2687  -3.0470  -2.8108  -2.7954
    -2.7314  -2.4901  -2.1476  -2.1444  -1.9239  -1.7613  -1.7271  -1.3700
    -0.7466  -0.6481  -0.5923  -0.2383   0.1017   0.2739   0.2967   0.3768
     0.4112   0.5724   0.7788   0.8116   0.9342   1.2301   1.3080   1.3299
     1.4118   1.5067   1.6044   1.6887   1.7652   1.8520   2.0642   2.1666
     2.2593   2.3469   2.5027   2.5737   2.6025   2.8432   3.0009   3.2529
     3.3068   3.4078   3.7709   4.1122   4.2686   4.3379   4.7391

          k = 0.0304-0.1228 0.0000 ( 16218 PWs)   bands (ev):

   -77.7725 -77.7488 -77.7300 -77.7055 -77.6976 -77.6844 -77.6703 -77.6442
   -77.6350 -77.6268 -77.6135 -77.5958 -39.8973 -39.8430 -39.8382 -39.7875
   -39.7556 -39.7480 -39.7384 -39.6616 -39.6085 -39.5832 -39.5498 -39.5156
   -39.4698 -39.4294 -39.4053 -39.3618 -39.3348 -39.3310 -39.3210 -39.3194
   -39.2902 -39.2803 -39.2719 -39.2251 -39.2098 -39.1923 -39.1552 -39.1475
   -39.1181 -39.1088 -39.0557 -39.0525 -39.0267 -38.9728 -38.9629 -38.9144
    -8.3123  -4.6765  -3.7442  -2.9249  -2.8633  -2.5705  -2.3269  -2.2015
    -2.1895  -1.8834  -1.8742  -1.5910  -1.3356  -1.2572  -1.1489  -0.9946
    -0.7378  -0.5937  -0.5374  -0.4600  -0.4129  -0.2512   0.0104   0.0215
     0.1793   0.3735   0.5611   0.6969   0.7815   0.8026   0.8823   0.9668
     1.0063   1.1592   1.2038   1.2599   1.5340   1.6644   1.7825   1.9014
     1.9783   2.0266   2.2014   2.2363   2.6511   2.8798   2.9600   3.0253
     3.1049   3.3819   3.4599   3.5546   3.7573   3.8088   4.2219

          k = 0.0304-0.0877 0.0000 ( 16218 PWs)   bands (ev):

   -77.7724 -77.7488 -77.7300 -77.7055 -77.6977 -77.6838 -77.6709 -77.6442
   -77.6349 -77.6267 -77.6136 -77.5957 -39.8973 -39.8427 -39.8386 -39.7876
   -39.7559 -39.7478 -39.7384 -39.6618 -39.6082 -39.5833 -39.5498 -39.5156
   -39.4700 -39.4295 -39.4046 -39.3618 -39.3345 -39.3312 -39.3212 -39.3193
   -39.2903 -39.2805 -39.2719 -39.2252 -39.2100 -39.1921 -39.1552 -39.1476
   -39.1180 -39.1091 -39.0553 -39.0528 -39.0267 -38.9728 -38.9628 -38.9144
    -8.3123  -4.6765  -3.7442  -2.9249  -2.8633  -2.5705  -2.3269  -2.2015
    -2.1895  -1.8833  -1.8743  -1.5910  -1.3356  -1.2572  -1.1489  -0.9946
    -0.7377  -0.5937  -0.5374  -0.4600  -0.4129  -0.2512   0.0105   0.0215
     0.1793   0.3736   0.5610   0.6969   0.7814   0.8025   0.8823   0.9667
     1.0064   1.1592   1.2040   1.2598   1.5340   1.6644   1.7826   1.9012
     1.9782   2.0264   2.2014   2.2365   2.6510   2.8798   2.9602   3.0254
     3.1048   3.3820   3.4598   3.5547   3.7573   3.8089   4.2219

          k = 0.0304-0.0526 0.0000 ( 16230 PWs)   bands (ev):

   -77.7916 -77.7326 -77.7255 -77.7162 -77.7003 -77.6744 -77.6698 -77.6587
   -77.6337 -77.6135 -77.6103 -77.5976 -39.9836 -39.9288 -39.9216 -39.9017
   -39.8089 -39.7945 -39.7897 -39.6898 -39.6295 -39.6189 -39.5454 -39.5160
   -39.4998 -39.4920 -39.3732 -39.3461 -39.3419 -39.3301 -39.2939 -39.2855
   -39.2779 -39.2018 -39.1837 -39.1678 -39.1640 -39.1613 -39.1225 -39.1000
   -39.0776 -39.0687 -39.0272 -39.0213 -39.0200 -38.9672 -38.9126 -38.8624
    -8.3258  -5.5789  -3.6279  -3.2748  -3.2687  -3.0470  -2.8108  -2.7954
    -2.7314  -2.4901  -2.1477  -2.1444  -1.9239  -1.7613  -1.7271  -1.3700
    -0.7467  -0.6480  -0.5923  -0.2382   0.1018   0.2739   0.2966   0.3768
     0.4113   0.5724   0.7789   0.8116   0.9341   1.2301   1.3080   1.3298
     1.4118   1.5068   1.6042   1.6887   1.7653   1.8519   2.0641   2.1665
     2.2594   2.3470   2.5026   2.5736   2.6025   2.8432   3.0009   3.2528
     3.3070   3.4077   3.7710   4.1122   4.2689   4.3377   4.7390

          k = 0.0608-0.0351 0.0000 ( 16185 PWs)   bands (ev):

   -77.7864 -77.7407 -77.7204 -77.7142 -77.7013 -77.6781 -77.6686 -77.6548
   -77.6342 -77.6203 -77.6056 -77.5994 -39.9510 -39.9376 -39.8851 -39.8542
   -39.7930 -39.7816 -39.7762 -39.6582 -39.6429 -39.5619 -39.5433 -39.5264
   -39.5233 -39.4797 -39.3571 -39.3545 -39.3386 -39.3294 -39.3192 -39.2654
   -39.2618 -39.2514 -39.2398 -39.1784 -39.1642 -39.1575 -39.1237 -39.1186
   -39.1060 -39.0956 -39.0753 -39.0311 -39.0033 -38.9683 -38.9216 -38.8687
    -8.3211  -5.3432  -3.6412  -3.4214  -2.8518  -2.8258  -2.6790  -2.6738
    -2.4867  -2.4780  -2.1755  -1.8511  -1.8435  -1.7296  -1.2681  -1.2356
    -0.6909  -0.6804  -0.4896  -0.4117  -0.0400   0.0722   0.0727   0.2725
     0.4602   0.6023   0.8001   0.8862   0.9356   1.0744   1.1950   1.2101
     1.4282   1.4885   1.5290   1.7737   1.8015   1.8657   1.9931   2.0145
     2.0537   2.0920   2.2496   2.4155   2.4369   2.7143   2.8941   3.0106
     3.3536   3.4647   3.6409   3.9608   4.1023   4.2258   4.2914

          k = 0.0608 0.0000 0.0000 ( 16230 PWs)   bands (ev):

   -77.7916 -77.7326 -77.7254 -77.7163 -77.7003 -77.6752 -77.6689 -77.6587
   -77.6338 -77.6134 -77.6104 -77.5976 -39.9836 -39.9287 -39.9217 -39.9016
   -39.8088 -39.7945 -39.7898 -39.6897 -39.6296 -39.6188 -39.5454 -39.5160
   -39.4997 -39.4921 -39.3732 -39.3459 -39.3421 -39.3300 -39.2939 -39.2855
   -39.2780 -39.2019 -39.1839 -39.1680 -39.1640 -39.1610 -39.1225 -39.0999
   -39.0775 -39.0687 -39.0272 -39.0213 -39.0200 -38.9673 -38.9127 -38.8623
    -8.3258  -5.5789  -3.6279  -3.2748  -3.2687  -3.0470  -2.8108  -2.7954
    -2.7314  -2.4901  -2.1476  -2.1444  -1.9239  -1.7612  -1.7271  -1.3700
    -0.7467  -0.6480  -0.5923  -0.2382   0.1018   0.2740   0.2966   0.3768
     0.4113   0.5724   0.7789   0.8116   0.9341   1.2301   1.3080   1.3298
     1.4118   1.5068   1.6043   1.6887   1.7652   1.8519   2.0642   2.1665
     2.2593   2.3470   2.5026   2.5736   2.6024   2.8432   3.0009   3.2528
     3.3069   3.4077   3.7710   4.1122   4.2688   4.3377   4.7385

          k = 0.0608 0.0351 0.0000 ( 16185 PWs)   bands (ev):

   -77.7865 -77.7405 -77.7206 -77.7142 -77.7012 -77.6796 -77.6670 -77.6548
   -77.6345 -77.6206 -77.6049 -77.5999 -39.9513 -39.9373 -39.8851 -39.8542
   -39.7924 -39.7822 -39.7762 -39.6576 -39.6436 -39.5619 -39.5432 -39.5261
   -39.5237 -39.4797 -39.3567 -39.3548 -39.3388 -39.3286 -39.3197 -39.2662
   -39.2612 -39.2512 -39.2398 -39.1787 -39.1637 -39.1580 -39.1236 -39.1185
   -39.1057 -39.0960 -39.0750 -39.0307 -39.0033 -38.9683 -38.9220 -38.8688
    -8.3211  -5.3432  -3.6412  -3.4214  -2.8517  -2.8259  -2.6788  -2.6739
    -2.4868  -2.4778  -2.1755  -1.8510  -1.8436  -1.7296  -1.2679  -1.2359
    -0.6906  -0.6808  -0.4895  -0.4118  -0.0401   0.0724   0.0726   0.2725
     0.4602   0.6023   0.8001   0.8861   0.9357   1.0744   1.1949   1.2103
     1.4284   1.4884   1.5291   1.7736   1.8016   1.8657   1.9931   2.0145
     2.0537   2.0920   2.2495   2.4156   2.4369   2.7144   2.8939   3.0111
     3.3532   3.4647   3.6409   3.9608   4.1021   4.2261   4.2912

          k = 0.0608-0.1403 0.0000 ( 16218 PWs)   bands (ev):

   -77.7725 -77.7487 -77.7301 -77.7054 -77.6976 -77.6849 -77.6698 -77.6442
   -77.6350 -77.6268 -77.6135 -77.5958 -39.8973 -39.8429 -39.8383 -39.7875
   -39.7556 -39.7480 -39.7384 -39.6617 -39.6085 -39.5831 -39.5500 -39.5155
   -39.4700 -39.4295 -39.4051 -39.3618 -39.3349 -39.3309 -39.3209 -39.3194
   -39.2903 -39.2803 -39.2719 -39.2251 -39.2099 -39.1921 -39.1552 -39.1476
   -39.1181 -39.1089 -39.0557 -39.0526 -39.0265 -38.9726 -38.9631 -38.9143
    -8.3123  -4.6765  -3.7442  -2.9249  -2.8633  -2.5705  -2.3269  -2.2015
    -2.1895  -1.8833  -1.8742  -1.5910  -1.3356  -1.2572  -1.1489  -0.9946
    -0.7378  -0.5937  -0.5374  -0.4600  -0.4129  -0.2512   0.0104   0.0215
     0.1793   0.3735   0.5611   0.6969   0.7814   0.8026   0.8823   0.9668
     1.0063   1.1592   1.2038   1.2598   1.5340   1.6644   1.7825   1.9014
     1.9783   2.0265   2.2014   2.2363   2.6510   2.8798   2.9600   3.0254
     3.1049   3.3819   3.4599   3.5547   3.7573   3.8088   4.2218

          k = 0.0608-0.1052 0.0000 ( 16272 PWs)   bands (ev):

   -77.7567 -77.7548 -77.7424 -77.7006 -77.6922 -77.6878 -77.6746 -77.6356
   -77.6309 -77.6301 -77.6251 -77.5935 -39.7950 -39.7925 -39.7880 -39.7830
   -39.7685 -39.7188 -39.7099 -39.7084 -39.6860 -39.5039 -39.5026 -39.4561
   -39.4534 -39.4414 -39.4277 -39.3905 -39.3818 -39.3771 -39.3316 -39.3301
   -39.3208 -39.3201 -39.2840 -39.2215 -39.2064 -39.2037 -39.1786 -39.1253
   -39.1158 -39.1030 -39.0623 -39.0301 -39.0285 -38.9884 -38.9858 -38.9845
    -8.3081  -3.7494  -3.7390  -3.7295  -2.3233  -2.3151  -2.3068  -1.6810
    -1.6735  -1.5742  -1.3849  -1.3555  -1.3507  -1.1264  -1.1095  -1.1070
    -0.7640  -0.7473  -0.6675  -0.4607  -0.4538  -0.3286  -0.3073  -0.2349
     0.0699   0.1720   0.1743   0.3204   0.3477   0.3809   0.5973   0.8553
     0.8899   1.1619   1.1715   1.4588   1.4676   1.5674   1.7963   1.7991
     1.9319   2.0389   2.0641   2.1919   2.6060   2.6830   2.9395   3.2579
     3.2680   3.3991   3.4465   3.5328   3.9004   3.9473   4.1734

          k = 0.0608-0.0702 0.0000 ( 16218 PWs)   bands (ev):

   -77.7724 -77.7490 -77.7298 -77.7057 -77.6977 -77.6831 -77.6716 -77.6443
   -77.6348 -77.6264 -77.6139 -77.5957 -39.8972 -39.8429 -39.8383 -39.7876
   -39.7559 -39.7478 -39.7383 -39.6618 -39.6083 -39.5835 -39.5494 -39.5155
   -39.4698 -39.4295 -39.4049 -39.3619 -39.3345 -39.3312 -39.3214 -39.3191
   -39.2903 -39.2803 -39.2718 -39.2252 -39.2099 -39.1922 -39.1553 -39.1476
   -39.1179 -39.1091 -39.0558 -39.0525 -39.0270 -38.9727 -38.9626 -38.9143
    -8.3123  -4.6765  -3.7442  -2.9249  -2.8633  -2.5705  -2.3269  -2.2015
    -2.1895  -1.8833  -1.8742  -1.5910  -1.3356  -1.2572  -1.1489  -0.9946
    -0.7378  -0.5936  -0.5374  -0.4600  -0.4129  -0.2512   0.0105   0.0216
     0.1792   0.3736   0.5610   0.6968   0.7815   0.8026   0.8823   0.9668
     1.0063   1.1593   1.2039   1.2597   1.5340   1.6643   1.7825   1.9012
     1.9782   2.0265   2.2014   2.2364   2.6510   2.8798   2.9602   3.0252
     3.1050   3.3820   3.4597   3.5547   3.7573   3.8089   4.2220

          k =-0.0911 0.0526 0.0000 ( 16164 PWs)   bands (ev):

   -77.7671 -77.7597 -77.7204 -77.7079 -77.6982 -77.6869 -77.6686 -77.6402
   -77.6362 -77.6339 -77.6056 -77.5995 -39.8950 -39.8794 -39.8221 -39.8118
   -39.7537 -39.7434 -39.6684 -39.6602 -39.6032 -39.5982 -39.5799 -39.5770
   -39.4032 -39.3778 -39.3459 -39.3455 -39.3448 -39.3217 -39.3164 -39.3109
   -39.3029 -39.2978 -39.2767 -39.2638 -39.2294 -39.2240 -39.1865 -39.1740
   -39.1177 -39.1069 -39.0829 -39.0694 -38.9934 -38.9606 -38.9201 -38.9167
    -8.3122  -4.3727  -4.3552  -2.8129  -2.7926  -2.2409  -2.2344  -2.2255
    -2.2138  -2.1413  -2.1253  -1.4021  -1.3907  -1.0939  -1.0775  -0.9094
    -0.8883  -0.5585  -0.5579  -0.4547  -0.4433  -0.0767  -0.0713   0.0786
     0.4204   0.5378   0.6845   0.7588   0.8668   0.8808   0.8838   0.9041
     0.9842   1.2088   1.3025   1.3246   1.3842   1.4096   1.4394   1.8978
     1.9736   2.0087   2.0475   2.4394   2.8830   2.8891   2.9143   2.9751
     3.1416   3.1891   3.3807   3.4214   3.8336   3.8468   4.0067

          k =-0.0911 0.0877 0.0000 ( 16218 PWs)   bands (ev):

   -77.7724 -77.7490 -77.7298 -77.7057 -77.6977 -77.6834 -77.6713 -77.6443
   -77.6348 -77.6264 -77.6139 -77.5957 -39.8972 -39.8430 -39.8382 -39.7876
   -39.7559 -39.7479 -39.7383 -39.6618 -39.6083 -39.5835 -39.5495 -39.5155
   -39.4697 -39.4295 -39.4052 -39.3620 -39.3346 -39.3312 -39.3213 -39.3192
   -39.2903 -39.2803 -39.2718 -39.2252 -39.2098 -39.1924 -39.1553 -39.1476
   -39.1179 -39.1090 -39.0559 -39.0525 -39.0270 -38.9727 -38.9626 -38.9142
    -8.3123  -4.6765  -3.7442  -2.9249  -2.8633  -2.5705  -2.3269  -2.2015
    -2.1895  -1.8833  -1.8742  -1.5910  -1.3356  -1.2572  -1.1489  -0.9946
    -0.7378  -0.5936  -0.5374  -0.4600  -0.4129  -0.2511   0.0105   0.0215
     0.1793   0.3736   0.5610   0.6968   0.7815   0.8026   0.8822   0.9668
     1.0063   1.1593   1.2039   1.2598   1.5340   1.6644   1.7825   1.9013
     1.9783   2.0265   2.2014   2.2364   2.6511   2.8798   2.9601   3.0252
     3.1051   3.3820   3.4598   3.5547   3.7573   3.8089   4.2220

          k =-0.0911 0.1228 0.0000 ( 16218 PWs)   bands (ev):

   -77.7724 -77.7488 -77.7300 -77.7055 -77.6976 -77.6847 -77.6701 -77.6443
   -77.6350 -77.6267 -77.6136 -77.5957 -39.8973 -39.8427 -39.8386 -39.7875
   -39.7558 -39.7479 -39.7384 -39.6618 -39.6082 -39.5831 -39.5500 -39.5156
   -39.4701 -39.4295 -39.4047 -39.3618 -39.3345 -39.3312 -39.3211 -39.3194
   -39.2903 -39.2805 -39.2718 -39.2251 -39.2101 -39.1921 -39.1551 -39.1476
   -39.1180 -39.1090 -39.0554 -39.0529 -39.0265 -38.9727 -38.9631 -38.9142
    -8.3123  -4.6765  -3.7442  -2.9249  -2.8633  -2.5705  -2.3269  -2.2015
    -2.1895  -1.8833  -1.8743  -1.5909  -1.3356  -1.2572  -1.1489  -0.9946
    -0.7378  -0.5936  -0.5374  -0.4601  -0.4129  -0.2512   0.0104   0.0215
     0.1793   0.3736   0.5610   0.6970   0.7814   0.8025   0.8822   0.9667
     1.0064   1.1592   1.2040   1.2598   1.5340   1.6644   1.7826   1.9013
     1.9783   2.0264   2.2014   2.2365   2.6510   2.8798   2.9602   3.0254
     3.1048   3.3819   3.4598   3.5546   3.7572   3.8089   4.2219

          k =-0.0911-0.0526 0.0000 ( 16164 PWs)   bands (ev):

   -77.7675 -77.7592 -77.7206 -77.7077 -77.6975 -77.6891 -77.6670 -77.6397
   -77.6368 -77.6344 -77.6049 -77.6000 -39.8954 -39.8790 -39.8226 -39.8112
   -39.7529 -39.7441 -39.6682 -39.6602 -39.6027 -39.5981 -39.5800 -39.5779
   -39.4049 -39.3769 -39.3463 -39.3448 -39.3438 -39.3214 -39.3181 -39.3110
   -39.3021 -39.2978 -39.2765 -39.2639 -39.2286 -39.2247 -39.1868 -39.1737
   -39.1174 -39.1070 -39.0832 -39.0692 -38.9919 -38.9619 -38.9196 -38.9174
    -8.3122  -4.3729  -4.3551  -2.8128  -2.7927  -2.2407  -2.2348  -2.2256
    -2.2137  -2.1413  -2.1253  -1.4023  -1.3906  -1.0938  -1.0776  -0.9091
    -0.8885  -0.5585  -0.5579  -0.4546  -0.4434  -0.0762  -0.0719   0.0785
     0.4206   0.5379   0.6845   0.7587   0.8671   0.8807   0.8839   0.9040
     0.9841   1.2088   1.3024   1.3247   1.3844   1.4096   1.4392   1.8981
     1.9738   2.0082   2.0479   2.4392   2.8831   2.8891   2.9145   2.9745
     3.1420   3.1891   3.3810   3.4210   3.8340   3.8464   4.0064

     the Fermi energy is     2.8352 ev

!    total energy              =   -2330.26102596 Ry
     Harris-Foulkes estimate   =   -2330.26103959 Ry
     estimated scf accuracy    <       0.00000615 Ry

     The total energy is the sum of the following terms:

     one-electron contribution =  -18644.81687883 Ry
     hartree contribution      =    9309.24124657 Ry
     xc contribution           =    -657.88026991 Ry
     ewald contribution        =    7663.26286478 Ry
     electric field correction =       0.00020739 Ry
     smearing contrib. (-TS)   =      -0.06819596 Ry

     convergence has been achieved in  20 iterations
 
 BEEF-vdW xc energy contributions
           1 :   -584.635521969800     
           2 :    543.164694738848     
           3 :   -468.824429215202     
           4 :    375.838126372383     
           5 :   -279.814226808867     
           6 :    193.798298225101     
           7 :   -125.641019959893     
           8 :    77.2796545838110     
           9 :   -45.8808114252495     
          10 :    26.1451127309630     
          11 :   -12.7668775540462     
          12 :    2.15548298423005     
          13 :    7.01105594429941     
          14 :   -14.2944357541611     
          15 :    18.5865873666198     
          16 :   -19.2049570389256     
          17 :    16.5341338403186     
          18 :   -12.0207878032234     
          19 :    7.62202628265777     
          20 :   -5.02177558549261     
          21 :    4.98875109730966     
          22 :   -7.15099131835211     
          23 :    10.2559125573259     
          24 :   -12.7735941698754     
          25 :    13.5634538968319     
          26 :   -12.3174664497367     
          27 :    9.60668343542943     
          28 :   -6.54502376802316     
          29 :    4.25084272971412     
          30 :   -3.36258380452750     
          31 :   -48.8433185399824     
          32 :   -36.1902265053013     

     Forces acting on atoms (Ry/au):


     negative rho (up, down):  1.620E+00 0.000E+00
     atom    1 type  1   force =    -0.00141354   -0.00085874    0.02226053
     atom    2 type  1   force =     0.00144976   -0.00084571    0.02241189
     atom    3 type  1   force =     0.00002891    0.00170075    0.02230997
     atom    4 type  1   force =    -0.00003856   -0.00002681    0.02071320
     atom    5 type  1   force =    -0.00001748   -0.00584727   -0.00213752
     atom    6 type  1   force =    -0.00002465    0.00002332    0.01117037
     atom    7 type  1   force =     0.00508698    0.00292003   -0.00219039
     atom    8 type  1   force =    -0.00505644    0.00286529   -0.00210795
     atom    9 type  1   force =     0.00005121    0.00000163   -0.03214600
     atom   10 type  1   force =    -0.00005400   -0.00084237    0.02950623
     atom   11 type  1   force =    -0.00078040    0.00042604    0.02965455
     atom   12 type  1   force =     0.00074837    0.00049570    0.02930834
     atom   13 type  2   force =     0.00001984   -0.00001186   -0.14875322

     Total force =     0.167171     Total SCF correction =     0.006376


     entering subroutine stress ...


     negative rho (up, down):  1.620E+00 0.000E+00
          total   stress  (Ry/bohr**3)                   (kbar)     P=  -35.45
  -0.00017349   0.00000003   0.00000006        -25.52      0.00      0.01
   0.00000003  -0.00017319  -0.00000008          0.00    -25.48     -0.01
   0.00000006  -0.00000008  -0.00037635          0.01     -0.01    -55.36

 !ASE

     Writing output data file calc.save
 
     init_run     :     14.63s CPU     20.36s WALL (       1 calls)
     electrons    :    738.75s CPU    992.84s WALL (       1 calls)
     forces       :      6.04s CPU      6.57s WALL (       1 calls)
     stress       :     19.94s CPU     21.26s WALL (       1 calls)

     Called by init_run:
     wfcinit      :     11.45s CPU     16.42s WALL (       1 calls)
     potinit      :      1.16s CPU      1.68s WALL (       1 calls)

     Called by electrons:
     c_bands      :    572.93s CPU    770.32s WALL (      20 calls)
     sum_band     :     86.63s CPU    119.17s WALL (      20 calls)
     v_of_rho     :     20.90s CPU     30.33s WALL (      21 calls)
     newd         :     24.79s CPU     25.15s WALL (      21 calls)
     mix_rho      :      0.83s CPU      1.21s WALL (      20 calls)
     vdW_energy   :      2.60s CPU      2.80s WALL (      57 calls)
     vdW_ffts     :     35.10s CPU     52.09s WALL (     116 calls)
     vdW_v        :      6.56s CPU      9.30s WALL (      57 calls)

     Called by c_bands:
     init_us_2    :      1.88s CPU      2.00s WALL (     860 calls)
     cegterg      :    553.90s CPU    750.54s WALL (     400 calls)

     Called by *egterg:
     h_psi        :    348.89s CPU    531.13s WALL (    2381 calls)
     s_psi        :     24.40s CPU     24.45s WALL (    2381 calls)
     g_psi        :      0.85s CPU      0.84s WALL (    1961 calls)
     cdiaghg      :    120.20s CPU    123.70s WALL (    2361 calls)

     Called by h_psi:
     add_vuspsi   :     25.13s CPU     25.37s WALL (    2381 calls)

     General routines
     calbec       :     45.64s CPU     54.07s WALL (    2821 calls)
     fft          :     52.92s CPU     78.68s WALL (    3489 calls)
     ffts         :      0.15s CPU      0.26s WALL (      41 calls)
     fftw         :    325.92s CPU    529.91s WALL (  281664 calls)
     interpolate  :      0.72s CPU      1.14s WALL (      41 calls)
     davcio       :      0.00s CPU      0.02s WALL (      20 calls)
 
     Parallel routines
     fft_scatter  :    333.06s CPU    560.22s WALL (  285194 calls)
 
     PWSCF        : 13m 0.15s CPU    17m22.31s WALL

 
   This run was terminated on:  23:36:14  19Jan2018            

=------------------------------------------------------------------------------=
   JOB DONE.
=------------------------------------------------------------------------------=
Job  /afs/slac/g/suncat/bin/suncat-tsmpirun -x LD_LIBRARY_PATH -wdir /scratch/qe891277_6vdUv pw.x -in pw.inp

TID   HOST_NAME   COMMAND_LINE            STATUS            TERMINATION_TIME
===== ========== ================  =======================  ===================
00000 suncat0217 pw.x -in pw.inp   Done                     01/19/2018 23:36:14
00001 suncat0217 pw.x -in pw.inp   Done                     01/19/2018 23:36:14
00002 suncat0217 pw.x -in pw.inp   Done                     01/19/2018 23:36:14
00003 suncat0217 pw.x -in pw.inp   Done                     01/19/2018 23:36:14
00004 suncat0217 pw.x -in pw.inp   Done                     01/19/2018 23:36:14
00005 suncat0217 pw.x -in pw.inp   Done                     01/19/2018 23:36:14
00006 suncat0217 pw.x -in pw.inp   Done                     01/19/2018 23:36:14
00007 suncat0217 pw.x -in pw.inp   Done                     01/19/2018 23:36:14
00008 suncat0216 pw.x -in pw.inp   Done                     01/19/2018 23:36:14
00009 suncat0216 pw.x -in pw.inp   Done                     01/19/2018 23:36:14
00010 suncat0216 pw.x -in pw.inp   Done                     01/19/2018 23:36:14
00011 suncat0216 pw.x -in pw.inp   Done                     01/19/2018 23:36:14
00012 suncat0216 pw.x -in pw.inp   Done                     01/19/2018 23:36:14
00013 suncat0216 pw.x -in pw.inp   Done                     01/19/2018 23:36:14
00014 suncat0216 pw.x -in pw.inp   Done                     01/19/2018 23:36:14
00015 suncat0216 pw.x -in pw.inp   Done                     01/19/2018 23:36:14
00016 suncat0215 pw.x -in pw.inp   Done                     01/19/2018 23:36:14
00017 suncat0215 pw.x -in pw.inp   Done                     01/19/2018 23:36:14
00018 suncat0215 pw.x -in pw.inp   Done                     01/19/2018 23:36:14
00019 suncat0215 pw.x -in pw.inp   Done                     01/19/2018 23:36:14
00020 suncat0215 pw.x -in pw.inp   Done                     01/19/2018 23:36:14
00021 suncat0215 pw.x -in pw.inp   Done                     01/19/2018 23:36:14
00022 suncat0215 pw.x -in pw.inp   Done                     01/19/2018 23:36:14
00023 suncat0215 pw.x -in pw.inp   Done                     01/19/2018 23:36:14
00024 suncat0213 pw.x -in pw.inp   Done                     01/19/2018 23:36:14
00025 suncat0213 pw.x -in pw.inp   Done                     01/19/2018 23:36:14
00026 suncat0213 pw.x -in pw.inp   Done                     01/19/2018 23:36:14
00027 suncat0213 pw.x -in pw.inp   Done                     01/19/2018 23:36:14
00028 suncat0213 pw.x -in pw.inp   Done                     01/19/2018 23:36:14
00029 suncat0213 pw.x -in pw.inp   Done                     01/19/2018 23:36:14
00030 suncat0213 pw.x -in pw.inp   Done                     01/19/2018 23:36:14
00031 suncat0213 pw.x -in pw.inp   Done                     01/19/2018 23:36:14

     Program PWSCF v.5.1rc2 (svn rev. 11289) starts on 19Jan2018 at 23:36:20 

     This program is part of the open-source Quantum ESPRESSO suite
     for quantum simulation of materials; please cite
         "P. Giannozzi et al., J. Phys.:Condens. Matter 21 395502 (2009);
          URL http://www.quantum-espresso.org", 
     in publications or presentations arising from this work. More details at
     http://www.quantum-espresso.org/quote

     Parallel version (MPI), running on    32 processors
     R & G space division:  proc/nbgrp/npool/nimage =      32
     Reading input from pw.inp
     Message from routine read_cards :
     DEPRECATED: no units specified in CELL_PARAMETERS card

     Current dimensions of program PWSCF are:
     Max number of different atomic species (ntypx) = 10
     Max number of k-points (npk) =  40000
     Max angular momentum in pseudopotentials (lmaxx) =  3
     Presently stress not available with electric field


     **************************************************************************
     Initializing libbeef V0.1.1 with the BEEF-vdW functional.
     Citation: Wellendorff et al., PRB 85, 235149 (2012).
     **************************************************************************


     IMPORTANT: XC functional enforced from input :
     Exchange-correlation      = BEEF-VDW ( 1  4 27 13 2)
     Any further DFT definition will be discarded
     Please, verify this is what you really want


     Subspace diagonalization in iterative solution of the eigenvalue problem:
     a serial algorithm will be used

 
     Parallelization info
     --------------------
     sticks:   dense  smooth     PW     G-vecs:    dense   smooth      PW
     Min          84      33      9                16000     4018     623
     Max          85      34     10                16029     4064     652
     Sum        2713    1075    313               512659   129281   20533
 


     bravais-lattice index     =            0
     lattice parameter (alat)  =       1.8897  a.u.
     unit-cell volume          =    4306.9643 (a.u.)^3
     number of atoms/cell      =           13
     number of atomic types    =            2
     number of electrons       =       186.00
     number of Kohn-Sham states=          103
     kinetic-energy cutoff     =      36.7493  Ry
     charge density cutoff     =     367.4932  Ry
     convergence threshold     =      1.0E-05
     mixing beta               =       0.3000
     number of iterations used =           10  plain     mixing
     Exchange-correlation      = BEEF-VDW ( 1  4 27 13 2)
     nstep                     =           50


     celldm(1)=   1.889726  celldm(2)=   0.000000  celldm(3)=   0.000000
     celldm(4)=   0.000000  celldm(5)=   0.000000  celldm(6)=   0.000000

     crystal axes: (cart. coord. in units of alat)
               a(1) = (   5.486772   0.000000   0.000000 )  
               a(2) = (   2.743386   4.751684   0.000000 )  
               a(3) = (   0.000000   0.000000  24.479931 )  

     reciprocal axes: (cart. coord. in units 2 pi/alat)
               b(1) = (  0.182257 -0.105226  0.000000 )  
               b(2) = (  0.000000  0.210452  0.000000 )  
               b(3) = (  0.000000  0.000000  0.040850 )  


     PseudoPot. # 1 for Re read from file:
     /afs/slac.stanford.edu/u/if/mamunm/psp/gbrv1.5pbe/Re.UPF
     MD5 check sum: 85f993410f3e006da9d71c142b4ad953
     Pseudo is Ultrasoft + core correction, Zval = 15.0
     Generated by new atomic code, or converted to UPF format
     Using radial grid of  981 points,  8 beta functions with: 
                l(1) =   0
                l(2) =   0
                l(3) =   1
                l(4) =   1
                l(5) =   2
                l(6) =   2
                l(7) =   3
                l(8) =   3
     Q(r) pseudized with  8 coefficients,  rinner =    1.150   1.150   1.150
                                                       1.150   1.150   1.150
                                                       1.150

     PseudoPot. # 2 for S  read from file:
     /afs/slac.stanford.edu/u/if/mamunm/psp/gbrv1.5pbe/S.UPF
     MD5 check sum: 88d86576ff6df21479756cfb9bdac1df
     Pseudo is Ultrasoft + core correction, Zval =  6.0
     Generated by new atomic code, or converted to UPF format
     Using radial grid of  907 points,  6 beta functions with: 
                l(1) =   0
                l(2) =   0
                l(3) =   1
                l(4) =   1
                l(5) =   2
                l(6) =   2
     Q(r) pseudized with  8 coefficients,  rinner =    1.300   1.300   1.300
                                                       1.300   1.300

     vdW kernel table read from file vdW_kernel_table
     MD5 check sum: 095c7af220d748ca6e76c0b4c6cfb241

     atomic species   valence    mass     pseudopotential
        Re1           15.00   186.20700     Re( 1.00)
        S1             6.00    32.06000     S ( 1.00)

     No symmetry found



   Cartesian axes

     site n.     atom                  positions (alat units)
         1           Re1 tau(   1) = (   1.3716930   0.7919474  10.0000000  )
         2           Re1 tau(   2) = (   4.1150791   0.7919474  10.0000000  )
         3           Re1 tau(   3) = (   2.7433861   3.1677894  10.0000000  )
         4           Re1 tau(   4) = (   5.4867722   3.1677894  10.0000000  )
         5           Re1 tau(   5) = (   5.4867722   1.5838947  12.2399654  )
         6           Re1 tau(   6) = (   2.7433861   1.5838947  12.2399654  )
         7           Re1 tau(   7) = (   6.8584652   3.9597368  12.2399654  )
         8           Re1 tau(   8) = (   4.1150791   3.9597368  12.2399654  )
         9           Re1 tau(   9) = (   0.0001317   0.0000042  14.3972800  )
        10           Re1 tau(  10) = (   5.4866334   4.7495183  14.5557943  )
        11           Re1 tau(  11) = (   6.8564588   2.3769374  14.5561756  )
        12           Re1 tau(  12) = (   4.1170033   2.3771165  14.5552855  )
        13           S1  tau(  13) = (   2.7434371   1.5838642  16.6574708  )

     number of k points=    20  Fermi-Dirac smearing, width (Ry)=  0.0110
                       cart. coord. in units 2pi/alat
        k(    1) = (   0.0000000   0.0000000   0.0000000), wk =   0.0555556
        k(    2) = (   0.0000000   0.0350753   0.0000000), wk =   0.1111111
        k(    3) = (   0.0000000   0.0701506   0.0000000), wk =   0.1111111
        k(    4) = (   0.0000000  -0.1052259   0.0000000), wk =   0.0555556
        k(    5) = (   0.0303761  -0.0175376   0.0000000), wk =   0.1111111
        k(    6) = (   0.0303761   0.0175376   0.0000000), wk =   0.1111111
        k(    7) = (   0.0303761   0.0526129   0.0000000), wk =   0.1111111
        k(    8) = (   0.0303761  -0.1227635   0.0000000), wk =   0.1111111
        k(    9) = (   0.0303761  -0.0876882   0.0000000), wk =   0.1111111
        k(   10) = (   0.0303761  -0.0526129   0.0000000), wk =   0.1111111
        k(   11) = (   0.0607522  -0.0350753   0.0000000), wk =   0.1111111
        k(   12) = (   0.0607522   0.0000000   0.0000000), wk =   0.1111111
        k(   13) = (   0.0607522   0.0350753   0.0000000), wk =   0.1111111
        k(   14) = (   0.0607522  -0.1403011   0.0000000), wk =   0.1111111
        k(   15) = (   0.0607522  -0.1052259   0.0000000), wk =   0.1111111
        k(   16) = (   0.0607522  -0.0701506   0.0000000), wk =   0.1111111
        k(   17) = (  -0.0911283   0.0526129   0.0000000), wk =   0.0555556
        k(   18) = (  -0.0911283   0.0876882   0.0000000), wk =   0.1111111
        k(   19) = (  -0.0911283   0.1227635   0.0000000), wk =   0.1111111
        k(   20) = (  -0.0911283  -0.0526129   0.0000000), wk =   0.0555556

     Dense  grid:   512659 G-vectors     FFT dimensions: (  64,  64, 288)

     Smooth grid:   129281 G-vectors     FFT dimensions: (  45,  45, 180)

     Largest allocated arrays     est. size (Mb)     dimensions
        Kohn-Sham Wavefunctions         0.81 Mb     (     516,  103)
        NL pseudopotentials             3.17 Mb     (     516,  402)
        Each V/rho on FFT grid          0.56 Mb     (   36864)
        Each G-vector array             0.12 Mb     (   16029)
        G-vector shells                 0.06 Mb     (    7603)
     Largest temporary arrays     est. size (Mb)     dimensions
        Auxiliary wavefunctions         3.24 Mb     (     516,  412)
        Each subspace H/S matrix        2.59 Mb     (     412,  412)
        Each <psi_i|beta_j> matrix      0.63 Mb     (     402,  103)
        Arrays for rho mixing           5.62 Mb     (   36864,   10)

     Initial potential from superposition of free atoms
     Check: negative starting charge=   -1.542826

     starting charge  179.99942, renormalised to  186.00000

     negative rho (up, down):  1.594E+00 0.000E+00


     ************************************************************************
     *
     * You are using vdW-DF for exchange-correlation in this calculation.
     * Please cite the following three references that made this development
     * possible:
     *
     *   M. Dion, H. Rydberg, E. Schroder, D. C. Langreth, and
     *   B. I. Lundqvist, Phys. Rev. Lett. 92, 246401 (2004).
     *
     *   T. Thonhauser, V. R. Cooper, S. Li, A. Puzder, P. Hyldgaard, and
     *   D. C. Langreth, Phys. Rev. B 76, 125112 (2007).
     *
     *   G. Roman-Perez and J. M. Soler, Phys. Rev. Lett. 103, 096102 (2009).
     *
     *
     * If you are using vdW-DF2, please also cite:
     *
     *   K. Lee, E. D. Murray, L. Kong, B. I. Lundqvist, and
     *   D. C. Langreth, Phys. Rev. B 82, 081101(R) (2010).
     *
     *
     * If you are calculating the stress with vdW-DF, please also cite:
     *
     *   R. Sabatini, E. Kucukbenli, B. Kolb, T. Thonhauser, and
     *   S. de Gironcoli, J. Phys.: Condens. Matter 24, 424209 (2012).
     *
     ************************************************************************

     Carrying out vdW-DF run using the following parameters:

     Nqs =      20    Nr_points =    1024   r_max =   100.000
     q_mesh =
               0.00001000     0.04494208     0.09755937     0.15916263
               0.23128650     0.31572767     0.41458969     0.53033537
               0.66584808     0.82450364     1.01025438     1.22772762
               1.48234092     1.78043706     2.12944203     2.53805004
               3.01644009     3.57652955     4.23227104     5.00000000

     Gradients computed in reciprocal space

     ************************************************************************


 
     Adding external electric field

     Computed dipole along edir(3) : 
        Dipole               -1.6649 Ry au,         -4.2317 Debye
        Dipole field         -0.0049 Ry au
 
        Potential amp.        0.4382 Ry
        Total length         45.1039 bohr
 
     Starting wfc are  160 randomized atomic wfcs

     total cpu time spent up to now is       20.6 secs

     per-process dynamical memory:    50.1 Mb

     Self-consistent Calculation

     iteration #  1     ecut=    36.75 Ry     beta=0.30
     Davidson diagonalization with overlap
     ethr =  1.00E-02,  avg # of iterations =  2.0

     negative rho (up, down):  1.605E+00 0.000E+00
 
     Adding external electric field

     Computed dipole along edir(3) : 
        Dipole               23.4016 Ry au,         59.4808 Debye
        Dipole field          0.0683 Ry au
 
        Potential amp.       -6.1592 Ry
        Total length         45.1039 bohr
 

     total cpu time spent up to now is       57.8 secs

     total energy              =   -2292.97120296 Ry
     Harris-Foulkes estimate   =   -2330.63017295 Ry
     estimated scf accuracy    <      77.88104950 Ry

     iteration #  2     ecut=    36.75 Ry     beta=0.30
     Davidson diagonalization with overlap
     ethr =  1.00E-02,  avg # of iterations = 12.2

     negative rho (up, down):  1.600E+00 0.000E+00
 
     Adding external electric field

     Computed dipole along edir(3) : 
        Dipole               -3.7700 Ry au,         -9.5824 Debye
        Dipole field         -0.0110 Ry au
 
        Potential amp.        0.9923 Ry
        Total length         45.1039 bohr
 

     total cpu time spent up to now is      159.8 secs

     total energy              =   -2177.15998441 Ry
     Harris-Foulkes estimate   =   -2590.62273266 Ry
     estimated scf accuracy    <    9913.62714483 Ry

     iteration #  3     ecut=    36.75 Ry     beta=0.30
     Davidson diagonalization with overlap
     ethr =  1.00E-02,  avg # of iterations =  8.2

     negative rho (up, down):  1.598E+00 0.000E+00
 
     Adding external electric field

     Computed dipole along edir(3) : 
        Dipole               -2.5304 Ry au,         -6.4316 Debye
        Dipole field         -0.0074 Ry au
 
        Potential amp.        0.6660 Ry
        Total length         45.1039 bohr
 

     total cpu time spent up to now is      241.0 secs

     total energy              =   -2320.38016156 Ry
     Harris-Foulkes estimate   =   -2360.99965077 Ry
     estimated scf accuracy    <     804.35301845 Ry

     iteration #  4     ecut=    36.75 Ry     beta=0.30
     Davidson diagonalization with overlap
     ethr =  1.00E-02,  avg # of iterations =  6.8

     negative rho (up, down):  1.604E+00 0.000E+00
 
     Adding external electric field

     Computed dipole along edir(3) : 
        Dipole               -1.7959 Ry au,         -4.5647 Debye
        Dipole field         -0.0052 Ry au
 
        Potential amp.        0.4727 Ry
        Total length         45.1039 bohr
 

     total cpu time spent up to now is      300.5 secs

     total energy              =   -2329.85621954 Ry
     Harris-Foulkes estimate   =   -2331.50989158 Ry
     estimated scf accuracy    <      39.45662693 Ry

     iteration #  5     ecut=    36.75 Ry     beta=0.30
     Davidson diagonalization with overlap
     ethr =  1.00E-02,  avg # of iterations =  1.3

     negative rho (up, down):  1.613E+00 0.000E+00
 
     Adding external electric field

     Computed dipole along edir(3) : 
        Dipole               -1.8924 Ry au,         -4.8100 Debye
        Dipole field         -0.0055 Ry au
 
        Potential amp.        0.4981 Ry
        Total length         45.1039 bohr
 

     total cpu time spent up to now is      332.6 secs

     total energy              =   -2330.17686168 Ry
     Harris-Foulkes estimate   =   -2330.53790443 Ry
     estimated scf accuracy    <       6.65187260 Ry

     iteration #  6     ecut=    36.75 Ry     beta=0.30
     Davidson diagonalization with overlap
     ethr =  3.58E-03,  avg # of iterations =  3.4

     negative rho (up, down):  1.629E+00 0.000E+00
 
     Adding external electric field

     Computed dipole along edir(3) : 
        Dipole               -1.5516 Ry au,         -3.9439 Debye
        Dipole field         -0.0045 Ry au
 
        Potential amp.        0.4084 Ry
        Total length         45.1039 bohr
 

     total cpu time spent up to now is      368.4 secs

     total energy              =   -2330.26330452 Ry
     Harris-Foulkes estimate   =   -2330.39506625 Ry
     estimated scf accuracy    <       0.28832267 Ry

     iteration #  7     ecut=    36.75 Ry     beta=0.30
     Davidson diagonalization with overlap
     ethr =  1.55E-04,  avg # of iterations =  7.5

     negative rho (up, down):  1.628E+00 0.000E+00
 
     Adding external electric field

     Computed dipole along edir(3) : 
        Dipole               -1.4777 Ry au,         -3.7560 Debye
        Dipole field         -0.0043 Ry au
 
        Potential amp.        0.3889 Ry
        Total length         45.1039 bohr
 

     total cpu time spent up to now is      430.0 secs

     total energy              =   -2330.38572136 Ry
     Harris-Foulkes estimate   =   -2330.42482919 Ry
     estimated scf accuracy    <       0.64723376 Ry

     iteration #  8     ecut=    36.75 Ry     beta=0.30
     Davidson diagonalization with overlap
     ethr =  1.55E-04,  avg # of iterations =  2.6

     negative rho (up, down):  1.624E+00 0.000E+00
 
     Adding external electric field

     Computed dipole along edir(3) : 
        Dipole               -1.4073 Ry au,         -3.5769 Debye
        Dipole field         -0.0041 Ry au
 
        Potential amp.        0.3704 Ry
        Total length         45.1039 bohr
 

     total cpu time spent up to now is      464.2 secs

     total energy              =   -2330.38589311 Ry
     Harris-Foulkes estimate   =   -2330.40830674 Ry
     estimated scf accuracy    <       0.42769643 Ry

     iteration #  9     ecut=    36.75 Ry     beta=0.30
     Davidson diagonalization with overlap
     ethr =  1.55E-04,  avg # of iterations =  2.5

     negative rho (up, down):  1.621E+00 0.000E+00
 
     Adding external electric field

     Computed dipole along edir(3) : 
        Dipole               -1.2687 Ry au,         -3.2246 Debye
        Dipole field         -0.0037 Ry au
 
        Potential amp.        0.3339 Ry
        Total length         45.1039 bohr
 

     total cpu time spent up to now is      498.4 secs

     total energy              =   -2330.39242071 Ry
     Harris-Foulkes estimate   =   -2330.39808955 Ry
     estimated scf accuracy    <       0.05019223 Ry

     iteration # 10     ecut=    36.75 Ry     beta=0.30
     Davidson diagonalization with overlap
     ethr =  2.70E-05,  avg # of iterations =  6.5

     negative rho (up, down):  1.622E+00 0.000E+00
 
     Adding external electric field

     Computed dipole along edir(3) : 
        Dipole               -1.1456 Ry au,         -2.9117 Debye
        Dipole field         -0.0033 Ry au
 
        Potential amp.        0.3015 Ry
        Total length         45.1039 bohr
 

     total cpu time spent up to now is      546.9 secs

     total energy              =   -2330.39331398 Ry
     Harris-Foulkes estimate   =   -2330.40507407 Ry
     estimated scf accuracy    <       0.31612983 Ry

     iteration # 11     ecut=    36.75 Ry     beta=0.30
     Davidson diagonalization with overlap
     ethr =  2.70E-05,  avg # of iterations =  1.0

     negative rho (up, down):  1.623E+00 0.000E+00
 
     Adding external electric field

     Computed dipole along edir(3) : 
        Dipole               -1.0510 Ry au,         -2.6714 Debye
        Dipole field         -0.0031 Ry au
 
        Potential amp.        0.2766 Ry
        Total length         45.1039 bohr
 

     total cpu time spent up to now is      578.7 secs

     total energy              =   -2330.38854648 Ry
     Harris-Foulkes estimate   =   -2330.39522282 Ry
     estimated scf accuracy    <       0.15970601 Ry

     iteration # 12     ecut=    36.75 Ry     beta=0.30
     Davidson diagonalization with overlap
     ethr =  2.70E-05,  avg # of iterations =  1.6

     negative rho (up, down):  1.623E+00 0.000E+00
 
     Adding external electric field

     Computed dipole along edir(3) : 
        Dipole               -0.8546 Ry au,         -2.1723 Debye
        Dipole field         -0.0025 Ry au
 
        Potential amp.        0.2249 Ry
        Total length         45.1039 bohr
 

     total cpu time spent up to now is      610.9 secs

     total energy              =   -2330.38355250 Ry
     Harris-Foulkes estimate   =   -2330.39070805 Ry
     estimated scf accuracy    <       0.05265262 Ry

     iteration # 13     ecut=    36.75 Ry     beta=0.30
     Davidson diagonalization with overlap
     ethr =  2.70E-05,  avg # of iterations =  4.5

     negative rho (up, down):  1.622E+00 0.000E+00
 
     Adding external electric field

     Computed dipole along edir(3) : 
        Dipole               -0.2246 Ry au,         -0.5708 Debye
        Dipole field         -0.0007 Ry au
 
        Potential amp.        0.0591 Ry
        Total length         45.1039 bohr
 

     total cpu time spent up to now is      648.3 secs

     total energy              =   -2330.37766737 Ry
     Harris-Foulkes estimate   =   -2330.38747182 Ry
     estimated scf accuracy    <       0.01627019 Ry

     iteration # 14     ecut=    36.75 Ry     beta=0.30
     Davidson diagonalization with overlap
     ethr =  8.75E-06,  avg # of iterations =  7.0

     negative rho (up, down):  1.623E+00 0.000E+00
 
     Adding external electric field

     Computed dipole along edir(3) : 
        Dipole               -0.1860 Ry au,         -0.4729 Debye
        Dipole field         -0.0005 Ry au
 
        Potential amp.        0.0490 Ry
        Total length         45.1039 bohr
 

     total cpu time spent up to now is      694.0 secs

     total energy              =   -2330.37883848 Ry
     Harris-Foulkes estimate   =   -2330.37980171 Ry
     estimated scf accuracy    <       0.01341803 Ry

     iteration # 15     ecut=    36.75 Ry     beta=0.30
     Davidson diagonalization with overlap
     ethr =  7.21E-06,  avg # of iterations =  1.0

     negative rho (up, down):  1.624E+00 0.000E+00
 
     Adding external electric field

     Computed dipole along edir(3) : 
        Dipole               -0.1289 Ry au,         -0.3277 Debye
        Dipole field         -0.0004 Ry au
 
        Potential amp.        0.0339 Ry
        Total length         45.1039 bohr
 

     total cpu time spent up to now is      725.5 secs

     total energy              =   -2330.37875719 Ry
     Harris-Foulkes estimate   =   -2330.37918298 Ry
     estimated scf accuracy    <       0.00472993 Ry

     iteration # 16     ecut=    36.75 Ry     beta=0.30
     Davidson diagonalization with overlap
     ethr =  2.54E-06,  avg # of iterations =  5.5

     negative rho (up, down):  1.624E+00 0.000E+00
 
     Adding external electric field

     Computed dipole along edir(3) : 
        Dipole               -0.1215 Ry au,         -0.3089 Debye
        Dipole field         -0.0004 Ry au
 
        Potential amp.        0.0320 Ry
        Total length         45.1039 bohr
 

     total cpu time spent up to now is      766.0 secs

     total energy              =   -2330.37907415 Ry
     Harris-Foulkes estimate   =   -2330.37925845 Ry
     estimated scf accuracy    <       0.00169863 Ry

     iteration # 17     ecut=    36.75 Ry     beta=0.30
     Davidson diagonalization with overlap
     ethr =  9.13E-07,  avg # of iterations =  3.9

     negative rho (up, down):  1.624E+00 0.000E+00
 
     Adding external electric field

     Computed dipole along edir(3) : 
        Dipole               -0.0888 Ry au,         -0.2258 Debye
        Dipole field         -0.0003 Ry au
 
        Potential amp.        0.0234 Ry
        Total length         45.1039 bohr
 

     total cpu time spent up to now is      802.5 secs

     total energy              =   -2330.37923456 Ry
     Harris-Foulkes estimate   =   -2330.37924018 Ry
     estimated scf accuracy    <       0.00125121 Ry

     iteration # 18     ecut=    36.75 Ry     beta=0.30
     Davidson diagonalization with overlap
     ethr =  6.73E-07,  avg # of iterations =  1.2

     negative rho (up, down):  1.624E+00 0.000E+00
 
     Adding external electric field

     Computed dipole along edir(3) : 
        Dipole               -0.0933 Ry au,         -0.2373 Debye
        Dipole field         -0.0003 Ry au
 
        Potential amp.        0.0246 Ry
        Total length         45.1039 bohr
 

     total cpu time spent up to now is      834.7 secs

     total energy              =   -2330.37924688 Ry
     Harris-Foulkes estimate   =   -2330.37926261 Ry
     estimated scf accuracy    <       0.00022491 Ry

     iteration # 19     ecut=    36.75 Ry     beta=0.30
     Davidson diagonalization with overlap
     ethr =  1.21E-07,  avg # of iterations =  5.2

     negative rho (up, down):  1.624E+00 0.000E+00
 
     Adding external electric field

     Computed dipole along edir(3) : 
        Dipole               -0.0893 Ry au,         -0.2269 Debye
        Dipole field         -0.0003 Ry au
 
        Potential amp.        0.0235 Ry
[...]
   -39.4065 -39.3839 -39.3732 -39.2679 -39.2053 -39.1825 -39.0975 -39.0721
   -39.0519 -39.0490 -38.9224 -38.8992 -38.8931 -38.8746 -38.8558 -38.8277
   -38.8241 -38.7614 -38.7417 -38.7161 -38.7019 -38.6919 -38.6723 -38.6552
   -38.6343 -38.6104 -38.5847 -38.5778 -38.5582 -38.5137 -38.4532 -38.4229
   -10.2908  -5.1484  -3.2988  -2.9912  -2.9084  -2.7256  -2.5914  -2.5237
    -2.3404  -2.2552  -1.9081  -1.7759  -1.6695  -1.6149  -1.4178  -1.2167
    -0.8623  -0.7944  -0.3963  -0.0647   0.0004   0.2401   0.3105   0.6473
     0.7064   0.8710   0.9500   0.9808   1.2357   1.3972   1.5160   1.6484
     1.7283   1.8400   1.8731   2.0506   2.1089   2.2481   2.3940   2.5413
     2.6556   2.7923   2.8846   2.9030   3.0001   3.1840   3.4567   3.6271
     3.8009   4.1002   4.3660   4.6636   4.7408   5.0600   5.0951

          k = 0.0608-0.0351 0.0000 ( 16185 PWs)   bands (ev):

   -77.3285 -77.2816 -77.2601 -77.2487 -77.2446 -77.2168 -77.2137 -77.2052
   -77.1816 -77.1657 -77.1635 -77.1294 -39.5176 -39.4915 -39.4870 -39.4183
   -39.3860 -39.3686 -39.3562 -39.2464 -39.2013 -39.1321 -39.1072 -39.0833
   -39.0773 -39.0385 -38.9080 -38.8998 -38.8894 -38.8873 -38.8622 -38.8399
   -38.8003 -38.7874 -38.7852 -38.7378 -38.7208 -38.7097 -38.6720 -38.6529
   -38.6521 -38.6409 -38.6129 -38.5872 -38.5426 -38.5300 -38.4600 -38.4269
   -10.2775  -4.9249  -3.3512  -3.0767  -2.6353  -2.4916  -2.3743  -2.3633
    -2.2015  -2.1724  -1.8947  -1.6055  -1.5082  -1.4623  -1.2769  -1.1181
    -0.8314  -0.6843  -0.2935  -0.0836   0.0076   0.0099   0.2249   0.4868
     0.5718   0.7872   0.8749   1.0381   1.2817   1.2924   1.4474   1.5831
     1.6150   1.7513   1.8829   2.0989   2.1529   2.2454   2.3613   2.3771
     2.4767   2.4838   2.6573   2.8079   2.8098   3.0943   3.3328   3.4989
     3.8832   4.1111   4.2077   4.4309   4.6172   4.6861   4.8819

          k = 0.0608 0.0000 0.0000 ( 16230 PWs)   bands (ev):

   -77.3336 -77.2760 -77.2622 -77.2524 -77.2421 -77.2188 -77.2125 -77.2058
   -77.1743 -77.1721 -77.1606 -77.1291 -39.5470 -39.5077 -39.4882 -39.4739
   -39.4065 -39.3837 -39.3733 -39.2679 -39.2051 -39.1826 -39.0975 -39.0722
   -39.0518 -39.0491 -38.9225 -38.8992 -38.8931 -38.8746 -38.8559 -38.8278
   -38.8240 -38.7614 -38.7417 -38.7161 -38.7020 -38.6919 -38.6722 -38.6553
   -38.6343 -38.6101 -38.5847 -38.5778 -38.5583 -38.5137 -38.4531 -38.4228
   -10.2909  -5.1484  -3.2988  -2.9913  -2.9083  -2.7257  -2.5913  -2.5236
    -2.3406  -2.2553  -1.9081  -1.7759  -1.6693  -1.6149  -1.4177  -1.2171
    -0.8622  -0.7941  -0.3966  -0.0646   0.0006   0.2404   0.3103   0.6471
     0.7062   0.8706   0.9499   0.9816   1.2357   1.3973   1.5157   1.6484
     1.7284   1.8398   1.8731   2.0508   2.1091   2.2479   2.3943   2.5408
     2.6557   2.7921   2.8842   2.9034   3.0000   3.1842   3.4565   3.6268
     3.8011   4.1003   4.3662   4.6636   4.7409   5.0591   5.0956

          k = 0.0608 0.0351 0.0000 ( 16185 PWs)   bands (ev):

   -77.3285 -77.2815 -77.2602 -77.2489 -77.2444 -77.2169 -77.2138 -77.2051
   -77.1816 -77.1657 -77.1635 -77.1294 -39.5174 -39.4917 -39.4869 -39.4183
   -39.3862 -39.3680 -39.3565 -39.2463 -39.2012 -39.1322 -39.1072 -39.0834
   -39.0772 -39.0385 -38.9082 -38.8997 -38.8893 -38.8873 -38.8623 -38.8401
   -38.8003 -38.7874 -38.7851 -38.7380 -38.7208 -38.7098 -38.6719 -38.6530
   -38.6520 -38.6410 -38.6130 -38.5868 -38.5426 -38.5299 -38.4600 -38.4269
   -10.2775  -4.9249  -3.3512  -3.0766  -2.6354  -2.4913  -2.3739  -2.3629
    -2.2021  -2.1727  -1.8946  -1.6056  -1.5083  -1.4619  -1.2772  -1.1178
    -0.8309  -0.6845  -0.2939  -0.0838   0.0084   0.0095   0.2250   0.4870
     0.5716   0.7877   0.8749   1.0372   1.2825   1.2920   1.4480   1.5832
     1.6156   1.7503   1.8815   2.0997   2.1530   2.2449   2.3611   2.3776
     2.4770   2.4834   2.6573   2.8082   2.8085   3.0952   3.3332   3.4982
     3.8839   4.1119   4.2066   4.4309   4.6171   4.6863   4.8818

          k = 0.0608-0.1403 0.0000 ( 16218 PWs)   bands (ev):

   -77.3151 -77.2884 -77.2680 -77.2460 -77.2395 -77.2201 -77.2071 -77.2040
   -77.1877 -77.1753 -77.1584 -77.1300 -39.4628 -39.4403 -39.4011 -39.3712
   -39.3340 -39.3267 -39.3042 -39.2286 -39.1755 -39.1549 -39.1201 -39.0831
   -39.0690 -38.9910 -38.9497 -38.9267 -38.8927 -38.8815 -38.8642 -38.8511
   -38.8378 -38.8242 -38.8123 -38.7753 -38.7650 -38.7367 -38.7066 -38.6892
   -38.6688 -38.6454 -38.6138 -38.5873 -38.5669 -38.5329 -38.4945 -38.4715
   -10.2510  -4.2949  -3.4146  -2.7246  -2.5461  -2.3181  -2.0748  -1.9132
    -1.8380  -1.6708  -1.5972  -1.3662  -1.2668  -1.0912  -0.9398  -0.8526
    -0.7447  -0.5580  -0.3496  -0.2236  -0.1204  -0.0709   0.0733   0.2162
     0.4167   0.4942   0.6029   0.8193   0.9979   1.0831   1.1745   1.2698
     1.3555   1.4086   1.4638   1.6467   1.7798   1.9924   2.1082   2.2295
     2.3208   2.4623   2.5896   2.6832   3.1478   3.2810   3.4032   3.4777
     3.7013   3.8668   3.9396   4.0599   4.3414   4.5853   4.7208

          k = 0.0608-0.1052 0.0000 ( 16272 PWs)   bands (ev):

   -77.3046 -77.2888 -77.2806 -77.2420 -77.2375 -77.2208 -77.2094 -77.1914
   -77.1906 -77.1874 -77.1561 -77.1303 -39.4185 -39.3743 -39.3443 -39.3425
   -39.3331 -39.2776 -39.2676 -39.2660 -39.2498 -39.1779 -39.0741 -39.0213
   -39.0105 -39.0099 -38.9739 -38.9486 -38.9448 -38.9253 -38.8847 -38.8785
   -38.8598 -38.8369 -38.8202 -38.7620 -38.7565 -38.7555 -38.7261 -38.6732
   -38.6537 -38.6495 -38.6247 -38.5698 -38.5635 -38.5434 -38.5336 -38.5267
   -10.2379  -3.5334  -3.3693  -3.2853  -2.3171  -2.0626  -2.0130  -1.5363
    -1.4619  -1.4171  -1.2244  -1.1687  -1.0225  -0.9906  -0.7764  -0.6949
    -0.6883  -0.6406  -0.4927  -0.3195  -0.2957  -0.1780  -0.0504   0.1361
     0.1903   0.4617   0.4633   0.4638   0.5734   0.7036   0.8479   0.8701
     1.0591   1.2356   1.5960   1.6175   1.7827   2.0064   2.0210   2.0394
     2.3076   2.4727   2.5356   2.8586   2.9610   2.9974   3.6119   3.6500
     3.7426   3.9425   4.0033   4.1171   4.4130   4.6667   5.0991

          k = 0.0608-0.0702 0.0000 ( 16218 PWs)   bands (ev):

   -77.3151 -77.2886 -77.2679 -77.2461 -77.2395 -77.2199 -77.2073 -77.2040
   -77.1877 -77.1753 -77.1584 -77.1300 -39.4628 -39.4404 -39.4010 -39.3709
   -39.3346 -39.3268 -39.3041 -39.2286 -39.1756 -39.1547 -39.1204 -39.0831
   -39.0690 -38.9909 -38.9490 -38.9268 -38.8927 -38.8815 -38.8642 -38.8510
   -38.8378 -38.8241 -38.8122 -38.7755 -38.7649 -38.7366 -38.7066 -38.6894
   -38.6687 -38.6454 -38.6139 -38.5874 -38.5671 -38.5329 -38.4945 -38.4715
   -10.2510  -4.2950  -3.4145  -2.7250  -2.5461  -2.3179  -2.0748  -1.9132
    -1.8380  -1.6705  -1.5976  -1.3660  -1.2665  -1.0913  -0.9399  -0.8531
    -0.7449  -0.5579  -0.3494  -0.2235  -0.1205  -0.0707   0.0729   0.2162
     0.4170   0.4945   0.6021   0.8195   0.9968   1.0828   1.1745   1.2705
     1.3549   1.4092   1.4641   1.6465   1.7810   1.9922   2.1085   2.2306
     2.3203   2.4617   2.5901   2.6837   3.1475   3.2807   3.4031   3.4777
     3.7008   3.8669   3.9389   4.0599   4.3413   4.5849   4.7210

          k =-0.0911 0.0526 0.0000 ( 16164 PWs)   bands (ev):

   -77.3116 -77.2971 -77.2597 -77.2446 -77.2433 -77.2225 -77.2052 -77.1994
   -77.1970 -77.1657 -77.1635 -77.1301 -39.4603 -39.4362 -39.4341 -39.3862
   -39.3345 -39.3327 -39.2275 -39.2159 -39.1960 -39.1474 -39.1363 -39.1343
   -39.0543 -38.9409 -38.9096 -38.9029 -38.8726 -38.8687 -38.8629 -38.8525
   -38.8426 -38.8269 -38.8199 -38.8133 -38.7938 -38.7708 -38.7353 -38.7215
   -38.6653 -38.6482 -38.6100 -38.5949 -38.5648 -38.4985 -38.4817 -38.4612
   -10.2510  -4.0841  -3.9128  -2.7308  -2.4343  -2.0533  -1.9035  -1.9016
    -1.8652  -1.8117  -1.7645  -1.4824  -1.1648  -0.9502  -0.9262  -0.8341
    -0.6815  -0.5504  -0.5113  -0.2838  -0.0813  -0.0075   0.1753   0.1804
     0.3939   0.4808   0.8441   0.9821   1.1284   1.2139   1.2491   1.3261
     1.3921   1.4084   1.5165   1.6338   1.7638   1.8098   1.9011   2.0621
     2.2368   2.2865   2.5313   3.1349   3.1851   3.2488   3.3051   3.4921
     3.7219   3.7972   3.8718   4.0139   4.3177   4.3182   4.3937

          k =-0.0911 0.0877 0.0000 ( 16218 PWs)   bands (ev):

   -77.3151 -77.2886 -77.2679 -77.2461 -77.2395 -77.2199 -77.2072 -77.2040
   -77.1877 -77.1753 -77.1584 -77.1300 -39.4628 -39.4404 -39.4010 -39.3709
   -39.3344 -39.3268 -39.3040 -39.2287 -39.1755 -39.1548 -39.1204 -39.0829
   -39.0690 -38.9909 -38.9496 -38.9267 -38.8926 -38.8815 -38.8641 -38.8510
   -38.8377 -38.8242 -38.8122 -38.7754 -38.7647 -38.7369 -38.7067 -38.6893
   -38.6687 -38.6454 -38.6139 -38.5874 -38.5670 -38.5329 -38.4945 -38.4715
   -10.2510  -4.2950  -3.4145  -2.7248  -2.5463  -2.3180  -2.0750  -1.9131
    -1.8381  -1.6707  -1.5975  -1.3653  -1.2667  -1.0917  -0.9400  -0.8529
    -0.7449  -0.5576  -0.3492  -0.2236  -0.1207  -0.0704   0.0729   0.2159
     0.4171   0.4946   0.6022   0.8198   0.9968   1.0825   1.1750   1.2705
     1.3550   1.4094   1.4637   1.6464   1.7805   1.9922   2.1086   2.2303
     2.3206   2.4620   2.5898   2.6832   3.1477   3.2811   3.4033   3.4777
     3.7006   3.8666   3.9393   4.0598   4.3414   4.5848   4.7218

          k =-0.0911 0.1228 0.0000 ( 16218 PWs)   bands (ev):

   -77.3151 -77.2885 -77.2680 -77.2461 -77.2395 -77.2201 -77.2072 -77.2040
   -77.1877 -77.1753 -77.1584 -77.1300 -39.4628 -39.4403 -39.4011 -39.3712
   -39.3340 -39.3267 -39.3042 -39.2286 -39.1755 -39.1549 -39.1201 -39.0831
   -39.0690 -38.9910 -38.9496 -38.9267 -38.8928 -38.8815 -38.8642 -38.8510
   -38.8378 -38.8242 -38.8123 -38.7753 -38.7651 -38.7367 -38.7066 -38.6892
   -38.6688 -38.6454 -38.6138 -38.5873 -38.5669 -38.5329 -38.4945 -38.4715
   -10.2510  -4.2949  -3.4146  -2.7247  -2.5461  -2.3181  -2.0748  -1.9132
    -1.8380  -1.6708  -1.5973  -1.3663  -1.2668  -1.0911  -0.9398  -0.8526
    -0.7447  -0.5580  -0.3496  -0.2235  -0.1203  -0.0710   0.0733   0.2163
     0.4167   0.4942   0.6028   0.8192   0.9979   1.0831   1.1744   1.2698
     1.3556   1.4085   1.4639   1.6468   1.7800   1.9924   2.1082   2.2296
     2.3207   2.4622   2.5896   2.6833   3.1478   3.2809   3.4032   3.4777
     3.7014   3.8668   3.9395   4.0599   4.3414   4.5853   4.7206

          k =-0.0911-0.0526 0.0000 ( 16164 PWs)   bands (ev):

   -77.3117 -77.2969 -77.2598 -77.2444 -77.2433 -77.2227 -77.2050 -77.1993
   -77.1971 -77.1657 -77.1636 -77.1301 -39.4601 -39.4358 -39.4344 -39.3866
   -39.3347 -39.3320 -39.2276 -39.2158 -39.1960 -39.1473 -39.1365 -39.1342
   -39.0542 -38.9414 -38.9095 -38.9029 -38.8728 -38.8686 -38.8628 -38.8525
   -38.8429 -38.8273 -38.8201 -38.8133 -38.7938 -38.7707 -38.7352 -38.7214
   -38.6651 -38.6484 -38.6101 -38.5949 -38.5643 -38.4985 -38.4816 -38.4613
   -10.2510  -4.0835  -3.9134  -2.7306  -2.4343  -2.0527  -1.9033  -1.9010
    -1.8655  -1.8124  -1.7639  -1.4837  -1.1650  -0.9497  -0.9251  -0.8347
    -0.6823  -0.5494  -0.5114  -0.2837  -0.0810  -0.0074   0.1749   0.1805
     0.3921   0.4822   0.8451   0.9827   1.1274   1.2165   1.2482   1.3257
     1.3926   1.4074   1.5155   1.6348   1.7638   1.8096   1.9011   2.0591
     2.2366   2.2883   2.5303   3.1342   3.1853   3.2500   3.3048   3.4922
     3.7215   3.7971   3.8720   4.0189   4.3164   4.3166   4.3938

     the Fermi energy is     3.2664 ev

!    total energy              =   -2330.44576788 Ry
     Harris-Foulkes estimate   =   -2330.44577877 Ry
     estimated scf accuracy    <       0.00000946 Ry

     The total energy is the sum of the following terms:

     one-electron contribution =  -19028.54085499 Ry
     hartree contribution      =    9503.32422158 Ry
     xc contribution           =    -658.46572756 Ry
     ewald contribution        =    7853.29863097 Ry
     electric field correction =       0.00000049 Ry
     smearing contrib. (-TS)   =      -0.06203837 Ry

     convergence has been achieved in  20 iterations
 
 BEEF-vdW xc energy contributions
           1 :   -585.229358122561     
           2 :    543.987510795159     
           3 :   -469.932035992866     
           4 :    377.083403511435     
           5 :   -280.948456545101     
           6 :    194.608435714287     
           7 :   -126.048677288932     
           8 :    77.3610500615861     
           9 :   -45.8068212536145     
          10 :    26.0815669047389     
          11 :   -12.7915552228795     
          12 :    2.23355299999650     
          13 :    6.98562560985567     
          14 :   -14.4218488833059     
          15 :    18.8973822788613     
          16 :   -19.6431973662339     
          17 :    16.9891204053355     
          18 :   -12.3823926031949     
          19 :    7.82657049085890     
          20 :   -5.06775468883654     
          21 :    4.92202687921281     
          22 :   -7.03512450057099     
          23 :    10.1457161678660     
          24 :   -12.7017153118064     
          25 :    13.5394005061784     
          26 :   -12.3323323035132     
          27 :    9.63852919002954     
          28 :   -6.56444564342894     
          29 :    4.22869638536906     
          30 :   -3.28097902732827     
          31 :   -48.8856418713457     
          32 :   -36.2892857526024     

     Forces acting on atoms (Ry/au):


     negative rho (up, down):  1.623E+00 0.000E+00
     atom    1 type  1   force =    -0.00210940   -0.00119900    0.01807629
     atom    2 type  1   force =     0.00207966   -0.00121995    0.01806328
     atom    3 type  1   force =    -0.00002183    0.00240850    0.01806904
     atom    4 type  1   force =     0.00003265   -0.00000172    0.02004857
     atom    5 type  1   force =     0.00009750   -0.00353156   -0.02381636
     atom    6 type  1   force =    -0.00007792    0.00000953    0.00293115
     atom    7 type  1   force =     0.00311501    0.00176008   -0.02394290
     atom    8 type  1   force =    -0.00304978    0.00182595   -0.02380419
     atom    9 type  1   force =     0.00050838    0.00023826   -0.00124552
     atom   10 type  1   force =    -0.00062475    0.00086949   -0.00094909
     atom   11 type  1   force =     0.00057196   -0.00097790   -0.00087406
     atom   12 type  1   force =    -0.00035266   -0.00013237   -0.00126141
     atom   13 type  2   force =    -0.00016882   -0.00004931   -0.00129482

     Total force =     0.056232     Total SCF correction =     0.021344
     SCF correction compared to forces is large: reduce conv_thr to get better values


     entering subroutine stress ...


     negative rho (up, down):  1.623E+00 0.000E+00
          total   stress  (Ry/bohr**3)                   (kbar)     P=  -12.80
  -0.00007812  -0.00000001  -0.00000018        -11.49     -0.00     -0.03
  -0.00000001  -0.00007806  -0.00000008         -0.00    -11.48     -0.01
  -0.00000018  -0.00000008  -0.00010492         -0.03     -0.01    -15.43

 !ASE

     Writing output data file calc.save
 
     init_run     :     14.43s CPU     20.04s WALL (       1 calls)
     electrons    :    700.00s CPU    939.39s WALL (       1 calls)
     forces       :      5.88s CPU      6.64s WALL (       1 calls)
     stress       :     19.87s CPU     21.30s WALL (       1 calls)

     Called by init_run:
     wfcinit      :     11.32s CPU     16.29s WALL (       1 calls)
     potinit      :      1.17s CPU      1.66s WALL (       1 calls)

     Called by electrons:
     c_bands      :    535.80s CPU    717.32s WALL (      20 calls)
     sum_band     :     86.84s CPU    118.59s WALL (      20 calls)
     v_of_rho     :     20.67s CPU     30.31s WALL (      21 calls)
     newd         :     24.76s CPU     25.25s WALL (      21 calls)
     mix_rho      :      0.80s CPU      1.19s WALL (      20 calls)
     vdW_energy   :      2.57s CPU      2.80s WALL (      57 calls)
     vdW_ffts     :     34.25s CPU     52.59s WALL (     116 calls)
     vdW_v        :      6.40s CPU      9.14s WALL (      57 calls)

     Called by c_bands:
     init_us_2    :      1.44s CPU      1.49s WALL (     860 calls)
     cegterg      :    516.85s CPU    697.51s WALL (     400 calls)

     Called by *egterg:
     h_psi        :    329.81s CPU    496.53s WALL (    2232 calls)
     s_psi        :     22.19s CPU     22.30s WALL (    2232 calls)
     g_psi        :      0.74s CPU      0.74s WALL (    1812 calls)
     cdiaghg      :    109.54s CPU    113.04s WALL (    2212 calls)

     Called by h_psi:
     add_vuspsi   :     22.71s CPU     22.85s WALL (    2232 calls)

     General routines
     calbec       :     43.40s CPU     51.59s WALL (    2672 calls)
     fft          :     51.60s CPU     79.36s WALL (    3489 calls)
     ffts         :      0.16s CPU      0.26s WALL (      41 calls)
     fftw         :    312.33s CPU    501.02s WALL (  266956 calls)
     interpolate  :      0.73s CPU      1.13s WALL (      41 calls)
     davcio       :      0.00s CPU      0.02s WALL (      20 calls)
 
     Parallel routines
     fft_scatter  :    320.93s CPU    535.18s WALL (  270486 calls)
 
     PWSCF        : 12m21.01s CPU    16m28.70s WALL

 
   This run was terminated on:   2: 9:42  20Jan2018            

=------------------------------------------------------------------------------=
   JOB DONE.
=------------------------------------------------------------------------------=
Job  /afs/slac/g/suncat/bin/suncat-tsmpirun -x LD_LIBRARY_PATH -wdir /scratch/qe891277_6vdUv pw.x -in pw.inp

TID   HOST_NAME   COMMAND_LINE            STATUS            TERMINATION_TIME
===== ========== ================  =======================  ===================
00000 suncat0217 pw.x -in pw.inp   Done                     01/20/2018 02:09:42
00001 suncat0217 pw.x -in pw.inp   Done                     01/20/2018 02:09:42
00002 suncat0217 pw.x -in pw.inp   Done                     01/20/2018 02:09:42
00003 suncat0217 pw.x -in pw.inp   Done                     01/20/2018 02:09:42
00004 suncat0217 pw.x -in pw.inp   Done                     01/20/2018 02:09:42
00005 suncat0217 pw.x -in pw.inp   Done                     01/20/2018 02:09:42
00006 suncat0217 pw.x -in pw.inp   Done                     01/20/2018 02:09:42
00007 suncat0217 pw.x -in pw.inp   Done                     01/20/2018 02:09:42
00008 suncat0216 pw.x -in pw.inp   Done                     01/20/2018 02:09:42
00009 suncat0216 pw.x -in pw.inp   Done                     01/20/2018 02:09:42
00010 suncat0216 pw.x -in pw.inp   Done                     01/20/2018 02:09:42
00011 suncat0216 pw.x -in pw.inp   Done                     01/20/2018 02:09:42
00012 suncat0216 pw.x -in pw.inp   Done                     01/20/2018 02:09:42
00013 suncat0216 pw.x -in pw.inp   Done                     01/20/2018 02:09:42
00014 suncat0216 pw.x -in pw.inp   Done                     01/20/2018 02:09:42
00015 suncat0216 pw.x -in pw.inp   Done                     01/20/2018 02:09:42
00016 suncat0215 pw.x -in pw.inp   Done                     01/20/2018 02:09:42
00017 suncat0215 pw.x -in pw.inp   Done                     01/20/2018 02:09:42
00018 suncat0215 pw.x -in pw.inp   Done                     01/20/2018 02:09:42
00019 suncat0215 pw.x -in pw.inp   Done                     01/20/2018 02:09:42
00020 suncat0215 pw.x -in pw.inp   Done                     01/20/2018 02:09:42
00021 suncat0215 pw.x -in pw.inp   Done                     01/20/2018 02:09:42
00022 suncat0215 pw.x -in pw.inp   Done                     01/20/2018 02:09:42
00023 suncat0215 pw.x -in pw.inp   Done                     01/20/2018 02:09:42
00024 suncat0213 pw.x -in pw.inp   Done                     01/20/2018 02:09:42
00025 suncat0213 pw.x -in pw.inp   Done                     01/20/2018 02:09:42
00026 suncat0213 pw.x -in pw.inp   Done                     01/20/2018 02:09:42
00027 suncat0213 pw.x -in pw.inp   Done                     01/20/2018 02:09:42
00028 suncat0213 pw.x -in pw.inp   Done                     01/20/2018 02:09:42
00029 suncat0213 pw.x -in pw.inp   Done                     01/20/2018 02:09:42
00030 suncat0213 pw.x -in pw.inp   Done                     01/20/2018 02:09:42
00031 suncat0213 pw.x -in pw.inp   Done                     01/20/2018 02:09:42
