  python dir          : /u/if/mamunm/src/espresso
  espresso dir        : /nfs/slac/g/suncatfs/sw/espv18/espresso-dynpy-beef/bin
  pseudo dir          : /u/if/mamunm/psp/gbrv1.5pbe
  ase-espresso py git : GITVERSION



     Program PWSCF v.5.1rc2 (svn rev. 11289) starts on  3May2018 at  6:39:51 

     This program is part of the open-source Quantum ESPRESSO suite
     for quantum simulation of materials; please cite
         "P. Giannozzi et al., J. Phys.:Condens. Matter 21 395502 (2009);
          URL http://www.quantum-espresso.org", 
     in publications or presentations arising from this work. More details at
     http://www.quantum-espresso.org/quote

     Parallel version (MPI), running on    32 processors
     K-points division:     npool     =       4
     R & G space division:  proc/nbgrp/npool/nimage =       8
     Reading input from pw.inp
     Message from routine read_cards :
     DEPRECATED: no units specified in CELL_PARAMETERS card

     Current dimensions of program PWSCF are:
     Max number of different atomic species (ntypx) = 10
     Max number of k-points (npk) =  40000
     Max angular momentum in pseudopotentials (lmaxx) =  3
     Presently stress not available with electric field


     **************************************************************************
     Initializing libbeef V0.1.1 with the BEEF-vdW functional.
     Citation: Wellendorff et al., PRB 85, 235149 (2012).
     **************************************************************************


     IMPORTANT: XC functional enforced from input :
     Exchange-correlation      = BEEF-VDW ( 1  4 27 13 2)
     Any further DFT definition will be discarded
     Please, verify this is what you really want


     Subspace diagonalization in iterative solution of the eigenvalue problem:
     a serial algorithm will be used

 
     Parallelization info
     --------------------
     sticks:   dense  smooth     PW     G-vecs:    dense   smooth      PW
     Min         403     160     46                77132    19506    3044
     Max         407     161     50                77135    19535    3047
     Sum        3241    1285    379               617075   156145   24367
 


     bravais-lattice index     =            0
     lattice parameter (alat)  =       1.8897  a.u.
     unit-cell volume          =    5185.0501 (a.u.)^3
     number of atoms/cell      =           13
     number of atomic types    =            2
     number of electrons       =       160.00
     number of Kohn-Sham states=           90
     kinetic-energy cutoff     =      36.7493  Ry
     charge density cutoff     =     367.4932  Ry
     convergence threshold     =      1.0E-05
     mixing beta               =       0.3000
     number of iterations used =           10  plain     mixing
     Exchange-correlation      = BEEF-VDW ( 1  4 27 13 2)
     nstep                     =           50


     celldm(1)=   1.889726  celldm(2)=   0.000000  celldm(3)=   0.000000
     celldm(4)=   0.000000  celldm(5)=   0.000000  celldm(6)=   0.000000

     crystal axes: (cart. coord. in units of alat)
               a(1) = (   5.972022   0.000000   0.000000 )  
               a(2) = (   2.986011   5.171923   0.000000 )  
               a(3) = (   0.000000   0.000000  24.876136 )  

     reciprocal axes: (cart. coord. in units 2 pi/alat)
               b(1) = (  0.167447 -0.096676  0.000000 )  
               b(2) = (  0.000000  0.193352  0.000000 )  
               b(3) = (  0.000000  0.000000  0.040199 )  


     PseudoPot. # 1 for Ta read from file:
     /u/if/mamunm/psp/gbrv1.5pbe/Ta.UPF
     MD5 check sum: f8bbe9446314a3b8ea5d9f3e3836c939
     Pseudo is Ultrasoft + core correction, Zval = 13.0
     Generated by new atomic code, or converted to UPF format
     Using radial grid of  921 points,  7 beta functions with: 
                l(1) =   0
                l(2) =   0
                l(3) =   1
                l(4) =   1
                l(5) =   2
                l(6) =   2
                l(7) =   3
     Q(r) pseudized with  6 coefficients,  rinner =    1.300   1.300   1.300
                                                       1.300   1.300   1.300
                                                       1.300

     PseudoPot. # 2 for C  read from file:
     /u/if/mamunm/psp/gbrv1.5pbe/C.UPF
     MD5 check sum: d1aef80898a10debaa0f26306b886e00
     Pseudo is Ultrasoft + core correction, Zval =  4.0
     Generated by new atomic code, or converted to UPF format
     Using radial grid of  721 points,  4 beta functions with: 
                l(1) =   0
                l(2) =   0
                l(3) =   1
                l(4) =   1
     Q(r) pseudized with  8 coefficients,  rinner =    1.100   1.100   1.100


     vdW kernel table read from file vdW_kernel_table
     MD5 check sum: 095c7af220d748ca6e76c0b4c6cfb241

     atomic species   valence    mass     pseudopotential
        Ta1           13.00   180.94788     Ta( 1.00)
        C1             4.00    12.01100     C ( 1.00)

     No symmetry found



   Cartesian axes

     site n.     atom                  positions (alat units)
         1           Ta1 tau(   1) = (   1.4930055   0.8619871  10.0000000  )
         2           Ta1 tau(   2) = (   4.4790165   0.8619871  10.0000000  )
         3           Ta1 tau(   3) = (   2.9860110   3.4479485  10.0000000  )
         4           Ta1 tau(   4) = (   5.9720221   3.4479485  10.0000000  )
         5           Ta1 tau(   5) = (   5.9720221   1.7239743  12.4380678  )
         6           Ta1 tau(   6) = (   2.9860110   1.7239743  12.4380678  )
         7           Ta1 tau(   7) = (   7.4650276   4.3099357  12.4380678  )
         8           Ta1 tau(   8) = (   4.4790165   4.3099357  12.4380678  )
         9           Ta1 tau(   9) = (   0.0000000   0.0000000  14.8761356  )
        10           Ta1 tau(  10) = (   2.9860110   0.0000000  14.8761356  )
        11           Ta1 tau(  11) = (   1.4930055   2.5859614  14.8761356  )
        12           Ta1 tau(  12) = (   4.4790165   2.5859614  14.8761356  )
        13           C1  tau(  13) = (   2.9860110   1.7239743  16.4751356  )

     number of k points=    20  Fermi-Dirac smearing, width (Ry)=  0.0110
                       cart. coord. in units 2pi/alat
        k(    1) = (   0.0000000   0.0000000   0.0000000), wk =   0.0555556
        k(    2) = (   0.0000000   0.0322253   0.0000000), wk =   0.1111111
        k(    3) = (   0.0000000   0.0644506   0.0000000), wk =   0.1111111
        k(    4) = (   0.0000000  -0.0966758   0.0000000), wk =   0.0555556
        k(    5) = (   0.0279079  -0.0161126   0.0000000), wk =   0.1111111
        k(    6) = (   0.0279079   0.0161126   0.0000000), wk =   0.1111111
        k(    7) = (   0.0279079   0.0483379   0.0000000), wk =   0.1111111
        k(    8) = (   0.0279079  -0.1127885   0.0000000), wk =   0.1111111
        k(    9) = (   0.0279079  -0.0805632   0.0000000), wk =   0.1111111
        k(   10) = (   0.0279079  -0.0483379   0.0000000), wk =   0.1111111
        k(   11) = (   0.0558158  -0.0322253   0.0000000), wk =   0.1111111
        k(   12) = (   0.0558158   0.0000000   0.0000000), wk =   0.1111111
        k(   13) = (   0.0558158   0.0322253   0.0000000), wk =   0.1111111
        k(   14) = (   0.0558158  -0.1289011   0.0000000), wk =   0.1111111
        k(   15) = (   0.0558158  -0.0966758   0.0000000), wk =   0.1111111
        k(   16) = (   0.0558158  -0.0644506   0.0000000), wk =   0.1111111
        k(   17) = (  -0.0837237   0.0483379   0.0000000), wk =   0.0555556
        k(   18) = (  -0.0837237   0.0805632   0.0000000), wk =   0.1111111
        k(   19) = (  -0.0837237   0.1127885   0.0000000), wk =   0.1111111
        k(   20) = (  -0.0837237  -0.0483379   0.0000000), wk =   0.0555556

     Dense  grid:   617075 G-vectors     FFT dimensions: (  72,  72, 288)

     Smooth grid:   156145 G-vectors     FFT dimensions: (  45,  45, 192)

     Largest allocated arrays     est. size (Mb)     dimensions
        Kohn-Sham Wavefunctions         3.42 Mb     (    2487,   90)
        NL pseudopotentials            11.69 Mb     (    2487,  308)
        Each V/rho on FFT grid          2.85 Mb     (  186624)
        Each G-vector array             0.59 Mb     (   77132)
        G-vector shells                 0.16 Mb     (   21038)
     Largest temporary arrays     est. size (Mb)     dimensions
        Auxiliary wavefunctions        13.66 Mb     (    2487,  360)
        Each subspace H/S matrix        1.98 Mb     (     360,  360)
        Each <psi_i|beta_j> matrix      0.42 Mb     (     308,   90)
        Arrays for rho mixing          28.48 Mb     (  186624,   10)

     Initial potential from superposition of free atoms
     Check: negative starting charge=   -1.121513

     starting charge  159.98661, renormalised to  160.00000

     negative rho (up, down):  1.122E+00 0.000E+00


     ************************************************************************
     *
     * You are using vdW-DF for exchange-correlation in this calculation.
     * Please cite the following three references that made this development
     * possible:
     *
     *   M. Dion, H. Rydberg, E. Schroder, D. C. Langreth, and
     *   B. I. Lundqvist, Phys. Rev. Lett. 92, 246401 (2004).
     *
     *   T. Thonhauser, V. R. Cooper, S. Li, A. Puzder, P. Hyldgaard, and
     *   D. C. Langreth, Phys. Rev. B 76, 125112 (2007).
     *
     *   G. Roman-Perez and J. M. Soler, Phys. Rev. Lett. 103, 096102 (2009).
     *
     *
     * If you are using vdW-DF2, please also cite:
     *
     *   K. Lee, E. D. Murray, L. Kong, B. I. Lundqvist, and
     *   D. C. Langreth, Phys. Rev. B 82, 081101(R) (2010).
     *
     *
     * If you are calculating the stress with vdW-DF, please also cite:
     *
     *   R. Sabatini, E. Kucukbenli, B. Kolb, T. Thonhauser, and
     *   S. de Gironcoli, J. Phys.: Condens. Matter 24, 424209 (2012).
     *
     ************************************************************************

     Carrying out vdW-DF run using the following parameters:

     Nqs =      20    Nr_points =    1024   r_max =   100.000
     q_mesh =
               0.00001000     0.04494208     0.09755937     0.15916263
               0.23128650     0.31572767     0.41458969     0.53033537
               0.66584808     0.82450364     1.01025438     1.22772762
               1.48234092     1.78043706     2.12944203     2.53805004
               3.01644009     3.57652955     4.23227104     5.00000000

     Gradients computed in reciprocal space

     ************************************************************************


 
     Adding external electric field

     Computed dipole along edir(3) : 
        Dipole               -0.0022 Ry au,         -0.0057 Debye
        Dipole field         -0.0000 Ry au
 
        Potential amp.        0.0005 Ry
        Total length         45.8339 bohr
 
     Starting wfc are  160 randomized atomic wfcs

     total cpu time spent up to now is       17.3 secs

     per-process dynamical memory:    94.4 Mb

     Self-consistent Calculation

     iteration #  1     ecut=    36.75 Ry     beta=0.30
     Davidson diagonalization with overlap
     ethr =  1.00E-02,  avg # of iterations =  2.0

     negative rho (up, down):  1.136E+00 0.000E+00
 
     Adding external electric field

     Computed dipole along edir(3) : 
        Dipole               -5.2167 Ry au,        -13.2595 Debye
        Dipole field         -0.0126 Ry au
 
        Potential amp.        1.1590 Ry
        Total length         45.8339 bohr
 

     total cpu time spent up to now is       42.7 secs

     total energy              =   -1727.35951290 Ry
     Harris-Foulkes estimate   =   -1730.11489701 Ry
     estimated scf accuracy    <       6.00530996 Ry

     iteration #  2     ecut=    36.75 Ry     beta=0.30
     Davidson diagonalization with overlap
     ethr =  3.75E-03,  avg # of iterations = 10.3

     negative rho (up, down):  1.136E+00 0.000E+00
 
     Adding external electric field

     Computed dipole along edir(3) : 
        Dipole                1.3828 Ry au,          3.5148 Debye
        Dipole field          0.0034 Ry au
 
        Potential amp.       -0.3072 Ry
        Total length         45.8339 bohr
 

     total cpu time spent up to now is       78.9 secs

     total energy              =   -1711.41259250 Ry
     Harris-Foulkes estimate   =   -1746.18982422 Ry
     estimated scf accuracy    <    1056.45654193 Ry

     iteration #  3     ecut=    36.75 Ry     beta=0.30
     Davidson diagonalization with overlap
     ethr =  3.75E-03,  avg # of iterations =  6.7

     negative rho (up, down):  1.138E+00 0.000E+00
 
     Adding external electric field

     Computed dipole along edir(3) : 
        Dipole                0.7414 Ry au,          1.8846 Debye
        Dipole field          0.0018 Ry au
 
        Potential amp.       -0.1647 Ry
        Total length         45.8339 bohr
 

     total cpu time spent up to now is      113.0 secs

     total energy              =   -1727.91326759 Ry
     Harris-Foulkes estimate   =   -1731.37731272 Ry
     estimated scf accuracy    <      65.83292575 Ry

     iteration #  4     ecut=    36.75 Ry     beta=0.30
     Davidson diagonalization with overlap
     ethr =  3.75E-03,  avg # of iterations =  4.0

     negative rho (up, down):  1.142E+00 0.000E+00
 
     Adding external electric field

     Computed dipole along edir(3) : 
        Dipole                0.8343 Ry au,          2.1206 Debye
        Dipole field          0.0020 Ry au
 
        Potential amp.       -0.1854 Ry
        Total length         45.8339 bohr
 

     total cpu time spent up to now is      140.4 secs

     total energy              =   -1729.55311002 Ry
     Harris-Foulkes estimate   =   -1730.02922601 Ry
     estimated scf accuracy    <       9.93853257 Ry

     iteration #  5     ecut=    36.75 Ry     beta=0.30
     Davidson diagonalization with overlap
     ethr =  3.75E-03,  avg # of iterations =  1.4

     negative rho (up, down):  1.150E+00 0.000E+00
 
     Adding external electric field

     Computed dipole along edir(3) : 
        Dipole                0.5271 Ry au,          1.3398 Debye
        Dipole field          0.0013 Ry au
 
        Potential amp.       -0.1171 Ry
        Total length         45.8339 bohr
 

     total cpu time spent up to now is      165.1 secs

     total energy              =   -1729.73507559 Ry
     Harris-Foulkes estimate   =   -1729.77677947 Ry
     estimated scf accuracy    <       0.28938595 Ry

     iteration #  6     ecut=    36.75 Ry     beta=0.30
     Davidson diagonalization with overlap
     ethr =  1.81E-04,  avg # of iterations =  5.5

     negative rho (up, down):  1.157E+00 0.000E+00
 
     Adding external electric field

     Computed dipole along edir(3) : 
        Dipole                0.6269 Ry au,          1.5935 Debye
        Dipole field          0.0015 Ry au
 
        Potential amp.       -0.1393 Ry
        Total length         45.8339 bohr
 

     total cpu time spent up to now is      193.7 secs

     total energy              =   -1729.74820072 Ry
     Harris-Foulkes estimate   =   -1729.78353291 Ry
     estimated scf accuracy    <       0.98349118 Ry

     iteration #  7     ecut=    36.75 Ry     beta=0.30
     Davidson diagonalization with overlap
     ethr =  1.81E-04,  avg # of iterations =  2.5

     negative rho (up, down):  1.164E+00 0.000E+00
 
     Adding external electric field

     Computed dipole along edir(3) : 
        Dipole                0.3690 Ry au,          0.9380 Debye
        Dipole field          0.0009 Ry au
 
        Potential amp.       -0.0820 Ry
        Total length         45.8339 bohr
 

     total cpu time spent up to now is      219.0 secs

     total energy              =   -1729.75870460 Ry
     Harris-Foulkes estimate   =   -1729.77117715 Ry
     estimated scf accuracy    <       0.11745867 Ry

     iteration #  8     ecut=    36.75 Ry     beta=0.30
     Davidson diagonalization with overlap
     ethr =  7.34E-05,  avg # of iterations =  2.1

     negative rho (up, down):  1.170E+00 0.000E+00
 
     Adding external electric field

     Computed dipole along edir(3) : 
        Dipole                0.1856 Ry au,          0.4719 Debye
        Dipole field          0.0004 Ry au
 
        Potential amp.       -0.0412 Ry
        Total length         45.8339 bohr
 

     total cpu time spent up to now is      244.4 secs

     total energy              =   -1729.76090817 Ry
     Harris-Foulkes estimate   =   -1729.76545637 Ry
     estimated scf accuracy    <       0.04155336 Ry

     iteration #  9     ecut=    36.75 Ry     beta=0.30
     Davidson diagonalization with overlap
     ethr =  2.60E-05,  avg # of iterations =  5.0

     negative rho (up, down):  1.172E+00 0.000E+00
 
     Adding external electric field

     Computed dipole along edir(3) : 
        Dipole                0.0642 Ry au,          0.1631 Debye
        Dipole field          0.0002 Ry au
 
        Potential amp.       -0.0143 Ry
        Total length         45.8339 bohr
 

     total cpu time spent up to now is      271.7 secs

     total energy              =   -1729.76045518 Ry
     Harris-Foulkes estimate   =   -1729.76422852 Ry
     estimated scf accuracy    <       0.07609989 Ry

     iteration # 10     ecut=    36.75 Ry     beta=0.30
     Davidson diagonalization with overlap
     ethr =  2.60E-05,  avg # of iterations =  1.1

     negative rho (up, down):  1.174E+00 0.000E+00
 
     Adding external electric field

     Computed dipole along edir(3) : 
        Dipole               -0.0770 Ry au,         -0.1957 Debye
        Dipole field         -0.0002 Ry au
 
        Potential amp.        0.0171 Ry
        Total length         45.8339 bohr
 

     total cpu time spent up to now is      296.2 secs

     total energy              =   -1729.75799881 Ry
     Harris-Foulkes estimate   =   -1729.76138753 Ry
     estimated scf accuracy    <       0.02982514 Ry

     iteration # 11     ecut=    36.75 Ry     beta=0.30
     Davidson diagonalization with overlap
     ethr =  1.86E-05,  avg # of iterations =  2.1

     negative rho (up, down):  1.176E+00 0.000E+00
 
     Adding external electric field

     Computed dipole along edir(3) : 
        Dipole               -0.1726 Ry au,         -0.4387 Debye
        Dipole field         -0.0004 Ry au
 
        Potential amp.        0.0383 Ry
        Total length         45.8339 bohr
 

     total cpu time spent up to now is      321.3 secs

     total energy              =   -1729.75795157 Ry
     Harris-Foulkes estimate   =   -1729.75891820 Ry
     estimated scf accuracy    <       0.00268158 Ry

     iteration # 12     ecut=    36.75 Ry     beta=0.30
     Davidson diagonalization with overlap
     ethr =  1.68E-06,  avg # of iterations =  8.3

     negative rho (up, down):  1.176E+00 0.000E+00
 
     Adding external electric field

     Computed dipole along edir(3) : 
        Dipole               -0.2171 Ry au,         -0.5519 Debye
        Dipole field         -0.0005 Ry au
 
        Potential amp.        0.0482 Ry
        Total length         45.8339 bohr
 

     total cpu time spent up to now is      353.1 secs

     total energy              =   -1729.75809117 Ry
     Harris-Foulkes estimate   =   -1729.75829739 Ry
     estimated scf accuracy    <       0.00180542 Ry

     iteration # 13     ecut=    36.75 Ry     beta=0.30
     Davidson diagonalization with overlap
     ethr =  1.13E-06,  avg # of iterations =  1.1

     negative rho (up, down):  1.177E+00 0.000E+00
 
     Adding external electric field

     Computed dipole along edir(3) : 
        Dipole               -0.3087 Ry au,         -0.7847 Debye
        Dipole field         -0.0007 Ry au
 
        Potential amp.        0.0686 Ry
        Total length         45.8339 bohr
 

     total cpu time spent up to now is      378.6 secs

     total energy              =   -1729.75806880 Ry
     Harris-Foulkes estimate   =   -1729.75804508 Ry
     estimated scf accuracy    <       0.00039076 Ry

     iteration # 14     ecut=    36.75 Ry     beta=0.30
     Davidson diagonalization with overlap
     ethr =  2.44E-07,  avg # of iterations =  4.0

     negative rho (up, down):  1.177E+00 0.000E+00
 
     Adding external electric field

     Computed dipole along edir(3) : 
        Dipole               -0.3081 Ry au,         -0.7830 Debye
        Dipole field         -0.0007 Ry au
 
        Potential amp.        0.0684 Ry
        Total length         45.8339 bohr
 

     total cpu time spent up to now is      407.5 secs

     total energy              =   -1729.75811950 Ry
     Harris-Foulkes estimate   =   -1729.75816167 Ry
     estimated scf accuracy    <       0.00041642 Ry

     iteration # 15     ecut=    36.75 Ry     beta=0.30
     Davidson diagonalization with overlap
     ethr =  2.44E-07,  avg # of iterations =  2.0

     negative rho (up, down):  1.177E+00 0.000E+00
 
     Adding external electric field

     Computed dipole along edir(3) : 
        Dipole               -0.3184 Ry au,         -0.8092 Debye
        Dipole field         -0.0008 Ry au
 
        Potential amp.        0.0707 Ry
        Total length         45.8339 bohr
 

     total cpu time spent up to now is      432.9 secs

     total energy              =   -1729.75817389 Ry
     Harris-Foulkes estimate   =   -1729.75813145 Ry
     estimated scf accuracy    <       0.00001920 Ry

     iteration # 16     ecut=    36.75 Ry     beta=0.30
     Davidson diagonalization with overlap
     ethr =  1.20E-08,  avg # of iterations =  5.0

     negative rho (up, down):  1.177E+00 0.000E+00
 
     Adding external electric field

     Computed dipole along edir(3) : 
        Dipole               -0.3246 Ry au,         -0.8250 Debye
        Dipole field         -0.0008 Ry au
 
        Potential amp.        0.0721 Ry
        Total length         45.8339 bohr
 

     total cpu time spent up to now is      463.5 secs

     total energy              =   -1729.75818305 Ry
     Harris-Foulkes estimate   =   -1729.75817154 Ry
     estimated scf accuracy    <       0.00002447 Ry

     iteration # 17     ecut=    36.75 Ry     beta=0.30
     Davidson diagonalization with overlap
     ethr =  1.20E-08,  avg # of iterations =  3.2

     negative rho (up, down):  1.177E+00 0.000E+00
 
     Adding external electric field

     Computed dipole along edir(3) : 
        Dipole               -0.3237 Ry au,         -0.8229 Debye
        Dipole field         -0.0008 Ry au
 
        Potential amp.        0.0719 Ry
        Total length         45.8339 bohr
 

     total cpu time spent up to now is      493.7 secs

     total energy              =   -1729.75818270 Ry
     Harris-Foulkes estimate   =   -1729.75818660 Ry
     estimated scf accuracy    <       0.00001887 Ry

     iteration # 18     ecut=    36.75 Ry     beta=0.30
     Davidson diagonalization with overlap
     ethr =  1.18E-08,  avg # of iterations =  2.0

     negative rho (up, down):  1.177E+00 0.000E+00

     negative rho (up, down):  1.177E+00 0.000E+00

     negative rho (up, down):  1.177E+00 0.000E+00

     negative rho (up, down):  1.177E+00 0.000E+00

     negative rho (up, down):  1.177E+00 0.000E+00

     negative rho (up, down):  1.177E+00 0.000E+00

     negative rho (up, down):  1.177E+00 0.000E+00

     negative rho (up, down):  1.177E+00 0.000E+00

     negative rho (up, down):  1.177E+00 0.000E+00

     negative rho (up, down):  1.177E+00 0.000E+00

     negative rho (up, down):  1.177E+00 0.000E+00

     negative rho (up, down):  1.177E+00 0.000E+00

     negative rho (up, down):  1.177E+00 0.000E+00

     negative rho (up, down):  1.177E+00 0.000E+00

     negative rho (up, down):  1.177E+00 0.000E+00

     negative rho (up, down):  1.177E+00 0.000E+00

     negative rho (up, down):  1.177E+00 0.000E+00

     negative rho (up, down):  1.177E+00 0.000E+00

     negative rho (up, down):  1.177E+00 0.000E+00

     negative rho (up, down):  1.177E+00 0.000E+00

     negative rho (up, down):  1.177E+00 0.000E+00

     negative rho (up, down):  1.177E+00 0.000E+00

     negative rho (up, down):  1.177E+00 0.000E+00

     negative rho (up, down):  1.177E+00 0.000E+00

     negative rho (up, down):  1.177E+00 0.000E+00

     negative rho (up, down):  1.177E+00 0.000E+00

     negative rho (up, down):  1.177E+00 0.000E+00

     negative rho (up, down):  1.177E+00 0.000E+00

     negative rho (up, down):  1.177E+00 0.000E+00

     negative rho (up, down):  1.177E+00 0.000E+00

     negative rho (up, down):  1.177E+00 0.000E+00

     negative rho (up, down):  1.177E+00 0.000E+00

     negative rho (up, down):  1.177E+00 0.000E+00

     negative rho (up, down):  1.177E+00 0.000E+00

     negative rho (up, down):  1.177E+00 0.000E+00
 
     Adding external electric field

     Computed dipole along edir(3) : 
        Dipole               -0.3387 Ry au,         -0.8608 Debye
        Dipole field         -0.0008 Ry au
 
        Potential amp.        0.0752 Ry
        Total length         45.8339 bohr
 

     total cpu time spent up to now is      575.7 secs

     End of self-consistent calculation

          k = 0.0000 0.0000 0.0000 ( 19447 PWs)   bands (ev):

   -66.7018 -66.6212 -66.5720 -66.5652 -66.5650 -66.5571 -66.5322 -66.5321
   -66.5036 -66.4601 -66.4601 -66.4369 -33.3591 -33.3591 -33.3465 -33.3180
   -33.2924 -33.2923 -33.2831 -33.2617 -33.2616 -33.2294 -33.0876 -32.9776
   -32.9331 -32.9330 -32.8836 -32.8601 -32.8600 -32.7596 -32.7596 -32.7582
   -32.7038 -32.7038 -32.6990 -32.6581 -32.6580 -32.6532 -32.6016 -32.5979
   -32.5930 -32.5929 -32.5435 -32.5435 -32.5168 -32.5167 -32.4456 -32.4456
    -7.5445  -5.5878  -3.9043  -2.9970  -2.4517  -2.4517  -2.3787  -2.2426
    -2.2426  -2.1157  -1.6122  -1.6122  -1.5354  -1.2681  -1.2681  -1.2279
    -0.2342  -0.2342  -0.0021   0.6847   0.6847   0.7365   1.1229   1.3176
     1.3176   1.5638   1.6722   1.8063   1.9773   1.9773   2.1399   2.1399
     2.3333   2.3625   2.3625   2.4350   2.4721   2.4721   2.5653   2.5653
     3.0733   3.0942

          k = 0.0000 0.0322 0.0000 ( 19481 PWs)   bands (ev):

   -66.7009 -66.6173 -66.5702 -66.5681 -66.5650 -66.5580 -66.5347 -66.5322
   -66.5006 -66.4623 -66.4601 -66.4378 -33.3337 -33.3278 -33.3183 -33.2935
   -33.2692 -33.2624 -33.2567 -33.2366 -33.2254 -33.1938 -33.0854 -32.9895
   -32.9543 -32.9460 -32.8798 -32.8521 -32.8484 -32.7861 -32.7810 -32.7508
   -32.7449 -32.7378 -32.6912 -32.6520 -32.6459 -32.6449 -32.6294 -32.6220
   -32.6131 -32.5886 -32.5864 -32.5564 -32.5422 -32.5274 -32.4934 -32.4546
    -7.4908  -5.3763  -3.6972  -2.7622  -2.5717  -2.2989  -2.2598  -2.1641
    -2.0634  -1.9712  -1.4864  -1.3795  -1.3242  -1.1355  -1.1237  -1.0788
    -0.2079  -0.2055   0.0540   0.5769   0.6555   0.7604   1.0496   1.3308
     1.3323   1.4584   1.4918   1.6185   1.8016   1.8024   1.8963   2.1088
     2.2132   2.2450   2.2890   2.3362   2.3797   2.4884   2.5078   2.6918
     2.7262   2.8003

          k = 0.0000 0.0645 0.0000 ( 19517 PWs)   bands (ev):

   -66.6992 -66.6068 -66.5779 -66.5656 -66.5650 -66.5589 -66.5411 -66.5322
   -66.4924 -66.4692 -66.4601 -66.4392 -33.2835 -33.2709 -33.2462 -33.2182
   -33.2159 -33.1951 -33.1828 -33.1749 -33.1502 -33.0816 -33.0761 -33.0107
   -32.9880 -32.9829 -32.8683 -32.8494 -32.8406 -32.8267 -32.8216 -32.8120
   -32.8110 -32.7516 -32.7199 -32.7157 -32.6918 -32.6827 -32.6631 -32.6317
   -32.6316 -32.6191 -32.6135 -32.5952 -32.5687 -32.5678 -32.5445 -32.4798
    -7.3868  -4.7760  -3.1791  -3.0392  -2.1978  -2.0582  -1.9225  -1.9028
    -1.6252  -1.5801  -1.2664  -0.7981  -0.7852  -0.7459  -0.7250  -0.5894
    -0.1766  -0.1611   0.1993   0.4389   0.4777   0.5183   0.7542   0.9334
     1.0495   1.1249   1.1833   1.2720   1.5741   1.5907   1.6414   1.7031
     1.7437   1.7961   1.8634   1.9329   2.1098   2.1545   2.3292   2.5419
     2.6024   2.7890

          k = 0.0000-0.0967 0.0000 ( 19532 PWs)   bands (ev):

   -66.6983 -66.5942 -66.5903 -66.5651 -66.5620 -66.5591 -66.5457 -66.5322
   -66.4843 -66.4767 -66.4601 -66.4398 -33.2554 -33.2266 -33.1927 -33.1887
   -33.1887 -33.1778 -33.1268 -33.1152 -33.0975 -33.0580 -33.0291 -33.0199
   -32.9771 -32.9279 -32.9081 -32.8923 -32.8727 -32.8695 -32.8497 -32.8473
   -32.7963 -32.7950 -32.7640 -32.7501 -32.7494 -32.7361 -32.6832 -32.6439
   -32.6284 -32.6279 -32.6224 -32.5987 -32.5854 -32.5814 -32.5233 -32.5076
    -7.3365  -3.9721  -3.8640  -2.6019  -2.3468  -1.6875  -1.6658  -1.4570
    -1.3467  -1.3244  -1.3006  -0.6178  -0.3977  -0.2755  -0.2642  -0.1701
    -0.0922  -0.0851   0.0714   0.2599   0.3799   0.4793   0.4804   0.5934
     0.6957   0.7815   1.0321   1.0956   1.1025   1.1434   1.3509   1.3814
     1.4078   1.5904   1.6581   1.9101   1.9494   1.9755   2.2097   2.4407
     2.4699   2.9323

          k = 0.0279-0.0161 0.0000 ( 19481 PWs)   bands (ev):

   -66.7009 -66.6173 -66.5702 -66.5680 -66.5651 -66.5580 -66.5347 -66.5321
   -66.5006 -66.4624 -66.4601 -66.4378 -33.3337 -33.3278 -33.3183 -33.2935
   -33.2693 -33.2624 -33.2567 -33.2365 -33.2254 -33.1938 -33.0854 -32.9895
   -32.9542 -32.9461 -32.8798 -32.8521 -32.8485 -32.7861 -32.7810 -32.7508
   -32.7449 -32.7378 -32.6912 -32.6520 -32.6459 -32.6449 -32.6294 -32.6220
   -32.6131 -32.5886 -32.5864 -32.5564 -32.5422 -32.5274 -32.4934 -32.4546
    -7.4908  -5.3763  -3.6972  -2.7622  -2.5717  -2.2989  -2.2598  -2.1641
    -2.0634  -1.9712  -1.4864  -1.3795  -1.3242  -1.1355  -1.1237  -1.0788
    -0.2079  -0.2055   0.0540   0.5769   0.6555   0.7604   1.0496   1.3308
     1.3323   1.4584   1.4918   1.6185   1.8016   1.8024   1.8963   2.1088
     2.2132   2.2450   2.2890   2.3362   2.3797   2.4884   2.5077   2.6918
     2.7262   2.8003

          k = 0.0279 0.0161 0.0000 ( 19481 PWs)   bands (ev):

   -66.7009 -66.6173 -66.5702 -66.5680 -66.5652 -66.5580 -66.5348 -66.5321
   -66.5006 -66.4623 -66.4601 -66.4378 -33.3337 -33.3278 -33.3182 -33.2935
   -33.2693 -33.2624 -33.2567 -33.2365 -33.2254 -33.1938 -33.0854 -32.9895
   -32.9542 -32.9461 -32.8798 -32.8520 -32.8485 -32.7861 -32.7810 -32.7508
   -32.7448 -32.7378 -32.6912 -32.6520 -32.6459 -32.6448 -32.6294 -32.6220
   -32.6131 -32.5886 -32.5865 -32.5564 -32.5423 -32.5274 -32.4934 -32.4546
    -7.4908  -5.3763  -3.6972  -2.7622  -2.5717  -2.2989  -2.2597  -2.1641
    -2.0634  -1.9712  -1.4864  -1.3795  -1.3242  -1.1355  -1.1237  -1.0788
    -0.2079  -0.2055   0.0540   0.5769   0.6555   0.7603   1.0496   1.3308
     1.3323   1.4584   1.4918   1.6185   1.8016   1.8024   1.8963   2.1088
     2.2132   2.2450   2.2890   2.3362   2.3797   2.4884   2.5078   2.6918
     2.7262   2.8004

          k = 0.0279 0.0483 0.0000 ( 19485 PWs)   bands (ev):

   -66.6996 -66.6101 -66.5724 -66.5686 -66.5668 -66.5575 -66.5396 -66.5319
   -66.4949 -66.4661 -66.4610 -66.4387 -33.2987 -33.2870 -33.2524 -33.2467
   -33.2228 -33.2174 -33.2095 -33.1942 -33.1553 -33.1294 -33.0816 -33.0069
   -32.9859 -32.9670 -32.8689 -32.8607 -32.8499 -32.8348 -32.8263 -32.7623
   -32.7535 -32.7261 -32.7158 -32.7029 -32.6934 -32.6731 -32.6423 -32.6358
   -32.6231 -32.6001 -32.5999 -32.5925 -32.5782 -32.5561 -32.5375 -32.4782
    -7.4125  -4.9677  -3.3130  -2.6208  -2.5769  -2.3133  -2.0106  -1.9178
    -1.7502  -1.6262  -1.1770  -1.1651  -0.9011  -0.8563  -0.8417  -0.7455
    -0.2082  -0.1511   0.1334   0.4804   0.4903   0.7390   0.8825   1.0739
     1.1548   1.2155   1.2521   1.2974   1.5133   1.7076   1.7492   1.7900
     1.8559   1.9514   2.0122   2.0589   2.1839   2.2818   2.3955   2.5954
     2.6692   2.6940

          k = 0.0279-0.1128 0.0000 ( 19521 PWs)   bands (ev):

   -66.6983 -66.5978 -66.5831 -66.5717 -66.5613 -66.5561 -66.5467 -66.5317
   -66.4858 -66.4734 -66.4624 -66.4393 -33.2569 -33.2233 -33.1947 -33.1824
   -33.1693 -33.1622 -33.1337 -33.1230 -33.0783 -33.0675 -33.0286 -33.0241
   -33.0089 -32.9843 -32.9437 -32.9197 -32.8648 -32.8464 -32.8271 -32.8187
   -32.8077 -32.7697 -32.7661 -32.7370 -32.7231 -32.7011 -32.6697 -32.6604
   -32.6456 -32.6352 -32.6097 -32.6008 -32.5864 -32.5727 -32.5548 -32.5155
    -7.3371  -4.2214  -3.3231  -2.6780  -2.4921  -2.0913  -1.6538  -1.5231
    -1.2374  -1.1224  -1.0201  -0.6089  -0.5080  -0.4188  -0.3423  -0.2920
    -0.1224  -0.0523   0.1447   0.2415   0.3067   0.4223   0.5105   0.6462
     0.7418   0.8499   0.9075   1.0001   1.0770   1.2228   1.2818   1.3418
     1.4570   1.5683   1.7488   1.8056   2.0035   2.1384   2.3297   2.4452
     2.5768   2.8674

          k = 0.0279-0.0806 0.0000 ( 19521 PWs)   bands (ev):

   -66.6983 -66.5978 -66.5831 -66.5717 -66.5614 -66.5561 -66.5466 -66.5317
   -66.4858 -66.4734 -66.4623 -66.4393 -33.2569 -33.2233 -33.1947 -33.1824
   -33.1693 -33.1622 -33.1337 -33.1230 -33.0783 -33.0675 -33.0286 -33.0241
   -33.0089 -32.9843 -32.9437 -32.9197 -32.8648 -32.8463 -32.8271 -32.8187
   -32.8077 -32.7697 -32.7661 -32.7370 -32.7231 -32.7011 -32.6697 -32.6604
   -32.6456 -32.6352 -32.6097 -32.6008 -32.5864 -32.5727 -32.5548 -32.5155
    -7.3371  -4.2214  -3.3231  -2.6780  -2.4921  -2.0913  -1.6538  -1.5231
    -1.2374  -1.1224  -1.0201  -0.6089  -0.5080  -0.4188  -0.3423  -0.2920
    -0.1224  -0.0523   0.1447   0.2415   0.3067   0.4222   0.5104   0.6462
     0.7418   0.8499   0.9075   1.0001   1.0770   1.2228   1.2818   1.3418
     1.4570   1.5683   1.7488   1.8056   2.0035   2.1384   2.3297   2.4452
     2.5768   2.8674

          k = 0.0279-0.0483 0.0000 ( 19485 PWs)   bands (ev):

   -66.6996 -66.6101 -66.5725 -66.5686 -66.5668 -66.5575 -66.5395 -66.5320
   -66.4949 -66.4662 -66.4610 -66.4387 -33.2987 -33.2870 -33.2524 -33.2467
   -33.2229 -33.2174 -33.2095 -33.1942 -33.1553 -33.1294 -33.0816 -33.0069
   -32.9859 -32.9670 -32.8689 -32.8607 -32.8499 -32.8347 -32.8264 -32.7622
   -32.7535 -32.7261 -32.7158 -32.7029 -32.6934 -32.6731 -32.6423 -32.6358
   -32.6231 -32.6001 -32.5999 -32.5925 -32.5782 -32.5561 -32.5375 -32.4782
    -7.4125  -4.9677  -3.3130  -2.6208  -2.5769  -2.3133  -2.0106  -1.9178
    -1.7502  -1.6262  -1.1770  -1.1651  -0.9011  -0.8563  -0.8417  -0.7455
    -0.2082  -0.1511   0.1334   0.4804   0.4903   0.7390   0.8825   1.0739
     1.1548   1.2155   1.2521   1.2974   1.5133   1.7076   1.7492   1.7900
     1.8559   1.9514   2.0122   2.0589   2.1839   2.2818   2.3955   2.5954
     2.6692   2.6940

          k = 0.0558-0.0322 0.0000 ( 19517 PWs)   bands (ev):

   -66.6992 -66.6068 -66.5778 -66.5656 -66.5651 -66.5589 -66.5412 -66.5322
   -66.4924 -66.4692 -66.4601 -66.4392 -33.2835 -33.2709 -33.2462 -33.2182
   -33.2159 -33.1951 -33.1828 -33.1749 -33.1503 -33.0816 -33.0761 -33.0107
   -32.9880 -32.9829 -32.8682 -32.8494 -32.8406 -32.8267 -32.8215 -32.8120
   -32.8109 -32.7516 -32.7199 -32.7157 -32.6917 -32.6827 -32.6632 -32.6317
   -32.6317 -32.6191 -32.6135 -32.5952 -32.5687 -32.5678 -32.5445 -32.4798
    -7.3868  -4.7760  -3.1791  -3.0392  -2.1978  -2.0582  -1.9225  -1.9028
    -1.6253  -1.5801  -1.2664  -0.7982  -0.7852  -0.7459  -0.7250  -0.5894
    -0.1766  -0.1611   0.1993   0.4389   0.4777   0.5183   0.7542   0.9334
     1.0495   1.1249   1.1833   1.2720   1.5741   1.5907   1.6414   1.7031
     1.7437   1.7961   1.8634   1.9330   2.1098   2.1545   2.3292   2.5420
     2.6024   2.7890

          k = 0.0558 0.0000 0.0000 ( 19485 PWs)   bands (ev):

   -66.6996 -66.6101 -66.5724 -66.5687 -66.5668 -66.5575 -66.5396 -66.5319
   -66.4949 -66.4662 -66.4610 -66.4387 -33.2987 -33.2870 -33.2524 -33.2467
   -33.2229 -33.2174 -33.2095 -33.1941 -33.1553 -33.1294 -33.0816 -33.0069
   -32.9859 -32.9670 -32.8689 -32.8606 -32.8499 -32.8348 -32.8263 -32.7623
   -32.7535 -32.7261 -32.7158 -32.7028 -32.6934 -32.6731 -32.6423 -32.6358
   -32.6231 -32.6001 -32.5999 -32.5925 -32.5782 -32.5561 -32.5375 -32.4782
    -7.4125  -4.9677  -3.3130  -2.6208  -2.5769  -2.3133  -2.0106  -1.9178
    -1.7502  -1.6262  -1.1769  -1.1651  -0.9011  -0.8563  -0.8417  -0.7455
    -0.2082  -0.1511   0.1334   0.4804   0.4903   0.7390   0.8825   1.0739
     1.1548   1.2155   1.2521   1.2974   1.5133   1.7076   1.7492   1.7900
     1.8559   1.9514   2.0122   2.0589   2.1839   2.2818   2.3955   2.5954
     2.6692   2.6940

          k = 0.0558 0.0322 0.0000 ( 19517 PWs)   bands (ev):

   -66.6992 -66.6068 -66.5778 -66.5655 -66.5652 -66.5589 -66.5413 -66.5321
   -66.4924 -66.4691 -66.4601 -66.4392 -33.2835 -33.2710 -33.2462 -33.2182
   -33.2159 -33.1951 -33.1828 -33.1749 -33.1502 -33.0816 -33.0761 -33.0107
   -32.9880 -32.9829 -32.8682 -32.8494 -32.8406 -32.8267 -32.8215 -32.8120
   -32.8109 -32.7516 -32.7199 -32.7157 -32.6918 -32.6827 -32.6632 -32.6317
   -32.6316 -32.6191 -32.6135 -32.5952 -32.5687 -32.5678 -32.5445 -32.4798
    -7.3868  -4.7760  -3.1792  -3.0392  -2.1978  -2.0581  -1.9225  -1.9028
    -1.6252  -1.5801  -1.2664  -0.7982  -0.7852  -0.7459  -0.7250  -0.5894
    -0.1766  -0.1611   0.1993   0.4389   0.4777   0.5183   0.7542   0.9334
     1.0495   1.1249   1.1833   1.2720   1.5741   1.5907   1.6414   1.7030
     1.7437   1.7961   1.8634   1.9330   2.1098   2.1545   2.3292   2.5420
     2.6024   2.7890

          k = 0.0558-0.1289 0.0000 ( 19521 PWs)   bands (ev):

   -66.6983 -66.5978 -66.5831 -66.5717 -66.5613 -66.5561 -66.5468 -66.5317
   -66.4858 -66.4734 -66.4624 -66.4393 -33.2569 -33.2233 -33.1948 -33.1823
   -33.1693 -33.1623 -33.1337 -33.1230 -33.0783 -33.0675 -33.0286 -33.0241
   -33.0089 -32.9843 -32.9437 -32.9197 -32.8648 -32.8464 -32.8271 -32.8187
   -32.8077 -32.7697 -32.7661 -32.7370 -32.7231 -32.7011 -32.6697 -32.6604
   -32.6456 -32.6352 -32.6097 -32.6008 -32.5864 -32.5727 -32.5548 -32.5155
    -7.3371  -4.2214  -3.3231  -2.6780  -2.4921  -2.0913  -1.6538  -1.5231
    -1.2374  -1.1224  -1.0201  -0.6089  -0.5080  -0.4188  -0.3423  -0.2920
    -0.1224  -0.0523   0.1447   0.2415   0.3067   0.4222   0.5105   0.6463
     0.7418   0.8499   0.9075   1.0001   1.0770   1.2228   1.2818   1.3417
     1.4570   1.5683   1.7488   1.8056   2.0035   2.1384   2.3297   2.4452
     2.5768   2.8674

          k = 0.0558-0.0967 0.0000 ( 19521 PWs)   bands (ev):

   -66.6979 -66.5871 -66.5868 -66.5804 -66.5550 -66.5543 -66.5541 -66.5313
   -66.4789 -66.4776 -66.4653 -66.4391 -33.2403 -33.1705 -33.1690 -33.1436
   -33.1412 -33.1409 -33.1106 -33.0883 -33.0752 -33.0522 -33.0401 -33.0062
   -32.9810 -32.9664 -32.9594 -32.9523 -32.9513 -32.9430 -32.8365 -32.8129
   -32.8075 -32.7944 -32.7810 -32.7159 -32.7109 -32.6923 -32.6655 -32.6650
   -32.6528 -32.6344 -32.6210 -32.6111 -32.6033 -32.5701 -32.5636 -32.5586
    -7.3131  -3.4408  -3.4018  -3.3199  -2.1417  -2.0838  -1.8579  -0.8083
    -0.8014  -0.7546  -0.7099  -0.6772  -0.6759  -0.4159  -0.0315  -0.0259
    -0.0242  -0.0235   0.0344   0.0499   0.0687   0.1780   0.1940   0.4929
     0.5550   0.6831   0.7750   0.9457   0.9629   0.9745   0.9936   1.1749
     1.2159   1.4480   1.5492   1.8070   2.2858   2.2883   2.3248   2.3249
     2.7177   2.8410

          k = 0.0558-0.0645 0.0000 ( 19521 PWs)   bands (ev):

   -66.6983 -66.5978 -66.5831 -66.5717 -66.5614 -66.5561 -66.5467 -66.5317
   -66.4858 -66.4734 -66.4623 -66.4393 -33.2569 -33.2233 -33.1947 -33.1823
   -33.1693 -33.1623 -33.1337 -33.1230 -33.0783 -33.0675 -33.0286 -33.0241
   -33.0089 -32.9843 -32.9437 -32.9197 -32.8648 -32.8463 -32.8271 -32.8187
   -32.8077 -32.7697 -32.7661 -32.7370 -32.7231 -32.7011 -32.6697 -32.6604
   -32.6456 -32.6352 -32.6097 -32.6008 -32.5864 -32.5727 -32.5548 -32.5155
    -7.3371  -4.2214  -3.3231  -2.6780  -2.4921  -2.0913  -1.6538  -1.5231
    -1.2374  -1.1224  -1.0201  -0.6089  -0.5080  -0.4188  -0.3423  -0.2920
    -0.1224  -0.0523   0.1447   0.2415   0.3067   0.4222   0.5105   0.6463
     0.7418   0.8499   0.9075   1.0001   1.0770   1.2228   1.2818   1.3418
     1.4570   1.5683   1.7488   1.8056   2.0035   2.1384   2.3297   2.4452
     2.5768   2.8674

          k =-0.0837 0.0483 0.0000 ( 19532 PWs)   bands (ev):

   -66.6983 -66.5943 -66.5902 -66.5652 -66.5619 -66.5590 -66.5458 -66.5322
   -66.4842 -66.4768 -66.4601 -66.4398 -33.2554 -33.2266 -33.1927 -33.1888
   -33.1887 -33.1778 -33.1267 -33.1153 -33.0976 -33.0580 -33.0291 -33.0200
   -32.9771 -32.9279 -32.9081 -32.8922 -32.8726 -32.8695 -32.8497 -32.8474
   -32.7963 -32.7950 -32.7640 -32.7501 -32.7494 -32.7361 -32.6833 -32.6440
   -32.6284 -32.6278 -32.6223 -32.5987 -32.5854 -32.5814 -32.5233 -32.5076
    -7.3365  -3.9720  -3.8640  -2.6019  -2.3468  -1.6875  -1.6658  -1.4570
    -1.3467  -1.3244  -1.3006  -0.6178  -0.3977  -0.2755  -0.2642  -0.1701
    -0.0922  -0.0851   0.0714   0.2598   0.3799   0.4793   0.4804   0.5934
     0.6957   0.7815   1.0321   1.0956   1.1025   1.1434   1.3509   1.3814
     1.4078   1.5904   1.6581   1.9101   1.9494   1.9755   2.2097   2.4407
     2.4699   2.9320

          k =-0.0837 0.0806 0.0000 ( 19521 PWs)   bands (ev):

   -66.6983 -66.5978 -66.5831 -66.5718 -66.5613 -66.5561 -66.5467 -66.5317
   -66.4858 -66.4734 -66.4623 -66.4393 -33.2569 -33.2233 -33.1947 -33.1823
   -33.1693 -33.1622 -33.1337 -33.1230 -33.0783 -33.0675 -33.0286 -33.0241
   -33.0089 -32.9843 -32.9437 -32.9197 -32.8648 -32.8463 -32.8271 -32.8188
   -32.8077 -32.7697 -32.7661 -32.7370 -32.7231 -32.7011 -32.6697 -32.6604
   -32.6456 -32.6352 -32.6097 -32.6008 -32.5864 -32.5727 -32.5548 -32.5155
    -7.3371  -4.2214  -3.3231  -2.6780  -2.4921  -2.0913  -1.6538  -1.5231
    -1.2374  -1.1224  -1.0201  -0.6089  -0.5080  -0.4188  -0.3423  -0.2920
    -0.1224  -0.0523   0.1447   0.2415   0.3067   0.4222   0.5105   0.6463
     0.7418   0.8499   0.9075   1.0001   1.0770   1.2228   1.2818   1.3417
     1.4570   1.5683   1.7488   1.8056   2.0035   2.1384   2.3297   2.4452
     2.5768   2.8674

          k =-0.0837 0.1128 0.0000 ( 19521 PWs)   bands (ev):

   -66.6983 -66.5978 -66.5830 -66.5718 -66.5613 -66.5561 -66.5468 -66.5317
   -66.4858 -66.4734 -66.4624 -66.4393 -33.2569 -33.2233 -33.1947 -33.1823
   -33.1693 -33.1622 -33.1337 -33.1230 -33.0783 -33.0675 -33.0286 -33.0241
   -33.0089 -32.9843 -32.9437 -32.9197 -32.8648 -32.8463 -32.8271 -32.8187
   -32.8077 -32.7697 -32.7661 -32.7370 -32.7231 -32.7011 -32.6697 -32.6604
   -32.6456 -32.6352 -32.6097 -32.6008 -32.5864 -32.5727 -32.5548 -32.5155
    -7.3371  -4.2214  -3.3231  -2.6780  -2.4921  -2.0913  -1.6538  -1.5231
    -1.2374  -1.1224  -1.0201  -0.6089  -0.5080  -0.4188  -0.3423  -0.2920
    -0.1224  -0.0523   0.1447   0.2415   0.3067   0.4222   0.5105   0.6463
     0.7418   0.8499   0.9075   1.0001   1.0770   1.2228   1.2818   1.3417
     1.4570   1.5683   1.7488   1.8056   2.0035   2.1384   2.3297   2.4452
     2.5768   2.8674

          k =-0.0837-0.0483 0.0000 ( 19532 PWs)   bands (ev):

   -66.6983 -66.5943 -66.5902 -66.5652 -66.5619 -66.5590 -66.5459 -66.5321
   -66.4843 -66.4767 -66.4601 -66.4398 -33.2554 -33.2267 -33.1927 -33.1887
   -33.1886 -33.1778 -33.1267 -33.1152 -33.0975 -33.0580 -33.0291 -33.0200
   -32.9771 -32.9279 -32.9081 -32.8922 -32.8727 -32.8695 -32.8498 -32.8473
   -32.7962 -32.7950 -32.7640 -32.7501 -32.7493 -32.7361 -32.6833 -32.6439
   -32.6284 -32.6279 -32.6224 -32.5987 -32.5854 -32.5814 -32.5233 -32.5076
    -7.3365  -3.9721  -3.8640  -2.6019  -2.3468  -1.6875  -1.6658  -1.4570
    -1.3467  -1.3243  -1.3006  -0.6178  -0.3977  -0.2755  -0.2642  -0.1701
    -0.0922  -0.0851   0.0714   0.2598   0.3799   0.4793   0.4804   0.5934
     0.6957   0.7815   1.0321   1.0956   1.1025   1.1434   1.3509   1.3814
     1.4077   1.5904   1.6581   1.9101   1.9494   1.9755   2.2097   2.4407
     2.4699   2.9320

     the Fermi energy is     1.6970 ev

!    total energy              =   -1729.75818209 Ry
     Harris-Foulkes estimate   =   -1729.75816010 Ry
     estimated scf accuracy    <       0.00000219 Ry

     The total energy is the sum of the following terms:

     one-electron contribution =  -11620.91514277 Ry
     hartree contribution      =    5792.68563494 Ry
     xc contribution           =    -526.19179539 Ry
     ewald contribution        =    4624.76549650 Ry
     electric field correction =       0.00027795 Ry
     smearing contrib. (-TS)   =      -0.10265333 Ry

     convergence has been achieved in  18 iterations
 
 BEEF-vdW xc energy contributions
           1 :   -463.207465735091     
           2 :    427.612664581729     
           3 :   -365.455115623236     
           4 :    291.094450100008     
           5 :   -218.950080953163     
           6 :    159.060998328296     
           7 :   -115.074906105625     
           8 :    85.0527888507523     
           9 :   -64.1819473710549     
          10 :    47.8007825964294     
          11 :   -33.3197368866237     
          12 :    20.4612406262460     
          13 :   -10.2025411373567     
          14 :    3.36227735888627     
          15 :   0.282019974319326     
          16 :   -1.96837046118964     
          17 :    3.23358231898425     
          18 :   -5.06562651926021     
          19 :    7.46165576539141     
          20 :   -9.61770408799441     
          21 :    10.5790888757048     
          22 :   -9.92494357194113     
          23 :    8.07361199644885     
          24 :   -6.04999108183227     
          25 :    4.88901336093875     
          26 :   -5.05610631063610     
          27 :    6.22930831102320     
          28 :   -7.54898599831330     
          29 :    8.15517082751427     
          30 :   -7.67441100227978     
          31 :   -41.4582732652652     
          32 :   -30.7857007055698     

     Forces acting on atoms (Ry/au):


     negative rho (up, down):  1.177E+00 0.000E+00
     atom    1 type  1   force =     0.00070902    0.00040826   -0.00006108
     atom    2 type  1   force =    -0.00070967    0.00041251   -0.00006116
     atom    3 type  1   force =     0.00000395   -0.00081965   -0.00005067
     atom    4 type  1   force =    -0.00000505   -0.00000227    0.00023432
     atom    5 type  1   force =    -0.00001100   -0.00031199   -0.00029537
     atom    6 type  1   force =     0.00000909    0.00001608    0.00066563
     atom    7 type  1   force =     0.00028387    0.00015157   -0.00031327
     atom    8 type  1   force =    -0.00028469    0.00014024   -0.00030263
     atom    9 type  1   force =     0.00000534   -0.00000114   -0.02425065
     atom   10 type  1   force =    -0.00000530    0.04536268    0.06570478
     atom   11 type  1   force =     0.03928537   -0.02268291    0.06570113
     atom   12 type  1   force =    -0.03928592   -0.02267745    0.06569103
     atom   13 type  2   force =     0.00000499    0.00000407   -0.17266207

     Total force =     0.222537     Total SCF correction =     0.004600


     entering subroutine stress ...


     negative rho (up, down):  1.177E+00 0.000E+00
          total   stress  (Ry/bohr**3)                   (kbar)     P=  -36.59
  -0.00029886  -0.00000000   0.00000000        -43.96     -0.00      0.00
  -0.00000000  -0.00029886   0.00000000         -0.00    -43.96      0.00
   0.00000000   0.00000000  -0.00014839          0.00      0.00    -21.83


     BFGS Geometry Optimization

     number of scf cycles    =   1
     number of bfgs steps    =   0

     energy   new            =   -1729.7581820906 Ry

     new trust radius        =       0.1726620663 bohr
     new conv_thr            =       0.0000099958 Ry


ATOMIC_POSITIONS (crystal)
Ta1      0.166666667   0.166666667   0.401991699    0   0   0
Ta1      0.666666667   0.166666667   0.401991699    0   0   0
Ta1      0.166666667   0.666666667   0.401991699    0   0   0
Ta1      0.666666667   0.666666667   0.401991699    0   0   0
Ta1      0.833333333   0.333333333   0.500000000    0   0   0
Ta1      0.333333333   0.333333333   0.500000000    0   0   0
Ta1      0.833333333   0.833333333   0.500000000    0   0   0
Ta1      0.333333333   0.833333333   0.500000000    0   0   0
Ta1      0.000000532  -0.000000117   0.597492430
Ta1      0.497678836   0.004641387   0.599406005
Ta1      0.004641479   0.497679146   0.599405928
Ta1      0.497679047   0.497679704   0.599405713
C1       0.333333567   0.333333749   0.658613823



     Writing output data file calc.save
     Check: negative starting charge=   -1.121513
     NEW-OLD atomic charge density approx. for the potential
     Check: negative starting charge=   -1.123790

     negative rho (up, down):  1.179E+00 0.000E+00
 
     Adding external electric field

     Computed dipole along edir(3) : 
        Dipole               -0.3385 Ry au,         -0.8603 Debye
        Dipole field         -0.0008 Ry au
 
        Potential amp.        0.0752 Ry
        Total length         45.8339 bohr
 

     total cpu time spent up to now is      715.2 secs

     per-process dynamical memory:    88.6 Mb

     Self-consistent Calculation

     iteration #  1     ecut=    36.75 Ry     beta=0.30
     Davidson diagonalization with overlap
     ethr =  1.00E-06,  avg # of iterations =  9.5

     negative rho (up, down):  1.179E+00 0.000E+00
 
     Adding external electric field

     Computed dipole along edir(3) : 
        Dipole               -0.3967 Ry au,         -1.0082 Debye
        Dipole field         -0.0010 Ry au
 
        Potential amp.        0.0881 Ry
        Total length         45.8339 bohr
 

     total cpu time spent up to now is      758.9 secs

     total energy              =   -1729.79359388 Ry
     Harris-Foulkes estimate   =   -1729.80814238 Ry
     estimated scf accuracy    <       0.03288939 Ry

     iteration #  2     ecut=    36.75 Ry     beta=0.30
     Davidson diagonalization with overlap
     ethr =  2.06E-05,  avg # of iterations =  5.0

     negative rho (up, down):  1.179E+00 0.000E+00
 
     Adding external electric field

     Computed dipole along edir(3) : 
        Dipole               -0.2231 Ry au,         -0.5670 Debye
        Dipole field         -0.0005 Ry au
 
        Potential amp.        0.0496 Ry
        Total length         45.8339 bohr
 

     total cpu time spent up to now is      789.2 secs

     total energy              =   -1729.78475517 Ry
     Harris-Foulkes estimate   =   -1729.81730669 Ry
     estimated scf accuracy    <       0.24704560 Ry

     iteration #  3     ecut=    36.75 Ry     beta=0.30
     Davidson diagonalization with overlap
     ethr =  2.06E-05,  avg # of iterations =  5.2

     negative rho (up, down):  1.179E+00 0.000E+00
 
     Adding external electric field

     Computed dipole along edir(3) : 
        Dipole               -0.3609 Ry au,         -0.9174 Debye
        Dipole field         -0.0009 Ry au
 
        Potential amp.        0.0802 Ry
        Total length         45.8339 bohr
 

     total cpu time spent up to now is      822.9 secs

     total energy              =   -1729.78819410 Ry
     Harris-Foulkes estimate   =   -1729.81435656 Ry
     estimated scf accuracy    <       0.92551375 Ry

     iteration #  4     ecut=    36.75 Ry     beta=0.30
     Davidson diagonalization with overlap
     ethr =  2.06E-05,  avg # of iterations =  5.1

     negative rho (up, down):  1.179E+00 0.000E+00
 
     Adding external electric field

     Computed dipole along edir(3) : 
        Dipole               -0.2882 Ry au,         -0.7325 Debye
        Dipole field         -0.0007 Ry au
 
        Potential amp.        0.0640 Ry
        Total length         45.8339 bohr
 

     total cpu time spent up to now is      853.1 secs

     total energy              =   -1729.79931302 Ry
     Harris-Foulkes estimate   =   -1729.80774747 Ry
     estimated scf accuracy    <       0.22813242 Ry

     iteration #  5     ecut=    36.75 Ry     beta=0.30
     Davidson diagonalization with overlap
     ethr =  2.06E-05,  avg # of iterations =  2.9

     negative rho (up, down):  1.179E+00 0.000E+00
 
     Adding external electric field

     Computed dipole along edir(3) : 
        Dipole               -0.2926 Ry au,         -0.7438 Debye
        Dipole field         -0.0007 Ry au
 
        Potential amp.        0.0650 Ry
        Total length         45.8339 bohr
 

     total cpu time spent up to now is      880.6 secs

     total energy              =   -1729.80337936 Ry
     Harris-Foulkes estimate   =   -1729.80358753 Ry
     estimated scf accuracy    <       0.00101784 Ry

     iteration #  6     ecut=    36.75 Ry     beta=0.30
     Davidson diagonalization with overlap
     ethr =  6.36E-07,  avg # of iterations =  5.3

     negative rho (up, down):  1.180E+00 0.000E+00
 
     Adding external electric field

     Computed dipole along edir(3) : 
        Dipole               -0.2881 Ry au,         -0.7323 Debye
        Dipole field         -0.0007 Ry au
 
        Potential amp.        0.0640 Ry
        Total length         45.8339 bohr
 

     total cpu time spent up to now is      913.0 secs

     total energy              =   -1729.80361377 Ry
     Harris-Foulkes estimate   =   -1729.80369847 Ry
     estimated scf accuracy    <       0.00052675 Ry

     iteration #  7     ecut=    36.75 Ry     beta=0.30
     Davidson diagonalization with overlap
     ethr =  3.29E-07,  avg # of iterations =  3.0

     negative rho (up, down):  1.180E+00 0.000E+00
 
     Adding external electric field

     Computed dipole along edir(3) : 
        Dipole               -0.2861 Ry au,         -0.7271 Debye
        Dipole field         -0.0007 Ry au
 
        Potential amp.        0.0636 Ry
        Total length         45.8339 bohr
 

     total cpu time spent up to now is      940.9 secs

     total energy              =   -1729.80364675 Ry
     Harris-Foulkes estimate   =   -1729.80366544 Ry
     estimated scf accuracy    <       0.00015633 Ry

     iteration #  8     ecut=    36.75 Ry     beta=0.30
     Davidson diagonalization with overlap
     ethr =  9.77E-08,  avg # of iterations =  3.5

     negative rho (up, down):  1.180E+00 0.000E+00
 
     Adding external electric field

     Computed dipole along edir(3) : 
        Dipole               -0.2879 Ry au,         -0.7317 Debye
        Dipole field         -0.0007 Ry au
 
        Potential amp.        0.0640 Ry
        Total length         45.8339 bohr
 

     total cpu time spent up to now is      970.0 secs

     total energy              =   -1729.80367017 Ry
     Harris-Foulkes estimate   =   -1729.80366769 Ry
     estimated scf accuracy    <       0.00004965 Ry

     iteration #  9     ecut=    36.75 Ry     beta=0.30
     Davidson diagonalization with overlap
     ethr =  3.10E-08,  avg # of iterations =  2.0

     negative rho (up, down):  1.180E+00 0.000E+00
 
     Adding external electric field

     Computed dipole along edir(3) : 
        Dipole               -0.2881 Ry au,         -0.7323 Debye
        Dipole field         -0.0007 Ry au
 
        Potential amp.        0.0640 Ry
        Total length         45.8339 bohr
 

     total cpu time spent up to now is      996.8 secs

     total energy              =   -1729.80367413 Ry
     Harris-Foulkes estimate   =   -1729.80367230 Ry
     estimated scf accuracy    <       0.00001601 Ry

     iteration # 10     ecut=    36.75 Ry     beta=0.30
     Davidson diagonalization with overlap
     ethr =  1.00E-08,  avg # of iterations =  4.0

     negative rho (up, down):  1.180E+00 0.000E+00

     negative rho (up, down):  1.180E+00 0.000E+00

     negative rho (up, down):  1.180E+00 0.000E+00

     negative rho (up, down):  1.180E+00 0.000E+00

     negative rho (up, down):  1.180E+00 0.000E+00

     negative rho (up, down):  1.180E+00 0.000E+00

     negative rho (up, down):  1.180E+00 0.000E+00

     negative rho (up, down):  1.180E+00 0.000E+00

     negative rho (up, down):  1.180E+00 0.000E+00

     negative rho (up, down):  1.180E+00 0.000E+00

     negative rho (up, down):  1.180E+00 0.000E+00

     negative rho (up, down):  1.180E+00 0.000E+00

     negative rho (up, down):  1.180E+00 0.000E+00

     negative rho (up, down):  1.180E+00 0.000E+00

     negative rho (up, down):  1.180E+00 0.000E+00

     negative rho (up, down):  1.180E+00 0.000E+00

     negative rho (up, down):  1.180E+00 0.000E+00

     negative rho (up, down):  1.180E+00 0.000E+00

     negative rho (up, down):  1.180E+00 0.000E+00

     negative rho (up, down):  1.180E+00 0.000E+00

     negative rho (up, down):  1.180E+00 0.000E+00

     negative rho (up, down):  1.180E+00 0.000E+00

     negative rho (up, down):  1.180E+00 0.000E+00

     negative rho (up, down):  1.180E+00 0.000E+00

     negative rho (up, down):  1.180E+00 0.000E+00

     negative rho (up, down):  1.180E+00 0.000E+00

     negative rho (up, down):  1.180E+00 0.000E+00

     negative rho (up, down):  1.180E+00 0.000E+00

     negative rho (up, down):  1.180E+00 0.000E+00

     negative rho (up, down):  1.180E+00 0.000E+00

     negative rho (up, down):  1.180E+00 0.000E+00

     negative rho (up, down):  1.180E+00 0.000E+00

     negative rho (up, down):  1.180E+00 0.000E+00

     negative rho (up, down):  1.180E+00 0.000E+00

     negative rho (up, down):  1.180E+00 0.000E+00
 
     Adding external electric field

     Computed dipole along edir(3) : 
        Dipole               -0.2989 Ry au,         -0.7598 Debye
        Dipole field         -0.0007 Ry au
 
        Potential amp.        0.0664 Ry
        Total length         45.8339 bohr
 

     total cpu time spent up to now is     1077.3 secs

     End of self-consistent calculation

          k = 0.0000 0.0000 0.0000 ( 19447 PWs)   bands (ev):

   -66.6120 -66.5795 -66.5233 -66.5233 -66.5167 -66.5134 -66.4745 -66.4745
   -66.4649 -66.4223 -66.4222 -66.3931 -33.3007 -33.3007 -33.2981 -33.2630
   -33.2374 -33.2360 -33.2360 -33.2157 -33.2157 -33.1925 -33.0229 -32.9200
   -32.8861 -32.8860 -32.8427 -32.8132 -32.8132 -32.7073 -32.7044 -32.7044
   -32.6516 -32.6516 -32.6508 -32.6247 -32.6247 -32.6092 -32.5625 -32.5579
   -32.5473 -32.5473 -32.4989 -32.4989 -32.4672 -32.4672 -32.4034 -32.4034
    -7.7640  -5.5310  -3.8404  -2.9343  -2.4157  -2.4157  -2.3204  -2.1893
    -2.1893  -2.0375  -1.6002  -1.6002  -1.5210  -1.2055  -1.2055  -1.1740
    -0.2562  -0.2562   0.0618   0.6436   0.6436   0.6840   1.1655   1.3513
     1.3513   1.5772   1.7220   1.8593   1.9958   1.9958   2.1882   2.1882
     2.3509   2.4295   2.4295   2.5280   2.5280   2.5310   2.6061   2.6062
     3.1132   3.1804

          k = 0.0000 0.0322 0.0000 ( 19481 PWs)   bands (ev):

   -66.6107 -66.5757 -66.5263 -66.5233 -66.5176 -66.5121 -66.4772 -66.4745
   -66.4618 -66.4244 -66.4222 -66.3939 -33.2749 -33.2748 -33.2603 -33.2406
   -33.2149 -33.2130 -33.2037 -33.1904 -33.1799 -33.1552 -33.0216 -32.9350
   -32.9045 -32.8971 -32.8367 -32.8064 -32.8043 -32.7296 -32.7286 -32.6973
   -32.6951 -32.6912 -32.6404 -32.6156 -32.6077 -32.6060 -32.5824 -32.5807
   -32.5702 -32.5432 -32.5411 -32.5124 -32.4973 -32.4781 -32.4515 -32.4124
    -7.7093  -5.3174  -3.6347  -2.7014  -2.5276  -2.2603  -2.2123  -2.1139
    -2.0128  -1.9008  -1.4655  -1.3735  -1.3143  -1.0764  -1.0607  -1.0249
    -0.2323  -0.2302   0.1189   0.5605   0.6236   0.7038   1.0909   1.3680
     1.3762   1.4968   1.5344   1.6617   1.8177   1.8227   1.9469   2.1565
     2.2676   2.3023   2.3500   2.3874   2.4076   2.5403   2.5846   2.7241
     2.7855   2.8632

          k = 0.0000 0.0645 0.0000 ( 19517 PWs)   bands (ev):

   -66.6082 -66.5652 -66.5363 -66.5233 -66.5183 -66.5084 -66.4834 -66.4746
   -66.4538 -66.4310 -66.4222 -66.3954 -33.2234 -33.2101 -33.1947 -33.1667
   -33.1613 -33.1446 -33.1303 -33.1274 -33.1078 -33.0352 -33.0187 -32.9579
   -32.9363 -32.9306 -32.8198 -32.7951 -32.7906 -32.7770 -32.7741 -32.7701
   -32.7674 -32.7075 -32.6708 -32.6601 -32.6508 -32.6415 -32.6126 -32.5955
   -32.5906 -32.5798 -32.5698 -32.5493 -32.5291 -32.5212 -32.5008 -32.4378
    -7.6013  -4.7151  -3.1290  -2.9831  -2.1613  -2.0045  -1.8742  -1.8569
    -1.5819  -1.5258  -1.2252  -0.8323  -0.7775  -0.7026  -0.6606  -0.5437
    -0.1883  -0.1860   0.2620   0.4200   0.4959   0.5403   0.8023   1.0044
     1.0596   1.1568   1.2416   1.3061   1.6099   1.6253   1.6756   1.7394
     1.7847   1.8380   1.9074   1.9782   2.1330   2.1938   2.3777   2.6631
     2.6673   2.8497

          k = 0.0000-0.0967 0.0000 ( 19532 PWs)   bands (ev):

   -66.6069 -66.5524 -66.5490 -66.5233 -66.5185 -66.5056 -66.4875 -66.4746
   -66.4460 -66.4381 -66.4222 -66.3960 -33.1890 -33.1600 -33.1453 -33.1406
   -33.1390 -33.1292 -33.0772 -33.0659 -33.0519 -33.0024 -32.9765 -32.9664
   -32.9013 -32.8810 -32.8642 -32.8572 -32.8235 -32.8205 -32.8000 -32.7954
   -32.7559 -32.7451 -32.7242 -32.7117 -32.7083 -32.6934 -32.6226 -32.6009
   -32.5898 -32.5863 -32.5769 -32.5598 -32.5428 -32.5356 -32.4817 -32.4660
    -7.5481  -3.9166  -3.8042  -2.5729  -2.2914  -1.6534  -1.6025  -1.4155
    -1.3053  -1.2883  -1.2319  -0.6841  -0.3723  -0.2853  -0.2495  -0.1796
    -0.0420  -0.0167   0.0417   0.2823   0.4543   0.5216   0.5666   0.6137
     0.7509   0.8448   1.0673   1.1421   1.1446   1.1861   1.3481   1.4323
     1.4528   1.6043   1.7172   1.9347   1.9912   2.0094   2.2456   2.5069
     2.6104   3.0136

          k = 0.0279-0.0161 0.0000 ( 19481 PWs)   bands (ev):

   -66.6107 -66.5757 -66.5263 -66.5233 -66.5176 -66.5121 -66.4772 -66.4746
   -66.4618 -66.4244 -66.4222 -66.3939 -33.2749 -33.2748 -33.2603 -33.2406
   -33.2149 -33.2130 -33.2037 -33.1904 -33.1799 -33.1552 -33.0216 -32.9350
   -32.9045 -32.8971 -32.8367 -32.8064 -32.8043 -32.7296 -32.7286 -32.6973
   -32.6951 -32.6912 -32.6404 -32.6156 -32.6077 -32.6060 -32.5824 -32.5807
   -32.5702 -32.5432 -32.5411 -32.5124 -32.4973 -32.4781 -32.4515 -32.4124
    -7.7093  -5.3174  -3.6347  -2.7014  -2.5276  -2.2603  -2.2123  -2.1139
    -2.0128  -1.9008  -1.4655  -1.3735  -1.3143  -1.0764  -1.0607  -1.0249
    -0.2322  -0.2302   0.1189   0.5605   0.6236   0.7038   1.0909   1.3680
     1.3762   1.4968   1.5344   1.6617   1.8177   1.8227   1.9469   2.1565
     2.2676   2.3023   2.3500   2.3874   2.4076   2.5403   2.5846   2.7241
     2.7855   2.8632

          k = 0.0279 0.0161 0.0000 ( 19481 PWs)   bands (ev):

   -66.6107 -66.5757 -66.5263 -66.5233 -66.5176 -66.5121 -66.4772 -66.4745
   -66.4618 -66.4245 -66.4222 -66.3939 -33.2749 -33.2748 -33.2603 -33.2406
   -33.2149 -33.2130 -33.2037 -33.1904 -33.1799 -33.1552 -33.0216 -32.9350
   -32.9045 -32.8971 -32.8367 -32.8064 -32.8043 -32.7296 -32.7286 -32.6973
   -32.6951 -32.6912 -32.6404 -32.6156 -32.6077 -32.6060 -32.5824 -32.5807
   -32.5702 -32.5432 -32.5411 -32.5124 -32.4973 -32.4781 -32.4515 -32.4124
    -7.7093  -5.3174  -3.6347  -2.7014  -2.5276  -2.2603  -2.2123  -2.1139
    -2.0128  -1.9008  -1.4655  -1.3735  -1.3143  -1.0764  -1.0607  -1.0249
    -0.2322  -0.2302   0.1189   0.5605   0.6236   0.7038   1.0909   1.3680
     1.3762   1.4968   1.5344   1.6617   1.8177   1.8227   1.9469   2.1565
     2.2676   2.3023   2.3500   2.3874   2.4076   2.5403   2.5846   2.7241
     2.7855   2.8632

          k = 0.0279 0.0483 0.0000 ( 19485 PWs)   bands (ev):

   -66.6088 -66.5685 -66.5306 -66.5272 -66.5167 -66.5094 -66.4820 -66.4743
   -66.4563 -66.4282 -66.4230 -66.3950 -33.2426 -33.2259 -33.1951 -33.1922
   -33.1750 -33.1658 -33.1576 -33.1489 -33.1061 -33.0903 -33.0212 -32.9538
   -32.9350 -32.9152 -32.8231 -32.8078 -32.8044 -32.7879 -32.7825 -32.7067
   -32.6962 -32.6812 -32.6700 -32.6593 -32.6539 -32.6216 -32.6034 -32.5968
   -32.5790 -32.5584 -32.5526 -32.5517 -32.5359 -32.5152 -32.4909 -32.4362
    -7.6282  -4.9069  -3.2556  -2.5789  -2.5221  -2.2582  -1.9778  -1.8639
    -1.7027  -1.5750  -1.1516  -1.1464  -0.8898  -0.8263  -0.7862  -0.6911
    -0.2310  -0.1799   0.1997   0.4488   0.5143   0.7365   0.9087   1.1342
     1.1764   1.2550   1.3047   1.3397   1.5626   1.7114   1.7915   1.8215
     1.9053   2.0072   2.0602   2.1080   2.2130   2.3105   2.4747   2.6620
     2.7236   2.7915

          k = 0.0279-0.1128 0.0000 ( 19521 PWs)   bands (ev):

   -66.6069 -66.5562 -66.5415 -66.5304 -66.5151 -66.5050 -66.4887 -66.4740
   -66.4474 -66.4352 -66.4241 -66.3957 -33.1916 -33.1640 -33.1395 -33.1307
   -33.1210 -33.1133 -33.0835 -33.0721 -33.0320 -33.0133 -32.9762 -32.9685
   -32.9576 -32.9369 -32.8910 -32.8721 -32.8126 -32.7984 -32.7826 -32.7744
   -32.7662 -32.7273 -32.7192 -32.6882 -32.6784 -32.6494 -32.6233 -32.6180
   -32.6069 -32.5892 -32.5686 -32.5599 -32.5422 -32.5315 -32.5136 -32.4736
    -7.5486  -4.1620  -3.2694  -2.6358  -2.4410  -2.0533  -1.6189  -1.4717
    -1.1881  -1.0855  -0.9741  -0.6552  -0.4833  -0.4016  -0.3005  -0.2410
    -0.1488  -0.0513   0.1784   0.2889   0.3501   0.4600   0.5791   0.6988
     0.7973   0.8463   0.9490   1.0429   1.1352   1.2237   1.3204   1.3970
     1.5107   1.6087   1.7883   1.8523   2.0281   2.1870   2.3528   2.5281
     2.6576   2.9451

          k = 0.0279-0.0806 0.0000 ( 19521 PWs)   bands (ev):

   -66.6069 -66.5562 -66.5415 -66.5304 -66.5151 -66.5050 -66.4887 -66.4740
   -66.4474 -66.4352 -66.4241 -66.3957 -33.1916 -33.1640 -33.1395 -33.1307
   -33.1210 -33.1133 -33.0835 -33.0721 -33.0320 -33.0133 -32.9762 -32.9685
   -32.9576 -32.9369 -32.8910 -32.8721 -32.8126 -32.7984 -32.7826 -32.7744
   -32.7662 -32.7273 -32.7192 -32.6882 -32.6784 -32.6494 -32.6233 -32.6180
   -32.6069 -32.5892 -32.5686 -32.5599 -32.5422 -32.5315 -32.5136 -32.4736
    -7.5486  -4.1620  -3.2694  -2.6358  -2.4410  -2.0533  -1.6189  -1.4717
    -1.1881  -1.0855  -0.9741  -0.6552  -0.4833  -0.4016  -0.3005  -0.2410
    -0.1488  -0.0513   0.1784   0.2889   0.3501   0.4600   0.5791   0.6988
     0.7973   0.8463   0.9490   1.0429   1.1352   1.2237   1.3204   1.3970
     1.5107   1.6087   1.7883   1.8523   2.0281   2.1870   2.3528   2.5281
     2.6576   2.9451

          k = 0.0279-0.0483 0.0000 ( 19485 PWs)   bands (ev):

   -66.6088 -66.5685 -66.5306 -66.5272 -66.5167 -66.5094 -66.4820 -66.4743
   -66.4563 -66.4282 -66.4230 -66.3950 -33.2426 -33.2259 -33.1951 -33.1922
   -33.1750 -33.1658 -33.1576 -33.1489 -33.1061 -33.0903 -33.0212 -32.9538
   -32.9350 -32.9152 -32.8231 -32.8078 -32.8044 -32.7879 -32.7825 -32.7067
   -32.6962 -32.6812 -32.6700 -32.6593 -32.6539 -32.6216 -32.6034 -32.5968
   -32.5790 -32.5584 -32.5526 -32.5517 -32.5359 -32.5152 -32.4909 -32.4362
    -7.6282  -4.9069  -3.2556  -2.5789  -2.5221  -2.2582  -1.9778  -1.8639
    -1.7027  -1.5750  -1.1516  -1.1464  -0.8898  -0.8263  -0.7861  -0.6911
    -0.2310  -0.1799   0.1997   0.4488   0.5143   0.7365   0.9087   1.1342
     1.1764   1.2550   1.3047   1.3397   1.5626   1.7114   1.7915   1.8215
     1.9053   2.0072   2.0602   2.1080   2.2130   2.3105   2.4747   2.6620
     2.7236   2.7915

          k = 0.0558-0.0322 0.0000 ( 19517 PWs)   bands (ev):

   -66.6082 -66.5652 -66.5363 -66.5233 -66.5183 -66.5084 -66.4834 -66.4746
   -66.4538 -66.4310 -66.4222 -66.3954 -33.2234 -33.2101 -33.1947 -33.1667
   -33.1613 -33.1446 -33.1303 -33.1275 -33.1078 -33.0352 -33.0187 -32.9579
   -32.9363 -32.9306 -32.8198 -32.7951 -32.7906 -32.7769 -32.7741 -32.7702
   -32.7674 -32.7075 -32.6708 -32.6601 -32.6508 -32.6415 -32.6126 -32.5955
   -32.5906 -32.5798 -32.5698 -32.5493 -32.5291 -32.5212 -32.5008 -32.4378
    -7.6013  -4.7151  -3.1290  -2.9832  -2.1613  -2.0045  -1.8742  -1.8569
    -1.5819  -1.5258  -1.2252  -0.8323  -0.7775  -0.7026  -0.6606  -0.5437
    -0.1883  -0.1860   0.2620   0.4200   0.4959   0.5403   0.8023   1.0044
     1.0596   1.1568   1.2416   1.3061   1.6099   1.6253   1.6756   1.7394
     1.7847   1.8380   1.9074   1.9782   2.1330   2.1938   2.3777   2.6631
     2.6673   2.8497

          k = 0.0558 0.0000 0.0000 ( 19485 PWs)   bands (ev):

   -66.6088 -66.5685 -66.5306 -66.5272 -66.5167 -66.5094 -66.4820 -66.4743
   -66.4563 -66.4282 -66.4230 -66.3950 -33.2426 -33.2259 -33.1951 -33.1922
   -33.1750 -33.1658 -33.1576 -33.1489 -33.1061 -33.0903 -33.0212 -32.9538
   -32.9350 -32.9152 -32.8231 -32.8078 -32.8044 -32.7879 -32.7825 -32.7067
   -32.6962 -32.6812 -32.6700 -32.6593 -32.6539 -32.6216 -32.6034 -32.5968
   -32.5790 -32.5584 -32.5526 -32.5517 -32.5359 -32.5152 -32.4909 -32.4362
    -7.6282  -4.9069  -3.2556  -2.5789  -2.5221  -2.2582  -1.9778  -1.8639
    -1.7027  -1.5750  -1.1516  -1.1464  -0.8898  -0.8263  -0.7861  -0.6911
    -0.2310  -0.1799   0.1997   0.4488   0.5143   0.7365   0.9087   1.1342
     1.1764   1.2550   1.3047   1.3397   1.5626   1.7114   1.7915   1.8215
     1.9053   2.0072   2.0602   2.1080   2.2130   2.3105   2.4747   2.6620
     2.7236   2.7915

          k = 0.0558 0.0322 0.0000 ( 19517 PWs)   bands (ev):

   -66.6082 -66.5652 -66.5363 -66.5233 -66.5183 -66.5084 -66.4834 -66.4746
   -66.4538 -66.4310 -66.4222 -66.3954 -33.2234 -33.2101 -33.1947 -33.1667
   -33.1613 -33.1446 -33.1303 -33.1274 -33.1078 -33.0352 -33.0187 -32.9579
   -32.9363 -32.9306 -32.8198 -32.7951 -32.7906 -32.7769 -32.7741 -32.7702
   -32.7674 -32.7075 -32.6708 -32.6601 -32.6508 -32.6415 -32.6126 -32.5955
   -32.5906 -32.5798 -32.5698 -32.5493 -32.5291 -32.5212 -32.5008 -32.4378
    -7.6013  -4.7151  -3.1290  -2.9832  -2.1613  -2.0045  -1.8742  -1.8569
    -1.5819  -1.5258  -1.2252  -0.8323  -0.7775  -0.7026  -0.6606  -0.5437
    -0.1883  -0.1860   0.2620   0.4200   0.4959   0.5403   0.8023   1.0044
     1.0596   1.1568   1.2416   1.3061   1.6099   1.6253   1.6756   1.7394
     1.7847   1.8380   1.9074   1.9782   2.1330   2.1938   2.3777   2.6631
     2.6673   2.8497

          k = 0.0558-0.1289 0.0000 ( 19521 PWs)   bands (ev):

   -66.6069 -66.5562 -66.5415 -66.5303 -66.5151 -66.5050 -66.4887 -66.4740
   -66.4474 -66.4352 -66.4241 -66.3957 -33.1916 -33.1640 -33.1395 -33.1307
   -33.1210 -33.1133 -33.0835 -33.0721 -33.0320 -33.0133 -32.9762 -32.9685
   -32.9576 -32.9369 -32.8910 -32.8721 -32.8126 -32.7984 -32.7826 -32.7744
   -32.7662 -32.7273 -32.7192 -32.6882 -32.6784 -32.6494 -32.6233 -32.6180
   -32.6069 -32.5892 -32.5686 -32.5599 -32.5422 -32.5315 -32.5136 -32.4737
    -7.5486  -4.1620  -3.2694  -2.6358  -2.4410  -2.0533  -1.6189  -1.4717
    -1.1881  -1.0855  -0.9741  -0.6552  -0.4833  -0.4016  -0.3005  -0.2410
    -0.1488  -0.0513   0.1784   0.2889   0.3501   0.4600   0.5791   0.6988
     0.7973   0.8463   0.9490   1.0429   1.1352   1.2237   1.3204   1.3969
     1.5107   1.6087   1.7883   1.8523   2.0281   2.1870   2.3528   2.5281
     2.6576   2.9451

          k = 0.0558-0.0967 0.0000 ( 19521 PWs)   bands (ev):

   -66.6063 -66.5453 -66.5450 -66.5397 -66.5133 -66.5011 -66.4938 -66.4735
   -66.4407 -66.4395 -66.4265 -66.3957 -33.1688 -33.1185 -33.1155 -33.0941
   -33.0908 -33.0878 -33.0587 -33.0367 -33.0181 -32.9968 -32.9827 -32.9574
   -32.9310 -32.9301 -32.9143 -32.9098 -32.9069 -32.8779 -32.7858 -32.7708
   -32.7658 -32.7533 -32.7394 -32.6643 -32.6519 -32.6489 -32.6200 -32.6159
   -32.6142 -32.5938 -32.5764 -32.5723 -32.5624 -32.5297 -32.5254 -32.5157
    -7.5227  -3.3872  -3.3485  -3.2610  -2.1292  -2.0460  -1.8016  -0.8096
    -0.7981  -0.7458  -0.6320  -0.6138  -0.6117  -0.4616  -0.0888   0.0165
     0.0196   0.0448   0.0790   0.0925   0.1257   0.2388   0.2422   0.5337
     0.5652   0.6912   0.7484   0.9800   1.0305   1.0313   1.0898   1.2313
     1.2677   1.4873   1.5896   1.8529   2.2439   2.3477   2.3632   2.4001
     2.7949   2.9365

          k = 0.0558-0.0645 0.0000 ( 19521 PWs)   bands (ev):

   -66.6069 -66.5562 -66.5415 -66.5303 -66.5151 -66.5050 -66.4887 -66.4740
   -66.4474 -66.4352 -66.4241 -66.3957 -33.1916 -33.1640 -33.1395 -33.1307
   -33.1210 -33.1133 -33.0835 -33.0721 -33.0320 -33.0133 -32.9762 -32.9685
   -32.9576 -32.9369 -32.8910 -32.8721 -32.8126 -32.7984 -32.7826 -32.7744
   -32.7662 -32.7273 -32.7192 -32.6882 -32.6784 -32.6494 -32.6233 -32.6180
   -32.6069 -32.5892 -32.5686 -32.5599 -32.5422 -32.5315 -32.5136 -32.4736
    -7.5486  -4.1620  -3.2694  -2.6358  -2.4410  -2.0533  -1.6189  -1.4717
    -1.1881  -1.0855  -0.9741  -0.6552  -0.4833  -0.4016  -0.3005  -0.2410
    -0.1488  -0.0513   0.1784   0.2889   0.3501   0.4600   0.5791   0.6988
     0.7973   0.8463   0.9490   1.0429   1.1352   1.2237   1.3204   1.3970
     1.5107   1.6087   1.7883   1.8523   2.0281   2.1870   2.3528   2.5281
     2.6576   2.9451

          k =-0.0837 0.0483 0.0000 ( 19532 PWs)   bands (ev):

   -66.6069 -66.5524 -66.5490 -66.5233 -66.5185 -66.5056 -66.4875 -66.4746
   -66.4460 -66.4381 -66.4222 -66.3960 -33.1890 -33.1600 -33.1453 -33.1406
   -33.1390 -33.1292 -33.0772 -33.0659 -33.0519 -33.0024 -32.9765 -32.9664
   -32.9013 -32.8810 -32.8642 -32.8572 -32.8235 -32.8205 -32.8000 -32.7955
   -32.7559 -32.7451 -32.7242 -32.7117 -32.7083 -32.6934 -32.6226 -32.6009
   -32.5898 -32.5863 -32.5769 -32.5598 -32.5428 -32.5356 -32.4817 -32.4660
    -7.5481  -3.9166  -3.8042  -2.5729  -2.2914  -1.6534  -1.6025  -1.4155
    -1.3053  -1.2883  -1.2319  -0.6841  -0.3723  -0.2853  -0.2495  -0.1796
    -0.0420  -0.0167   0.0417   0.2823   0.4543   0.5215   0.5666   0.6137
     0.7509   0.8448   1.0673   1.1421   1.1446   1.1861   1.3480   1.4323
     1.4528   1.6043   1.7172   1.9347   1.9912   2.0094   2.2456   2.5069
     2.6104   3.0146

          k =-0.0837 0.0806 0.0000 ( 19521 PWs)   bands (ev):

   -66.6069 -66.5562 -66.5415 -66.5303 -66.5151 -66.5050 -66.4887 -66.4740
   -66.4474 -66.4352 -66.4241 -66.3957 -33.1916 -33.1640 -33.1395 -33.1307
   -33.1210 -33.1133 -33.0835 -33.0721 -33.0320 -33.0133 -32.9762 -32.9685
   -32.9576 -32.9369 -32.8910 -32.8721 -32.8126 -32.7984 -32.7826 -32.7744
   -32.7662 -32.7273 -32.7192 -32.6882 -32.6784 -32.6494 -32.6233 -32.6180
   -32.6069 -32.5892 -32.5686 -32.5599 -32.5422 -32.5315 -32.5136 -32.4736
    -7.5486  -4.1620  -3.2694  -2.6358  -2.4410  -2.0533  -1.6189  -1.4717
    -1.1881  -1.0855  -0.9741  -0.6552  -0.4833  -0.4016  -0.3005  -0.2410
    -0.1488  -0.0513   0.1784   0.2889   0.3501   0.4600   0.5791   0.6988
     0.7973   0.8463   0.9490   1.0429   1.1352   1.2237   1.3204   1.3970
     1.5107   1.6087   1.7883   1.8523   2.0281   2.1870   2.3528   2.5281
     2.6576   2.9451

          k =-0.0837 0.1128 0.0000 ( 19521 PWs)   bands (ev):

   -66.6069 -66.5562 -66.5415 -66.5303 -66.5151 -66.5050 -66.4887 -66.4740
   -66.4474 -66.4352 -66.4241 -66.3957 -33.1916 -33.1640 -33.1395 -33.1307
   -33.1210 -33.1133 -33.0835 -33.0721 -33.0320 -33.0132 -32.9762 -32.9685
   -32.9576 -32.9369 -32.8910 -32.8721 -32.8126 -32.7984 -32.7826 -32.7744
   -32.7662 -32.7273 -32.7192 -32.6882 -32.6784 -32.6494 -32.6233 -32.6180
   -32.6069 -32.5892 -32.5686 -32.5599 -32.5422 -32.5315 -32.5136 -32.4737
    -7.5486  -4.1620  -3.2694  -2.6358  -2.4410  -2.0533  -1.6189  -1.4717
    -1.1881  -1.0855  -0.9741  -0.6552  -0.4833  -0.4016  -0.3005  -0.2410
    -0.1488  -0.0513   0.1784   0.2889   0.3501   0.4600   0.5791   0.6988
     0.7973   0.8463   0.9490   1.0429   1.1352   1.2237   1.3204   1.3969
     1.5107   1.6087   1.7883   1.8523   2.0281   2.1870   2.3528   2.5281
     2.6576   2.9451

          k =-0.0837-0.0483 0.0000 ( 19532 PWs)   bands (ev):

   -66.6069 -66.5524 -66.5490 -66.5233 -66.5185 -66.5056 -66.4875 -66.4746
   -66.4460 -66.4381 -66.4222 -66.3960 -33.1890 -33.1600 -33.1453 -33.1406
   -33.1390 -33.1292 -33.0772 -33.0659 -33.0519 -33.0024 -32.9765 -32.9664
   -32.9013 -32.8810 -32.8642 -32.8572 -32.8235 -32.8205 -32.8000 -32.7955
   -32.7559 -32.7451 -32.7242 -32.7117 -32.7083 -32.6934 -32.6226 -32.6009
   -32.5898 -32.5863 -32.5769 -32.5598 -32.5428 -32.5356 -32.4816 -32.4660
    -7.5481  -3.9166  -3.8042  -2.5729  -2.2914  -1.6534  -1.6025  -1.4155
    -1.3053  -1.2883  -1.2319  -0.6841  -0.3722  -0.2853  -0.2495  -0.1796
    -0.0420  -0.0167   0.0417   0.2823   0.4543   0.5216   0.5666   0.6137
     0.7509   0.8448   1.0673   1.1421   1.1446   1.1861   1.3481   1.4323
     1.4528   1.6043   1.7172   1.9347   1.9912   2.0094   2.2456   2.5069
     2.6104   3.0140

     the Fermi energy is     1.7359 ev

!    total energy              =   -1729.80367047 Ry
     Harris-Foulkes estimate   =   -1729.80366154 Ry
     estimated scf accuracy    <       0.00000872 Ry

     The total energy is the sum of the following terms:

     one-electron contribution =  -11603.10699119 Ry
     hartree contribution      =    5784.05434678 Ry
     xc contribution           =    -526.25432543 Ry
     ewald contribution        =    4615.60551282 Ry
     electric field correction =       0.00021659 Ry
     smearing contrib. (-TS)   =      -0.10243003 Ry

     convergence has been achieved in  10 iterations
 
 BEEF-vdW xc energy contributions
           1 :   -463.267961114663     
           2 :    427.679851778727     
           3 :   -365.528126363076     
           4 :    291.166361094983     
           5 :   -219.012330551677     
           6 :    159.104304664571     
           7 :   -115.088767338939     
           8 :    85.0274608980737     
           9 :   -64.1137056451639     
          10 :    47.6964777709576     
          11 :   -33.1956384276027     
          12 :    20.3352342731727     
          13 :   -10.0845236588222     
          14 :    3.24989874231721     
          15 :   0.398741453243247     
          16 :   -2.09618195652388     
          17 :    3.36611931476426     
          18 :   -5.18249836271355     
          19 :    7.53855220875823     
          20 :   -9.64123961134482     
          21 :    10.5566199290564     
          22 :   -9.88251306591644     
          23 :    8.04250898239479     
          24 :   -6.04986775969462     
          25 :    4.91799717889899     
          26 :   -5.09412850105571     
          27 :    6.25275914791456     
          28 :   -7.54734528055729     
          29 :    8.13891251558459     
          30 :   -7.66916068182957     
          31 :   -41.4620703941666     
          32 :   -30.7907941545201     

     Forces acting on atoms (Ry/au):


     negative rho (up, down):  1.180E+00 0.000E+00
     atom    1 type  1   force =     0.00079584    0.00045873   -0.00029308
     atom    2 type  1   force =    -0.00079590    0.00045757   -0.00029183
     atom    3 type  1   force =    -0.00000101   -0.00091767   -0.00029259
     atom    4 type  1   force =     0.00000042    0.00000110    0.00104793
     atom    5 type  1   force =    -0.00000054    0.00367102    0.00421396
     atom    6 type  1   force =     0.00000079   -0.00000292    0.00656657
     atom    7 type  1   force =    -0.00318115   -0.00183357    0.00421608
     atom    8 type  1   force =     0.00318119   -0.00183421    0.00421602
     atom    9 type  1   force =    -0.00000208   -0.00000081   -0.03138029
     atom   10 type  1   force =     0.00000214    0.02916547    0.05285605
     atom   11 type  1   force =     0.02525801   -0.01458107    0.05285746
     atom   12 type  1   force =    -0.02525761   -0.01458324    0.05285857
     atom   13 type  2   force =    -0.00000011   -0.00000040   -0.14657485

     Total force =     0.182763     Total SCF correction =     0.003582


     entering subroutine stress ...


     negative rho (up, down):  1.180E+00 0.000E+00
          total   stress  (Ry/bohr**3)                   (kbar)     P=  -35.90
  -0.00029527  -0.00000000  -0.00000000        -43.44     -0.00     -0.00
  -0.00000000  -0.00029527  -0.00000000         -0.00    -43.44     -0.00
  -0.00000000  -0.00000000  -0.00014158         -0.00     -0.00    -20.83


     number of scf cycles    =   2
     number of bfgs steps    =   1

     energy   old            =   -1729.7581820906 Ry
     energy   new            =   -1729.8036704715 Ry

     CASE: energy  _new < energy  _old


     WARNING: bfgs curvature condition failed, Theta= 0.979
     new trust radius        =       0.1899282729 bohr
     new conv_thr            =       0.0000001000 Ry


ATOMIC_POSITIONS (crystal)
Ta1      0.166666667   0.166666667   0.401991699    0   0   0
Ta1      0.666666667   0.166666667   0.401991699    0   0   0
Ta1      0.166666667   0.666666667   0.401991699    0   0   0
Ta1      0.666666667   0.666666667   0.401991699    0   0   0
Ta1      0.833333333   0.333333333   0.500000000    0   0   0
Ta1      0.333333333   0.333333333   0.500000000    0   0   0
Ta1      0.833333333   0.833333333   0.500000000    0   0   0
Ta1      0.333333333   0.833333333   0.500000000    0   0   0
Ta1      0.000000392  -0.000000226   0.596645093
Ta1      0.495708926   0.008581609   0.600867725
Ta1      0.008581600   0.495709232   0.600867679
Ta1      0.495708997   0.495709556   0.600867479
C1       0.333333595   0.333333726   0.654573577



[...]
     2.8234   3.2513

          k = 0.0279-0.0483 0.0000 ( 19485 PWs)   bands (ev):

   -66.4198 -66.3861 -66.3771 -66.3738 -66.3651 -66.2965 -66.2663 -66.2545
   -66.2480 -66.2366 -66.2290 -66.1834 -33.1150 -33.0654 -33.0361 -33.0343
   -33.0228 -33.0082 -32.9915 -32.9806 -32.9163 -32.9011 -32.8060 -32.7811
   -32.7641 -32.7445 -32.6632 -32.6447 -32.6314 -32.6074 -32.5979 -32.5591
   -32.5437 -32.5243 -32.5058 -32.4873 -32.4753 -32.4589 -32.4344 -32.4227
   -32.4124 -32.3852 -32.3753 -32.3487 -32.3180 -32.2811 -32.2510 -32.2234
    -8.1577  -4.7432  -3.0740  -2.5536  -2.3913  -2.1468  -1.9561  -1.7667
    -1.6379  -1.4681  -1.1624  -1.0841  -1.0545  -0.6844  -0.6322  -0.5261
    -0.2274  -0.1663   0.2847   0.4784   0.6641   0.7373   0.9975   1.1267
     1.3030   1.3222   1.4021   1.6201   1.6251   1.7429   1.9031   1.9911
     2.0414   2.1489   2.2354   2.2902   2.3050   2.5600   2.7265   2.7302
     2.8290   3.0617

          k = 0.0558-0.0322 0.0000 ( 19517 PWs)   bands (ev):

   -66.4166 -66.3887 -66.3785 -66.3714 -66.3665 -66.2942 -66.2670 -66.2546
   -66.2480 -66.2387 -66.2290 -66.1833 -33.0969 -33.0458 -33.0311 -33.0216
   -33.0008 -32.9866 -32.9655 -32.9625 -32.9137 -32.8546 -32.8106 -32.7866
   -32.7659 -32.7504 -32.6515 -32.6387 -32.6323 -32.6178 -32.6016 -32.5843
   -32.5718 -32.5550 -32.5023 -32.4965 -32.4853 -32.4616 -32.4512 -32.4487
   -32.4297 -32.3960 -32.3941 -32.3301 -32.3116 -32.3094 -32.2500 -32.2232
    -8.1126  -4.5547  -3.0447  -2.7960  -2.1989  -1.8589  -1.8132  -1.7861
    -1.5192  -1.4066  -1.1469  -0.9771  -0.8822  -0.5964  -0.4593  -0.4172
    -0.2243  -0.1113   0.2926   0.4544   0.5549   0.6641   0.8741   1.0361
     1.1599   1.2708   1.2935   1.5597   1.6162   1.6485   1.8032   1.8911
     1.8921   2.0224   2.1127   2.2390   2.2479   2.3660   2.6116   2.7046
     3.0394   3.0853

          k = 0.0558 0.0000 0.0000 ( 19485 PWs)   bands (ev):

   -66.4198 -66.3861 -66.3771 -66.3738 -66.3651 -66.2965 -66.2663 -66.2545
   -66.2480 -66.2366 -66.2290 -66.1834 -33.1150 -33.0654 -33.0361 -33.0343
   -33.0228 -33.0082 -32.9915 -32.9806 -32.9163 -32.9011 -32.8060 -32.7811
   -32.7641 -32.7445 -32.6632 -32.6447 -32.6314 -32.6074 -32.5979 -32.5591
   -32.5437 -32.5243 -32.5058 -32.4873 -32.4753 -32.4589 -32.4344 -32.4227
   -32.4124 -32.3852 -32.3753 -32.3487 -32.3180 -32.2811 -32.2510 -32.2234
    -8.1577  -4.7432  -3.0740  -2.5536  -2.3913  -2.1468  -1.9561  -1.7667
    -1.6379  -1.4681  -1.1624  -1.0841  -1.0545  -0.6844  -0.6322  -0.5261
    -0.2274  -0.1663   0.2847   0.4784   0.6641   0.7373   0.9975   1.1267
     1.3030   1.3222   1.4021   1.6201   1.6251   1.7429   1.9031   1.9911
     2.0414   2.1489   2.2354   2.2902   2.3050   2.5600   2.7265   2.7302
     2.8290   3.0617

          k = 0.0558 0.0322 0.0000 ( 19517 PWs)   bands (ev):

   -66.4166 -66.3887 -66.3785 -66.3714 -66.3665 -66.2942 -66.2670 -66.2546
   -66.2480 -66.2387 -66.2290 -66.1833 -33.0969 -33.0458 -33.0311 -33.0216
   -33.0008 -32.9866 -32.9655 -32.9625 -32.9137 -32.8546 -32.8106 -32.7866
   -32.7659 -32.7504 -32.6515 -32.6387 -32.6323 -32.6178 -32.6016 -32.5843
   -32.5718 -32.5550 -32.5023 -32.4965 -32.4853 -32.4616 -32.4512 -32.4487
   -32.4297 -32.3960 -32.3941 -32.3301 -32.3116 -32.3094 -32.2500 -32.2232
    -8.1126  -4.5547  -3.0447  -2.7960  -2.1989  -1.8589  -1.8131  -1.7861
    -1.5193  -1.4066  -1.1469  -0.9771  -0.8822  -0.5964  -0.4593  -0.4172
    -0.2243  -0.1113   0.2926   0.4544   0.5549   0.6641   0.8741   1.0361
     1.1599   1.2708   1.2935   1.5597   1.6162   1.6485   1.8032   1.8911
     1.8921   2.0224   2.1127   2.2390   2.2479   2.3660   2.6116   2.7046
     3.0394   3.0853

          k = 0.0558-0.1289 0.0000 ( 19521 PWs)   bands (ev):

   -66.4082 -66.3926 -66.3814 -66.3747 -66.3638 -66.2885 -66.2681 -66.2570
   -66.2480 -66.2422 -66.2290 -66.1831 -33.0527 -32.9995 -32.9906 -32.9763
   -32.9643 -32.9598 -32.9141 -32.9042 -32.8536 -32.8380 -32.8114 -32.7852
   -32.7758 -32.7555 -32.7168 -32.6750 -32.6457 -32.6389 -32.6206 -32.5968
   -32.5813 -32.5638 -32.5489 -32.5209 -32.5041 -32.4869 -32.4807 -32.4518
   -32.4296 -32.4240 -32.3984 -32.3630 -32.3366 -32.3075 -32.2500 -32.2435
    -8.0199  -4.0201  -3.1659  -2.6146  -2.3159  -2.0006  -1.6058  -1.3657
    -1.1891  -1.0513  -0.8767  -0.7585  -0.5674  -0.3711  -0.2261  -0.1741
    -0.0877  -0.0126   0.2226   0.3113   0.5026   0.5790   0.7089   0.7392
     0.8612   0.9161   1.0178   1.1636   1.2439   1.3042   1.4449   1.6689
     1.7277   1.7712   1.8809   2.1710   2.2065   2.3569   2.5189   2.8062
     2.8234   3.2513

          k = 0.0558-0.0967 0.0000 ( 19521 PWs)   bands (ev):

   -66.4013 -66.3931 -66.3883 -66.3755 -66.3621 -66.2846 -66.2682 -66.2604
   -66.2474 -66.2438 -66.2289 -66.1831 -33.0102 -32.9776 -32.9763 -32.9377
   -32.9333 -32.9330 -32.9032 -32.8569 -32.8415 -32.8303 -32.8045 -32.7950
   -32.7598 -32.7570 -32.7452 -32.7216 -32.7027 -32.6606 -32.6455 -32.6138
   -32.5810 -32.5800 -32.5447 -32.5254 -32.4936 -32.4848 -32.4796 -32.4416
   -32.4374 -32.4154 -32.4046 -32.4044 -32.3650 -32.2933 -32.2840 -32.2402
    -7.9722  -3.3669  -3.2292  -3.0468  -2.3311  -1.9142  -1.6247  -0.9584
    -0.8906  -0.8870  -0.5990  -0.4567  -0.4327  -0.3907  -0.2792  -0.0690
     0.0215   0.1426   0.2371   0.2548   0.2736   0.3749   0.5254   0.5318
     0.6345   0.7453   0.8129   1.0529   1.0839   1.1824   1.2280   1.4197
     1.6370   1.7092   1.8810   1.9411   2.2520   2.4727   2.6095   2.7833
     2.9233   3.1505

          k = 0.0558-0.0645 0.0000 ( 19521 PWs)   bands (ev):

   -66.4082 -66.3926 -66.3814 -66.3747 -66.3638 -66.2885 -66.2681 -66.2570
   -66.2480 -66.2422 -66.2290 -66.1831 -33.0527 -32.9995 -32.9906 -32.9763
   -32.9643 -32.9598 -32.9141 -32.9042 -32.8536 -32.8380 -32.8114 -32.7852
   -32.7758 -32.7555 -32.7168 -32.6750 -32.6457 -32.6389 -32.6206 -32.5968
   -32.5813 -32.5638 -32.5489 -32.5209 -32.5041 -32.4869 -32.4807 -32.4518
   -32.4296 -32.4240 -32.3984 -32.3630 -32.3366 -32.3075 -32.2500 -32.2435
    -8.0199  -4.0201  -3.1659  -2.6146  -2.3159  -2.0006  -1.6058  -1.3657
    -1.1891  -1.0513  -0.8767  -0.7585  -0.5674  -0.3711  -0.2261  -0.1741
    -0.0877  -0.0126   0.2226   0.3113   0.5026   0.5790   0.7089   0.7392
     0.8612   0.9161   1.0178   1.1636   1.2439   1.3042   1.4449   1.6689
     1.7277   1.7712   1.8809   2.1710   2.2065   2.3569   2.5189   2.8062
     2.8234   3.2513

          k =-0.0837 0.0483 0.0000 ( 19532 PWs)   bands (ev):

   -66.4059 -66.3979 -66.3790 -66.3714 -66.3665 -66.2881 -66.2706 -66.2534
   -66.2480 -66.2436 -66.2290 -66.1831 -33.0511 -32.9990 -32.9971 -32.9827
   -32.9802 -32.9684 -32.9184 -32.8756 -32.8737 -32.8432 -32.8106 -32.7730
   -32.7307 -32.7052 -32.6959 -32.6630 -32.6520 -32.6455 -32.6276 -32.6258
   -32.5984 -32.5917 -32.5467 -32.5367 -32.5182 -32.5063 -32.4709 -32.4523
   -32.4484 -32.4347 -32.3635 -32.3627 -32.3294 -32.3052 -32.2470 -32.2358
    -8.0200  -3.8366  -3.6087  -2.6162  -2.1128  -1.6842  -1.4869  -1.4116
    -1.2722  -1.1606  -1.0799  -0.7954  -0.4754  -0.4383  -0.1870  -0.1480
    -0.0004   0.0256   0.2073   0.3968   0.4025   0.6105   0.7061   0.7778
     0.8500   0.9828   1.0709   1.2786   1.2799   1.3328   1.4086   1.4477
     1.5729   1.7444   2.0354   2.1556   2.1967   2.2886   2.4356   2.7819
     3.0801   3.2409

          k =-0.0837 0.0806 0.0000 ( 19521 PWs)   bands (ev):

   -66.4082 -66.3926 -66.3814 -66.3747 -66.3638 -66.2885 -66.2681 -66.2570
   -66.2480 -66.2422 -66.2290 -66.1831 -33.0527 -32.9995 -32.9906 -32.9763
   -32.9643 -32.9598 -32.9141 -32.9042 -32.8536 -32.8380 -32.8114 -32.7852
   -32.7758 -32.7555 -32.7168 -32.6750 -32.6457 -32.6389 -32.6206 -32.5968
   -32.5813 -32.5638 -32.5489 -32.5209 -32.5041 -32.4869 -32.4807 -32.4518
   -32.4296 -32.4240 -32.3984 -32.3630 -32.3366 -32.3075 -32.2500 -32.2435
    -8.0199  -4.0201  -3.1659  -2.6146  -2.3159  -2.0006  -1.6058  -1.3657
    -1.1891  -1.0513  -0.8767  -0.7585  -0.5674  -0.3711  -0.2261  -0.1741
    -0.0877  -0.0126   0.2226   0.3113   0.5026   0.5790   0.7089   0.7392
     0.8612   0.9161   1.0178   1.1636   1.2439   1.3042   1.4449   1.6689
     1.7277   1.7712   1.8809   2.1710   2.2065   2.3569   2.5189   2.8062
     2.8234   3.2513

          k =-0.0837 0.1128 0.0000 ( 19521 PWs)   bands (ev):

   -66.4082 -66.3926 -66.3814 -66.3747 -66.3638 -66.2885 -66.2681 -66.2570
   -66.2480 -66.2422 -66.2290 -66.1831 -33.0527 -32.9995 -32.9906 -32.9763
   -32.9643 -32.9598 -32.9141 -32.9042 -32.8536 -32.8380 -32.8114 -32.7852
   -32.7758 -32.7555 -32.7168 -32.6750 -32.6457 -32.6389 -32.6206 -32.5968
   -32.5813 -32.5638 -32.5489 -32.5209 -32.5041 -32.4869 -32.4807 -32.4518
   -32.4296 -32.4240 -32.3984 -32.3630 -32.3366 -32.3075 -32.2500 -32.2435
    -8.0199  -4.0201  -3.1659  -2.6146  -2.3159  -2.0006  -1.6058  -1.3657
    -1.1891  -1.0513  -0.8767  -0.7585  -0.5674  -0.3711  -0.2261  -0.1741
    -0.0877  -0.0126   0.2226   0.3113   0.5026   0.5790   0.7089   0.7392
     0.8612   0.9161   1.0178   1.1636   1.2439   1.3042   1.4449   1.6689
     1.7277   1.7712   1.8809   2.1710   2.2065   2.3569   2.5189   2.8062
     2.8234   3.2513

          k =-0.0837-0.0483 0.0000 ( 19532 PWs)   bands (ev):

   -66.4059 -66.3979 -66.3790 -66.3714 -66.3665 -66.2881 -66.2706 -66.2534
   -66.2480 -66.2436 -66.2290 -66.1831 -33.0511 -32.9990 -32.9971 -32.9827
   -32.9802 -32.9684 -32.9184 -32.8756 -32.8737 -32.8432 -32.8106 -32.7730
   -32.7307 -32.7052 -32.6959 -32.6630 -32.6520 -32.6455 -32.6276 -32.6258
   -32.5984 -32.5917 -32.5467 -32.5367 -32.5182 -32.5063 -32.4709 -32.4523
   -32.4484 -32.4347 -32.3635 -32.3627 -32.3294 -32.3052 -32.2470 -32.2358
    -8.0200  -3.8366  -3.6087  -2.6162  -2.1128  -1.6842  -1.4869  -1.4116
    -1.2722  -1.1606  -1.0799  -0.7954  -0.4754  -0.4383  -0.1870  -0.1480
    -0.0004   0.0256   0.2073   0.3968   0.4026   0.6105   0.7061   0.7778
     0.8500   0.9827   1.0709   1.2786   1.2799   1.3328   1.4086   1.4477
     1.5729   1.7444   2.0354   2.1556   2.1967   2.2886   2.4356   2.7819
     3.0801   3.2409

     the Fermi energy is     1.8799 ev

!    total energy              =   -1729.88121033 Ry
     Harris-Foulkes estimate   =   -1729.88121066 Ry
     estimated scf accuracy    <       0.00000002 Ry

     The total energy is the sum of the following terms:

     one-electron contribution =  -11673.59133382 Ry
     hartree contribution      =    5820.18811310 Ry
     xc contribution           =    -526.61998164 Ry
     ewald contribution        =    4650.23896659 Ry
     electric field correction =       0.00005257 Ry
     smearing contrib. (-TS)   =      -0.09702713 Ry

     convergence has been achieved in  11 iterations
 
 BEEF-vdW xc energy contributions
           1 :   -463.628257447235     
           2 :    428.094280036779     
           3 :   -365.986793395708     
           4 :    291.590619236841     
           5 :   -219.294937548675     
           6 :    159.159358324640     
           7 :   -114.890334730027     
           8 :    84.6230789148636     
           9 :   -63.6083489938379     
          10 :    47.2119660678781     
          11 :   -32.8210840057837     
          12 :    20.0911025332992     
          13 :   -9.91992633361787     
          14 :    3.07719497717176     
          15 :   0.650638346248570     
          16 :   -2.43990312788299     
          17 :    3.74796534288180     
          18 :   -5.51310859542673     
          19 :    7.74430175149098     
          20 :   -9.70519502459786     
          21 :    10.5267275350932     
          22 :   -9.84537914988437     
          23 :    8.07835928104578     
          24 :   -6.19200043728927     
          25 :    5.13679879894534     
          26 :   -5.31408580197319     
          27 :    6.39483182361806     
          28 :   -7.57464059306193     
          29 :    8.07910582018093     
          30 :   -7.59883941983003     
          31 :   -41.4842705340001     
          32 :   -30.8199965828524     

     Forces acting on atoms (Ry/au):


     negative rho (up, down):  1.179E+00 0.000E+00
     atom    1 type  1   force =     0.00219139    0.00126520    0.00091538
     atom    2 type  1   force =    -0.00219135    0.00126514    0.00091546
     atom    3 type  1   force =    -0.00000003   -0.00253038    0.00091543
     atom    4 type  1   force =     0.00000006    0.00000000    0.00013459
     atom    5 type  1   force =     0.00000003    0.02392291   -0.00630269
     atom    6 type  1   force =    -0.00000005   -0.00000006    0.01475155
     atom    7 type  1   force =    -0.02071790   -0.01196151   -0.00630275
     atom    8 type  1   force =     0.02071778   -0.01196138   -0.00630241
     atom    9 type  1   force =     0.00000027   -0.00000008    0.00177927
     atom   10 type  1   force =    -0.00000033   -0.00064929   -0.00017440
     atom   11 type  1   force =    -0.00056226    0.00032455   -0.00017450
     atom   12 type  1   force =     0.00056220    0.00032490   -0.00017430
     atom   13 type  2   force =     0.00000019   -0.00000002    0.00001936

     Total force =     0.002127     Total SCF correction =     0.000425
     SCF correction compared to forces is large: reduce conv_thr to get better values


     entering subroutine stress ...


     negative rho (up, down):  1.179E+00 0.000E+00
          total   stress  (Ry/bohr**3)                   (kbar)     P=  -22.18
  -0.00020134  -0.00000000   0.00000000        -29.62     -0.00      0.00
  -0.00000000  -0.00020134   0.00000000         -0.00    -29.62      0.00
   0.00000000   0.00000000  -0.00004971          0.00      0.00     -7.31


     bfgs converged in  14 scf cycles and  13 bfgs steps
     (criteria: energy <  1.0E+00, force <  1.9E-03)

     End of BFGS Geometry Optimization

     Final energy   =   -1729.8812103281 Ry
Begin final coordinates

ATOMIC_POSITIONS (crystal)
Ta1      0.166666667   0.166666667   0.401991699    0   0   0
Ta1      0.666666667   0.166666667   0.401991699    0   0   0
Ta1      0.166666667   0.666666667   0.401991699    0   0   0
Ta1      0.666666667   0.666666667   0.401991699    0   0   0
Ta1      0.833333333   0.333333333   0.500000000    0   0   0
Ta1      0.333333333   0.333333333   0.500000000    0   0   0
Ta1      0.833333333   0.833333333   0.500000000    0   0   0
Ta1      0.333333333   0.833333333   0.500000000    0   0   0
Ta1     -0.000000182   0.000000290   0.587331276
Ta1      0.506798387  -0.013596078   0.602815232
Ta1     -0.013596411   0.506798573   0.602815242
Ta1      0.506798317   0.506798370   0.602815230
C1       0.333333250   0.333333649   0.641009284
End final coordinates



     Writing output data file calc.save
 
     init_run     :     16.29s CPU     16.76s WALL (       1 calls)
     electrons    :   5773.51s CPU   6177.05s WALL (      14 calls)
     update_pot   :     38.55s CPU     41.88s WALL (      13 calls)
     forces       :    373.73s CPU    405.87s WALL (      14 calls)
     stress       :   1143.73s CPU   1210.45s WALL (      14 calls)

     Called by init_run:
     wfcinit      :      5.61s CPU      5.70s WALL (       1 calls)
     potinit      :      1.99s CPU      2.14s WALL (       1 calls)

     Called by electrons:
     c_bands      :   1902.46s CPU   1980.69s WALL (     174 calls)
     sum_band     :   1398.75s CPU   1506.42s WALL (     174 calls)
     v_of_rho     :    296.79s CPU    338.93s WALL (     187 calls)
     newd         :   1507.39s CPU   1536.99s WALL (     187 calls)
     mix_rho      :     10.87s CPU     11.08s WALL (     174 calls)
     vdW_energy   :    156.52s CPU    172.29s WALL (     691 calls)
     vdW_ffts     :    373.76s CPU    388.81s WALL (    1410 calls)
     vdW_v        :    140.53s CPU    147.13s WALL (     691 calls)

     Called by c_bands:
     init_us_2    :     15.31s CPU     15.40s WALL (    1885 calls)
     cegterg      :   1710.74s CPU   1747.38s WALL (     870 calls)

     Called by *egterg:
     h_psi        :   1139.07s CPU   1165.13s WALL (    4344 calls)
     s_psi        :    130.73s CPU    131.08s WALL (    4344 calls)
     g_psi        :      6.28s CPU      6.31s WALL (    3469 calls)
     cdiaghg      :    140.52s CPU    141.79s WALL (    4269 calls)

     Called by h_psi:
     add_vuspsi   :    132.97s CPU    133.52s WALL (    4344 calls)

     General routines
     calbec       :    204.96s CPU    207.59s WALL (    5354 calls)
     fft          :    665.35s CPU    757.23s WALL (   41801 calls)
     ffts         :      0.67s CPU      0.71s WALL (     361 calls)
     fftw         :    666.95s CPU    695.58s WALL (  482504 calls)
     interpolate  :      6.47s CPU      6.64s WALL (     361 calls)
     davcio       :      0.00s CPU      0.03s WALL (       5 calls)
 
     Parallel routines
     fft_scatter  :    804.60s CPU    919.87s WALL (  524666 calls)
 
     PWSCF        :     2h 4m CPU        2h12m WALL

 
   This run was terminated on:   8:52:49   3May2018            

=------------------------------------------------------------------------------=
   JOB DONE.
=------------------------------------------------------------------------------=
Job  /afs/slac/g/suncat/bin/suncat-tsmpirun -x LD_LIBRARY_PATH -wdir /scratch/qe641370_VJ9BN pw.x -npool 4 -in pw.inp

TID   HOST_NAME   COMMAND_LINE            STATUS            TERMINATION_TIME
===== ========== ================  =======================  ===================
00000 suncat0018 pw.x -npool 4 -i  Done                     05/03/2018 08:52:49
00001 suncat0018 pw.x -npool 4 -i  Done                     05/03/2018 08:52:49
00002 suncat0018 pw.x -npool 4 -i  Done                     05/03/2018 08:52:49
00003 suncat0018 pw.x -npool 4 -i  Done                     05/03/2018 08:52:49
00004 suncat0018 pw.x -npool 4 -i  Done                     05/03/2018 08:52:49
00005 suncat0018 pw.x -npool 4 -i  Done                     05/03/2018 08:52:49
00006 suncat0018 pw.x -npool 4 -i  Done                     05/03/2018 08:52:49
00007 suncat0018 pw.x -npool 4 -i  Done                     05/03/2018 08:52:49
00008 suncat0017 pw.x -npool 4 -i  Done                     05/03/2018 08:52:49
00009 suncat0017 pw.x -npool 4 -i  Done                     05/03/2018 08:52:49
00010 suncat0017 pw.x -npool 4 -i  Done                     05/03/2018 08:52:49
00011 suncat0017 pw.x -npool 4 -i  Done                     05/03/2018 08:52:49
00012 suncat0017 pw.x -npool 4 -i  Done                     05/03/2018 08:52:49
00013 suncat0017 pw.x -npool 4 -i  Done                     05/03/2018 08:52:49
00014 suncat0017 pw.x -npool 4 -i  Done                     05/03/2018 08:52:49
00015 suncat0017 pw.x -npool 4 -i  Done                     05/03/2018 08:52:49
00016 suncat0005 pw.x -npool 4 -i  Done                     05/03/2018 08:52:49
00017 suncat0005 pw.x -npool 4 -i  Done                     05/03/2018 08:52:49
00018 suncat0005 pw.x -npool 4 -i  Done                     05/03/2018 08:52:49
00019 suncat0005 pw.x -npool 4 -i  Done                     05/03/2018 08:52:49
00020 suncat0005 pw.x -npool 4 -i  Done                     05/03/2018 08:52:49
00021 suncat0005 pw.x -npool 4 -i  Done                     05/03/2018 08:52:49
00022 suncat0005 pw.x -npool 4 -i  Done                     05/03/2018 08:52:49
00023 suncat0005 pw.x -npool 4 -i  Done                     05/03/2018 08:52:49
00024 suncat0004 pw.x -npool 4 -i  Done                     05/03/2018 08:52:49
00025 suncat0004 pw.x -npool 4 -i  Done                     05/03/2018 08:52:49
00026 suncat0004 pw.x -npool 4 -i  Done                     05/03/2018 08:52:49
00027 suncat0004 pw.x -npool 4 -i  Done                     05/03/2018 08:52:49
00028 suncat0004 pw.x -npool 4 -i  Done                     05/03/2018 08:52:49
00029 suncat0004 pw.x -npool 4 -i  Done                     05/03/2018 08:52:49
00030 suncat0004 pw.x -npool 4 -i  Done                     05/03/2018 08:52:49
00031 suncat0004 pw.x -npool 4 -i  Done                     05/03/2018 08:52:49
