  python dir          : /u/if/mamunm/src/espresso
  espresso dir        : /nfs/slac/g/suncatfs/sw/espv18/espresso-dynpy-beef/bin
  pseudo dir          : /u/if/mamunm/psp/gbrv1.5pbe
  ase-espresso py git : GITVERSION



     Program PWSCF v.5.1rc2 (svn rev. 11289) starts on 25Apr2018 at  6:55:59 

     This program is part of the open-source Quantum ESPRESSO suite
     for quantum simulation of materials; please cite
         "P. Giannozzi et al., J. Phys.:Condens. Matter 21 395502 (2009);
          URL http://www.quantum-espresso.org", 
     in publications or presentations arising from this work. More details at
     http://www.quantum-espresso.org/quote

     Parallel version (MPI), running on    32 processors
     K-points division:     npool     =       4
     R & G space division:  proc/nbgrp/npool/nimage =       8
     Reading input from pw.inp
     Message from routine read_cards :
     DEPRECATED: no units specified in CELL_PARAMETERS card

     Current dimensions of program PWSCF are:
     Max number of different atomic species (ntypx) = 10
     Max number of k-points (npk) =  40000
     Max angular momentum in pseudopotentials (lmaxx) =  3
     Presently stress not available with electric field


     **************************************************************************
     Initializing libbeef V0.1.1 with the BEEF-vdW functional.
     Citation: Wellendorff et al., PRB 85, 235149 (2012).
     **************************************************************************


     IMPORTANT: XC functional enforced from input :
     Exchange-correlation      = BEEF-VDW ( 1  4 27 13 2)
     Any further DFT definition will be discarded
     Please, verify this is what you really want


     Subspace diagonalization in iterative solution of the eigenvalue problem:
     a serial algorithm will be used

 
     Parallelization info
     --------------------
     sticks:   dense  smooth     PW     G-vecs:    dense   smooth      PW
     Min         465     186     53                90387    22883    3523
     Max         466     187     55                90396    22907    3532
     Sum        3721    1495    433               723123   183131   28227
 


     bravais-lattice index     =            0
     lattice parameter (alat)  =       1.8897  a.u.
     unit-cell volume          =    6082.7792 (a.u.)^3
     number of atoms/cell      =           14
     number of atomic types    =            3
     number of electrons       =       149.00
     number of Kohn-Sham states=           84
     kinetic-energy cutoff     =      36.7493  Ry
     charge density cutoff     =     367.4932  Ry
     convergence threshold     =      1.0E-05
     mixing beta               =       0.3000
     number of iterations used =           10  plain     mixing
     Exchange-correlation      = BEEF-VDW ( 1  4 27 13 2)
     nstep                     =           50


     celldm(1)=   1.889726  celldm(2)=   0.000000  celldm(3)=   0.000000
     celldm(4)=   0.000000  celldm(5)=   0.000000  celldm(6)=   0.000000

     crystal axes: (cart. coord. in units of alat)
               a(1) = (   6.421223   0.000000   0.000000 )  
               a(2) = (   3.210611   5.560942   0.000000 )  
               a(3) = (   0.000000   0.000000  25.242906 )  

     reciprocal axes: (cart. coord. in units 2 pi/alat)
               b(1) = (  0.155734 -0.089913  0.000000 )  
               b(2) = (  0.000000  0.179826  0.000000 )  
               b(3) = (  0.000000  0.000000  0.039615 )  


     PseudoPot. # 1 for Zr read from file:
     /u/if/mamunm/psp/gbrv1.5pbe/Zr.UPF
     MD5 check sum: 5db81b1e868ab7776c4564c113de050b
     Pseudo is Ultrasoft + core correction, Zval = 12.0
     Generated by new atomic code, or converted to UPF format
     Using radial grid of  887 points,  6 beta functions with: 
                l(1) =   0
                l(2) =   0
                l(3) =   1
                l(4) =   1
                l(5) =   2
                l(6) =   2
     Q(r) pseudized with  6 coefficients,  rinner =    1.200   1.200   1.200
                                                       1.200   1.200

     PseudoPot. # 2 for C  read from file:
     /u/if/mamunm/psp/gbrv1.5pbe/C.UPF
     MD5 check sum: d1aef80898a10debaa0f26306b886e00
     Pseudo is Ultrasoft + core correction, Zval =  4.0
     Generated by new atomic code, or converted to UPF format
     Using radial grid of  721 points,  4 beta functions with: 
                l(1) =   0
                l(2) =   0
                l(3) =   1
                l(4) =   1
     Q(r) pseudized with  8 coefficients,  rinner =    1.100   1.100   1.100


     PseudoPot. # 3 for H  read from file:
     /u/if/mamunm/psp/gbrv1.5pbe/H.UPF
     MD5 check sum: 761ae9a214b05c3daf00ab9f6b793d6f
     Pseudo is Ultrasoft, Zval =  1.0
     Generated by new atomic code, or converted to UPF format
     Using radial grid of  615 points,  2 beta functions with: 
                l(1) =   0
                l(2) =   0
     Q(r) pseudized with  8 coefficients,  rinner =    0.700

     vdW kernel table read from file vdW_kernel_table
     MD5 check sum: 095c7af220d748ca6e76c0b4c6cfb241

     atomic species   valence    mass     pseudopotential
        Zr1           12.00    91.22400     Zr( 1.00)
        C1             4.00    12.01100     C ( 1.00)
        H1             1.00     1.00800     H ( 1.00)

     No symmetry found



   Cartesian axes

     site n.     atom                  positions (alat units)
         1           Zr1 tau(   1) = (   1.6053057   0.9268237  10.0000000  )
         2           Zr1 tau(   2) = (   4.8159170   0.9268237  10.0000000  )
         3           Zr1 tau(   3) = (   3.2106113   3.7072946  10.0000000  )
         4           Zr1 tau(   4) = (   6.4212227   3.7072946  10.0000000  )
         5           Zr1 tau(   5) = (   6.4212227   1.8536473  12.6214532  )
         6           Zr1 tau(   6) = (   3.2106113   1.8536473  12.6214532  )
         7           Zr1 tau(   7) = (   8.0265283   4.6341183  12.6214532  )
         8           Zr1 tau(   8) = (   4.8159170   4.6341183  12.6214532  )
         9           Zr1 tau(   9) = (   0.0000000   0.0000000  15.2429064  )
        10           Zr1 tau(  10) = (   3.2106113   0.0000000  15.2429064  )
        11           Zr1 tau(  11) = (   1.6053057   2.7804710  15.2429064  )
        12           Zr1 tau(  12) = (   4.8159170   2.7804710  15.2429064  )
        13           C1  tau(  13) = (   1.6053057   0.9268237  16.8744064  )
        14           H1  tau(  14) = (   1.6053057   0.9268237  17.9744064  )

     number of k points=    20  Fermi-Dirac smearing, width (Ry)=  0.0110
                       cart. coord. in units 2pi/alat
        k(    1) = (   0.0000000   0.0000000   0.0000000), wk =   0.0555556
        k(    2) = (   0.0000000   0.0299709   0.0000000), wk =   0.1111111
        k(    3) = (   0.0000000   0.0599419   0.0000000), wk =   0.1111111
        k(    4) = (   0.0000000  -0.0899128   0.0000000), wk =   0.0555556
        k(    5) = (   0.0259556  -0.0149855   0.0000000), wk =   0.1111111
        k(    6) = (   0.0259556   0.0149855   0.0000000), wk =   0.1111111
        k(    7) = (   0.0259556   0.0449564   0.0000000), wk =   0.1111111
        k(    8) = (   0.0259556  -0.1048983   0.0000000), wk =   0.1111111
        k(    9) = (   0.0259556  -0.0749274   0.0000000), wk =   0.1111111
        k(   10) = (   0.0259556  -0.0449564   0.0000000), wk =   0.1111111
        k(   11) = (   0.0519112  -0.0299709   0.0000000), wk =   0.1111111
        k(   12) = (   0.0519112   0.0000000   0.0000000), wk =   0.1111111
        k(   13) = (   0.0519112   0.0299709   0.0000000), wk =   0.1111111
        k(   14) = (   0.0519112  -0.1198838   0.0000000), wk =   0.1111111
        k(   15) = (   0.0519112  -0.0899128   0.0000000), wk =   0.1111111
        k(   16) = (   0.0519112  -0.0599419   0.0000000), wk =   0.1111111
        k(   17) = (  -0.0778668   0.0449564   0.0000000), wk =   0.0555556
        k(   18) = (  -0.0778668   0.0749274   0.0000000), wk =   0.1111111
        k(   19) = (  -0.0778668   0.1048983   0.0000000), wk =   0.1111111
        k(   20) = (  -0.0778668  -0.0449564   0.0000000), wk =   0.0555556

     Dense  grid:   723123 G-vectors     FFT dimensions: (  75,  75, 300)

     Smooth grid:   183131 G-vectors     FFT dimensions: (  48,  48, 192)

     Largest allocated arrays     est. size (Mb)     dimensions
        Kohn-Sham Wavefunctions         3.71 Mb     (    2896,   84)
        NL pseudopotentials             9.99 Mb     (    2896,  226)
        Each V/rho on FFT grid          3.26 Mb     (  213750)
        Each G-vector array             0.69 Mb     (   90391)
        G-vector shells                 0.18 Mb     (   23541)
     Largest temporary arrays     est. size (Mb)     dimensions
        Auxiliary wavefunctions        14.85 Mb     (    2896,  336)
        Each subspace H/S matrix        1.72 Mb     (     336,  336)
        Each <psi_i|beta_j> matrix      0.29 Mb     (     226,   84)
        Arrays for rho mixing          32.62 Mb     (  213750,   10)

     Initial potential from superposition of free atoms
     Check: negative starting charge=   -0.729046

     starting charge  148.97416, renormalised to  149.00000

     negative rho (up, down):  7.292E-01 0.000E+00


     ************************************************************************
     *
     * You are using vdW-DF for exchange-correlation in this calculation.
     * Please cite the following three references that made this development
     * possible:
     *
     *   M. Dion, H. Rydberg, E. Schroder, D. C. Langreth, and
     *   B. I. Lundqvist, Phys. Rev. Lett. 92, 246401 (2004).
     *
     *   T. Thonhauser, V. R. Cooper, S. Li, A. Puzder, P. Hyldgaard, and
     *   D. C. Langreth, Phys. Rev. B 76, 125112 (2007).
     *
     *   G. Roman-Perez and J. M. Soler, Phys. Rev. Lett. 103, 096102 (2009).
     *
     *
     * If you are using vdW-DF2, please also cite:
     *
     *   K. Lee, E. D. Murray, L. Kong, B. I. Lundqvist, and
     *   D. C. Langreth, Phys. Rev. B 82, 081101(R) (2010).
     *
     *
     * If you are calculating the stress with vdW-DF, please also cite:
     *
     *   R. Sabatini, E. Kucukbenli, B. Kolb, T. Thonhauser, and
     *   S. de Gironcoli, J. Phys.: Condens. Matter 24, 424209 (2012).
     *
     ************************************************************************

     Carrying out vdW-DF run using the following parameters:

     Nqs =      20    Nr_points =    1024   r_max =   100.000
     q_mesh =
               0.00001000     0.04494208     0.09755937     0.15916263
               0.23128650     0.31572767     0.41458969     0.53033537
               0.66584808     0.82450364     1.01025438     1.22772762
               1.48234092     1.78043706     2.12944203     2.53805004
               3.01644009     3.57652955     4.23227104     5.00000000

     Gradients computed in reciprocal space

     ************************************************************************


 
     Adding external electric field

     Computed dipole along edir(3) : 
        Dipole               -0.0069 Ry au,         -0.0176 Debye
        Dipole field         -0.0000 Ry au
 
        Potential amp.        0.0013 Ry
        Total length         46.5096 bohr
 
     Starting wfc are  161 randomized atomic wfcs

     total cpu time spent up to now is       15.9 secs

     per-process dynamical memory:   100.1 Mb

     Self-consistent Calculation

     iteration #  1     ecut=    36.75 Ry     beta=0.30
     Davidson diagonalization with overlap
     ethr =  1.00E-02,  avg # of iterations =  2.0

     negative rho (up, down):  7.337E-01 0.000E+00
 
     Adding external electric field

     Computed dipole along edir(3) : 
        Dipole               -5.5919 Ry au,        -14.2132 Debye
        Dipole field         -0.0116 Ry au
 
        Potential amp.        1.0746 Ry
        Total length         46.5096 bohr
 

     total cpu time spent up to now is       35.9 secs

     total energy              =   -1206.41096543 Ry
     Harris-Foulkes estimate   =   -1210.29079578 Ry
     estimated scf accuracy    <       8.29565964 Ry

     iteration #  2     ecut=    36.75 Ry     beta=0.30
     Davidson diagonalization with overlap
     ethr =  5.57E-03,  avg # of iterations =  9.9

     negative rho (up, down):  7.335E-01 0.000E+00
 
     Adding external electric field

     Computed dipole along edir(3) : 
        Dipole                2.2349 Ry au,          5.6806 Debye
        Dipole field          0.0046 Ry au
 
        Potential amp.       -0.4295 Ry
        Total length         46.5096 bohr
 

     total cpu time spent up to now is       68.2 secs

     total energy              =   -1193.92369141 Ry
     Harris-Foulkes estimate   =   -1228.66761669 Ry
     estimated scf accuracy    <     824.60289886 Ry

     iteration #  3     ecut=    36.75 Ry     beta=0.30
     Davidson diagonalization with overlap
     ethr =  5.57E-03,  avg # of iterations =  8.2

     negative rho (up, down):  7.331E-01 0.000E+00
 
     Adding external electric field

     Computed dipole along edir(3) : 
        Dipole                0.9163 Ry au,          2.3291 Debye
        Dipole field          0.0019 Ry au
 
        Potential amp.       -0.1761 Ry
        Total length         46.5096 bohr
 

     total cpu time spent up to now is       99.2 secs

     total energy              =   -1205.35441572 Ry
     Harris-Foulkes estimate   =   -1213.75826127 Ry
     estimated scf accuracy    <     222.85992957 Ry

     iteration #  4     ecut=    36.75 Ry     beta=0.30
     Davidson diagonalization with overlap
     ethr =  5.57E-03,  avg # of iterations =  5.2

     negative rho (up, down):  7.348E-01 0.000E+00
 
     Adding external electric field

     Computed dipole along edir(3) : 
        Dipole                0.8124 Ry au,          2.0648 Debye
        Dipole field          0.0017 Ry au
 
        Potential amp.       -0.1561 Ry
        Total length         46.5096 bohr
 

     total cpu time spent up to now is      123.7 secs

     total energy              =   -1209.58296775 Ry
     Harris-Foulkes estimate   =   -1209.80911946 Ry
     estimated scf accuracy    <       3.68702687 Ry

     iteration #  5     ecut=    36.75 Ry     beta=0.30
     Davidson diagonalization with overlap
     ethr =  2.47E-03,  avg # of iterations =  1.3

     negative rho (up, down):  7.384E-01 0.000E+00
 
     Adding external electric field

     Computed dipole along edir(3) : 
        Dipole                0.5183 Ry au,          1.3173 Debye
        Dipole field          0.0011 Ry au
 
        Potential amp.       -0.0996 Ry
        Total length         46.5096 bohr
 

     total cpu time spent up to now is      143.7 secs

     total energy              =   -1209.62378850 Ry
     Harris-Foulkes estimate   =   -1209.67885357 Ry
     estimated scf accuracy    <       0.34808645 Ry

     iteration #  6     ecut=    36.75 Ry     beta=0.30
     Davidson diagonalization with overlap
     ethr =  2.34E-04,  avg # of iterations =  7.3

     negative rho (up, down):  7.402E-01 0.000E+00
 
     Adding external electric field

     Computed dipole along edir(3) : 
        Dipole                0.5918 Ry au,          1.5041 Debye
        Dipole field          0.0012 Ry au
 
        Potential amp.       -0.1137 Ry
        Total length         46.5096 bohr
 

     total cpu time spent up to now is      167.8 secs

     total energy              =   -1209.63959107 Ry
     Harris-Foulkes estimate   =   -1209.66472567 Ry
     estimated scf accuracy    <       0.34177768 Ry

     iteration #  7     ecut=    36.75 Ry     beta=0.30
     Davidson diagonalization with overlap
     ethr =  2.29E-04,  avg # of iterations =  2.2

     negative rho (up, down):  7.437E-01 0.000E+00
 
     Adding external electric field

     Computed dipole along edir(3) : 
        Dipole                0.3282 Ry au,          0.8342 Debye
        Dipole field          0.0007 Ry au
 
        Potential amp.       -0.0631 Ry
        Total length         46.5096 bohr
 

     total cpu time spent up to now is      189.1 secs

     total energy              =   -1209.64767756 Ry
     Harris-Foulkes estimate   =   -1209.65674298 Ry
     estimated scf accuracy    <       0.13945375 Ry

     iteration #  8     ecut=    36.75 Ry     beta=0.30
     Davidson diagonalization with overlap
     ethr =  9.36E-05,  avg # of iterations =  3.0

     negative rho (up, down):  7.470E-01 0.000E+00
 
     Adding external electric field

     Computed dipole along edir(3) : 
        Dipole                0.1204 Ry au,          0.3060 Debye
        Dipole field          0.0002 Ry au
 
        Potential amp.       -0.0231 Ry
        Total length         46.5096 bohr
 

     total cpu time spent up to now is      210.6 secs

     total energy              =   -1209.64757784 Ry
     Harris-Foulkes estimate   =   -1209.65313214 Ry
     estimated scf accuracy    <       0.02498175 Ry

     iteration #  9     ecut=    36.75 Ry     beta=0.30
     Davidson diagonalization with overlap
     ethr =  1.68E-05,  avg # of iterations =  6.3

     negative rho (up, down):  7.479E-01 0.000E+00
 
     Adding external electric field

     Computed dipole along edir(3) : 
        Dipole                0.0515 Ry au,          0.1308 Debye
        Dipole field          0.0001 Ry au
 
        Potential amp.       -0.0099 Ry
        Total length         46.5096 bohr
 

     total cpu time spent up to now is      236.0 secs

     total energy              =   -1209.64802263 Ry
     Harris-Foulkes estimate   =   -1209.65097431 Ry
     estimated scf accuracy    <       0.04008992 Ry

     iteration # 10     ecut=    36.75 Ry     beta=0.30
     Davidson diagonalization with overlap
     ethr =  1.68E-05,  avg # of iterations =  1.6

     negative rho (up, down):  7.488E-01 0.000E+00
 
     Adding external electric field

     Computed dipole along edir(3) : 
        Dipole               -0.0013 Ry au,         -0.0034 Debye
        Dipole field         -0.0000 Ry au
 
        Potential amp.        0.0003 Ry
        Total length         46.5096 bohr
 

     total cpu time spent up to now is      256.9 secs

     total energy              =   -1209.64717032 Ry
     Harris-Foulkes estimate   =   -1209.64878746 Ry
     estimated scf accuracy    <       0.00878250 Ry

     iteration # 11     ecut=    36.75 Ry     beta=0.30
     Davidson diagonalization with overlap
     ethr =  5.89E-06,  avg # of iterations =  4.9

     negative rho (up, down):  7.492E-01 0.000E+00
 
     Adding external electric field

     Computed dipole along edir(3) : 
        Dipole               -0.0193 Ry au,         -0.0490 Debye
        Dipole field         -0.0000 Ry au
 
        Potential amp.        0.0037 Ry
        Total length         46.5096 bohr
 

     total cpu time spent up to now is      281.7 secs

     total energy              =   -1209.64830160 Ry
     Harris-Foulkes estimate   =   -1209.64876059 Ry
     estimated scf accuracy    <       0.00733701 Ry

     iteration # 12     ecut=    36.75 Ry     beta=0.30
     Davidson diagonalization with overlap
     ethr =  4.92E-06,  avg # of iterations =  1.0

     negative rho (up, down):  7.494E-01 0.000E+00
 
     Adding external electric field

     Computed dipole along edir(3) : 
        Dipole               -0.0318 Ry au,         -0.0808 Debye
        Dipole field         -0.0001 Ry au
 
        Potential amp.        0.0061 Ry
        Total length         46.5096 bohr
 

     total cpu time spent up to now is      302.1 secs

     total energy              =   -1209.64831871 Ry
     Harris-Foulkes estimate   =   -1209.64848222 Ry
     estimated scf accuracy    <       0.00202470 Ry

     iteration # 13     ecut=    36.75 Ry     beta=0.30
     Davidson diagonalization with overlap
     ethr =  1.36E-06,  avg # of iterations =  4.0

     negative rho (up, down):  7.497E-01 0.000E+00
 
     Adding external electric field

     Computed dipole along edir(3) : 
        Dipole               -0.0540 Ry au,         -0.1373 Debye
        Dipole field         -0.0001 Ry au
 
        Potential amp.        0.0104 Ry
        Total length         46.5096 bohr
 

     total cpu time spent up to now is      325.6 secs

     total energy              =   -1209.64855943 Ry
     Harris-Foulkes estimate   =   -1209.64852961 Ry
     estimated scf accuracy    <       0.00051990 Ry

     iteration # 14     ecut=    36.75 Ry     beta=0.30
     Davidson diagonalization with overlap
     ethr =  3.49E-07,  avg # of iterations =  2.5

     negative rho (up, down):  7.498E-01 0.000E+00
 
     Adding external electric field

     Computed dipole along edir(3) : 
        Dipole               -0.0596 Ry au,         -0.1515 Debye
        Dipole field         -0.0001 Ry au
 
        Potential amp.        0.0115 Ry
        Total length         46.5096 bohr
 

     total cpu time spent up to now is      347.1 secs

     total energy              =   -1209.64860330 Ry
     Harris-Foulkes estimate   =   -1209.64858608 Ry
     estimated scf accuracy    <       0.00001882 Ry

     iteration # 15     ecut=    36.75 Ry     beta=0.30
     Davidson diagonalization with overlap
     c_bands:  1 eigenvalues not converged
     ethr =  1.26E-08,  avg # of iterations =  6.8

     negative rho (up, down):  7.499E-01 0.000E+00
 
     Adding external electric field

     Computed dipole along edir(3) : 
        Dipole               -0.0611 Ry au,         -0.1554 Debye
        Dipole field         -0.0001 Ry au
 
        Potential amp.        0.0117 Ry
        Total length         46.5096 bohr
 

     total cpu time spent up to now is      374.6 secs

     total energy              =   -1209.64860870 Ry
     Harris-Foulkes estimate   =   -1209.64861493 Ry
     estimated scf accuracy    <       0.00007160 Ry

     iteration # 16     ecut=    36.75 Ry     beta=0.30
     Davidson diagonalization with overlap
     ethr =  1.26E-08,  avg # of iterations =  4.7

     negative rho (up, down):  7.499E-01 0.000E+00
 
     Adding external electric field

     Computed dipole along edir(3) : 
        Dipole               -0.0625 Ry au,         -0.1589 Debye
        Dipole field         -0.0001 Ry au
 
        Potential amp.        0.0120 Ry
        Total length         46.5096 bohr
 

     total cpu time spent up to now is      399.9 secs

     total energy              =   -1209.64861615 Ry
     Harris-Foulkes estimate   =   -1209.64861408 Ry
     estimated scf accuracy    <       0.00003104 Ry

     iteration # 17     ecut=    36.75 Ry     beta=0.30
     Davidson diagonalization with overlap
     ethr =  1.26E-08,  avg # of iterations =  2.8

     negative rho (up, down):  7.499E-01 0.000E+00

     negative rho (up, down):  7.499E-01 0.000E+00

     negative rho (up, down):  7.499E-01 0.000E+00

     negative rho (up, down):  7.499E-01 0.000E+00

     negative rho (up, down):  7.499E-01 0.000E+00

     negative rho (up, down):  7.499E-01 0.000E+00

     negative rho (up, down):  7.499E-01 0.000E+00

     negative rho (up, down):  7.499E-01 0.000E+00

     negative rho (up, down):  7.499E-01 0.000E+00

     negative rho (up, down):  7.499E-01 0.000E+00

     negative rho (up, down):  7.499E-01 0.000E+00

     negative rho (up, down):  7.499E-01 0.000E+00

     negative rho (up, down):  7.499E-01 0.000E+00

     negative rho (up, down):  7.499E-01 0.000E+00

     negative rho (up, down):  7.499E-01 0.000E+00

     negative rho (up, down):  7.499E-01 0.000E+00

     negative rho (up, down):  7.499E-01 0.000E+00

     negative rho (up, down):  7.499E-01 0.000E+00

     negative rho (up, down):  7.499E-01 0.000E+00

     negative rho (up, down):  7.499E-01 0.000E+00

     negative rho (up, down):  7.499E-01 0.000E+00

     negative rho (up, down):  7.499E-01 0.000E+00

     negative rho (up, down):  7.499E-01 0.000E+00

     negative rho (up, down):  7.499E-01 0.000E+00

     negative rho (up, down):  7.499E-01 0.000E+00

     negative rho (up, down):  7.499E-01 0.000E+00

     negative rho (up, down):  7.499E-01 0.000E+00

     negative rho (up, down):  7.499E-01 0.000E+00

     negative rho (up, down):  7.499E-01 0.000E+00

     negative rho (up, down):  7.499E-01 0.000E+00

     negative rho (up, down):  7.499E-01 0.000E+00

     negative rho (up, down):  7.499E-01 0.000E+00

     negative rho (up, down):  7.499E-01 0.000E+00

     negative rho (up, down):  7.499E-01 0.000E+00

     negative rho (up, down):  7.499E-01 0.000E+00
 
     Adding external electric field

     Computed dipole along edir(3) : 
        Dipole               -0.0430 Ry au,         -0.1092 Debye
        Dipole field         -0.0001 Ry au
 
        Potential amp.        0.0083 Ry
        Total length         46.5096 bohr
 

     total cpu time spent up to now is      482.5 secs

     End of self-consistent calculation

          k = 0.0000 0.0000 0.0000 ( 22923 PWs)   bands (ev):

   -47.8713 -47.8320 -47.7436 -47.7436 -47.7394 -47.6879 -47.6279 -47.6278
   -47.5025 -47.4284 -47.4283 -47.3971 -26.1209 -26.1209 -26.1100 -26.0708
   -26.0708 -26.0474 -25.9971 -25.9471 -25.9238 -25.9238 -25.8414 -25.7238
   -25.6971 -25.6971 -25.6111 -25.5778 -25.5778 -25.5696 -25.5658 -25.5658
   -25.4995 -25.4995 -25.4798 -25.4019 -25.4019 -25.3449 -25.3449 -25.3335
   -25.2921 -25.2921 -25.2770 -25.2438 -25.2329 -25.2329 -25.0885 -25.0885
    -8.7325  -3.6072  -2.9603  -2.0528  -1.4395  -1.1635  -1.1635  -1.1066
    -1.0220  -1.0220  -0.8325  -0.6593  -0.6593  -0.4378  -0.3740  -0.3740
    -0.0033   0.2680   0.2680   1.0161   1.0161   1.0827   1.3733   1.6532
     1.7913   1.7913   1.8581   2.0473   2.1701   2.1816   2.1816   2.3837
     2.3837   2.4811   2.6133   2.6148

          k = 0.0000 0.0300 0.0000 ( 22902 PWs)   bands (ev):

   -47.8697 -47.8261 -47.7488 -47.7436 -47.7403 -47.6855 -47.6319 -47.6279
   -47.4973 -47.4322 -47.4283 -47.3985 -26.0967 -26.0897 -26.0741 -26.0484
   -26.0356 -26.0320 -25.9720 -25.9297 -25.9059 -25.9020 -25.8367 -25.7284
   -25.7086 -25.7028 -25.6012 -25.5965 -25.5922 -25.5808 -25.5740 -25.5565
   -25.5211 -25.5057 -25.4862 -25.4545 -25.4132 -25.3629 -25.3413 -25.3258
   -25.3234 -25.2996 -25.2658 -25.2651 -25.2543 -25.2268 -25.1334 -25.0985
    -8.7280  -3.4451  -2.8524  -1.9073  -1.2756  -1.1224  -1.0455  -1.0212
    -0.9718  -0.9009  -0.7487  -0.5119  -0.4845  -0.3036  -0.2626  -0.2474
     0.0641   0.3158   0.3337   0.9351   0.9367   1.0639   1.3443   1.6086
     1.7412   1.8216   1.8629   1.9465   1.9895   1.9916   2.0577   2.2038
     2.3373   2.4658   2.4916   2.5206

          k = 0.0000 0.0599 0.0000 ( 22852 PWs)   bands (ev):

   -47.8666 -47.8098 -47.7650 -47.7436 -47.7407 -47.6790 -47.6417 -47.6279
   -47.4834 -47.4440 -47.4283 -47.4008 -26.0387 -26.0265 -26.0045 -25.9946
   -25.9705 -25.9382 -25.9183 -25.8767 -25.8653 -25.8597 -25.8291 -25.7375
   -25.7253 -25.7246 -25.6600 -25.6558 -25.6333 -25.5935 -25.5860 -25.5602
   -25.5270 -25.5156 -25.5113 -25.4734 -25.4621 -25.4437 -25.3468 -25.3344
   -25.3241 -25.3177 -25.3076 -25.3063 -25.2546 -25.2482 -25.2016 -25.1255
    -8.7191  -3.0633  -2.5585  -1.5581  -1.3942  -0.9628  -0.7512  -0.6693
    -0.6660  -0.5973  -0.4942  -0.2499  -0.0979   0.0624   0.0998   0.1143
     0.2811   0.4325   0.5116   0.7660   0.8419   0.9855   1.1018   1.3153
     1.4036   1.4836   1.5032   1.5813   1.8225   1.8347   1.8780   1.9354
     1.9946   2.0249   2.0863   2.2700

          k = 0.0000-0.0899 0.0000 ( 22880 PWs)   bands (ev):

   -47.8651 -47.7887 -47.7862 -47.7436 -47.7407 -47.6739 -47.6486 -47.6279
   -47.4691 -47.4575 -47.4283 -47.4017 -26.0012 -25.9877 -25.9811 -25.9596
   -25.9194 -25.8863 -25.8650 -25.8421 -25.8379 -25.8002 -25.7781 -25.7697
   -25.7555 -25.7406 -25.7282 -25.6977 -25.6837 -25.6477 -25.6186 -25.5757
   -25.5327 -25.4900 -25.4867 -25.4853 -25.4659 -25.4036 -25.3988 -25.3756
   -25.3577 -25.3413 -25.3177 -25.3124 -25.3043 -25.2507 -25.1731 -25.1546
    -8.7147  -2.8568  -2.0900  -1.9600  -1.2034  -0.9141  -0.4945  -0.4342
    -0.3607  -0.3301  -0.3084  -0.1906  -0.0246   0.4102   0.4619   0.4827
     0.5098   0.5568   0.5784   0.5871   0.9372   0.9756   0.9937   1.0345
     1.0819   1.1464   1.2842   1.3598   1.4549   1.4909   1.5777   1.6660
     1.6664   1.7697   1.9080   2.1497

          k = 0.0260-0.0150 0.0000 ( 22902 PWs)   bands (ev):

   -47.8697 -47.8261 -47.7488 -47.7436 -47.7403 -47.6855 -47.6319 -47.6279
   -47.4973 -47.4322 -47.4283 -47.3985 -26.0967 -26.0897 -26.0741 -26.0484
   -26.0356 -26.0320 -25.9720 -25.9297 -25.9059 -25.9021 -25.8367 -25.7284
   -25.7087 -25.7028 -25.6012 -25.5965 -25.5922 -25.5809 -25.5740 -25.5565
   -25.5211 -25.5057 -25.4862 -25.4545 -25.4132 -25.3629 -25.3413 -25.3258
   -25.3234 -25.2996 -25.2658 -25.2651 -25.2543 -25.2268 -25.1334 -25.0985
    -8.7280  -3.4451  -2.8524  -1.9073  -1.2756  -1.1224  -1.0455  -1.0212
    -0.9718  -0.9009  -0.7487  -0.5119  -0.4845  -0.3036  -0.2626  -0.2474
     0.0641   0.3158   0.3337   0.9351   0.9367   1.0639   1.3443   1.6086
     1.7412   1.8216   1.8629   1.9465   1.9895   1.9916   2.0577   2.2038
     2.3373   2.4658   2.4916   2.5206

          k = 0.0260 0.0150 0.0000 ( 22902 PWs)   bands (ev):

   -47.8697 -47.8261 -47.7488 -47.7436 -47.7403 -47.6855 -47.6319 -47.6279
   -47.4973 -47.4322 -47.4284 -47.3985 -26.0967 -26.0897 -26.0741 -26.0484
   -26.0356 -26.0320 -25.9720 -25.9297 -25.9059 -25.9020 -25.8367 -25.7284
   -25.7086 -25.7028 -25.6012 -25.5965 -25.5922 -25.5808 -25.5740 -25.5565
   -25.5211 -25.5057 -25.4862 -25.4545 -25.4132 -25.3629 -25.3413 -25.3258
   -25.3234 -25.2996 -25.2658 -25.2651 -25.2543 -25.2268 -25.1334 -25.0985
    -8.7280  -3.4451  -2.8524  -1.9073  -1.2756  -1.1224  -1.0455  -1.0212
    -0.9718  -0.9009  -0.7487  -0.5119  -0.4845  -0.3036  -0.2626  -0.2474
     0.0641   0.3158   0.3337   0.9351   0.9367   1.0639   1.3443   1.6086
     1.7412   1.8216   1.8629   1.9465   1.9895   1.9916   2.0577   2.2038
     2.3373   2.4658   2.4916   2.5207

          k = 0.0260 0.0450 0.0000 ( 22896 PWs)   bands (ev):

   -47.8674 -47.8150 -47.7549 -47.7524 -47.7367 -47.6808 -47.6394 -47.6275
   -47.4878 -47.4386 -47.4302 -47.4000 -26.0601 -26.0237 -26.0229 -26.0104
   -25.9987 -25.9677 -25.9350 -25.8950 -25.8759 -25.8703 -25.8303 -25.7366
   -25.7265 -25.7129 -25.6751 -25.6325 -25.5813 -25.5707 -25.5660 -25.5583
   -25.5428 -25.5272 -25.5091 -25.4895 -25.4374 -25.4278 -25.3464 -25.3364
   -25.3244 -25.3163 -25.3099 -25.2556 -25.2442 -25.2373 -25.2095 -25.1203
    -8.7213  -3.1681  -2.6534  -1.6387  -1.1293  -1.0808  -0.9700  -0.8719
    -0.7642  -0.6879  -0.4697  -0.2761  -0.2198  -0.0516  -0.0336   0.0054
     0.2054   0.3828   0.4800   0.7869   0.8446   1.0315   1.2323   1.3878
     1.4863   1.5692   1.6416   1.6717   1.8462   1.9272   1.9524   2.0692
     2.0805   2.1570   2.1797   2.2676

          k = 0.0260-0.1049 0.0000 ( 22856 PWs)   bands (ev):

   -47.8651 -47.7957 -47.7732 -47.7566 -47.7338 -47.6729 -47.6503 -47.6271
   -47.4720 -47.4512 -47.4330 -47.4005 -25.9965 -25.9873 -25.9675 -25.9422
   -25.9188 -25.8933 -25.8698 -25.8451 -25.8397 -25.8304 -25.8156 -25.7851
   -25.7602 -25.7331 -25.7138 -25.6953 -25.6736 -25.6151 -25.5998 -25.5412
   -25.5354 -25.5214 -25.4884 -25.4810 -25.4771 -25.4548 -25.4175 -25.3613
   -25.3322 -25.3221 -25.3165 -25.3088 -25.2750 -25.2482 -25.2047 -25.1584
    -8.7147  -2.8681  -2.2267  -1.5979  -1.1970  -1.0003  -0.7971  -0.5401
    -0.3681  -0.2901  -0.1465  -0.0358   0.0592   0.3259   0.3490   0.3869
     0.4309   0.4965   0.5908   0.7915   0.8469   0.9017   0.9806   1.0583
     1.1169   1.1898   1.2074   1.3023   1.4806   1.5385   1.5917   1.6539
     1.7048   1.7507   1.9042   2.0296

          k = 0.0260-0.0749 0.0000 ( 22856 PWs)   bands (ev):

   -47.8651 -47.7957 -47.7732 -47.7566 -47.7338 -47.6729 -47.6503 -47.6271
   -47.4720 -47.4512 -47.4330 -47.4005 -25.9965 -25.9873 -25.9675 -25.9422
   -25.9188 -25.8933 -25.8698 -25.8451 -25.8397 -25.8304 -25.8156 -25.7851
   -25.7602 -25.7331 -25.7138 -25.6953 -25.6736 -25.6151 -25.5998 -25.5412
   -25.5354 -25.5214 -25.4884 -25.4810 -25.4771 -25.4548 -25.4175 -25.3613
   -25.3322 -25.3221 -25.3165 -25.3088 -25.2750 -25.2482 -25.2047 -25.1584
    -8.7147  -2.8681  -2.2267  -1.5979  -1.1970  -1.0003  -0.7971  -0.5401
    -0.3681  -0.2901  -0.1465  -0.0358   0.0592   0.3259   0.3490   0.3869
     0.4309   0.4965   0.5908   0.7915   0.8469   0.9017   0.9806   1.0583
     1.1169   1.1898   1.2074   1.3023   1.4806   1.5385   1.5917   1.6539
     1.7048   1.7507   1.9042   2.0296

          k = 0.0260-0.0450 0.0000 ( 22896 PWs)   bands (ev):

   -47.8674 -47.8150 -47.7549 -47.7524 -47.7367 -47.6808 -47.6394 -47.6275
   -47.4878 -47.4386 -47.4302 -47.4000 -26.0601 -26.0237 -26.0229 -26.0104
   -25.9987 -25.9677 -25.9350 -25.8950 -25.8759 -25.8703 -25.8303 -25.7366
   -25.7265 -25.7129 -25.6751 -25.6325 -25.5813 -25.5707 -25.5660 -25.5583
   -25.5428 -25.5272 -25.5091 -25.4895 -25.4374 -25.4278 -25.3464 -25.3364
   -25.3245 -25.3163 -25.3099 -25.2556 -25.2442 -25.2373 -25.2095 -25.1203
    -8.7213  -3.1681  -2.6534  -1.6387  -1.1293  -1.0808  -0.9700  -0.8719
    -0.7643  -0.6879  -0.4697  -0.2761  -0.2198  -0.0516  -0.0336   0.0054
     0.2054   0.3828   0.4800   0.7869   0.8446   1.0315   1.2323   1.3878
     1.4863   1.5692   1.6416   1.6717   1.8462   1.9272   1.9524   2.0692
     2.0805   2.1570   2.1797   2.2676

          k = 0.0519-0.0300 0.0000 ( 22852 PWs)   bands (ev):

   -47.8666 -47.8098 -47.7650 -47.7436 -47.7407 -47.6790 -47.6417 -47.6279
   -47.4834 -47.4440 -47.4283 -47.4008 -26.0387 -26.0264 -26.0045 -25.9946
   -25.9705 -25.9382 -25.9183 -25.8767 -25.8653 -25.8597 -25.8291 -25.7375
   -25.7253 -25.7246 -25.6600 -25.6558 -25.6333 -25.5935 -25.5860 -25.5602
   -25.5270 -25.5156 -25.5113 -25.4734 -25.4621 -25.4437 -25.3468 -25.3344
   -25.3241 -25.3177 -25.3076 -25.3063 -25.2546 -25.2482 -25.2016 -25.1255
    -8.7191  -3.0633  -2.5585  -1.5581  -1.3942  -0.9628  -0.7512  -0.6693
    -0.6660  -0.5973  -0.4942  -0.2499  -0.0979   0.0624   0.0998   0.1143
     0.2811   0.4325   0.5116   0.7660   0.8419   0.9855   1.1018   1.3153
     1.4036   1.4836   1.5032   1.5813   1.8225   1.8347   1.8780   1.9354
     1.9946   2.0249   2.0863   2.2700

          k = 0.0519 0.0000 0.0000 ( 22896 PWs)   bands (ev):

   -47.8674 -47.8150 -47.7549 -47.7524 -47.7367 -47.6808 -47.6394 -47.6275
   -47.4878 -47.4386 -47.4302 -47.4000 -26.0601 -26.0237 -26.0229 -26.0104
   -25.9987 -25.9677 -25.9350 -25.8950 -25.8759 -25.8703 -25.8303 -25.7366
   -25.7265 -25.7129 -25.6751 -25.6325 -25.5813 -25.5707 -25.5660 -25.5583
   -25.5428 -25.5272 -25.5091 -25.4895 -25.4374 -25.4278 -25.3464 -25.3364
   -25.3244 -25.3163 -25.3099 -25.2556 -25.2442 -25.2373 -25.2095 -25.1203
    -8.7213  -3.1681  -2.6534  -1.6387  -1.1293  -1.0808  -0.9700  -0.8719
    -0.7642  -0.6879  -0.4697  -0.2761  -0.2198  -0.0516  -0.0336   0.0054
     0.2054   0.3828   0.4800   0.7869   0.8446   1.0315   1.2323   1.3878
     1.4863   1.5692   1.6416   1.6717   1.8462   1.9272   1.9524   2.0692
     2.0805   2.1570   2.1797   2.2676

          k = 0.0519 0.0300 0.0000 ( 22852 PWs)   bands (ev):

   -47.8666 -47.8098 -47.7650 -47.7436 -47.7407 -47.6790 -47.6417 -47.6279
   -47.4834 -47.4440 -47.4284 -47.4008 -26.0387 -26.0265 -26.0045 -25.9946
   -25.9705 -25.9382 -25.9183 -25.8767 -25.8653 -25.8597 -25.8291 -25.7375
   -25.7253 -25.7246 -25.6600 -25.6558 -25.6333 -25.5935 -25.5860 -25.5602
   -25.5270 -25.5156 -25.5113 -25.4734 -25.4621 -25.4437 -25.3468 -25.3344
   -25.3241 -25.3177 -25.3076 -25.3063 -25.2546 -25.2482 -25.2016 -25.1255
    -8.7191  -3.0633  -2.5585  -1.5581  -1.3942  -0.9628  -0.7512  -0.6693
    -0.6660  -0.5973  -0.4942  -0.2499  -0.0979   0.0624   0.0998   0.1143
     0.2811   0.4325   0.5116   0.7660   0.8419   0.9855   1.1018   1.3153
     1.4036   1.4836   1.5032   1.5813   1.8225   1.8347   1.8780   1.9354
     1.9946   2.0249   2.0863   2.2700

          k = 0.0519-0.1199 0.0000 ( 22856 PWs)   bands (ev):

   -47.8651 -47.7957 -47.7732 -47.7566 -47.7338 -47.6729 -47.6503 -47.6271
   -47.4720 -47.4512 -47.4330 -47.4005 -25.9965 -25.9873 -25.9675 -25.9422
   -25.9188 -25.8933 -25.8698 -25.8451 -25.8397 -25.8304 -25.8156 -25.7851
   -25.7602 -25.7331 -25.7138 -25.6953 -25.6736 -25.6151 -25.5998 -25.5412
   -25.5354 -25.5214 -25.4884 -25.4810 -25.4771 -25.4548 -25.4175 -25.3613
   -25.3322 -25.3221 -25.3165 -25.3088 -25.2750 -25.2482 -25.2047 -25.1584
    -8.7147  -2.8681  -2.2267  -1.5979  -1.1970  -1.0003  -0.7971  -0.5401
    -0.3681  -0.2901  -0.1465  -0.0358   0.0592   0.3259   0.3490   0.3869
     0.4309   0.4965   0.5908   0.7915   0.8469   0.9017   0.9806   1.0583
     1.1169   1.1898   1.2074   1.3023   1.4806   1.5385   1.5917   1.6539
     1.7048   1.7507   1.9042   2.0296

          k = 0.0519-0.0899 0.0000 ( 22914 PWs)   bands (ev):

   -47.8643 -47.7775 -47.7774 -47.7736 -47.7308 -47.6626 -47.6623 -47.6263
   -47.4594 -47.4586 -47.4392 -47.3997 -25.9780 -25.9332 -25.9178 -25.8962
   -25.8940 -25.8774 -25.8714 -25.8647 -25.8145 -25.8074 -25.8060 -25.8005
   -25.7825 -25.7723 -25.7318 -25.7153 -25.6977 -25.6664 -25.5500 -25.5437
   -25.5426 -25.5043 -25.4953 -25.4911 -25.4888 -25.4579 -25.4239 -25.4171
   -25.3471 -25.3293 -25.3146 -25.3078 -25.2533 -25.2233 -25.2123 -25.2110
    -8.7125  -2.7867  -1.6825  -1.6436  -1.5693  -0.8364  -0.7934  -0.5385
    -0.0939   0.0397   0.1193   0.1462   0.1935   0.2922   0.3245   0.4440
     0.6721   0.7210   0.7467   0.7688   0.7729   0.7858   0.7927   0.7951
     0.8182   1.0511   1.0873   1.2769   1.2950   1.3971   1.4000   1.4637
     1.4648   1.6036   1.7076   1.7688

          k = 0.0519-0.0599 0.0000 ( 22856 PWs)   bands (ev):

   -47.8651 -47.7957 -47.7732 -47.7566 -47.7338 -47.6729 -47.6504 -47.6271
   -47.4720 -47.4512 -47.4330 -47.4005 -25.9965 -25.9873 -25.9675 -25.9422
   -25.9188 -25.8933 -25.8698 -25.8451 -25.8397 -25.8304 -25.8156 -25.7851
   -25.7602 -25.7331 -25.7138 -25.6953 -25.6736 -25.6151 -25.5998 -25.5412
   -25.5354 -25.5214 -25.4884 -25.4810 -25.4771 -25.4548 -25.4175 -25.3613
   -25.3322 -25.3221 -25.3165 -25.3088 -25.2750 -25.2482 -25.2047 -25.1584
    -8.7147  -2.8681  -2.2267  -1.5979  -1.1970  -1.0003  -0.7971  -0.5401
    -0.3681  -0.2901  -0.1465  -0.0358   0.0592   0.3259   0.3490   0.3869
     0.4309   0.4965   0.5908   0.7915   0.8469   0.9017   0.9806   1.0583
     1.1169   1.1898   1.2074   1.3023   1.4806   1.5385   1.5917   1.6539
     1.7048   1.7507   1.9042   2.0296

          k =-0.0779 0.0450 0.0000 ( 22880 PWs)   bands (ev):

   -47.8651 -47.7887 -47.7862 -47.7436 -47.7407 -47.6738 -47.6486 -47.6279
   -47.4691 -47.4575 -47.4283 -47.4017 -26.0012 -25.9877 -25.9811 -25.9597
   -25.9194 -25.8863 -25.8650 -25.8421 -25.8379 -25.8002 -25.7781 -25.7698
   -25.7555 -25.7406 -25.7282 -25.6977 -25.6837 -25.6477 -25.6186 -25.5757
   -25.5327 -25.4900 -25.4867 -25.4853 -25.4659 -25.4036 -25.3988 -25.3756
   -25.3577 -25.3413 -25.3177 -25.3124 -25.3043 -25.2507 -25.1731 -25.1546
    -8.7147  -2.8568  -2.0900  -1.9600  -1.2034  -0.9141  -0.4945  -0.4342
    -0.3607  -0.3300  -0.3084  -0.1906  -0.0246   0.4102   0.4619   0.4827
     0.5098   0.5568   0.5784   0.5871   0.9372   0.9756   0.9937   1.0345
     1.0819   1.1464   1.2842   1.3598   1.4549   1.4909   1.5777   1.6660
     1.6664   1.7697   1.9080   2.1497

          k =-0.0779 0.0749 0.0000 ( 22856 PWs)   bands (ev):

   -47.8651 -47.7957 -47.7732 -47.7566 -47.7338 -47.6729 -47.6504 -47.6271
   -47.4720 -47.4512 -47.4330 -47.4005 -25.9965 -25.9873 -25.9675 -25.9422
   -25.9188 -25.8933 -25.8698 -25.8451 -25.8397 -25.8304 -25.8156 -25.7851
   -25.7602 -25.7331 -25.7138 -25.6953 -25.6736 -25.6151 -25.5998 -25.5412
   -25.5354 -25.5214 -25.4884 -25.4810 -25.4771 -25.4548 -25.4175 -25.3613
   -25.3322 -25.3221 -25.3165 -25.3088 -25.2750 -25.2482 -25.2047 -25.1584
    -8.7147  -2.8681  -2.2267  -1.5979  -1.1970  -1.0003  -0.7971  -0.5401
    -0.3681  -0.2901  -0.1465  -0.0358   0.0592   0.3259   0.3490   0.3869
     0.4309   0.4965   0.5908   0.7915   0.8469   0.9017   0.9806   1.0583
     1.1169   1.1898   1.2074   1.3023   1.4806   1.5385   1.5917   1.6539
     1.7048   1.7507   1.9042   2.0296

          k =-0.0779 0.1049 0.0000 ( 22856 PWs)   bands (ev):

   -47.8651 -47.7957 -47.7732 -47.7566 -47.7338 -47.6729 -47.6503 -47.6271
   -47.4720 -47.4512 -47.4330 -47.4005 -25.9965 -25.9873 -25.9675 -25.9422
   -25.9188 -25.8933 -25.8698 -25.8451 -25.8397 -25.8304 -25.8156 -25.7851
   -25.7602 -25.7331 -25.7138 -25.6953 -25.6736 -25.6151 -25.5998 -25.5412
   -25.5354 -25.5214 -25.4884 -25.4810 -25.4771 -25.4548 -25.4175 -25.3613
   -25.3322 -25.3221 -25.3165 -25.3088 -25.2750 -25.2482 -25.2047 -25.1584
    -8.7147  -2.8681  -2.2267  -1.5979  -1.1970  -1.0003  -0.7971  -0.5401
    -0.3681  -0.2901  -0.1465  -0.0358   0.0592   0.3259   0.3490   0.3869
     0.4309   0.4965   0.5908   0.7915   0.8469   0.9017   0.9806   1.0583
     1.1169   1.1898   1.2074   1.3023   1.4806   1.5385   1.5917   1.6539
     1.7048   1.7507   1.9042   2.0296

          k =-0.0779-0.0450 0.0000 ( 22880 PWs)   bands (ev):

   -47.8651 -47.7887 -47.7862 -47.7436 -47.7407 -47.6739 -47.6485 -47.6279
   -47.4691 -47.4575 -47.4284 -47.4017 -26.0012 -25.9877 -25.9811 -25.9596
   -25.9194 -25.8863 -25.8650 -25.8421 -25.8379 -25.8002 -25.7781 -25.7697
   -25.7555 -25.7406 -25.7282 -25.6977 -25.6837 -25.6477 -25.6186 -25.5757
   -25.5327 -25.4900 -25.4867 -25.4853 -25.4658 -25.4036 -25.3988 -25.3756
   -25.3577 -25.3413 -25.3177 -25.3124 -25.3043 -25.2507 -25.1731 -25.1546
    -8.7147  -2.8568  -2.0900  -1.9600  -1.2034  -0.9141  -0.4945  -0.4342
    -0.3607  -0.3300  -0.3084  -0.1906  -0.0246   0.4102   0.4619   0.4827
     0.5098   0.5568   0.5784   0.5871   0.9372   0.9756   0.9937   1.0345
     1.0819   1.1464   1.2842   1.3598   1.4549   1.4909   1.5777   1.6660
     1.6664   1.7697   1.9080   2.1497

     the Fermi energy is     1.4424 ev

!    total energy              =   -1209.64861130 Ry
     Harris-Foulkes estimate   =   -1209.64862137 Ry
     estimated scf accuracy    <       0.00000757 Ry

     The total energy is the sum of the following terms:

     one-electron contribution =   -8397.88046616 Ry
     hartree contribution      =    4191.53764732 Ry
     xc contribution           =    -224.82485980 Ry
     ewald contribution        =    3221.63218955 Ry
     electric field correction =       0.00000381 Ry
     smearing contrib. (-TS)   =      -0.11312603 Ry

     convergence has been achieved in  17 iterations
 
 BEEF-vdW xc energy contributions
           1 :   -192.497526972511     
           2 :    174.171013477880     
           3 :   -143.319188888905     
           4 :    108.649174993379     
           5 :   -77.9841288706631     
           6 :    55.5469011845625     
           7 :   -41.3233069892191     
           8 :    32.4026387189081     
           9 :   -25.2558100733877     
          10 :    17.6593245862582     
          11 :   -9.42043540661228     
          12 :    1.83361272692275     
          13 :    3.54586489409525     
          14 :   -6.00159302891575     
          15 :    6.04984179694290     
          16 :   -5.03199336648674     
          17 :    4.27105980938890     
          18 :   -4.36167939083995     
          19 :    5.00474782524935     
          20 :   -5.41008738587016     
          21 :    4.93943631850962     
          22 :   -3.55365511913718     
          23 :    1.80676485426957     
          24 :  -0.450395106169481     
          25 :  -4.904762507499072E-002
          26 :  -0.238467086590731     
          27 :   0.818212216121310     
          28 :   -1.13233749623529     
          29 :   0.916294686652748     
          30 :  -0.327260995483527     
          31 :   -22.3806001664587     
          32 :   -16.6791906341487     

     Forces acting on atoms (Ry/au):


     negative rho (up, down):  7.499E-01 0.000E+00
     atom    1 type  1   force =    -0.00000034   -0.00000328    0.01313786
     atom    2 type  1   force =    -0.00000079    0.00081679    0.01453719
     atom    3 type  1   force =     0.00070968   -0.00040761    0.01453701
     atom    4 type  1   force =    -0.00070904   -0.00040622    0.01453757
     atom    5 type  1   force =    -0.00418238    0.00241845   -0.00191046
     atom    6 type  1   force =     0.00418193    0.00241674   -0.00190960
     atom    7 type  1   force =    -0.00000232   -0.00000327   -0.00829795
     atom    8 type  1   force =     0.00000189   -0.00483263   -0.00191149
     atom    9 type  1   force =     0.02657632    0.01534087    0.02798533
     atom   10 type  1   force =    -0.02657762    0.01534047    0.02798440
     atom   11 type  1   force =    -0.00000075   -0.03068521    0.02798367
     atom   12 type  1   force =     0.00000019    0.00000316   -0.00958061
     atom   13 type  2   force =     0.00000294    0.00000152   -0.11201999
     atom   14 type  3   force =     0.00000029    0.00000021   -0.00507293

     Total force =     0.133568     Total SCF correction =     0.001823


     entering subroutine stress ...


     negative rho (up, down):  7.499E-01 0.000E+00
          total   stress  (Ry/bohr**3)                   (kbar)     P=  -15.27
  -0.00008293  -0.00000000   0.00000000        -12.20     -0.00      0.00
  -0.00000000  -0.00008293   0.00000000         -0.00    -12.20      0.00
   0.00000000   0.00000000  -0.00014552          0.00      0.00    -21.41


     BFGS Geometry Optimization

     number of scf cycles    =   1
     number of bfgs steps    =   0

     energy   new            =   -1209.6486112950 Ry

     new trust radius        =       0.1120199919 bohr
     new conv_thr            =       0.0000099958 Ry


ATOMIC_POSITIONS (crystal)
Zr1      0.166666667   0.166666667   0.396150897    0   0   0
Zr1      0.666666667   0.166666667   0.396150897    0   0   0
Zr1      0.166666667   0.666666667   0.396150897    0   0   0
Zr1      0.666666667   0.666666667   0.396150897    0   0   0
Zr1      0.833333333   0.333333333   0.500000000    0   0   0
Zr1      0.333333333   0.333333333   0.500000000    0   0   0
Zr1      0.833333333   0.833333333   0.500000000    0   0   0
Zr1      0.333333333   0.833333333   0.500000000    0   0   0
Zr1      0.001460256   0.001459832   0.604435771
Zr1      0.497079824   0.001459794   0.604435751
Zr1      0.001459935   0.497080006   0.604435736
Zr1      0.499999865   0.500000301   0.603648261
C1       0.166666837   0.166666811   0.666132801
H1       0.166666680   0.166666687   0.711951375



     Writing output data file calc.save
     Check: negative starting charge=   -0.729046
     NEW-OLD atomic charge density approx. for the potential
     Check: negative starting charge=   -0.728705

     negative rho (up, down):  7.493E-01 0.000E+00
 
     Adding external electric field

     Computed dipole along edir(3) : 
        Dipole               -0.0428 Ry au,         -0.1088 Debye
        Dipole field         -0.0001 Ry au
 
        Potential amp.        0.0082 Ry
        Total length         46.5096 bohr
 

     total cpu time spent up to now is      578.2 secs

     per-process dynamical memory:    96.5 Mb

     Self-consistent Calculation

     iteration #  1     ecut=    36.75 Ry     beta=0.30
     Davidson diagonalization with overlap
     ethr =  1.00E-06,  avg # of iterations =  9.2

     negative rho (up, down):  7.494E-01 0.000E+00
 
     Adding external electric field

     Computed dipole along edir(3) : 
        Dipole               -0.6898 Ry au,         -1.7534 Debye
        Dipole field         -0.0014 Ry au
 
        Potential amp.        0.1326 Ry
        Total length         46.5096 bohr
 

     total cpu time spent up to now is      617.8 secs

     total energy              =   -1209.64188864 Ry
     Harris-Foulkes estimate   =   -1209.66244513 Ry
     estimated scf accuracy    <       0.04392978 Ry

     iteration #  2     ecut=    36.75 Ry     beta=0.30
     Davidson diagonalization with overlap
     ethr =  2.95E-05,  avg # of iterations =  8.3

     negative rho (up, down):  7.494E-01 0.000E+00
 
     Adding external electric field

     Computed dipole along edir(3) : 
        Dipole               -0.0276 Ry au,         -0.0702 Debye
        Dipole field         -0.0001 Ry au
 
        Potential amp.        0.0053 Ry
        Total length         46.5096 bohr
 

     total cpu time spent up to now is      649.3 secs

     total energy              =   -1209.36218572 Ry
     Harris-Foulkes estimate   =   -1209.98117502 Ry
     estimated scf accuracy    <      30.18435360 Ry

     iteration #  3     ecut=    36.75 Ry     beta=0.30
     Davidson diagonalization with overlap
     ethr =  2.95E-05,  avg # of iterations =  6.9

     negative rho (up, down):  7.494E-01 0.000E+00
 
     Adding external electric field

     Computed dipole along edir(3) : 
        Dipole               -0.0322 Ry au,         -0.0817 Debye
        Dipole field         -0.0001 Ry au
 
        Potential amp.        0.0062 Ry
        Total length         46.5096 bohr
 

     total cpu time spent up to now is      679.2 secs

     total energy              =   -1209.66122024 Ry
     Harris-Foulkes estimate   =   -1209.66204622 Ry
     estimated scf accuracy    <       0.00307169 Ry

     iteration #  4     ecut=    36.75 Ry     beta=0.30
     Davidson diagonalization with overlap
     ethr =  2.06E-06,  avg # of iterations =  5.0

     negative rho (up, down):  7.494E-01 0.000E+00
 
     Adding external electric field

     Computed dipole along edir(3) : 
        Dipole               -0.0288 Ry au,         -0.0731 Debye
        Dipole field         -0.0001 Ry au
 
        Potential amp.        0.0055 Ry
        Total length         46.5096 bohr
 

     total cpu time spent up to now is      707.7 secs

     total energy              =   -1209.66124366 Ry
     Harris-Foulkes estimate   =   -1209.66212188 Ry
     estimated scf accuracy    <       0.00640659 Ry

     iteration #  5     ecut=    36.75 Ry     beta=0.30
     Davidson diagonalization with overlap
     ethr =  2.06E-06,  avg # of iterations =  4.2

     negative rho (up, down):  7.494E-01 0.000E+00
 
     Adding external electric field

     Computed dipole along edir(3) : 
        Dipole               -0.0308 Ry au,         -0.0782 Debye
        Dipole field         -0.0001 Ry au
 
        Potential amp.        0.0059 Ry
        Total length         46.5096 bohr
 

     total cpu time spent up to now is      735.6 secs

     total energy              =   -1209.66157922 Ry
     Harris-Foulkes estimate   =   -1209.66193860 Ry
     estimated scf accuracy    <       0.00307742 Ry

     iteration #  6     ecut=    36.75 Ry     beta=0.30
     Davidson diagonalization with overlap
     ethr =  2.06E-06,  avg # of iterations =  3.0

     negative rho (up, down):  7.494E-01 0.000E+00
 
     Adding external electric field

     Computed dipole along edir(3) : 
        Dipole               -0.0331 Ry au,         -0.0841 Debye
        Dipole field         -0.0001 Ry au
 
        Potential amp.        0.0064 Ry
        Total length         46.5096 bohr
 

     total cpu time spent up to now is      761.8 secs

     total energy              =   -1209.66174453 Ry
     Harris-Foulkes estimate   =   -1209.66177026 Ry
     estimated scf accuracy    <       0.00018260 Ry

     iteration #  7     ecut=    36.75 Ry     beta=0.30
     Davidson diagonalization with overlap
     ethr =  1.23E-07,  avg # of iterations =  4.3

     negative rho (up, down):  7.494E-01 0.000E+00
 
     Adding external electric field

     Computed dipole along edir(3) : 
        Dipole               -0.0347 Ry au,         -0.0883 Debye
        Dipole field         -0.0001 Ry au
 
        Potential amp.        0.0067 Ry
        Total length         46.5096 bohr
 

     total cpu time spent up to now is      791.3 secs

     total energy              =   -1209.66178072 Ry
     Harris-Foulkes estimate   =   -1209.66178240 Ry
     estimated scf accuracy    <       0.00006249 Ry

     iteration #  8     ecut=    36.75 Ry     beta=0.30
     Davidson diagonalization with overlap
     ethr =  4.19E-08,  avg # of iterations =  3.4

     negative rho (up, down):  7.495E-01 0.000E+00
 
     Adding external electric field

     Computed dipole along edir(3) : 
        Dipole               -0.0364 Ry au,         -0.0926 Debye
        Dipole field         -0.0001 Ry au
 
        Potential amp.        0.0070 Ry
        Total length         46.5096 bohr
 

     total cpu time spent up to now is      818.6 secs

     total energy              =   -1209.66178742 Ry
     Harris-Foulkes estimate   =   -1209.66178632 Ry
     estimated scf accuracy    <       0.00002427 Ry

     iteration #  9     ecut=    36.75 Ry     beta=0.30
     Davidson diagonalization with overlap
     ethr =  1.63E-08,  avg # of iterations =  3.0

     negative rho (up, down):  7.495E-01 0.000E+00

     negative rho (up, down):  7.495E-01 0.000E+00

     negative rho (up, down):  7.495E-01 0.000E+00

     negative rho (up, down):  7.495E-01 0.000E+00

     negative rho (up, down):  7.495E-01 0.000E+00

     negative rho (up, down):  7.495E-01 0.000E+00

     negative rho (up, down):  7.495E-01 0.000E+00

     negative rho (up, down):  7.495E-01 0.000E+00

     negative rho (up, down):  7.495E-01 0.000E+00

     negative rho (up, down):  7.495E-01 0.000E+00

     negative rho (up, down):  7.495E-01 0.000E+00

     negative rho (up, down):  7.495E-01 0.000E+00

     negative rho (up, down):  7.495E-01 0.000E+00

     negative rho (up, down):  7.495E-01 0.000E+00

     negative rho (up, down):  7.495E-01 0.000E+00

     negative rho (up, down):  7.495E-01 0.000E+00

     negative rho (up, down):  7.495E-01 0.000E+00

     negative rho (up, down):  7.495E-01 0.000E+00

     negative rho (up, down):  7.495E-01 0.000E+00

     negative rho (up, down):  7.495E-01 0.000E+00

     negative rho (up, down):  7.495E-01 0.000E+00

     negative rho (up, down):  7.495E-01 0.000E+00

     negative rho (up, down):  7.495E-01 0.000E+00

     negative rho (up, down):  7.495E-01 0.000E+00

     negative rho (up, down):  7.495E-01 0.000E+00

     negative rho (up, down):  7.495E-01 0.000E+00

     negative rho (up, down):  7.495E-01 0.000E+00

     negative rho (up, down):  7.495E-01 0.000E+00

     negative rho (up, down):  7.495E-01 0.000E+00

     negative rho (up, down):  7.495E-01 0.000E+00

     negative rho (up, down):  7.495E-01 0.000E+00

     negative rho (up, down):  7.495E-01 0.000E+00

     negative rho (up, down):  7.495E-01 0.000E+00

     negative rho (up, down):  7.495E-01 0.000E+00

     negative rho (up, down):  7.495E-01 0.000E+00
 
     Adding external electric field

     Computed dipole along edir(3) : 
        Dipole               -0.0437 Ry au,         -0.1110 Debye
        Dipole field         -0.0001 Ry au
 
        Potential amp.        0.0084 Ry
        Total length         46.5096 bohr
 

     total cpu time spent up to now is      907.2 secs

     End of self-consistent calculation

          k = 0.0000 0.0000 0.0000 ( 22923 PWs)   bands (ev):

   -47.8255 -47.8016 -47.7136 -47.7135 -47.7084 -47.6477 -47.5875 -47.5875
   -47.4736 -47.3980 -47.3979 -47.3760 -26.0870 -26.0869 -26.0797 -26.0321
   -26.0320 -26.0110 -25.9630 -25.9149 -25.8922 -25.8922 -25.8060 -25.6906
   -25.6645 -25.6644 -25.5787 -25.5462 -25.5462 -25.5388 -25.5353 -25.5353
   -25.4620 -25.4620 -25.4391 -25.3714 -25.3714 -25.3133 -25.3132 -25.3031
   -25.2605 -25.2527 -25.2527 -25.2131 -25.2051 -25.2051 -25.0607 -25.0607
    -8.5478  -3.5633  -2.9484  -2.0395  -1.4139  -1.1531  -1.1531  -1.0703
    -0.9887  -0.9887  -0.8024  -0.6508  -0.6508  -0.4016  -0.3381  -0.3381
     0.0525   0.2573   0.2573   1.0144   1.0144   1.1609   1.4060   1.6962
     1.8111   1.8111   1.8836   2.0673   2.1851   2.2119   2.2119   2.4181
     2.4181   2.5199   2.6486   2.6486

          k = 0.0000 0.0300 0.0000 ( 22902 PWs)   bands (ev):

   -47.8238 -47.7957 -47.7186 -47.7136 -47.7094 -47.6454 -47.5915 -47.5875
   -47.4683 -47.4019 -47.3980 -47.3775 -26.0626 -26.0575 -26.0420 -26.0098
   -25.9985 -25.9939 -25.9378 -25.8971 -25.8744 -25.8705 -25.8017 -25.6949
   -25.6756 -25.6697 -25.5690 -25.5658 -25.5614 -25.5463 -25.5417 -25.5258
   -25.4872 -25.4692 -25.4454 -25.4240 -25.3827 -25.3270 -25.3091 -25.2952
   -25.2933 -25.2611 -25.2434 -25.2347 -25.2276 -25.1985 -25.1058 -25.0708
    -8.5418  -3.4034  -2.8423  -1.8915  -1.2488  -1.1040  -1.0263  -1.0119
    -0.9360  -0.8695  -0.7191  -0.4997  -0.4796  -0.2693  -0.2273  -0.2109
     0.1173   0.3056   0.3267   0.9385   0.9462   1.1330   1.3763   1.6436
     1.7718   1.8442   1.8849   1.9618   2.0202   2.0231   2.0884   2.2315
     2.3711   2.4970   2.5227   2.5396

          k = 0.0000 0.0599 0.0000 ( 22852 PWs)   bands (ev):

   -47.8206 -47.7795 -47.7347 -47.7136 -47.7099 -47.6392 -47.6012 -47.5875
   -47.4541 -47.4143 -47.3980 -47.3795 -26.0037 -25.9953 -25.9665 -25.9567
   -25.9357 -25.9032 -25.8839 -25.8439 -25.8342 -25.8273 -25.7951 -25.7013
   -25.6920 -25.6907 -25.6289 -25.6246 -25.5935 -25.5567 -25.5557 -25.5284
   -25.4963 -25.4857 -25.4804 -25.4323 -25.4267 -25.4131 -25.3133 -25.3061
   -25.2928 -25.2878 -25.2772 -25.2718 -25.2332 -25.2228 -25.1730 -25.0979
    -8.5300  -3.0330  -2.5441  -1.5378  -1.3684  -0.9486  -0.7261  -0.6545
    -0.6438  -0.5758  -0.4670  -0.2279  -0.1107   0.0945   0.1279   0.1484
     0.3213   0.4276   0.5247   0.7780   0.8688   1.0373   1.1357   1.3493
     1.4454   1.5013   1.5347   1.6153   1.8437   1.8651   1.9086   1.9704
     2.0267   2.0538   2.1065   2.2993

          k = 0.0000-0.0899 0.0000 ( 22880 PWs)   bands (ev):

   -47.8189 -47.7587 -47.7556 -47.7136 -47.7099 -47.6343 -47.6078 -47.5875
   -47.4387 -47.4291 -47.3980 -47.3801 -25.9650 -25.9535 -25.9444 -25.9228
   -25.8873 -25.8546 -25.8302 -25.8085 -25.8075 -25.7614 -25.7427 -25.7379
   -25.7215 -25.7071 -25.6943 -25.6659 -25.6511 -25.6104 -25.5811 -25.5393
   -25.5009 -25.4623 -25.4562 -25.4542 -25.4235 -25.3734 -25.3698 -25.3445
   -25.3350 -25.3055 -25.2871 -25.2788 -25.2754 -25.2312 -25.1427 -25.1288
    -8.5241  -2.8399  -2.0616  -1.9354  -1.1899  -0.8915  -0.4889  -0.4099
    -0.3266  -0.3199  -0.2795  -0.1658  -0.0606   0.4191   0.4777   0.5133
     0.5400   0.5863   0.6027   0.6270   0.9759   1.0096   1.0234   1.0627
     1.1092   1.1944   1.3142   1.3937   1.4846   1.5229   1.5967   1.6882
     1.6982   1.7861   1.9610   2.1788

          k = 0.0260-0.0150 0.0000 ( 22902 PWs)   bands (ev):

   -47.8238 -47.7957 -47.7186 -47.7135 -47.7094 -47.6454 -47.5915 -47.5875
   -47.4683 -47.4019 -47.3980 -47.3775 -26.0626 -26.0575 -26.0420 -26.0098
   -25.9985 -25.9939 -25.9378 -25.8971 -25.8743 -25.8705 -25.8017 -25.6949
   -25.6756 -25.6697 -25.5690 -25.5658 -25.5614 -25.5463 -25.5417 -25.5258
   -25.4872 -25.4692 -25.4454 -25.4240 -25.3827 -25.3270 -25.3091 -25.2952
   -25.2933 -25.2611 -25.2434 -25.2347 -25.2276 -25.1985 -25.1058 -25.0708
    -8.5418  -3.4034  -2.8423  -1.8915  -1.2488  -1.1040  -1.0263  -1.0119
    -0.9360  -0.8695  -0.7191  -0.4997  -0.4796  -0.2693  -0.2273  -0.2109
     0.1173   0.3056   0.3267   0.9385   0.9462   1.1330   1.3763   1.6436
     1.7718   1.8442   1.8849   1.9618   2.0202   2.0231   2.0884   2.2315
     2.3711   2.4970   2.5227   2.5396

          k = 0.0260 0.0150 0.0000 ( 22902 PWs)   bands (ev):

   -47.8238 -47.7957 -47.7186 -47.7136 -47.7094 -47.6454 -47.5915 -47.5875
   -47.4683 -47.4019 -47.3979 -47.3775 -26.0626 -26.0576 -26.0420 -26.0098
   -25.9985 -25.9939 -25.9378 -25.8971 -25.8744 -25.8705 -25.8017 -25.6950
   -25.6756 -25.6697 -25.5690 -25.5659 -25.5614 -25.5463 -25.5418 -25.5258
   -25.4872 -25.4692 -25.4454 -25.4240 -25.3827 -25.3270 -25.3091 -25.2953
   -25.2933 -25.2611 -25.2434 -25.2347 -25.2276 -25.1985 -25.1058 -25.0708
    -8.5418  -3.4034  -2.8423  -1.8915  -1.2488  -1.1040  -1.0263  -1.0119
    -0.9360  -0.8695  -0.7191  -0.4997  -0.4796  -0.2693  -0.2272  -0.2109
     0.1173   0.3056   0.3267   0.9385   0.9462   1.1330   1.3763   1.6436
     1.7718   1.8442   1.8849   1.9618   2.0202   2.0231   2.0884   2.2315
     2.3711   2.4970   2.5227   2.5396

          k = 0.0260 0.0450 0.0000 ( 22896 PWs)   bands (ev):

   -47.8214 -47.7847 -47.7249 -47.7219 -47.7062 -47.6409 -47.5989 -47.5872
   -47.4586 -47.4082 -47.4006 -47.3784 -26.0271 -25.9887 -25.9879 -25.9740
   -25.9639 -25.9291 -25.9010 -25.8618 -25.8444 -25.8392 -25.7964 -25.7008
   -25.6933 -25.6799 -25.6438 -25.5931 -25.5495 -25.5400 -25.5352 -25.5258
   -25.5121 -25.4969 -25.4723 -25.4512 -25.4067 -25.3910 -25.3144 -25.3059
   -25.2942 -25.2857 -25.2743 -25.2342 -25.2147 -25.2100 -25.1826 -25.0926
    -8.5329  -3.1331  -2.6420  -1.6198  -1.1136  -1.0498  -0.9444  -0.8566
    -0.7484  -0.6586  -0.4477  -0.2664  -0.2099  -0.0178  -0.0082   0.0413
     0.2532   0.3730   0.4831   0.8003   0.8646   1.0915   1.2651   1.4175
     1.5243   1.5894   1.6756   1.7019   1.8788   1.9436   1.9785   2.1037
     2.1171   2.1797   2.2087   2.2971

          k = 0.0260-0.1049 0.0000 ( 22856 PWs)   bands (ev):

   -47.8190 -47.7654 -47.7429 -47.7262 -47.7033 -47.6334 -47.6096 -47.5867
   -47.4422 -47.4215 -47.4042 -47.3780 -25.9629 -25.9476 -25.9318 -25.9079
   -25.8856 -25.8605 -25.8341 -25.8133 -25.8090 -25.7984 -25.7794 -25.7539
   -25.7231 -25.6961 -25.6794 -25.6589 -25.6414 -25.5825 -25.5645 -25.5078
   -25.5042 -25.4887 -25.4535 -25.4504 -25.4417 -25.4234 -25.3897 -25.3264
   -25.3021 -25.2921 -25.2842 -25.2782 -25.2486 -25.2274 -25.1762 -25.1311
    -8.5241  -2.8492  -2.2031  -1.5724  -1.1815  -0.9771  -0.7773  -0.5287
    -0.3487  -0.2697  -0.1396  -0.0186   0.0566   0.3465   0.3797   0.4145
     0.4635   0.5165   0.6088   0.8199   0.8793   0.9314   1.0218   1.0903
     1.1487   1.2167   1.2455   1.3378   1.5145   1.5540   1.6190   1.6865
     1.7320   1.7814   1.9471   2.0565

          k = 0.0260-0.0749 0.0000 ( 22856 PWs)   bands (ev):

   -47.8190 -47.7654 -47.7429 -47.7262 -47.7033 -47.6334 -47.6096 -47.5867
   -47.4422 -47.4215 -47.4042 -47.3780 -25.9629 -25.9476 -25.9318 -25.9079
   -25.8856 -25.8605 -25.8341 -25.8133 -25.8090 -25.7984 -25.7794 -25.7539
   -25.7231 -25.6961 -25.6794 -25.6589 -25.6414 -25.5825 -25.5645 -25.5078
   -25.5042 -25.4887 -25.4535 -25.4504 -25.4417 -25.4235 -25.3897 -25.3264
   -25.3021 -25.2921 -25.2841 -25.2783 -25.2486 -25.2274 -25.1762 -25.1311
    -8.5241  -2.8492  -2.2031  -1.5724  -1.1815  -0.9771  -0.7773  -0.5287
    -0.3487  -0.2697  -0.1396  -0.0186   0.0566   0.3465   0.3797   0.4145
     0.4635   0.5165   0.6088   0.8199   0.8793   0.9314   1.0218   1.0903
     1.1487   1.2167   1.2454   1.3378   1.5145   1.5540   1.6190   1.6865
     1.7320   1.7814   1.9471   2.0565

          k = 0.0260-0.0450 0.0000 ( 22896 PWs)   bands (ev):

   -47.8214 -47.7847 -47.7249 -47.7218 -47.7062 -47.6409 -47.5990 -47.5871
   -47.4586 -47.4082 -47.4006 -47.3784 -26.0271 -25.9887 -25.9879 -25.9740
   -25.9639 -25.9291 -25.9010 -25.8618 -25.8444 -25.8392 -25.7964 -25.7008
   -25.6933 -25.6799 -25.6438 -25.5931 -25.5495 -25.5400 -25.5352 -25.5258
   -25.5121 -25.4969 -25.4723 -25.4512 -25.4067 -25.3910 -25.3144 -25.3059
   -25.2942 -25.2857 -25.2744 -25.2342 -25.2147 -25.2100 -25.1826 -25.0926
    -8.5329  -3.1331  -2.6420  -1.6198  -1.1136  -1.0498  -0.9444  -0.8566
    -0.7484  -0.6586  -0.4477  -0.2664  -0.2099  -0.0178  -0.0082   0.0413
     0.2532   0.3730   0.4831   0.8003   0.8646   1.0915   1.2651   1.4175
     1.5243   1.5894   1.6756   1.7019   1.8788   1.9436   1.9785   2.1037
     2.1171   2.1797   2.2087   2.2971

          k = 0.0519-0.0300 0.0000 ( 22852 PWs)   bands (ev):

   -47.8206 -47.7795 -47.7347 -47.7136 -47.7099 -47.6392 -47.6012 -47.5875
   -47.4541 -47.4143 -47.3980 -47.3795 -26.0037 -25.9953 -25.9665 -25.9567
   -25.9357 -25.9032 -25.8839 -25.8439 -25.8341 -25.8274 -25.7951 -25.7014
   -25.6921 -25.6907 -25.6289 -25.6246 -25.5935 -25.5567 -25.5557 -25.5284
   -25.4963 -25.4857 -25.4804 -25.4323 -25.4267 -25.4131 -25.3133 -25.3061
   -25.2928 -25.2878 -25.2772 -25.2718 -25.2332 -25.2228 -25.1730 -25.0979
    -8.5300  -3.0330  -2.5441  -1.5378  -1.3683  -0.9486  -0.7261  -0.6545
    -0.6438  -0.5758  -0.4670  -0.2279  -0.1107   0.0945   0.1279   0.1484
     0.3213   0.4276   0.5247   0.7780   0.8688   1.0373   1.1357   1.3493
     1.4454   1.5013   1.5347   1.6153   1.8437   1.8651   1.9086   1.9704
     2.0267   2.0538   2.1065   2.2993

          k = 0.0519 0.0000 0.0000 ( 22896 PWs)   bands (ev):

   -47.8214 -47.7847 -47.7249 -47.7218 -47.7062 -47.6409 -47.5989 -47.5872
   -47.4586 -47.4082 -47.4006 -47.3784 -26.0271 -25.9887 -25.9879 -25.9740
   -25.9639 -25.9291 -25.9010 -25.8618 -25.8444 -25.8392 -25.7964 -25.7008
   -25.6933 -25.6799 -25.6438 -25.5931 -25.5495 -25.5400 -25.5352 -25.5258
   -25.5121 -25.4969 -25.4723 -25.4512 -25.4067 -25.3910 -25.3144 -25.3059
   -25.2942 -25.2857 -25.2743 -25.2342 -25.2147 -25.2100 -25.1826 -25.0926
    -8.5329  -3.1331  -2.6420  -1.6198  -1.1136  -1.0498  -0.9444  -0.8566
    -0.7484  -0.6586  -0.4477  -0.2664  -0.2099  -0.0178  -0.0082   0.0413
     0.2532   0.3730   0.4831   0.8003   0.8646   1.0915   1.2651   1.4175
     1.5243   1.5894   1.6756   1.7019   1.8788   1.9436   1.9785   2.1037
     2.1171   2.1797   2.2087   2.2971

          k = 0.0519 0.0300 0.0000 ( 22852 PWs)   bands (ev):

   -47.8206 -47.7795 -47.7347 -47.7136 -47.7098 -47.6392 -47.6012 -47.5875
   -47.4541 -47.4143 -47.3979 -47.3795 -26.0036 -25.9953 -25.9665 -25.9567
   -25.9357 -25.9032 -25.8838 -25.8439 -25.8342 -25.8273 -25.7951 -25.7013
   -25.6920 -25.6907 -25.6289 -25.6246 -25.5935 -25.5567 -25.5557 -25.5283
   -25.4963 -25.4857 -25.4804 -25.4322 -25.4266 -25.4131 -25.3133 -25.3062
   -25.2928 -25.2878 -25.2772 -25.2718 -25.2332 -25.2228 -25.1730 -25.0979
    -8.5300  -3.0330  -2.5441  -1.5378  -1.3684  -0.9486  -0.7261  -0.6545
    -0.6439  -0.5758  -0.4670  -0.2279  -0.1107   0.0945   0.1279   0.1484
     0.3213   0.4276   0.5247   0.7780   0.8688   1.0373   1.1357   1.3493
     1.4454   1.5013   1.5347   1.6153   1.8437   1.8651   1.9086   1.9704
     2.0267   2.0538   2.1065   2.2993

          k = 0.0519-0.1199 0.0000 ( 22856 PWs)   bands (ev):

   -47.8190 -47.7654 -47.7429 -47.7262 -47.7033 -47.6334 -47.6096 -47.5867
   -47.4422 -47.4215 -47.4041 -47.3780 -25.9629 -25.9476 -25.9318 -25.9079
   -25.8856 -25.8605 -25.8341 -25.8133 -25.8090 -25.7984 -25.7794 -25.7539
   -25.7231 -25.6961 -25.6794 -25.6589 -25.6414 -25.5825 -25.5645 -25.5078
   -25.5042 -25.4887 -25.4535 -25.4504 -25.4417 -25.4235 -25.3897 -25.3264
   -25.3021 -25.2921 -25.2841 -25.2782 -25.2486 -25.2274 -25.1762 -25.1311
    -8.5241  -2.8492  -2.2031  -1.5724  -1.1815  -0.9771  -0.7773  -0.5287
    -0.3487  -0.2697  -0.1396  -0.0186   0.0566   0.3465   0.3797   0.4145
     0.4635   0.5165   0.6088   0.8199   0.8793   0.9314   1.0218   1.0903
     1.1487   1.2167   1.2454   1.3378   1.5145   1.5540   1.6190   1.6865
     1.7320   1.7814   1.9471   2.0565

          k = 0.0519-0.0899 0.0000 ( 22914 PWs)   bands (ev):

   -47.8182 -47.7475 -47.7474 -47.7427 -47.7004 -47.6260 -47.6186 -47.5859
   -47.4289 -47.4282 -47.4124 -47.3765 -25.9369 -25.8993 -25.8825 -25.8644
   -25.8634 -25.8395 -25.8377 -25.8302 -25.7839 -25.7762 -25.7753 -25.7695
   -25.7532 -25.7281 -25.6968 -25.6757 -25.6508 -25.6412 -25.5190 -25.5140
   -25.5116 -25.4673 -25.4610 -25.4594 -25.4549 -25.4267 -25.3933 -25.3893
   -25.3112 -25.2997 -25.2837 -25.2779 -25.2320 -25.1943 -25.1855 -25.1849
    -8.5212  -2.7721  -1.6647  -1.6115  -1.5418  -0.8358  -0.7760  -0.5126
    -0.1288   0.0317   0.1501   0.1911   0.2294   0.3227   0.3365   0.4583
     0.6934   0.7561   0.7738   0.7951   0.8047   0.8229   0.8269   0.8272
     0.8564   1.0716   1.0979   1.3075   1.3325   1.4207   1.4527   1.4968
     1.5026   1.6344   1.7374   1.8029

          k = 0.0519-0.0599 0.0000 ( 22856 PWs)   bands (ev):

   -47.8190 -47.7654 -47.7429 -47.7261 -47.7033 -47.6333 -47.6096 -47.5866
   -47.4422 -47.4215 -47.4042 -47.3780 -25.9629 -25.9476 -25.9318 -25.9079
   -25.8856 -25.8605 -25.8341 -25.8133 -25.8090 -25.7984 -25.7794 -25.7539
   -25.7231 -25.6961 -25.6794 -25.6589 -25.6414 -25.5825 -25.5645 -25.5078
   -25.5042 -25.4887 -25.4535 -25.4504 -25.4417 -25.4235 -25.3897 -25.3264
   -25.3021 -25.2920 -25.2841 -25.2783 -25.2486 -25.2274 -25.1762 -25.1311
    -8.5241  -2.8492  -2.2031  -1.5724  -1.1815  -0.9771  -0.7773  -0.5287
    -0.3486  -0.2697  -0.1396  -0.0186   0.0566   0.3465   0.3797   0.4145
     0.4635   0.5165   0.6088   0.8199   0.8793   0.9314   1.0218   1.0903
     1.1487   1.2167   1.2454   1.3378   1.5145   1.5540   1.6190   1.6865
     1.7320   1.7814   1.9471   2.0565

          k =-0.0779 0.0450 0.0000 ( 22880 PWs)   bands (ev):

   -47.8189 -47.7586 -47.7556 -47.7136 -47.7100 -47.6343 -47.6078 -47.5875
   -47.4387 -47.4291 -47.3980 -47.3801 -25.9650 -25.9535 -25.9444 -25.9228
   -25.8873 -25.8546 -25.8302 -25.8085 -25.8075 -25.7614 -25.7427 -25.7379
   -25.7215 -25.7071 -25.6942 -25.6660 -25.6511 -25.6104 -25.5811 -25.5393
   -25.5010 -25.4623 -25.4562 -25.4542 -25.4235 -25.3734 -25.3698 -25.3445
   -25.3350 -25.3055 -25.2871 -25.2788 -25.2754 -25.2312 -25.1427 -25.1288
    -8.5241  -2.8399  -2.0616  -1.9354  -1.1899  -0.8915  -0.4889  -0.4099
    -0.3266  -0.3199  -0.2795  -0.1658  -0.0606   0.4190   0.4777   0.5132
     0.5400   0.5863   0.6027   0.6270   0.9759   1.0096   1.0234   1.0627
     1.1092   1.1944   1.3142   1.3937   1.4846   1.5229   1.5967   1.6882
     1.6982   1.7861   1.9610   2.1788

          k =-0.0779 0.0749 0.0000 ( 22856 PWs)   bands (ev):

   -47.8190 -47.7654 -47.7429 -47.7261 -47.7033 -47.6334 -47.6096 -47.5867
   -47.4422 -47.4215 -47.4042 -47.3780 -25.9629 -25.9476 -25.9318 -25.9079
   -25.8856 -25.8605 -25.8341 -25.8133 -25.8090 -25.7984 -25.7794 -25.7539
   -25.7231 -25.6961 -25.6794 -25.6589 -25.6414 -25.5825 -25.5645 -25.5078
   -25.5042 -25.4887 -25.4535 -25.4504 -25.4417 -25.4235 -25.3897 -25.3264
   -25.3021 -25.2920 -25.2842 -25.2782 -25.2486 -25.2274 -25.1762 -25.1311
    -8.5241  -2.8492  -2.2031  -1.5724  -1.1815  -0.9771  -0.7774  -0.5287
    -0.3486  -0.2697  -0.1396  -0.0186   0.0566   0.3465   0.3797   0.4145
     0.4635   0.5165   0.6088   0.8199   0.8793   0.9314   1.0218   1.0903
     1.1487   1.2167   1.2454   1.3378   1.5145   1.5540   1.6190   1.6865
     1.7320   1.7814   1.9471   2.0565

          k =-0.0779 0.1049 0.0000 ( 22856 PWs)   bands (ev):

   -47.8190 -47.7654 -47.7429 -47.7262 -47.7033 -47.6334 -47.6096 -47.5867
   -47.4422 -47.4215 -47.4041 -47.3780 -25.9629 -25.9476 -25.9318 -25.9079
   -25.8856 -25.8605 -25.8341 -25.8133 -25.8090 -25.7984 -25.7794 -25.7539
   -25.7231 -25.6961 -25.6794 -25.6589 -25.6414 -25.5825 -25.5645 -25.5078
   -25.5042 -25.4887 -25.4535 -25.4504 -25.4417 -25.4235 -25.3897 -25.3264
   -25.3021 -25.2921 -25.2841 -25.2782 -25.2486 -25.2274 -25.1762 -25.1311
    -8.5241  -2.8492  -2.2031  -1.5724  -1.1815  -0.9771  -0.7773  -0.5287
    -0.3487  -0.2697  -0.1396  -0.0186   0.0566   0.3465   0.3797   0.4145
     0.4635   0.5165   0.6088   0.8199   0.8793   0.9314   1.0218   1.0903
     1.1487   1.2167   1.2454   1.3378   1.5145   1.5540   1.6190   1.6865
     1.7320   1.7814   1.9471   2.0565

          k =-0.0779-0.0450 0.0000 ( 22880 PWs)   bands (ev):

   -47.8189 -47.7587 -47.7556 -47.7136 -47.7099 -47.6343 -47.6078 -47.5876
   -47.4387 -47.4292 -47.3979 -47.3802 -25.9650 -25.9535 -25.9444 -25.9228
   -25.8873 -25.8546 -25.8302 -25.8085 -25.8075 -25.7614 -25.7427 -25.7379
   -25.7215 -25.7071 -25.6943 -25.6659 -25.6511 -25.6104 -25.5811 -25.5393
   -25.5009 -25.4623 -25.4562 -25.4542 -25.4235 -25.3734 -25.3698 -25.3445
   -25.3351 -25.3055 -25.2872 -25.2788 -25.2754 -25.2312 -25.1427 -25.1288
    -8.5241  -2.8399  -2.0616  -1.9354  -1.1899  -0.8915  -0.4889  -0.4099
    -0.3266  -0.3199  -0.2795  -0.1658  -0.0606   0.4191   0.4777   0.5132
     0.5400   0.5863   0.6027   0.6270   0.9759   1.0096   1.0234   1.0627
     1.1092   1.1944   1.3142   1.3937   1.4846   1.5229   1.5967   1.6882
     1.6981   1.7861   1.9610   2.1788

     the Fermi energy is     1.4734 ev

!    total energy              =   -1209.66178954 Ry
     Harris-Foulkes estimate   =   -1209.66178832 Ry
     estimated scf accuracy    <       0.00000389 Ry

     The total energy is the sum of the following terms:

     one-electron contribution =   -8395.89918109 Ry
     hartree contribution      =    4190.72022483 Ry
     xc contribution           =    -224.82614168 Ry
     ewald contribution        =    3220.45713778 Ry
     electric field correction =       0.00000394 Ry
     smearing contrib. (-TS)   =      -0.11383333 Ry

     convergence has been achieved in   9 iterations
 
 BEEF-vdW xc energy contributions
           1 :   -192.501957529970     
           2 :    174.186616106877     
           3 :   -143.350454133664     
           4 :    108.692599290049     
           5 :   -78.0300679573839     
           6 :    55.5831117467191     
           7 :   -41.3404491681708     
           8 :    32.3990375025333     
           9 :   -25.2375645691221     
          10 :    17.6356341179234     
          11 :   -9.39850995108071     
          12 :    1.81701420598193     
          13 :    3.55620453573431     
          14 :   -6.00545819178785     
          15 :    6.04609853270307     
          16 :   -5.01895799112046     
          17 :    4.24770370264372     
          18 :   -4.32724408936434     
          19 :    4.95887060678831     
          20 :   -5.35492500456894     
          21 :    4.88141161451614     
          22 :   -3.50244846100742     
          23 :    1.77115964833655     
          24 :  -0.433598555808715     
          25 :  -5.136214028809150E-002
          26 :  -0.240571163155494     
          27 :   0.813431668883027     
          28 :   -1.11317339032723     
          29 :   0.882582286795468     
          30 :  -0.286206718638823     
          31 :   -22.3810955627012     
          32 :   -16.6823726602820     

     Forces acting on atoms (Ry/au):


     negative rho (up, down):  7.495E-01 0.000E+00
     atom    1 type  1   force =     0.00000583    0.00000103    0.01340936
     atom    2 type  1   force =    -0.00000546    0.00080912    0.01498864
     atom    3 type  1   force =     0.00069942   -0.00040771    0.01499052
     atom    4 type  1   force =    -0.00069945   -0.00040141    0.01498844
     atom    5 type  1   force =    -0.00387672    0.00224104   -0.00145567
     atom    6 type  1   force =     0.00387814    0.00224180   -0.00145639
     atom    7 type  1   force =    -0.00000119   -0.00000310   -0.00564316
     atom    8 type  1   force =     0.00000011   -0.00447973   -0.00145859
     atom    9 type  1   force =     0.01889326    0.01090591    0.02200487
     atom   10 type  1   force =    -0.01889237    0.01090795    0.02199540
     atom   11 type  1   force =     0.00000252   -0.02181460    0.02199882
     atom   12 type  1   force =    -0.00000392    0.00000022   -0.01163622
     atom   13 type  2   force =     0.00000017   -0.00000034   -0.04005838
     atom   14 type  3   force =    -0.00000035   -0.00000018   -0.06266761

     Total force =     0.092450     Total SCF correction =     0.002396


     entering subroutine stress ...


     negative rho (up, down):  7.495E-01 0.000E+00
          total   stress  (Ry/bohr**3)                   (kbar)     P=  -15.32
  -0.00007642   0.00000000   0.00000000        -11.24      0.00      0.00
   0.00000000  -0.00007642   0.00000000          0.00    -11.24      0.00
   0.00000000   0.00000000  -0.00015960          0.00      0.00    -23.48


     number of scf cycles    =   2
     number of bfgs steps    =   1

     energy   old            =   -1209.6486112950 Ry
     energy   new            =   -1209.6617895446 Ry

     CASE: energy  _new < energy  _old

     new trust radius        =       0.1816974926 bohr
     new conv_thr            =       0.0000001000 Ry


ATOMIC_POSITIONS (crystal)
Zr1      0.166666667   0.166666667   0.396150897    0   0   0
Zr1      0.666666667   0.166666667   0.396150897    0   0   0
Zr1      0.166666667   0.666666667   0.396150897    0   0   0
Zr1      0.666666667   0.666666667   0.396150897    0   0   0
Zr1      0.833333333   0.333333333   0.500000000    0   0   0
Zr1      0.333333333   0.333333333   0.500000000    0   0   0
Zr1      0.833333333   0.833333333   0.500000000    0   0   0
Zr1      0.333333333   0.833333333   0.500000000    0   0   0
Zr1      0.004843774   0.004842364   0.605882138
Zr1      0.490313648   0.004842674   0.605881710
Zr1      0.004843232   0.490314118   0.605881821
Zr1      0.499999085   0.500000618   0.602983892
C1       0.166667053   0.166666880   0.662323804
H1       0.166666652   0.166666672   0.709269190



     Writing output data file calc.save
     Check: negative starting charge=   -0.728705
     NEW-OLD atomic charge density approx. for the potential
     Check: negative starting charge=   -0.728881

     negative rho (up, down):  7.494E-01 0.000E+00
 
     Adding external electric field

     Computed dipole along edir(3) : 
        Dipole               -0.0433 Ry au,         -0.1101 Debye
        Dipole field         -0.0001 Ry au
 
        Potential amp.        0.0083 Ry
        Total length         46.5096 bohr
 

     total cpu time spent up to now is     1006.4 secs

     per-process dynamical memory:    96.5 Mb

     Self-consistent Calculation

     iteration #  1     ecut=    36.75 Ry     beta=0.30
     Davidson diagonalization with overlap
     c_bands:  2 eigenvalues not converged
     ethr =  1.00E-06,  avg # of iterations = 12.5

     negative rho (up, down):  7.495E-01 0.000E+00
 
     Adding external electric field

     Computed dipole along edir(3) : 
        Dipole                0.1861 Ry au,          0.4731 Debye
        Dipole field          0.0004 Ry au
 
        Potential amp.       -0.0358 Ry
        Total length         46.5096 bohr
 

     total cpu time spent up to now is     1051.8 secs

     total energy              =   -1209.66997324 Ry
     Harris-Foulkes estimate   =   -1209.68495721 Ry
     estimated scf accuracy    <       0.03597404 Ry

     iteration #  2     ecut=    36.75 Ry     beta=0.30
     Davidson diagonalization with overlap
     ethr =  2.41E-05,  avg # of iterations =  5.9

     negative rho (up, down):  7.496E-01 0.000E+00
 
     Adding external electric field

     Computed dipole along edir(3) : 
        Dipole               -0.0891 Ry au,         -0.2264 Debye
        Dipole field         -0.0002 Ry au
 
        Potential amp.        0.0171 Ry
        Total length         46.5096 bohr
 

     total cpu time spent up to now is     1082.3 secs

     total energy              =   -1209.63211224 Ry
     Harris-Foulkes estimate   =   -1209.70805729 Ry
     estimated scf accuracy    <       2.51832384 Ry

     iteration #  3     ecut=    36.75 Ry     beta=0.30
     Davidson diagonalization with overlap
     ethr =  2.41E-05,  avg # of iterations =  6.0

     negative rho (up, down):  7.496E-01 0.000E+00
 
     Adding external electric field

     Computed dipole along edir(3) : 
        Dipole                0.0452 Ry au,          0.1148 Debye
        Dipole field          0.0001 Ry au
 
        Potential amp.       -0.0087 Ry
        Total length         46.5096 bohr
 

     total cpu time spent up to now is     1112.9 secs

     total energy              =   -1209.66389300 Ry
     Harris-Foulkes estimate   =   -1209.68930341 Ry
     estimated scf accuracy    <       0.81851053 Ry

     iteration #  4     ecut=    36.75 Ry     beta=0.30
     Davidson diagonalization with overlap
     ethr =  2.41E-05,  avg # of iterations =  5.7

     negative rho (up, down):  7.496E-01 0.000E+00
 
[...]
   -25.5619 -25.5346 -25.5153 -25.5096 -25.4641 -25.4495 -25.3886 -25.3603
   -25.3401 -25.3080 -25.2986 -25.2544 -25.2339 -25.2083 -25.1939 -25.1384
   -25.1087 -25.0995 -25.0782 -25.0687 -25.0568 -25.0301 -24.9918 -24.9478
    -9.0373  -3.1274  -2.1280  -1.5375  -1.1713  -0.9418  -0.7169  -0.6060
    -0.3684  -0.1940  -0.1253  -0.0126   0.1140   0.3748   0.4560   0.5219
     0.5462   0.5697   0.6895   0.8968   0.9811   1.0274   1.1242   1.1613
     1.2590   1.2955   1.3601   1.4425   1.5770   1.6583   1.7281   1.8246
     1.8745   1.9034   2.0012   2.1724

          k = 0.0260-0.0450 0.0000 ( 22896 PWs)   bands (ev):

   -47.6772 -47.6186 -47.6139 -47.5980 -47.5698 -47.3848 -47.3390 -47.3259
   -47.2723 -47.2246 -47.2179 -47.1997 -25.9122 -25.8695 -25.8686 -25.8349
   -25.7734 -25.7548 -25.7343 -25.7161 -25.7107 -25.6664 -25.6407 -25.5554
   -25.5451 -25.5363 -25.5115 -25.4300 -25.4287 -25.3999 -25.3800 -25.3367
   -25.3164 -25.3004 -25.2976 -25.2476 -25.2385 -25.1842 -25.1234 -25.1107
   -25.1003 -25.0864 -25.0652 -25.0351 -25.0248 -25.0197 -24.9957 -24.9108
    -9.0531  -3.3289  -2.6427  -1.5436  -1.2098  -1.0033  -0.9143  -0.8631
    -0.7320  -0.5324  -0.4003  -0.2549  -0.1835   0.0683   0.0936   0.1367
     0.3507   0.4831   0.5190   0.8146   0.8881   1.2799   1.4053   1.4869
     1.6114   1.6772   1.7419   1.8044   2.0113   2.0699   2.0997   2.2094
     2.2462   2.3489   2.4053   2.4570

          k = 0.0519-0.0300 0.0000 ( 22852 PWs)   bands (ev):

   -47.6720 -47.6275 -47.6073 -47.6008 -47.5689 -47.3828 -47.3416 -47.3263
   -47.2681 -47.2306 -47.2149 -47.2008 -25.8847 -25.8828 -25.8259 -25.8124
   -25.7594 -25.7482 -25.7170 -25.7047 -25.7034 -25.6517 -25.6287 -25.5545
   -25.5489 -25.5359 -25.5048 -25.4976 -25.4415 -25.3870 -25.3845 -25.3490
   -25.3216 -25.3046 -25.2860 -25.2644 -25.2273 -25.2100 -25.1235 -25.1200
   -25.0963 -25.0897 -25.0813 -25.0555 -25.0437 -25.0289 -24.9866 -24.9148
    -9.0478  -3.2630  -2.5113  -1.5130  -1.2775  -0.9899  -0.8485  -0.6564
    -0.5413  -0.4969  -0.3693  -0.1630  -0.1471   0.1690   0.2118   0.2392
     0.4187   0.5256   0.5818   0.8130   0.9200   1.1713   1.2625   1.4332
     1.5381   1.5798   1.5804   1.7295   1.9416   1.9652   2.0311   2.1037
     2.1682   2.2052   2.2543   2.4931

          k = 0.0519 0.0000 0.0000 ( 22896 PWs)   bands (ev):

   -47.6772 -47.6186 -47.6138 -47.5980 -47.5698 -47.3848 -47.3390 -47.3259
   -47.2723 -47.2246 -47.2179 -47.1997 -25.9122 -25.8695 -25.8686 -25.8349
   -25.7734 -25.7548 -25.7343 -25.7161 -25.7107 -25.6664 -25.6407 -25.5554
   -25.5451 -25.5363 -25.5115 -25.4300 -25.4287 -25.3999 -25.3800 -25.3367
   -25.3164 -25.3004 -25.2976 -25.2476 -25.2385 -25.1842 -25.1234 -25.1107
   -25.1003 -25.0864 -25.0652 -25.0351 -25.0248 -25.0196 -24.9957 -24.9108
    -9.0531  -3.3289  -2.6427  -1.5436  -1.2098  -1.0033  -0.9143  -0.8631
    -0.7320  -0.5324  -0.4003  -0.2549  -0.1835   0.0683   0.0936   0.1367
     0.3507   0.4831   0.5190   0.8146   0.8881   1.2799   1.4053   1.4869
     1.6114   1.6772   1.7419   1.8044   2.0113   2.0699   2.0997   2.2094
     2.2462   2.3489   2.4053   2.4570

          k = 0.0519 0.0300 0.0000 ( 22852 PWs)   bands (ev):

   -47.6720 -47.6275 -47.6073 -47.6008 -47.5689 -47.3828 -47.3416 -47.3263
   -47.2681 -47.2306 -47.2149 -47.2008 -25.8847 -25.8828 -25.8259 -25.8124
   -25.7594 -25.7482 -25.7170 -25.7047 -25.7034 -25.6517 -25.6287 -25.5545
   -25.5489 -25.5359 -25.5048 -25.4976 -25.4415 -25.3870 -25.3845 -25.3490
   -25.3215 -25.3046 -25.2860 -25.2644 -25.2273 -25.2100 -25.1235 -25.1200
   -25.0963 -25.0897 -25.0813 -25.0555 -25.0437 -25.0289 -24.9866 -24.9148
    -9.0478  -3.2630  -2.5113  -1.5130  -1.2775  -0.9899  -0.8485  -0.6564
    -0.5413  -0.4969  -0.3693  -0.1630  -0.1471   0.1690   0.2118   0.2392
     0.4187   0.5256   0.5818   0.8130   0.9200   1.1713   1.2625   1.4332
     1.5381   1.5798   1.5804   1.7295   1.9416   1.9652   2.0311   2.1037
     2.1682   2.2052   2.2543   2.4931

          k = 0.0519-0.1199 0.0000 ( 22856 PWs)   bands (ev):

   -47.6582 -47.6356 -47.6186 -47.5955 -47.5672 -47.3762 -47.3511 -47.3254
   -47.2568 -47.2374 -47.2215 -47.1989 -25.8473 -25.8097 -25.7950 -25.7626
   -25.7238 -25.7170 -25.6967 -25.6906 -25.6707 -25.6413 -25.6244 -25.5856
   -25.5619 -25.5346 -25.5153 -25.5096 -25.4641 -25.4495 -25.3886 -25.3603
   -25.3401 -25.3080 -25.2986 -25.2544 -25.2339 -25.2083 -25.1939 -25.1384
   -25.1087 -25.0995 -25.0782 -25.0687 -25.0568 -25.0301 -24.9918 -24.9478
    -9.0373  -3.1274  -2.1280  -1.5375  -1.1713  -0.9418  -0.7169  -0.6060
    -0.3684  -0.1940  -0.1253  -0.0126   0.1140   0.3748   0.4560   0.5219
     0.5462   0.5696   0.6895   0.8968   0.9811   1.0274   1.1243   1.1613
     1.2590   1.2955   1.3601   1.4425   1.5770   1.6583   1.7281   1.8246
     1.8745   1.9034   2.0012   2.1724

          k = 0.0519-0.0899 0.0000 ( 22914 PWs)   bands (ev):

   -47.6411 -47.6410 -47.6332 -47.5926 -47.5663 -47.3661 -47.3629 -47.3246
   -47.2443 -47.2430 -47.2300 -47.1972 -25.7784 -25.7765 -25.7528 -25.7522
   -25.7442 -25.7018 -25.6732 -25.6696 -25.6669 -25.6622 -25.6432 -25.6093
   -25.5699 -25.5309 -25.5197 -25.4658 -25.4653 -25.4632 -25.4019 -25.4003
   -25.3961 -25.2939 -25.2649 -25.2603 -25.2478 -25.2340 -25.1846 -25.1813
   -25.1119 -25.0878 -25.0813 -25.0774 -25.0405 -25.0092 -25.0031 -24.9987
    -9.0320  -3.0569  -1.7059  -1.5114  -1.4130  -0.8975  -0.7919  -0.3237
    -0.3183  -0.1014   0.1987   0.2654   0.3106   0.3832   0.4498   0.5083
     0.7950   0.7983   0.8029   0.8701   0.9079   0.9136   0.9374   0.9458
     0.9932   1.1537   1.1681   1.4543   1.4616   1.5400   1.5972   1.6258
     1.6338   1.7345   1.7941   1.8529

          k = 0.0519-0.0599 0.0000 ( 22856 PWs)   bands (ev):

   -47.6582 -47.6356 -47.6186 -47.5955 -47.5672 -47.3762 -47.3511 -47.3254
   -47.2568 -47.2374 -47.2215 -47.1989 -25.8473 -25.8097 -25.7950 -25.7626
   -25.7238 -25.7170 -25.6967 -25.6906 -25.6707 -25.6413 -25.6244 -25.5856
   -25.5619 -25.5346 -25.5153 -25.5096 -25.4641 -25.4495 -25.3886 -25.3603
   -25.3401 -25.3080 -25.2986 -25.2544 -25.2339 -25.2083 -25.1939 -25.1384
   -25.1087 -25.0995 -25.0782 -25.0687 -25.0568 -25.0301 -24.9918 -24.9478
    -9.0373  -3.1274  -2.1280  -1.5375  -1.1713  -0.9418  -0.7169  -0.6060
    -0.3684  -0.1940  -0.1253  -0.0126   0.1140   0.3748   0.4560   0.5219
     0.5462   0.5696   0.6895   0.8968   0.9811   1.0274   1.1243   1.1613
     1.2590   1.2955   1.3601   1.4425   1.5770   1.6583   1.7281   1.8246
     1.8745   1.9034   2.0012   2.1724

          k =-0.0779 0.0450 0.0000 ( 22880 PWs)   bands (ev):

   -47.6522 -47.6473 -47.6074 -47.6010 -47.5672 -47.3772 -47.3492 -47.3263
   -47.2532 -47.2451 -47.2149 -47.2013 -25.8432 -25.8411 -25.7918 -25.7600
   -25.7300 -25.7183 -25.6834 -25.6740 -25.6439 -25.6265 -25.6153 -25.5873
   -25.5722 -25.5625 -25.5230 -25.5107 -25.5017 -25.4083 -25.3794 -25.3491
   -25.3489 -25.3429 -25.2940 -25.2472 -25.1971 -25.1879 -25.1860 -25.1596
   -25.1571 -25.0987 -25.0859 -25.0732 -25.0683 -25.0345 -24.9607 -24.9419
    -9.0373  -3.1266  -2.0055  -1.8309  -1.2185  -0.7790  -0.6209  -0.5373
    -0.2696  -0.2296  -0.1634  -0.1159  -0.0609   0.4076   0.5339   0.5933
     0.6620   0.6691   0.6819   0.7273   1.0609   1.0987   1.1070   1.1281
     1.1996   1.2994   1.3937   1.5289   1.5904   1.5908   1.7316   1.7417
     1.8634   1.9325   2.0169   2.3044

          k =-0.0779 0.0749 0.0000 ( 22856 PWs)   bands (ev):

   -47.6582 -47.6356 -47.6186 -47.5955 -47.5672 -47.3762 -47.3511 -47.3254
   -47.2568 -47.2374 -47.2215 -47.1989 -25.8473 -25.8097 -25.7950 -25.7626
   -25.7238 -25.7170 -25.6967 -25.6906 -25.6707 -25.6413 -25.6244 -25.5856
   -25.5619 -25.5345 -25.5153 -25.5096 -25.4641 -25.4495 -25.3886 -25.3603
   -25.3401 -25.3080 -25.2986 -25.2544 -25.2339 -25.2083 -25.1939 -25.1384
   -25.1087 -25.0995 -25.0782 -25.0687 -25.0568 -25.0301 -24.9918 -24.9479
    -9.0373  -3.1274  -2.1280  -1.5375  -1.1713  -0.9418  -0.7169  -0.6060
    -0.3684  -0.1940  -0.1253  -0.0126   0.1140   0.3748   0.4560   0.5219
     0.5462   0.5696   0.6895   0.8968   0.9811   1.0274   1.1243   1.1613
     1.2590   1.2955   1.3601   1.4425   1.5770   1.6583   1.7281   1.8246
     1.8745   1.9034   2.0012   2.1724

          k =-0.0779 0.1049 0.0000 ( 22856 PWs)   bands (ev):

   -47.6582 -47.6356 -47.6186 -47.5955 -47.5672 -47.3762 -47.3511 -47.3254
   -47.2568 -47.2374 -47.2215 -47.1989 -25.8473 -25.8097 -25.7950 -25.7626
   -25.7238 -25.7170 -25.6967 -25.6906 -25.6707 -25.6413 -25.6244 -25.5856
   -25.5619 -25.5345 -25.5153 -25.5096 -25.4641 -25.4495 -25.3886 -25.3603
   -25.3401 -25.3080 -25.2986 -25.2544 -25.2339 -25.2083 -25.1939 -25.1384
   -25.1087 -25.0995 -25.0782 -25.0687 -25.0568 -25.0301 -24.9918 -24.9478
    -9.0373  -3.1274  -2.1280  -1.5375  -1.1713  -0.9418  -0.7169  -0.6060
    -0.3684  -0.1940  -0.1253  -0.0126   0.1140   0.3748   0.4560   0.5219
     0.5462   0.5697   0.6895   0.8968   0.9811   1.0274   1.1243   1.1613
     1.2590   1.2955   1.3602   1.4425   1.5770   1.6583   1.7281   1.8246
     1.8745   1.9034   2.0012   2.1724

          k =-0.0779-0.0450 0.0000 ( 22880 PWs)   bands (ev):

   -47.6522 -47.6473 -47.6074 -47.6010 -47.5672 -47.3772 -47.3492 -47.3263
   -47.2532 -47.2451 -47.2149 -47.2013 -25.8432 -25.8411 -25.7918 -25.7600
   -25.7300 -25.7183 -25.6834 -25.6740 -25.6439 -25.6265 -25.6153 -25.5873
   -25.5722 -25.5625 -25.5230 -25.5107 -25.5017 -25.4083 -25.3794 -25.3491
   -25.3489 -25.3429 -25.2940 -25.2472 -25.1971 -25.1879 -25.1860 -25.1596
   -25.1571 -25.0987 -25.0859 -25.0732 -25.0683 -25.0345 -24.9607 -24.9419
    -9.0373  -3.1266  -2.0055  -1.8309  -1.2185  -0.7790  -0.6209  -0.5374
    -0.2696  -0.2296  -0.1634  -0.1159  -0.0609   0.4076   0.5339   0.5933
     0.6620   0.6691   0.6819   0.7273   1.0609   1.0987   1.1070   1.1281
     1.1996   1.2994   1.3937   1.5289   1.5904   1.5907   1.7316   1.7417
     1.8634   1.9325   2.0169   2.3044

     the Fermi energy is     1.5792 ev

!    total energy              =   -1209.70782821 Ry
     Harris-Foulkes estimate   =   -1209.70782799 Ry
     estimated scf accuracy    <       0.00000002 Ry

     The total energy is the sum of the following terms:

     one-electron contribution =   -8575.58713438 Ry
     hartree contribution      =    4281.38137473 Ry
     xc contribution           =    -225.21351897 Ry
     ewald contribution        =    3309.82359668 Ry
     electric field correction =       0.00001412 Ry
     smearing contrib. (-TS)   =      -0.11216040 Ry

     convergence has been achieved in  10 iterations
 
 BEEF-vdW xc energy contributions
           1 :   -192.882730779114     
           2 :    174.654170640425     
           3 :   -143.904251342414     
           4 :    109.237388117882     
           5 :   -78.4355880366822     
           6 :    55.7616442864240     
           7 :   -41.2971678197420     
           8 :    32.2269879207502     
           9 :   -25.0641901748545     
          10 :    17.5536984822074     
          11 :   -9.42081452007295     
          12 :    1.87977760396785     
          13 :    3.54478505332054     
          14 :   -6.10191277191302     
          15 :    6.23321127393314     
          16 :   -5.21660687436315     
          17 :    4.36565791044791     
          18 :   -4.32287451881399     
          19 :    4.86006900815394     
          20 :   -5.23543358315510     
          21 :    4.80912903403407     
          22 :   -3.49823060663306     
          23 :    1.80469251392765     
          24 :  -0.454387241137908     
          25 :  -7.318460821517192E-002
          26 :  -0.188536410849395     
          27 :   0.775253580121614     
          28 :   -1.13094155849240     
          29 :   0.963591855960885     
          30 :  -0.393896926578549     
          31 :   -22.4080978078701     
          32 :   -16.7268530270525     

     Forces acting on atoms (Ry/au):


     negative rho (up, down):  7.491E-01 0.000E+00
     atom    1 type  1   force =    -0.00000130    0.00000243    0.00999396
     atom    2 type  1   force =     0.00000113    0.00103188    0.01362090
     atom    3 type  1   force =     0.00089137   -0.00051640    0.01361989
     atom    4 type  1   force =    -0.00089173   -0.00051791    0.01361989
     atom    5 type  1   force =     0.00065565   -0.00037543   -0.01006866
     atom    6 type  1   force =    -0.00065492   -0.00037438   -0.01006922
     atom    7 type  1   force =     0.00000074   -0.00000350   -0.01964937
     atom    8 type  1   force =    -0.00000053    0.00075302   -0.01007199
     atom    9 type  1   force =     0.00028338    0.00016800   -0.00020145
     atom   10 type  1   force =    -0.00028159    0.00016479   -0.00020278
     atom   11 type  1   force =    -0.00000191   -0.00032874   -0.00020470
     atom   12 type  1   force =     0.00000136   -0.00000326   -0.00004179
     atom   13 type  2   force =    -0.00000125   -0.00000037   -0.00151979
     atom   14 type  3   force =    -0.00000040   -0.00000011    0.00117512

     Total force =     0.002034     Total SCF correction =     0.000311
     SCF correction compared to forces is large: reduce conv_thr to get better values


     entering subroutine stress ...


     negative rho (up, down):  7.491E-01 0.000E+00
          total   stress  (Ry/bohr**3)                   (kbar)     P=   -3.79
  -0.00001745   0.00000000  -0.00000000         -2.57      0.00     -0.00
   0.00000000  -0.00001745   0.00000000          0.00     -2.57      0.00
  -0.00000000   0.00000000  -0.00004248         -0.00      0.00     -6.25


     bfgs converged in  18 scf cycles and  17 bfgs steps
     (criteria: energy <  1.0E+00, force <  1.9E-03)

     End of BFGS Geometry Optimization

     Final energy   =   -1209.7078282101 Ry
Begin final coordinates

ATOMIC_POSITIONS (crystal)
Zr1      0.166666667   0.166666667   0.396150897    0   0   0
Zr1      0.666666667   0.166666667   0.396150897    0   0   0
Zr1      0.166666667   0.666666667   0.396150897    0   0   0
Zr1      0.666666667   0.666666667   0.396150897    0   0   0
Zr1      0.833333333   0.333333333   0.500000000    0   0   0
Zr1      0.333333333   0.333333333   0.500000000    0   0   0
Zr1      0.833333333   0.833333333   0.500000000    0   0   0
Zr1      0.333333333   0.833333333   0.500000000    0   0   0
Zr1      0.000109966   0.000107365   0.601695063
Zr1      0.499782869   0.000108092   0.601695835
Zr1      0.000109216   0.499783228   0.601695382
Zr1      0.499999716   0.500000661   0.597444731
C1       0.166665571   0.166667511   0.648461775
H1       0.166666387   0.166666078   0.692226132
End final coordinates



     Writing output data file calc.save
 
     init_run     :     14.82s CPU     15.32s WALL (       1 calls)
     electrons    :   6532.31s CPU   7184.75s WALL (      18 calls)
     update_pot   :     62.65s CPU     66.36s WALL (      17 calls)
     forces       :    370.54s CPU    410.97s WALL (      18 calls)
     stress       :   1073.88s CPU   1158.05s WALL (      18 calls)

     Called by init_run:
     wfcinit      :      6.08s CPU      6.16s WALL (       1 calls)
     potinit      :      2.36s CPU      2.50s WALL (       1 calls)

     Called by electrons:
     c_bands      :   2405.06s CPU   2563.88s WALL (     212 calls)
     sum_band     :   1348.99s CPU   1516.50s WALL (     212 calls)
     v_of_rho     :    413.50s CPU    455.05s WALL (     227 calls)
     newd         :   1117.17s CPU   1160.24s WALL (     227 calls)
     mix_rho      :     14.96s CPU     15.52s WALL (     212 calls)
     vdW_energy   :    230.02s CPU    253.26s WALL (     875 calls)
     vdW_ffts     :    573.79s CPU    594.33s WALL (    1786 calls)
     vdW_v        :    237.20s CPU    243.56s WALL (     875 calls)

     Called by c_bands:
     init_us_2    :     15.73s CPU     15.79s WALL (    2305 calls)
     cegterg      :   2137.16s CPU   2202.89s WALL (    1060 calls)

     Called by *egterg:
     h_psi        :   1428.82s CPU   1465.99s WALL (    5909 calls)
     s_psi        :    136.78s CPU    137.12s WALL (    5909 calls)
     g_psi        :      8.86s CPU      8.90s WALL (    4844 calls)
     cdiaghg      :    167.71s CPU    168.96s WALL (    5804 calls)

     Called by h_psi:
     add_vuspsi   :    139.28s CPU    139.69s WALL (    5909 calls)

     General routines
     calbec       :    211.04s CPU    216.45s WALL (    7149 calls)
     fft          :    938.36s CPU   1023.24s WALL (   52865 calls)
     ffts         :      1.09s CPU      1.22s WALL (     439 calls)
     fftw         :    862.28s CPU    904.21s WALL (  559450 calls)
     interpolate  :      9.06s CPU     10.02s WALL (     439 calls)
     davcio       :      0.00s CPU      0.03s WALL (       5 calls)
 
     Parallel routines
     fft_scatter  :   1101.44s CPU   1222.52s WALL (  612754 calls)
 
     PWSCF        :     2h15m CPU        2h29m WALL

 
   This run was terminated on:   9:25: 0  25Apr2018            

=------------------------------------------------------------------------------=
   JOB DONE.
=------------------------------------------------------------------------------=
Job  /afs/slac/g/suncat/bin/suncat-tsmpirun -x LD_LIBRARY_PATH -wdir /scratch/qe366527_tYtsC pw.x -npool 4 -in pw.inp

TID   HOST_NAME   COMMAND_LINE            STATUS            TERMINATION_TIME
===== ========== ================  =======================  ===================
00000 suncat0081 pw.x -npool 4 -i  Done                     04/25/2018 09:25:00
00001 suncat0081 pw.x -npool 4 -i  Done                     04/25/2018 09:25:00
00002 suncat0081 pw.x -npool 4 -i  Done                     04/25/2018 09:25:00
00003 suncat0081 pw.x -npool 4 -i  Done                     04/25/2018 09:25:00
00004 suncat0081 pw.x -npool 4 -i  Done                     04/25/2018 09:25:00
00005 suncat0081 pw.x -npool 4 -i  Done                     04/25/2018 09:25:00
00006 suncat0081 pw.x -npool 4 -i  Done                     04/25/2018 09:25:00
00007 suncat0081 pw.x -npool 4 -i  Done                     04/25/2018 09:25:00
00008 suncat0074 pw.x -npool 4 -i  Done                     04/25/2018 09:25:00
00009 suncat0074 pw.x -npool 4 -i  Done                     04/25/2018 09:25:00
00010 suncat0074 pw.x -npool 4 -i  Done                     04/25/2018 09:25:00
00011 suncat0074 pw.x -npool 4 -i  Done                     04/25/2018 09:25:00
00012 suncat0074 pw.x -npool 4 -i  Done                     04/25/2018 09:25:00
00013 suncat0074 pw.x -npool 4 -i  Done                     04/25/2018 09:25:00
00014 suncat0074 pw.x -npool 4 -i  Done                     04/25/2018 09:25:00
00015 suncat0074 pw.x -npool 4 -i  Done                     04/25/2018 09:25:00
00016 suncat0166 pw.x -npool 4 -i  Done                     04/25/2018 09:25:00
00017 suncat0166 pw.x -npool 4 -i  Done                     04/25/2018 09:25:00
00018 suncat0166 pw.x -npool 4 -i  Done                     04/25/2018 09:25:00
00019 suncat0166 pw.x -npool 4 -i  Done                     04/25/2018 09:25:00
00020 suncat0166 pw.x -npool 4 -i  Done                     04/25/2018 09:25:00
00021 suncat0166 pw.x -npool 4 -i  Done                     04/25/2018 09:25:00
00022 suncat0166 pw.x -npool 4 -i  Done                     04/25/2018 09:25:00
00023 suncat0166 pw.x -npool 4 -i  Done                     04/25/2018 09:25:00
00024 suncat0262 pw.x -npool 4 -i  Done                     04/25/2018 09:25:00
00025 suncat0262 pw.x -npool 4 -i  Done                     04/25/2018 09:25:00
00026 suncat0262 pw.x -npool 4 -i  Done                     04/25/2018 09:25:00
00027 suncat0262 pw.x -npool 4 -i  Done                     04/25/2018 09:25:00
00028 suncat0262 pw.x -npool 4 -i  Done                     04/25/2018 09:25:00
00029 suncat0262 pw.x -npool 4 -i  Done                     04/25/2018 09:25:00
00030 suncat0262 pw.x -npool 4 -i  Done                     04/25/2018 09:25:00
00031 suncat0262 pw.x -npool 4 -i  Done                     04/25/2018 09:25:00
