  python dir          : /u/if/mamunm/src/espresso
  espresso dir        : /nfs/slac/g/suncatfs/sw/espv18/espresso-dynpy-beef/bin
  pseudo dir          : /u/if/mamunm/psp/gbrv1.5pbe
  ase-espresso py git : GITVERSION



     Program PWSCF v.5.1rc2 (svn rev. 11289) starts on  2May2018 at 23:56:39 

     This program is part of the open-source Quantum ESPRESSO suite
     for quantum simulation of materials; please cite
         "P. Giannozzi et al., J. Phys.:Condens. Matter 21 395502 (2009);
          URL http://www.quantum-espresso.org", 
     in publications or presentations arising from this work. More details at
     http://www.quantum-espresso.org/quote

     Parallel version (MPI), running on    32 processors
     K-points division:     npool     =       4
     R & G space division:  proc/nbgrp/npool/nimage =       8
     Reading input from pw.inp
     Message from routine read_cards :
     DEPRECATED: no units specified in CELL_PARAMETERS card

     Current dimensions of program PWSCF are:
     Max number of different atomic species (ntypx) = 10
     Max number of k-points (npk) =  40000
     Max angular momentum in pseudopotentials (lmaxx) =  3
     Presently stress not available with electric field


     **************************************************************************
     Initializing libbeef V0.1.1 with the BEEF-vdW functional.
     Citation: Wellendorff et al., PRB 85, 235149 (2012).
     **************************************************************************


     IMPORTANT: XC functional enforced from input :
     Exchange-correlation      = BEEF-VDW ( 1  4 27 13 2)
     Any further DFT definition will be discarded
     Please, verify this is what you really want


     Subspace diagonalization in iterative solution of the eigenvalue problem:
     a serial algorithm will be used

 
     Parallelization info
     --------------------
     sticks:   dense  smooth     PW     G-vecs:    dense   smooth      PW
     Min         579     230     64               114907    29014    4366
     Max         580     231     66               114920    29056    4372
     Sum        4639    1843    517               919335   232275   34949
 


     bravais-lattice index     =            0
     lattice parameter (alat)  =       1.8897  a.u.
     unit-cell volume          =    7725.1200 (a.u.)^3
     number of atoms/cell      =           13
     number of atomic types    =            2
     number of electrons       =       137.00
     number of Kohn-Sham states=           78
     kinetic-energy cutoff     =      36.7493  Ry
     charge density cutoff     =     367.4932  Ry
     convergence threshold     =      1.0E-05
     mixing beta               =       0.3000
     number of iterations used =           10  plain     mixing
     Exchange-correlation      = BEEF-VDW ( 1  4 27 13 2)
     nstep                     =           50


     celldm(1)=   1.889726  celldm(2)=   0.000000  celldm(3)=   0.000000
     celldm(4)=   0.000000  celldm(5)=   0.000000  celldm(6)=   0.000000

     crystal axes: (cart. coord. in units of alat)
               a(1) = (   7.152277   0.000000   0.000000 )  
               a(2) = (   3.576139   6.194054   0.000000 )  
               a(3) = (   0.000000   0.000000  25.839810 )  

     reciprocal axes: (cart. coord. in units 2 pi/alat)
               b(1) = (  0.139816 -0.080723  0.000000 )  
               b(2) = (  0.000000  0.161445  0.000000 )  
               b(3) = (  0.000000  0.000000  0.038700 )  


     PseudoPot. # 1 for Y  read from file:
     /u/if/mamunm/psp/gbrv1.5pbe/Y.UPF
     MD5 check sum: d034151ed7554c50b6e82763ed42c788
     Pseudo is Ultrasoft + core correction, Zval = 11.0
     Generated by new atomic code, or converted to UPF format
     Using radial grid of  885 points,  6 beta functions with: 
                l(1) =   0
                l(2) =   0
                l(3) =   1
                l(4) =   1
                l(5) =   2
                l(6) =   2
     Q(r) pseudized with  8 coefficients,  rinner =    1.200   1.200   1.200
                                                       1.200   1.200

     PseudoPot. # 2 for N  read from file:
     /u/if/mamunm/psp/gbrv1.5pbe/N.UPF
     MD5 check sum: 95339753478d7afb44899504a8723017
     Pseudo is Ultrasoft + core correction, Zval =  5.0
     Generated by new atomic code, or converted to UPF format
     Using radial grid of  729 points,  4 beta functions with: 
                l(1) =   0
                l(2) =   0
                l(3) =   1
                l(4) =   1
     Q(r) pseudized with  8 coefficients,  rinner =    0.900   0.900   0.900


     vdW kernel table read from file vdW_kernel_table
     MD5 check sum: 095c7af220d748ca6e76c0b4c6cfb241

     atomic species   valence    mass     pseudopotential
        Y1            11.00    88.90584     Y ( 1.00)
        N1             5.00    14.00700     N ( 1.00)

     No symmetry found



   Cartesian axes

     site n.     atom                  positions (alat units)
         1           Y1  tau(   1) = (   1.7880693   1.0323423  10.0000000  )
         2           Y1  tau(   2) = (   5.3642080   1.0323423  10.0000000  )
         3           Y1  tau(   3) = (   3.5761386   4.1293692  10.0000000  )
         4           Y1  tau(   4) = (   7.1522773   4.1293692  10.0000000  )
         5           Y1  tau(   5) = (   7.1522773   2.0646846  12.9199050  )
         6           Y1  tau(   6) = (   3.5761386   2.0646846  12.9199050  )
         7           Y1  tau(   7) = (   8.9403466   5.1617115  12.9199050  )
         8           Y1  tau(   8) = (   5.3642080   5.1617115  12.9199050  )
         9           Y1  tau(   9) = (   0.0000000   0.0000000  15.8398100  )
        10           Y1  tau(  10) = (   3.5761386   0.0000000  15.8398100  )
        11           Y1  tau(  11) = (   1.7880693   3.0970269  15.8398100  )
        12           Y1  tau(  12) = (   5.3642080   3.0970269  15.8398100  )
        13           N1  tau(  13) = (   0.0000000   0.0000000  18.0583100  )

     number of k points=    20  Fermi-Dirac smearing, width (Ry)=  0.0110
                       cart. coord. in units 2pi/alat
        k(    1) = (   0.0000000   0.0000000   0.0000000), wk =   0.0555556
        k(    2) = (   0.0000000   0.0269075   0.0000000), wk =   0.1111111
        k(    3) = (   0.0000000   0.0538151   0.0000000), wk =   0.1111111
        k(    4) = (   0.0000000  -0.0807226   0.0000000), wk =   0.0555556
        k(    5) = (   0.0233026  -0.0134538   0.0000000), wk =   0.1111111
        k(    6) = (   0.0233026   0.0134538   0.0000000), wk =   0.1111111
        k(    7) = (   0.0233026   0.0403613   0.0000000), wk =   0.1111111
        k(    8) = (   0.0233026  -0.0941763   0.0000000), wk =   0.1111111
        k(    9) = (   0.0233026  -0.0672688   0.0000000), wk =   0.1111111
        k(   10) = (   0.0233026  -0.0403613   0.0000000), wk =   0.1111111
        k(   11) = (   0.0466052  -0.0269075   0.0000000), wk =   0.1111111
        k(   12) = (   0.0466052   0.0000000   0.0000000), wk =   0.1111111
        k(   13) = (   0.0466052   0.0269075   0.0000000), wk =   0.1111111
        k(   14) = (   0.0466052  -0.1076301   0.0000000), wk =   0.1111111
        k(   15) = (   0.0466052  -0.0807226   0.0000000), wk =   0.1111111
        k(   16) = (   0.0466052  -0.0538151   0.0000000), wk =   0.1111111
        k(   17) = (  -0.0699078   0.0403613   0.0000000), wk =   0.0555556
        k(   18) = (  -0.0699078   0.0672688   0.0000000), wk =   0.1111111
        k(   19) = (  -0.0699078   0.0941763   0.0000000), wk =   0.1111111
        k(   20) = (  -0.0699078  -0.0403613   0.0000000), wk =   0.0555556

     Dense  grid:   919335 G-vectors     FFT dimensions: (  90,  90, 300)

     Smooth grid:   232275 G-vectors     FFT dimensions: (  54,  54, 192)

     Largest allocated arrays     est. size (Mb)     dimensions
        Kohn-Sham Wavefunctions         4.38 Mb     (    3683,   78)
        NL pseudopotentials            12.59 Mb     (    3683,  224)
        Each V/rho on FFT grid          4.70 Mb     (  307800)
        Each G-vector array             0.88 Mb     (  114920)
        G-vector shells                 0.22 Mb     (   29028)
     Largest temporary arrays     est. size (Mb)     dimensions
        Auxiliary wavefunctions        17.53 Mb     (    3683,  312)
        Each subspace H/S matrix        1.49 Mb     (     312,  312)
        Each <psi_i|beta_j> matrix      0.27 Mb     (     224,   78)
        Arrays for rho mixing          46.97 Mb     (  307800,   10)

     Initial potential from superposition of free atoms
     Check: negative starting charge=   -0.000563

     starting charge  136.94636, renormalised to  137.00000

     negative rho (up, down):  5.627E-04 0.000E+00


     ************************************************************************
     *
     * You are using vdW-DF for exchange-correlation in this calculation.
     * Please cite the following three references that made this development
     * possible:
     *
     *   M. Dion, H. Rydberg, E. Schroder, D. C. Langreth, and
     *   B. I. Lundqvist, Phys. Rev. Lett. 92, 246401 (2004).
     *
     *   T. Thonhauser, V. R. Cooper, S. Li, A. Puzder, P. Hyldgaard, and
     *   D. C. Langreth, Phys. Rev. B 76, 125112 (2007).
     *
     *   G. Roman-Perez and J. M. Soler, Phys. Rev. Lett. 103, 096102 (2009).
     *
     *
     * If you are using vdW-DF2, please also cite:
     *
     *   K. Lee, E. D. Murray, L. Kong, B. I. Lundqvist, and
     *   D. C. Langreth, Phys. Rev. B 82, 081101(R) (2010).
     *
     *
     * If you are calculating the stress with vdW-DF, please also cite:
     *
     *   R. Sabatini, E. Kucukbenli, B. Kolb, T. Thonhauser, and
     *   S. de Gironcoli, J. Phys.: Condens. Matter 24, 424209 (2012).
     *
     ************************************************************************

     Carrying out vdW-DF run using the following parameters:

     Nqs =      20    Nr_points =    1024   r_max =   100.000
     q_mesh =
               0.00001000     0.04494208     0.09755937     0.15916263
               0.23128650     0.31572767     0.41458969     0.53033537
               0.66584808     0.82450364     1.01025438     1.22772762
               1.48234092     1.78043706     2.12944203     2.53805004
               3.01644009     3.57652955     4.23227104     5.00000000

     Gradients computed in reciprocal space

     ************************************************************************


 
     Adding external electric field

     Computed dipole along edir(3) : 
        Dipole               -0.0189 Ry au,         -0.0481 Debye
        Dipole field         -0.0000 Ry au
 
        Potential amp.        0.0029 Ry
        Total length         47.6094 bohr
 
     Starting wfc are  160 randomized atomic wfcs

     total cpu time spent up to now is       19.9 secs

     per-process dynamical memory:   116.3 Mb

     Self-consistent Calculation

     iteration #  1     ecut=    36.75 Ry     beta=0.30
     Davidson diagonalization with overlap
     ethr =  1.00E-02,  avg # of iterations =  2.0

     negative rho (up, down):  4.477E-04 0.000E+00
 
     Adding external electric field

     Computed dipole along edir(3) : 
        Dipole               -7.7225 Ry au,        -19.6285 Debye
        Dipole field         -0.0126 Ry au
 
        Potential amp.        1.1961 Ry
        Total length         47.6094 bohr
 

     total cpu time spent up to now is       45.6 secs

     total energy              =   -1141.70984181 Ry
     Harris-Foulkes estimate   =   -1144.99625819 Ry
     estimated scf accuracy    <       7.15722779 Ry

     iteration #  2     ecut=    36.75 Ry     beta=0.30
     Davidson diagonalization with overlap
     ethr =  5.22E-03,  avg # of iterations =  9.7

     negative rho (up, down):  2.455E-04 0.000E+00
 
     Adding external electric field

     Computed dipole along edir(3) : 
        Dipole                1.0103 Ry au,          2.5678 Debye
        Dipole field          0.0016 Ry au
 
        Potential amp.       -0.1565 Ry
        Total length         47.6094 bohr
 

     total cpu time spent up to now is       83.1 secs

     total energy              =   -1133.03479922 Ry
     Harris-Foulkes estimate   =   -1159.77140757 Ry
     estimated scf accuracy    <     534.56234639 Ry

     iteration #  3     ecut=    36.75 Ry     beta=0.30
     Davidson diagonalization with overlap
     ethr =  5.22E-03,  avg # of iterations = 10.2

     negative rho (up, down):  2.591E-04 0.000E+00
 
     Adding external electric field

     Computed dipole along edir(3) : 
        Dipole                0.0471 Ry au,          0.1197 Debye
        Dipole field          0.0001 Ry au
 
        Potential amp.       -0.0073 Ry
        Total length         47.6094 bohr
 

     total cpu time spent up to now is      122.4 secs

     total energy              =   -1141.81697235 Ry
     Harris-Foulkes estimate   =   -1146.57159921 Ry
     estimated scf accuracy    <     104.56550439 Ry

     iteration #  4     ecut=    36.75 Ry     beta=0.30
     Davidson diagonalization with overlap
     ethr =  5.22E-03,  avg # of iterations =  5.8

     negative rho (up, down):  2.696E-04 0.000E+00
 
     Adding external electric field

     Computed dipole along edir(3) : 
        Dipole                0.1258 Ry au,          0.3196 Debye
        Dipole field          0.0002 Ry au
 
        Potential amp.       -0.0195 Ry
        Total length         47.6094 bohr
 

     total cpu time spent up to now is      151.9 secs

     total energy              =   -1144.33210059 Ry
     Harris-Foulkes estimate   =   -1144.50344117 Ry
     estimated scf accuracy    <       2.15531648 Ry

     iteration #  5     ecut=    36.75 Ry     beta=0.30
     Davidson diagonalization with overlap
     ethr =  1.57E-03,  avg # of iterations =  6.3

     negative rho (up, down):  2.947E-04 0.000E+00
 
     Adding external electric field

     Computed dipole along edir(3) : 
        Dipole               -0.1201 Ry au,         -0.3052 Debye
        Dipole field         -0.0002 Ry au
 
        Potential amp.        0.0186 Ry
        Total length         47.6094 bohr
 

     total cpu time spent up to now is      180.0 secs

     total energy              =   -1144.43486857 Ry
     Harris-Foulkes estimate   =   -1144.50566789 Ry
     estimated scf accuracy    <       0.97948080 Ry

     iteration #  6     ecut=    36.75 Ry     beta=0.30
     Davidson diagonalization with overlap
     ethr =  7.15E-04,  avg # of iterations =  6.7

     negative rho (up, down):  3.031E-04 0.000E+00
 
     Adding external electric field

     Computed dipole along edir(3) : 
        Dipole               -0.6314 Ry au,         -1.6049 Debye
        Dipole field         -0.0010 Ry au
 
        Potential amp.        0.0978 Ry
        Total length         47.6094 bohr
 

     total cpu time spent up to now is      208.7 secs

     total energy              =   -1144.34511525 Ry
     Harris-Foulkes estimate   =   -1144.46112853 Ry
     estimated scf accuracy    <       0.65719740 Ry

     iteration #  7     ecut=    36.75 Ry     beta=0.30
     Davidson diagonalization with overlap
     ethr =  4.80E-04,  avg # of iterations =  8.9

     negative rho (up, down):  2.859E-04 0.000E+00
 
     Adding external electric field

     Computed dipole along edir(3) : 
        Dipole               -0.5674 Ry au,         -1.4422 Debye
        Dipole field         -0.0009 Ry au
 
        Potential amp.        0.0879 Ry
        Total length         47.6094 bohr
 

     total cpu time spent up to now is      238.9 secs

     total energy              =   -1144.37883476 Ry
     Harris-Foulkes estimate   =   -1144.46733286 Ry
     estimated scf accuracy    <       4.19448296 Ry

     iteration #  8     ecut=    36.75 Ry     beta=0.30
     Davidson diagonalization with overlap
     ethr =  4.80E-04,  avg # of iterations =  4.2

     negative rho (up, down):  3.022E-04 0.000E+00
 
     Adding external electric field

     Computed dipole along edir(3) : 
        Dipole               -0.5675 Ry au,         -1.4425 Debye
        Dipole field         -0.0009 Ry au
 
        Potential amp.        0.0879 Ry
        Total length         47.6094 bohr
 

     total cpu time spent up to now is      266.6 secs

     total energy              =   -1144.40212281 Ry
     Harris-Foulkes estimate   =   -1144.41584441 Ry
     estimated scf accuracy    <       0.30166297 Ry

     iteration #  9     ecut=    36.75 Ry     beta=0.30
     Davidson diagonalization with overlap
     ethr =  2.20E-04,  avg # of iterations =  4.8

     negative rho (up, down):  3.237E-04 0.000E+00
 
     Adding external electric field

     Computed dipole along edir(3) : 
        Dipole               -0.6493 Ry au,         -1.6505 Debye
        Dipole field         -0.0011 Ry au
 
        Potential amp.        0.1006 Ry
        Total length         47.6094 bohr
 

     total cpu time spent up to now is      294.2 secs

     total energy              =   -1144.41276649 Ry
     Harris-Foulkes estimate   =   -1144.41576741 Ry
     estimated scf accuracy    <       0.03434254 Ry

     iteration # 10     ecut=    36.75 Ry     beta=0.30
     Davidson diagonalization with overlap
     ethr =  2.51E-05,  avg # of iterations = 10.6

     negative rho (up, down):  3.576E-04 0.000E+00
 
     Adding external electric field

     Computed dipole along edir(3) : 
        Dipole               -0.7806 Ry au,         -1.9842 Debye
        Dipole field         -0.0013 Ry au
 
        Potential amp.        0.1209 Ry
        Total length         47.6094 bohr
 

     total cpu time spent up to now is      328.6 secs

     total energy              =   -1144.41636661 Ry
     Harris-Foulkes estimate   =   -1144.41756999 Ry
     estimated scf accuracy    <       0.01313834 Ry

     iteration # 11     ecut=    36.75 Ry     beta=0.30
     Davidson diagonalization with overlap
     ethr =  9.59E-06,  avg # of iterations =  4.7

     negative rho (up, down):  3.859E-04 0.000E+00
 
     Adding external electric field

     Computed dipole along edir(3) : 
        Dipole               -0.8752 Ry au,         -2.2246 Debye
        Dipole field         -0.0014 Ry au
 
        Potential amp.        0.1356 Ry
        Total length         47.6094 bohr
 

     total cpu time spent up to now is      357.7 secs

     total energy              =   -1144.41531343 Ry
     Harris-Foulkes estimate   =   -1144.41770205 Ry
     estimated scf accuracy    <       0.01182746 Ry

     iteration # 12     ecut=    36.75 Ry     beta=0.30
     Davidson diagonalization with overlap
     ethr =  8.63E-06,  avg # of iterations =  5.0

     negative rho (up, down):  4.009E-04 0.000E+00
 
     Adding external electric field

     Computed dipole along edir(3) : 
        Dipole               -0.8677 Ry au,         -2.2054 Debye
        Dipole field         -0.0014 Ry au
 
        Potential amp.        0.1344 Ry
        Total length         47.6094 bohr
 

     total cpu time spent up to now is      387.2 secs

     total energy              =   -1144.41766953 Ry
     Harris-Foulkes estimate   =   -1144.41809573 Ry
     estimated scf accuracy    <       0.01508675 Ry

     iteration # 13     ecut=    36.75 Ry     beta=0.30
     Davidson diagonalization with overlap
     ethr =  8.63E-06,  avg # of iterations =  1.0

     negative rho (up, down):  4.240E-04 0.000E+00
 
     Adding external electric field

     Computed dipole along edir(3) : 
        Dipole               -0.8608 Ry au,         -2.1879 Debye
        Dipole field         -0.0014 Ry au
 
        Potential amp.        0.1333 Ry
        Total length         47.6094 bohr
 

     total cpu time spent up to now is      412.7 secs

     total energy              =   -1144.41709425 Ry
     Harris-Foulkes estimate   =   -1144.41783890 Ry
     estimated scf accuracy    <       0.01190235 Ry

     iteration # 14     ecut=    36.75 Ry     beta=0.30
     Davidson diagonalization with overlap
     ethr =  8.63E-06,  avg # of iterations =  3.2

     negative rho (up, down):  4.547E-04 0.000E+00
 
     Adding external electric field

     Computed dipole along edir(3) : 
        Dipole               -0.8687 Ry au,         -2.2080 Debye
        Dipole field         -0.0014 Ry au
 
        Potential amp.        0.1346 Ry
        Total length         47.6094 bohr
 

     total cpu time spent up to now is      439.2 secs

     total energy              =   -1144.41758339 Ry
     Harris-Foulkes estimate   =   -1144.41753937 Ry
     estimated scf accuracy    <       0.00035808 Ry

     iteration # 15     ecut=    36.75 Ry     beta=0.30
     Davidson diagonalization with overlap
     ethr =  2.61E-07,  avg # of iterations =  8.7

     negative rho (up, down):  4.566E-04 0.000E+00
 
     Adding external electric field

     Computed dipole along edir(3) : 
        Dipole               -0.8695 Ry au,         -2.2101 Debye
        Dipole field         -0.0014 Ry au
 
        Potential amp.        0.1347 Ry
        Total length         47.6094 bohr
 

     total cpu time spent up to now is      475.4 secs

     total energy              =   -1144.41765766 Ry
     Harris-Foulkes estimate   =   -1144.41769835 Ry
     estimated scf accuracy    <       0.00096860 Ry

     iteration # 16     ecut=    36.75 Ry     beta=0.30
     Davidson diagonalization with overlap
     ethr =  2.61E-07,  avg # of iterations =  1.0

     negative rho (up, down):  4.551E-04 0.000E+00
 
     Adding external electric field

     Computed dipole along edir(3) : 
        Dipole               -0.8734 Ry au,         -2.2201 Debye
        Dipole field         -0.0014 Ry au
 
        Potential amp.        0.1353 Ry
        Total length         47.6094 bohr
 

     total cpu time spent up to now is      501.6 secs

     total energy              =   -1144.41760988 Ry
     Harris-Foulkes estimate   =   -1144.41765633 Ry
     estimated scf accuracy    <       0.00073726 Ry

     iteration # 17     ecut=    36.75 Ry     beta=0.30
     Davidson diagonalization with overlap
     ethr =  2.61E-07,  avg # of iterations =  5.6

     negative rho (up, down):  4.764E-04 0.000E+00
 
     Adding external electric field

     Computed dipole along edir(3) : 
        Dipole               -0.8788 Ry au,         -2.2337 Debye
        Dipole field         -0.0014 Ry au
 
        Potential amp.        0.1361 Ry
        Total length         47.6094 bohr
 

     total cpu time spent up to now is      530.9 secs

     total energy              =   -1144.41763781 Ry
     Harris-Foulkes estimate   =   -1144.41762316 Ry
     estimated scf accuracy    <       0.00009303 Ry

     iteration # 18     ecut=    36.75 Ry     beta=0.30
     Davidson diagonalization with overlap
     ethr =  6.79E-08,  avg # of iterations =  7.3

     negative rho (up, down):  4.795E-04 0.000E+00
 
     Adding external electric field

     Computed dipole along edir(3) : 
        Dipole               -0.8809 Ry au,         -2.2390 Debye
        Dipole field         -0.0014 Ry au
 
        Potential amp.        0.1364 Ry
        Total length         47.6094 bohr
 

     total cpu time spent up to now is      561.5 secs

     total energy              =   -1144.41764587 Ry
     Harris-Foulkes estimate   =   -1144.41763901 Ry
     estimated scf accuracy    <       0.00001809 Ry

     iteration # 19     ecut=    36.75 Ry     beta=0.30
     Davidson diagonalization with overlap
     ethr =  1.32E-08,  avg # of iterations =  7.4

     negative rho (up, down):  4.836E-04 0.000E+00

     negative rho (up, down):  4.836E-04 0.000E+00

     negative rho (up, down):  4.836E-04 0.000E+00

     negative rho (up, down):  4.836E-04 0.000E+00

     negative rho (up, down):  4.836E-04 0.000E+00

     negative rho (up, down):  4.836E-04 0.000E+00

     negative rho (up, down):  4.836E-04 0.000E+00

     negative rho (up, down):  4.836E-04 0.000E+00

     negative rho (up, down):  4.836E-04 0.000E+00

     negative rho (up, down):  4.836E-04 0.000E+00

     negative rho (up, down):  4.836E-04 0.000E+00

     negative rho (up, down):  4.836E-04 0.000E+00

     negative rho (up, down):  4.836E-04 0.000E+00

     negative rho (up, down):  4.836E-04 0.000E+00

     negative rho (up, down):  4.836E-04 0.000E+00

     negative rho (up, down):  4.836E-04 0.000E+00

     negative rho (up, down):  4.836E-04 0.000E+00

     negative rho (up, down):  4.836E-04 0.000E+00

     negative rho (up, down):  4.836E-04 0.000E+00

     negative rho (up, down):  4.836E-04 0.000E+00

     negative rho (up, down):  4.836E-04 0.000E+00

     negative rho (up, down):  4.836E-04 0.000E+00

     negative rho (up, down):  4.836E-04 0.000E+00

     negative rho (up, down):  4.836E-04 0.000E+00

     negative rho (up, down):  4.836E-04 0.000E+00

     negative rho (up, down):  4.836E-04 0.000E+00

     negative rho (up, down):  4.836E-04 0.000E+00

     negative rho (up, down):  4.836E-04 0.000E+00

     negative rho (up, down):  4.836E-04 0.000E+00

     negative rho (up, down):  4.836E-04 0.000E+00

     negative rho (up, down):  4.836E-04 0.000E+00

     negative rho (up, down):  4.836E-04 0.000E+00

     negative rho (up, down):  4.836E-04 0.000E+00

     negative rho (up, down):  4.836E-04 0.000E+00

     negative rho (up, down):  4.836E-04 0.000E+00
 
     Adding external electric field

     Computed dipole along edir(3) : 
        Dipole               -0.8725 Ry au,         -2.2177 Debye
        Dipole field         -0.0014 Ry au
 
        Potential amp.        0.1351 Ry
        Total length         47.6094 bohr
 

     total cpu time spent up to now is      678.1 secs

     End of self-consistent calculation

          k = 0.0000 0.0000 0.0000 ( 28997 PWs)   bands (ev):

   -43.1027 -43.0708 -43.0706 -42.9747 -42.9354 -42.9350 -42.9208 -42.4441
   -42.4066 -42.4066 -42.3761 -41.6779 -23.1750 -23.1501 -23.0970 -23.0970
   -23.0931 -23.0930 -23.0795 -23.0748 -23.0746 -23.0039 -22.9384 -22.9380
   -22.9223 -22.8852 -22.7982 -22.7981 -22.7586 -22.7519 -22.7517 -22.6548
   -22.6548 -22.5890 -22.5525 -22.5525 -22.3692 -22.3368 -22.3368 -22.3090
   -22.2606 -22.2595 -22.2595 -22.1580 -22.1580 -21.7402 -21.7402 -21.5456
   -10.7305  -3.8849  -2.9248  -1.9054  -1.2361  -1.2300  -1.2300  -1.1157
    -1.1102  -1.1102  -0.8121  -0.7725  -0.7725  -0.3700  -0.3700  -0.3693
    -0.2099  -0.2098   0.0543   0.1587   0.3807   0.3807   0.5623   0.9832
     1.0409   1.0828   1.0828   1.2891   1.4630   1.5402

          k = 0.0000 0.0269 0.0000 ( 29019 PWs)   bands (ev):

   -43.1008 -43.0725 -43.0707 -42.9719 -42.9370 -42.9354 -42.9216 -42.4415
   -42.4086 -42.4066 -42.3768 -41.6780 -23.1567 -23.1462 -23.0978 -23.0947
   -23.0848 -23.0799 -23.0633 -23.0593 -23.0499 -22.9994 -22.9410 -22.9381
   -22.9223 -22.8947 -22.8217 -22.8023 -22.7738 -22.7684 -22.7472 -22.6848
   -22.6615 -22.5722 -22.5382 -22.5317 -22.3663 -22.3390 -22.3366 -22.3086
   -22.2763 -22.2751 -22.2537 -22.1862 -22.1645 -21.7470 -21.7423 -21.5454
   -10.7303  -3.7360  -2.7794  -1.7579  -1.4569  -1.1869  -1.1810  -1.1467
    -1.0229  -1.0157  -0.6926  -0.6433  -0.6410  -0.3227  -0.3065  -0.2940
    -0.1592  -0.1557   0.0922   0.1839   0.3771   0.3967   0.5759   0.9001
     0.9263   1.0040   1.0198   1.1759   1.3782   1.4347

          k = 0.0000 0.0538 0.0000 ( 29058 PWs)   bands (ev):

   -43.0959 -43.0774 -43.0707 -42.9645 -42.9434 -42.9354 -42.9227 -42.4346
   -42.4144 -42.4066 -42.3781 -41.6781 -23.1365 -23.1205 -23.1043 -23.0932
   -23.0499 -23.0407 -23.0267 -23.0215 -22.9873 -22.9772 -22.9500 -22.9386
   -22.9244 -22.9219 -22.8847 -22.8147 -22.8087 -22.8084 -22.7648 -22.7296
   -22.6797 -22.5346 -22.5019 -22.4693 -22.3599 -22.3460 -22.3388 -22.3135
   -22.3117 -22.3079 -22.2600 -22.2375 -22.1813 -21.7607 -21.7464 -21.5450
   -10.7299  -3.3136  -2.3783  -2.0085  -1.4000  -1.2941  -1.0811  -1.0725
    -0.7803  -0.7682  -0.6048  -0.4073  -0.2887  -0.2377  -0.1154  -0.0992
     0.0197   0.0277   0.1680   0.2621   0.4365   0.4400   0.5172   0.7314
     0.7457   0.7567   0.8346   0.8774   1.1207   1.1523

          k = 0.0000-0.0807 0.0000 ( 29048 PWs)   bands (ev):

   -43.0920 -43.0813 -43.0707 -42.9568 -42.9506 -42.9354 -42.9231 -42.4281
   -42.4203 -42.4066 -42.3787 -41.6781 -23.1288 -23.1115 -23.1053 -23.0926
   -23.0047 -23.0024 -22.9950 -22.9933 -22.9705 -22.9683 -22.9624 -22.9498
   -22.9349 -22.9212 -22.8753 -22.8684 -22.8424 -22.8336 -22.8109 -22.7078
   -22.7017 -22.5112 -22.4755 -22.3906 -22.3745 -22.3524 -22.3506 -22.3400
   -22.3279 -22.3202 -22.3074 -22.2234 -22.1958 -21.7677 -21.7484 -21.5448
   -10.7296  -2.7094  -2.6774  -1.8802  -1.7677  -1.0251  -1.0101  -0.9249
    -0.7522  -0.6060  -0.5884  -0.3569  -0.1968  -0.1108   0.1106   0.1422
     0.1684   0.1937   0.2634   0.2963   0.4195   0.4285   0.4986   0.5600
     0.5763   0.6770   0.6882   0.8732   0.8773   0.8845

          k = 0.0233-0.0135 0.0000 ( 29019 PWs)   bands (ev):

   -43.1008 -43.0727 -43.0706 -42.9719 -42.9373 -42.9351 -42.9216 -42.4415
   -42.4086 -42.4066 -42.3768 -41.6780 -23.1567 -23.1461 -23.0979 -23.0945
   -23.0847 -23.0800 -23.0632 -23.0595 -23.0499 -22.9994 -22.9412 -22.9378
   -22.9224 -22.8947 -22.8218 -22.8022 -22.7737 -22.7685 -22.7471 -22.6848
   -22.6615 -22.5722 -22.5382 -22.5318 -22.3663 -22.3390 -22.3367 -22.3086
   -22.2763 -22.2750 -22.2537 -22.1862 -22.1645 -21.7470 -21.7423 -21.5454
   -10.7303  -3.7360  -2.7794  -1.7579  -1.4569  -1.1869  -1.1811  -1.1467
    -1.0229  -1.0157  -0.6926  -0.6433  -0.6410  -0.3227  -0.3065  -0.2940
    -0.1592  -0.1557   0.0922   0.1840   0.3771   0.3966   0.5759   0.9001
     0.9262   1.0040   1.0198   1.1759   1.3782   1.4347

          k = 0.0233 0.0135 0.0000 ( 29019 PWs)   bands (ev):

   -43.1008 -43.0725 -43.0707 -42.9719 -42.9374 -42.9350 -42.9216 -42.4415
   -42.4086 -42.4066 -42.3768 -41.6780 -23.1567 -23.1462 -23.0978 -23.0946
   -23.0848 -23.0799 -23.0632 -23.0595 -23.0499 -22.9994 -22.9413 -22.9378
   -22.9224 -22.8947 -22.8217 -22.8023 -22.7736 -22.7686 -22.7471 -22.6848
   -22.6615 -22.5722 -22.5382 -22.5318 -22.3663 -22.3390 -22.3366 -22.3086
   -22.2763 -22.2750 -22.2537 -22.1862 -22.1645 -21.7470 -21.7423 -21.5454
   -10.7303  -3.7360  -2.7794  -1.7579  -1.4569  -1.1869  -1.1810  -1.1467
    -1.0229  -1.0158  -0.6926  -0.6433  -0.6410  -0.3227  -0.3065  -0.2940
    -0.1592  -0.1557   0.0922   0.1840   0.3771   0.3966   0.5759   0.9001
     0.9262   1.0040   1.0198   1.1759   1.3784   1.4347

          k = 0.0233 0.0404 0.0000 ( 29087 PWs)   bands (ev):

   -43.0973 -43.0759 -43.0708 -42.9668 -42.9405 -42.9364 -42.9223 -42.4367
   -42.4120 -42.4071 -42.3777 -41.6781 -23.1393 -23.1261 -23.1020 -23.0937
   -23.0715 -23.0482 -23.0407 -23.0138 -23.0136 -22.9910 -22.9459 -22.9400
   -22.9223 -22.9172 -22.8572 -22.8231 -22.8123 -22.7582 -22.7547 -22.7380
   -22.6756 -22.5448 -22.5050 -22.4970 -22.3617 -22.3456 -22.3367 -22.3214
   -22.3080 -22.2640 -22.2628 -22.2338 -22.1781 -21.7561 -21.7465 -21.5451
   -10.7300  -3.4496  -2.5040  -1.6156  -1.6039  -1.4682  -1.1156  -1.0984
    -0.8286  -0.7419  -0.5437  -0.5184  -0.3912  -0.2394  -0.2247  -0.1580
    -0.0413  -0.0305   0.1565   0.2345   0.3968   0.4411   0.5561   0.7616
     0.7739   0.8437   0.9436   0.9794   1.1296   1.2388

          k = 0.0233-0.0942 0.0000 ( 29098 PWs)   bands (ev):

   -43.0920 -43.0812 -43.0708 -42.9584 -42.9472 -42.9381 -42.9224 -42.4291
   -42.4182 -42.4079 -42.3785 -41.6781 -23.1289 -23.1109 -23.0932 -23.0914
   -23.0390 -23.0037 -22.9907 -22.9794 -22.9750 -22.9695 -22.9580 -22.9416
   -22.9274 -22.9187 -22.9091 -22.8823 -22.8275 -22.8222 -22.7799 -22.7311
   -22.7011 -22.5064 -22.4632 -22.4289 -22.3860 -22.3542 -22.3447 -22.3367
   -22.3230 -22.3074 -22.2798 -22.2383 -22.2008 -21.7644 -21.7517 -21.5448
   -10.7296  -2.9226  -2.2555  -2.0142  -1.6545  -1.4642  -1.0339  -0.9615
    -0.5792  -0.5321  -0.4076  -0.3478  -0.1886  -0.1408  -0.0469   0.0188
     0.1658   0.1885   0.2164   0.3823   0.4124   0.4780   0.5133   0.5714
     0.6667   0.6930   0.7418   0.7982   0.8829   0.9347

          k = 0.0233-0.0673 0.0000 ( 29098 PWs)   bands (ev):

   -43.0919 -43.0813 -43.0707 -42.9584 -42.9471 -42.9382 -42.9224 -42.4291
   -42.4182 -42.4079 -42.3785 -41.6781 -23.1289 -23.1110 -23.0932 -23.0914
   -23.0389 -23.0038 -22.9908 -22.9794 -22.9750 -22.9697 -22.9580 -22.9416
   -22.9274 -22.9187 -22.9091 -22.8822 -22.8275 -22.8222 -22.7799 -22.7311
   -22.7011 -22.5064 -22.4632 -22.4289 -22.3859 -22.3542 -22.3447 -22.3366
   -22.3230 -22.3074 -22.2798 -22.2383 -22.2008 -21.7644 -21.7517 -21.5448
   -10.7296  -2.9226  -2.2555  -2.0142  -1.6546  -1.4642  -1.0339  -0.9615
    -0.5792  -0.5321  -0.4076  -0.3478  -0.1886  -0.1408  -0.0469   0.0188
     0.1658   0.1885   0.2164   0.3823   0.4124   0.4780   0.5133   0.5714
     0.6667   0.6930   0.7418   0.7982   0.8829   0.9347

          k = 0.0233-0.0404 0.0000 ( 29087 PWs)   bands (ev):

   -43.0973 -43.0760 -43.0707 -42.9668 -42.9404 -42.9365 -42.9223 -42.4367
   -42.4120 -42.4071 -42.3777 -41.6781 -23.1393 -23.1260 -23.1022 -23.0936
   -23.0715 -23.0483 -23.0407 -23.0137 -23.0136 -22.9910 -22.9458 -22.9401
   -22.9223 -22.9172 -22.8573 -22.8231 -22.8122 -22.7581 -22.7547 -22.7380
   -22.6756 -22.5448 -22.5050 -22.4970 -22.3617 -22.3456 -22.3367 -22.3213
   -22.3080 -22.2640 -22.2628 -22.2338 -22.1781 -21.7561 -21.7466 -21.5451
   -10.7300  -3.4496  -2.5040  -1.6156  -1.6039  -1.4682  -1.1156  -1.0984
    -0.8286  -0.7419  -0.5437  -0.5185  -0.3912  -0.2394  -0.2247  -0.1580
    -0.0413  -0.0305   0.1565   0.2345   0.3968   0.4411   0.5561   0.7616
     0.7740   0.8437   0.9436   0.9794   1.1296   1.2388

          k = 0.0466-0.0269 0.0000 ( 29058 PWs)   bands (ev):

   -43.0958 -43.0776 -43.0706 -42.9644 -42.9436 -42.9351 -42.9228 -42.4346
   -42.4143 -42.4066 -42.3781 -41.6781 -23.1364 -23.1204 -23.1045 -23.0931
   -23.0498 -23.0409 -23.0265 -23.0217 -22.9872 -22.9772 -22.9502 -22.9384
   -22.9243 -22.9220 -22.8848 -22.8145 -22.8086 -22.8085 -22.7648 -22.7295
   -22.6797 -22.5346 -22.5019 -22.4693 -22.3599 -22.3460 -22.3389 -22.3135
   -22.3116 -22.3078 -22.2600 -22.2376 -22.1813 -21.7607 -21.7464 -21.5450
   -10.7299  -3.3136  -2.3783  -2.0085  -1.4000  -1.2941  -1.0811  -1.0726
    -0.7803  -0.7681  -0.6048  -0.4073  -0.2887  -0.2377  -0.1154  -0.0992
     0.0197   0.0277   0.1680   0.2622   0.4364   0.4400   0.5172   0.7314
     0.7457   0.7567   0.8346   0.8773   1.1207   1.1522

          k = 0.0466 0.0000 0.0000 ( 29087 PWs)   bands (ev):

   -43.0973 -43.0761 -43.0706 -42.9668 -42.9408 -42.9361 -42.9223 -42.4367
   -42.4120 -42.4072 -42.3777 -41.6781 -23.1393 -23.1260 -23.1022 -23.0936
   -23.0714 -23.0483 -23.0407 -23.0138 -23.0135 -22.9910 -22.9461 -22.9397
   -22.9223 -22.9173 -22.8573 -22.8232 -22.8122 -22.7582 -22.7546 -22.7380
   -22.6756 -22.5448 -22.5050 -22.4970 -22.3617 -22.3456 -22.3368 -22.3213
   -22.3080 -22.2640 -22.2628 -22.2338 -22.1781 -21.7561 -21.7465 -21.5451
   -10.7300  -3.4496  -2.5040  -1.6156  -1.6039  -1.4682  -1.1156  -1.0984
    -0.8286  -0.7419  -0.5437  -0.5185  -0.3912  -0.2394  -0.2247  -0.1580
    -0.0413  -0.0305   0.1565   0.2345   0.3969   0.4411   0.5561   0.7616
     0.7740   0.8436   0.9436   0.9794   1.1295   1.2388

          k = 0.0466 0.0269 0.0000 ( 29058 PWs)   bands (ev):

   -43.0959 -43.0774 -43.0707 -42.9644 -42.9437 -42.9350 -42.9228 -42.4346
   -42.4143 -42.4066 -42.3781 -41.6781 -23.1364 -23.1205 -23.1043 -23.0932
   -23.0498 -23.0408 -23.0265 -23.0218 -22.9872 -22.9772 -22.9502 -22.9383
   -22.9243 -22.9220 -22.8847 -22.8144 -22.8087 -22.8086 -22.7648 -22.7295
   -22.6797 -22.5346 -22.5019 -22.4693 -22.3599 -22.3460 -22.3388 -22.3135
   -22.3117 -22.3079 -22.2600 -22.2375 -22.1813 -21.7607 -21.7464 -21.5450
   -10.7299  -3.3136  -2.3783  -2.0085  -1.4000  -1.2941  -1.0811  -1.0725
    -0.7803  -0.7682  -0.6048  -0.4073  -0.2887  -0.2377  -0.1154  -0.0992
     0.0197   0.0277   0.1680   0.2621   0.4364   0.4400   0.5172   0.7314
     0.7457   0.7567   0.8346   0.8773   1.1207   1.1523

          k = 0.0466-0.1076 0.0000 ( 29098 PWs)   bands (ev):

   -43.0920 -43.0812 -43.0708 -42.9583 -42.9474 -42.9379 -42.9224 -42.4291
   -42.4181 -42.4080 -42.3785 -41.6781 -23.1289 -23.1109 -23.0932 -23.0914
   -23.0391 -23.0037 -22.9907 -22.9794 -22.9750 -22.9695 -22.9582 -22.9414
   -22.9275 -22.9188 -22.9092 -22.8822 -22.8276 -22.8222 -22.7799 -22.7310
   -22.7011 -22.5064 -22.4632 -22.4288 -22.3860 -22.3542 -22.3447 -22.3367
   -22.3230 -22.3074 -22.2798 -22.2384 -22.2008 -21.7644 -21.7517 -21.5448
   -10.7296  -2.9226  -2.2555  -2.0142  -1.6545  -1.4642  -1.0339  -0.9615
    -0.5792  -0.5321  -0.4076  -0.3478  -0.1886  -0.1408  -0.0469   0.0188
     0.1658   0.1885   0.2164   0.3823   0.4124   0.4780   0.5133   0.5714
     0.6667   0.6930   0.7418   0.7982   0.8829   0.9347

          k = 0.0466-0.0807 0.0000 ( 29103 PWs)   bands (ev):

   -43.0867 -43.0865 -43.0707 -42.9515 -42.9511 -42.9417 -42.9218 -42.4230
   -42.4225 -42.4096 -42.3785 -41.6782 -23.1196 -23.1192 -23.0926 -23.0427
   -23.0374 -23.0333 -22.9674 -22.9645 -22.9555 -22.9510 -22.9480 -22.9348
   -22.9344 -22.9176 -22.9063 -22.9009 -22.9005 -22.8375 -22.7411 -22.7380
   -22.7374 -22.4644 -22.4508 -22.4012 -22.4008 -22.3942 -22.3473 -22.3436
   -22.3385 -22.3071 -22.2591 -22.2330 -22.2327 -21.7602 -21.7602 -21.5447
   -10.7295  -2.3471  -2.3378  -2.3120  -1.5318  -1.5313  -1.4165  -0.6130
    -0.6055  -0.3579  -0.1799  -0.1661  -0.1439  -0.1378  -0.1264  -0.0812
     0.2805   0.2939   0.3004   0.3661   0.3920   0.5307   0.5436   0.5762
     0.5973   0.6001   0.7156   0.7739   0.8300   0.8337

          k = 0.0466-0.0538 0.0000 ( 29098 PWs)   bands (ev):

   -43.0919 -43.0814 -43.0707 -42.9583 -42.9473 -42.9380 -42.9224 -42.4291
   -42.4181 -42.4080 -42.3785 -41.6781 -23.1288 -23.1111 -23.0931 -23.0913
   -23.0390 -23.0037 -22.9908 -22.9794 -22.9751 -22.9696 -22.9581 -22.9414
   -22.9275 -22.9187 -22.9092 -22.8822 -22.8276 -22.8221 -22.7799 -22.7310
   -22.7011 -22.5064 -22.4632 -22.4288 -22.3860 -22.3542 -22.3447 -22.3367
   -22.3230 -22.3074 -22.2798 -22.2384 -22.2008 -21.7644 -21.7517 -21.5448
   -10.7296  -2.9226  -2.2555  -2.0142  -1.6545  -1.4642  -1.0339  -0.9615
    -0.5793  -0.5321  -0.4076  -0.3478  -0.1886  -0.1408  -0.0469   0.0188
     0.1658   0.1885   0.2164   0.3823   0.4124   0.4779   0.5133   0.5713
     0.6667   0.6930   0.7418   0.7982   0.8829   0.9347

          k =-0.0699 0.0404 0.0000 ( 29048 PWs)   bands (ev):

   -43.0918 -43.0816 -43.0706 -42.9566 -42.9511 -42.9351 -42.9232 -42.4281
   -42.4202 -42.4066 -42.3786 -41.6781 -23.1286 -23.1118 -23.1051 -23.0924
   -23.0050 -23.0022 -22.9949 -22.9936 -22.9703 -22.9685 -22.9623 -22.9501
   -22.9347 -22.9213 -22.8751 -22.8687 -22.8422 -22.8337 -22.8108 -22.7076
   -22.7019 -22.5112 -22.4755 -22.3905 -22.3745 -22.3524 -22.3506 -22.3399
   -22.3279 -22.3202 -22.3074 -22.2234 -22.1958 -21.7676 -21.7485 -21.5448
   -10.7296  -2.7094  -2.6774  -1.8802  -1.7677  -1.0251  -1.0101  -0.9249
    -0.7522  -0.6060  -0.5883  -0.3569  -0.1968  -0.1108   0.1106   0.1423
     0.1684   0.1936   0.2634   0.2963   0.4196   0.4285   0.4987   0.5600
     0.5762   0.6770   0.6882   0.8731   0.8773   0.8845

          k =-0.0699 0.0673 0.0000 ( 29098 PWs)   bands (ev):

   -43.0919 -43.0814 -43.0707 -42.9583 -42.9475 -42.9379 -42.9224 -42.4291
   -42.4181 -42.4080 -42.3785 -41.6781 -23.1288 -23.1111 -23.0931 -23.0913
   -23.0390 -23.0037 -22.9909 -22.9794 -22.9751 -22.9696 -22.9582 -22.9414
   -22.9274 -22.9188 -22.9091 -22.8823 -22.8275 -22.8221 -22.7799 -22.7310
   -22.7011 -22.5064 -22.4632 -22.4288 -22.3859 -22.3542 -22.3447 -22.3367
   -22.3230 -22.3074 -22.2798 -22.2384 -22.2008 -21.7644 -21.7517 -21.5448
   -10.7296  -2.9226  -2.2555  -2.0142  -1.6546  -1.4642  -1.0339  -0.9615
    -0.5793  -0.5321  -0.4076  -0.3478  -0.1886  -0.1408  -0.0469   0.0188
     0.1658   0.1885   0.2164   0.3823   0.4124   0.4780   0.5133   0.5713
     0.6667   0.6930   0.7418   0.7982   0.8829   0.9348

          k =-0.0699 0.0942 0.0000 ( 29098 PWs)   bands (ev):

   -43.0919 -43.0813 -43.0707 -42.9582 -42.9476 -42.9378 -42.9225 -42.4291
   -42.4181 -42.4080 -42.3785 -41.6781 -23.1289 -23.1110 -23.0931 -23.0914
   -23.0389 -23.0037 -22.9908 -22.9794 -22.9751 -22.9696 -22.9582 -22.9413
   -22.9274 -22.9188 -22.9091 -22.8823 -22.8275 -22.8222 -22.7799 -22.7310
   -22.7011 -22.5064 -22.4632 -22.4289 -22.3859 -22.3542 -22.3447 -22.3367
   -22.3230 -22.3074 -22.2798 -22.2384 -22.2008 -21.7644 -21.7517 -21.5448
   -10.7296  -2.9226  -2.2555  -2.0142  -1.6546  -1.4642  -1.0339  -0.9615
    -0.5792  -0.5321  -0.4076  -0.3478  -0.1886  -0.1408  -0.0469   0.0188
     0.1658   0.1885   0.2164   0.3823   0.4124   0.4780   0.5133   0.5714
     0.6667   0.6930   0.7418   0.7982   0.8829   0.9348

          k =-0.0699-0.0404 0.0000 ( 29048 PWs)   bands (ev):

   -43.0919 -43.0813 -43.0707 -42.9565 -42.9512 -42.9350 -42.9233 -42.4281
   -42.4203 -42.4066 -42.3787 -41.6781 -23.1287 -23.1116 -23.1052 -23.0925
   -23.0049 -23.0021 -22.9950 -22.9936 -22.9703 -22.9686 -22.9624 -22.9499
   -22.9346 -22.9214 -22.8750 -22.8688 -22.8421 -22.8338 -22.8109 -22.7075
   -22.7020 -22.5112 -22.4755 -22.3906 -22.3745 -22.3524 -22.3506 -22.3399
   -22.3279 -22.3202 -22.3074 -22.2234 -22.1958 -21.7677 -21.7484 -21.5448
   -10.7296  -2.7094  -2.6774  -1.8802  -1.7677  -1.0251  -1.0101  -0.9250
    -0.7522  -0.6060  -0.5884  -0.3569  -0.1968  -0.1108   0.1106   0.1423
     0.1684   0.1936   0.2634   0.2963   0.4196   0.4285   0.4986   0.5600
     0.5763   0.6770   0.6882   0.8732   0.8773   0.8845

     the Fermi energy is     0.3753 ev

!    total energy              =   -1144.41764453 Ry
     Harris-Foulkes estimate   =   -1144.41767242 Ry
     estimated scf accuracy    <       0.00000609 Ry

     The total energy is the sum of the following terms:

     one-electron contribution =   -5479.10840736 Ry
     hartree contribution      =    2731.49196238 Ry
     xc contribution           =    -344.12838012 Ry
     ewald contribution        =    1947.45463854 Ry
     electric field correction =       0.00123838 Ry
     smearing contrib. (-TS)   =      -0.12869635 Ry

     convergence has been achieved in  19 iterations
 
 BEEF-vdW xc energy contributions
           1 :   -300.058232053078     
           2 :    269.335954678897     
           3 :   -216.511779304097     
           4 :    154.614540136296     
           5 :   -95.6956807665370     
           6 :    47.2925491948409     
           7 :   -11.9481270777476     
           8 :   -11.0276099943543     
           9 :    23.3322082029649     
          10 :   -26.4264632266736     
          11 :    21.6292358718272     
          12 :   -10.9304423699979     
          13 :   -2.48561028176607     
          14 :    14.6641113201414     
          15 :   -22.1326358673638     
          16 :    23.1936107185768     
          17 :   -18.4123928629752     
          18 :    10.0314384829122     
          19 :  -0.777428983536083     
          20 :   -7.17809448671801     
          21 :    12.6244380429080     
          22 :   -15.1421164993527     
          23 :    14.7587910988547     
          24 :   -11.7924610947344     
          25 :    6.93036036046323     
          26 :   -1.31008535980806     
          27 :   -3.65544034397476     
          28 :    6.73309489989697     
          29 :   -7.36167598055687     
          30 :    5.85748096484389     
          31 :   -28.8016361326852     
          32 :   -19.6787168114728     

     Forces acting on atoms (Ry/au):


     negative rho (up, down):  4.836E-04 0.000E+00
     atom    1 type  1   force =    -0.00068692   -0.00037049    0.00476892
     atom    2 type  1   force =     0.00070303   -0.00044871    0.00483608
     atom    3 type  1   force =    -0.00006249    0.00080971    0.00481477
     atom    4 type  1   force =     0.00007748    0.00001102    0.00498140
     atom    5 type  1   force =    -0.00004897    0.00566502   -0.00014685
     atom    6 type  1   force =     0.00004639    0.00009570    0.00506870
     atom    7 type  1   force =    -0.00480650   -0.00289180   -0.00023152
     atom    8 type  1   force =     0.00479078   -0.00291065   -0.00019779
     atom    9 type  1   force =    -0.00008790    0.00002195    0.07189679
     atom   10 type  1   force =     0.00005947   -0.00066666    0.00755655
     atom   11 type  1   force =    -0.00059040    0.00038224    0.00753207
     atom   12 type  1   force =     0.00059846    0.00030162    0.00755125
     atom   13 type  2   force =     0.00000759    0.00000106   -0.11843035

     Total force =     0.139166     Total SCF correction =     0.001976


     entering subroutine stress ...


     negative rho (up, down):  4.836E-04 0.000E+00
          total   stress  (Ry/bohr**3)                   (kbar)     P=   -6.46
  -0.00001659  -0.00000001  -0.00000001         -2.44     -0.00     -0.00
  -0.00000001  -0.00001659   0.00000000         -0.00     -2.44      0.00
  -0.00000001   0.00000000  -0.00009862         -0.00      0.00    -14.51


     BFGS Geometry Optimization

     number of scf cycles    =   1
     number of bfgs steps    =   0

     energy   new            =   -1144.4176445344 Ry

     new trust radius        =       0.1184303474 bohr
     new conv_thr            =       0.0000099958 Ry


ATOMIC_POSITIONS (crystal)
Y1       0.166666667   0.166666667   0.386999750    0   0   0
Y1       0.666666667   0.166666667   0.386999750    0   0   0
Y1       0.166666667   0.666666667   0.386999750    0   0   0
Y1       0.666666667   0.666666667   0.386999750    0   0   0
Y1       0.833333333   0.333333333   0.500000000    0   0   0
Y1       0.333333333   0.333333333   0.500000000    0   0   0
Y1       0.833333333   0.833333333   0.500000000    0   0   0
Y1       0.333333333   0.833333333   0.500000000    0   0   0
Y1      -0.000007441   0.000001875   0.614472634
Y1       0.500032877  -0.000056955   0.613155001
Y1      -0.000060010   0.500032656   0.613154500
Y1       0.500031394   0.500025769   0.613154893
N1       0.000000517   0.000000090   0.696430792



     Writing output data file calc.save
     Check: negative starting charge=   -0.000563
     NEW-OLD atomic charge density approx. for the potential
     Check: negative starting charge=   -0.000567

     negative rho (up, down):  4.686E-04 0.000E+00
 
     Adding external electric field

     Computed dipole along edir(3) : 
        Dipole               -0.8721 Ry au,         -2.2166 Debye
        Dipole field         -0.0014 Ry au
 
        Potential amp.        0.1351 Ry
        Total length         47.6094 bohr
 

     total cpu time spent up to now is      780.6 secs

     per-process dynamical memory:   118.1 Mb

     Self-consistent Calculation

     iteration #  1     ecut=    36.75 Ry     beta=0.30
     Davidson diagonalization with overlap
     ethr =  1.00E-06,  avg # of iterations = 10.9

     negative rho (up, down):  3.816E-04 0.000E+00
 
     Adding external electric field

     Computed dipole along edir(3) : 
        Dipole               -1.7801 Ry au,         -4.5245 Debye
        Dipole field         -0.0029 Ry au
 
        Potential amp.        0.2757 Ry
        Total length         47.6094 bohr
 

     total cpu time spent up to now is      825.1 secs

     total energy              =   -1144.38779834 Ry
     Harris-Foulkes estimate   =   -1144.43591237 Ry
     estimated scf accuracy    <       0.10744328 Ry

     iteration #  2     ecut=    36.75 Ry     beta=0.30
     Davidson diagonalization with overlap
     ethr =  7.84E-05,  avg # of iterations =  8.2

     negative rho (up, down):  3.115E-04 0.000E+00
 
     Adding external electric field

     Computed dipole along edir(3) : 
        Dipole               -0.7061 Ry au,         -1.7947 Debye
        Dipole field         -0.0011 Ry au
 
        Potential amp.        0.1094 Ry
        Total length         47.6094 bohr
 

     total cpu time spent up to now is      860.6 secs

     total energy              =   -1143.91834313 Ry
     Harris-Foulkes estimate   =   -1145.01740358 Ry
     estimated scf accuracy    <      52.40741647 Ry

     iteration #  3     ecut=    36.75 Ry     beta=0.30
     Davidson diagonalization with overlap
     ethr =  7.84E-05,  avg # of iterations =  7.7

     negative rho (up, down):  3.161E-04 0.000E+00
 
     Adding external electric field

     Computed dipole along edir(3) : 
        Dipole               -0.8413 Ry au,         -2.1384 Debye
        Dipole field         -0.0014 Ry au
 
        Potential amp.        0.1303 Ry
        Total length         47.6094 bohr
 

     total cpu time spent up to now is      898.9 secs

     total energy              =   -1144.37013744 Ry
     Harris-Foulkes estimate   =   -1144.49857516 Ry
     estimated scf accuracy    <       2.70724780 Ry

     iteration #  4     ecut=    36.75 Ry     beta=0.30
     Davidson diagonalization with overlap
     ethr =  7.84E-05,  avg # of iterations =  7.5

     negative rho (up, down):  3.519E-04 0.000E+00
 
     Adding external electric field

     Computed dipole along edir(3) : 
        Dipole               -0.8322 Ry au,         -2.1152 Debye
        Dipole field         -0.0014 Ry au
 
        Potential amp.        0.1289 Ry
        Total length         47.6094 bohr
 

     total cpu time spent up to now is      933.9 secs

     total energy              =   -1144.43427454 Ry
     Harris-Foulkes estimate   =   -1144.43599480 Ry
     estimated scf accuracy    <       0.03095368 Ry

     iteration #  5     ecut=    36.75 Ry     beta=0.30
     Davidson diagonalization with overlap
     ethr =  2.26E-05,  avg # of iterations =  2.1

     negative rho (up, down):  3.772E-04 0.000E+00
 
     Adding external electric field

     Computed dipole along edir(3) : 
        Dipole               -0.8492 Ry au,         -2.1584 Debye
        Dipole field         -0.0014 Ry au
 
        Potential amp.        0.1315 Ry
        Total length         47.6094 bohr
 

     total cpu time spent up to now is      961.4 secs

     total energy              =   -1144.43484306 Ry
     Harris-Foulkes estimate   =   -1144.43527298 Ry
     estimated scf accuracy    <       0.01228196 Ry

     iteration #  6     ecut=    36.75 Ry     beta=0.30
     Davidson diagonalization with overlap
     ethr =  8.96E-06,  avg # of iterations =  2.9

     negative rho (up, down):  4.030E-04 0.000E+00
 
     Adding external electric field

     Computed dipole along edir(3) : 
        Dipole               -0.8459 Ry au,         -2.1500 Debye
        Dipole field         -0.0014 Ry au
 
        Potential amp.        0.1310 Ry
        Total length         47.6094 bohr
 

     total cpu time spent up to now is      989.5 secs

     total energy              =   -1144.43500690 Ry
     Harris-Foulkes estimate   =   -1144.43512772 Ry
     estimated scf accuracy    <       0.00193014 Ry

     iteration #  7     ecut=    36.75 Ry     beta=0.30
     Davidson diagonalization with overlap
     ethr =  1.41E-06,  avg # of iterations =  7.1

     negative rho (up, down):  4.279E-04 0.000E+00
 
     Adding external electric field

     Computed dipole along edir(3) : 
        Dipole               -0.8446 Ry au,         -2.1468 Debye
        Dipole field         -0.0014 Ry au
 
        Potential amp.        0.1308 Ry
        Total length         47.6094 bohr
 

     total cpu time spent up to now is     1026.2 secs

     total energy              =   -1144.43515324 Ry
     Harris-Foulkes estimate   =   -1144.43526312 Ry
     estimated scf accuracy    <       0.00103905 Ry

     iteration #  8     ecut=    36.75 Ry     beta=0.30
     Davidson diagonalization with overlap
     ethr =  7.58E-07,  avg # of iterations =  2.7

     negative rho (up, down):  4.437E-04 0.000E+00
 
     Adding external electric field

     Computed dipole along edir(3) : 
        Dipole               -0.8469 Ry au,         -2.1527 Debye
        Dipole field         -0.0014 Ry au
 
        Potential amp.        0.1312 Ry
        Total length         47.6094 bohr
 

     total cpu time spent up to now is     1057.1 secs

     total energy              =   -1144.43518877 Ry
     Harris-Foulkes estimate   =   -1144.43519439 Ry
     estimated scf accuracy    <       0.00006246 Ry

     iteration #  9     ecut=    36.75 Ry     beta=0.30
     Davidson diagonalization with overlap
     ethr =  4.56E-08,  avg # of iterations =  7.8

     negative rho (up, down):  4.575E-04 0.000E+00
 
     Adding external electric field

     Computed dipole along edir(3) : 
        Dipole               -0.8478 Ry au,         -2.1548 Debye
        Dipole field         -0.0014 Ry au
 
        Potential amp.        0.1313 Ry
        Total length         47.6094 bohr
 

     total cpu time spent up to now is     1097.6 secs

     total energy              =   -1144.43520809 Ry
     Harris-Foulkes estimate   =   -1144.43522856 Ry
     estimated scf accuracy    <       0.00022303 Ry

     iteration # 10     ecut=    36.75 Ry     beta=0.30
     Davidson diagonalization with overlap
     ethr =  4.56E-08,  avg # of iterations =  5.0

     negative rho (up, down):  4.670E-04 0.000E+00
 
     Adding external electric field

     Computed dipole along edir(3) : 
        Dipole               -0.8473 Ry au,         -2.1536 Debye
        Dipole field         -0.0014 Ry au
 
        Potential amp.        0.1312 Ry
        Total length         47.6094 bohr
 

     total cpu time spent up to now is     1132.1 secs

     total energy              =   -1144.43521478 Ry
     Harris-Foulkes estimate   =   -1144.43521820 Ry
     estimated scf accuracy    <       0.00002216 Ry

     iteration # 11     ecut=    36.75 Ry     beta=0.30
     Davidson diagonalization with overlap
     ethr =  1.62E-08,  avg # of iterations =  6.7

     negative rho (up, down):  4.909E-04 0.000E+00

     negative rho (up, down):  4.909E-04 0.000E+00

     negative rho (up, down):  4.909E-04 0.000E+00

     negative rho (up, down):  4.909E-04 0.000E+00

     negative rho (up, down):  4.909E-04 0.000E+00

     negative rho (up, down):  4.909E-04 0.000E+00

     negative rho (up, down):  4.909E-04 0.000E+00

     negative rho (up, down):  4.909E-04 0.000E+00

     negative rho (up, down):  4.909E-04 0.000E+00

     negative rho (up, down):  4.909E-04 0.000E+00

     negative rho (up, down):  4.909E-04 0.000E+00

     negative rho (up, down):  4.909E-04 0.000E+00

     negative rho (up, down):  4.909E-04 0.000E+00

     negative rho (up, down):  4.909E-04 0.000E+00

     negative rho (up, down):  4.909E-04 0.000E+00

     negative rho (up, down):  4.909E-04 0.000E+00

     negative rho (up, down):  4.909E-04 0.000E+00

     negative rho (up, down):  4.909E-04 0.000E+00

     negative rho (up, down):  4.909E-04 0.000E+00

     negative rho (up, down):  4.909E-04 0.000E+00

     negative rho (up, down):  4.909E-04 0.000E+00

     negative rho (up, down):  4.909E-04 0.000E+00

     negative rho (up, down):  4.909E-04 0.000E+00

     negative rho (up, down):  4.909E-04 0.000E+00

     negative rho (up, down):  4.909E-04 0.000E+00

     negative rho (up, down):  4.909E-04 0.000E+00

     negative rho (up, down):  4.909E-04 0.000E+00

     negative rho (up, down):  4.909E-04 0.000E+00

     negative rho (up, down):  4.909E-04 0.000E+00

     negative rho (up, down):  4.909E-04 0.000E+00

     negative rho (up, down):  4.909E-04 0.000E+00

     negative rho (up, down):  4.909E-04 0.000E+00

     negative rho (up, down):  4.909E-04 0.000E+00

     negative rho (up, down):  4.909E-04 0.000E+00

     negative rho (up, down):  4.909E-04 0.000E+00
 
     Adding external electric field

     Computed dipole along edir(3) : 
        Dipole               -0.8622 Ry au,         -2.1916 Debye
        Dipole field         -0.0014 Ry au
 
        Potential amp.        0.1336 Ry
        Total length         47.6094 bohr
 

     total cpu time spent up to now is     1250.4 secs

     End of self-consistent calculation

          k = 0.0000 0.0000 0.0000 ( 28997 PWs)   bands (ev):

   -43.0879 -43.0560 -43.0560 -42.9493 -42.9103 -42.9102 -42.8930 -42.4333
   -42.3966 -42.3965 -42.3573 -41.4448 -23.1558 -23.1360 -23.0822 -23.0822
   -23.0773 -23.0773 -23.0547 -23.0498 -23.0498 -22.9790 -22.9138 -22.9138
   -22.8945 -22.8732 -22.7797 -22.7797 -22.7337 -22.7259 -22.7259 -22.6291
   -22.6291 -22.5755 -22.5379 -22.5379 -22.3557 -22.3247 -22.3247 -22.2901
   -22.2490 -22.2458 -22.2458 -22.1434 -22.1434 -21.5358 -21.5358 -21.3995
   -10.6576  -3.8566  -2.8949  -1.8830  -1.2069  -1.2059  -1.2059  -1.0890
    -1.0844  -1.0844  -0.7747  -0.7402  -0.7402  -0.4006  -0.4006  -0.3570
    -0.2123  -0.2123   0.0669   0.1806   0.4080   0.4080   0.5869   1.0035
     1.0619   1.1069   1.1069   1.3325   1.4745   1.5616

          k = 0.0000 0.0269 0.0000 ( 29019 PWs)   bands (ev):

   -43.0860 -43.0579 -43.0560 -42.9465 -42.9123 -42.9102 -42.8938 -42.4307
   -42.3985 -42.3965 -42.3580 -41.4448 -23.1376 -23.1320 -23.0840 -23.0808
   -23.0690 -23.0635 -23.0384 -23.0345 -23.0246 -22.9745 -22.9167 -22.9134
   -22.8945 -22.8826 -22.8034 -22.7839 -22.7486 -22.7427 -22.7215 -22.6591
   -22.6358 -22.5589 -22.5235 -22.5173 -22.3527 -22.3266 -22.3245 -22.2897
   -22.2641 -22.2614 -22.2407 -22.1713 -22.1498 -21.5420 -21.5377 -21.3994
   -10.6574  -3.7078  -2.7497  -1.7362  -1.4299  -1.1604  -1.1572  -1.1165
    -0.9944  -0.9888  -0.6693  -0.6209  -0.6114  -0.3537  -0.3398  -0.2878
    -0.1517  -0.1458   0.1066   0.2087   0.4047   0.4260   0.6006   0.9208
     0.9492   1.0283   1.0464   1.2106   1.3922   1.4579

          k = 0.0000 0.0538 0.0000 ( 29058 PWs)   bands (ev):

   -43.0811 -43.0628 -43.0560 -42.9392 -42.9185 -42.9102 -42.8950 -42.4241
   -42.4040 -42.3966 -42.3592 -41.4449 -23.1226 -23.1025 -23.0906 -23.0795
   -23.0345 -23.0249 -23.0016 -22.9965 -22.9624 -22.9519 -22.9253 -22.9173
   -22.9082 -22.8940 -22.8666 -22.7906 -22.7894 -22.7827 -22.7391 -22.7040
   -22.6540 -22.5215 -22.4869 -22.4556 -22.3463 -22.3329 -22.3265 -22.3015
   -22.2985 -22.2889 -22.2439 -22.2251 -22.1662 -21.5545 -21.5415 -21.3992
   -10.6569  -3.2858  -2.3499  -1.9805  -1.3790  -1.2636  -1.0539  -1.0476
    -0.7536  -0.7423  -0.5911  -0.4461  -0.2770  -0.2604  -0.1087  -0.0947
     0.0376   0.0540   0.1985   0.2834   0.4638   0.4701   0.5452   0.7538
     0.7701   0.7772   0.8581   0.9124   1.1454   1.1732

          k = 0.0000-0.0807 0.0000 ( 29048 PWs)   bands (ev):

   -43.0772 -43.0667 -43.0560 -42.9316 -42.9255 -42.9102 -42.8955 -42.4180
   -42.4096 -42.3966 -42.3597 -41.4449 -23.1149 -23.0977 -23.0888 -23.0789
   -22.9879 -22.9795 -22.9770 -22.9700 -22.9484 -22.9468 -22.9447 -22.9292
   -22.9105 -22.8935 -22.8502 -22.8430 -22.8173 -22.8071 -22.7930 -22.6826
   -22.6755 -22.4984 -22.4600 -22.3774 -22.3627 -22.3406 -22.3377 -22.3270
   -22.3159 -22.3010 -22.2884 -22.2121 -22.1795 -21.5607 -21.5434 -21.3991
   -10.6567  -2.6854  -2.6468  -1.8576  -1.7313  -0.9996  -0.9843  -0.9125
    -0.7259  -0.5777  -0.5620  -0.4194  -0.2463  -0.0973   0.1334   0.1661
     0.1846   0.2287   0.2852   0.3315   0.4463   0.4525   0.5233   0.5795
     0.6111   0.6949   0.7163   0.8963   0.9011   0.9046

          k = 0.0233-0.0135 0.0000 ( 29019 PWs)   bands (ev):

   -43.0860 -43.0579 -43.0560 -42.9465 -42.9122 -42.9103 -42.8937 -42.4307
   -42.3985 -42.3965 -42.3580 -41.4448 -23.1376 -23.1320 -23.0840 -23.0809
   -23.0691 -23.0635 -23.0384 -23.0344 -23.0246 -22.9745 -22.9166 -22.9135
   -22.8944 -22.8826 -22.8034 -22.7839 -22.7486 -22.7426 -22.7215 -22.6591
   -22.6358 -22.5589 -22.5235 -22.5173 -22.3527 -22.3266 -22.3245 -22.2897
   -22.2641 -22.2614 -22.2407 -22.1713 -22.1498 -21.5420 -21.5377 -21.3994
   -10.6574  -3.7078  -2.7497  -1.7362  -1.4299  -1.1604  -1.1572  -1.1165
    -0.9944  -0.9888  -0.6693  -0.6209  -0.6114  -0.3537  -0.3398  -0.2878
    -0.1517  -0.1458   0.1066   0.2087   0.4047   0.4260   0.6006   0.9208
     0.9492   1.0283   1.0464   1.2106   1.3922   1.4579

          k = 0.0233 0.0135 0.0000 ( 29019 PWs)   bands (ev):

   -43.0860 -43.0579 -43.0560 -42.9465 -42.9122 -42.9102 -42.8937 -42.4307
   -42.3985 -42.3965 -42.3580 -41.4448 -23.1376 -23.1320 -23.0840 -23.0809
   -23.0691 -23.0635 -23.0384 -23.0344 -23.0246 -22.9745 -22.9167 -22.9135
   -22.8945 -22.8826 -22.8034 -22.7839 -22.7486 -22.7426 -22.7215 -22.6591
   -22.6358 -22.5588 -22.5235 -22.5173 -22.3527 -22.3266 -22.3244 -22.2897
   -22.2641 -22.2614 -22.2407 -22.1713 -22.1498 -21.5420 -21.5377 -21.3994
   -10.6574  -3.7078  -2.7497  -1.7362  -1.4299  -1.1604  -1.1572  -1.1165
    -0.9944  -0.9888  -0.6693  -0.6209  -0.6114  -0.3537  -0.3398  -0.2878
    -0.1517  -0.1458   0.1066   0.2087   0.4047   0.4260   0.6006   0.9208
     0.9492   1.0283   1.0464   1.2106   1.3922   1.4579

          k = 0.0233 0.0404 0.0000 ( 29087 PWs)   bands (ev):

   -43.0826 -43.0613 -43.0560 -42.9415 -42.9156 -42.9112 -42.8946 -42.4261
   -42.4019 -42.3969 -42.3589 -41.4449 -23.1254 -23.1072 -23.0884 -23.0799
   -23.0569 -23.0311 -23.0168 -22.9887 -22.9881 -22.9661 -22.9214 -22.9156
   -22.9048 -22.8934 -22.8399 -22.7977 -22.7937 -22.7329 -22.7289 -22.7123
   -22.6499 -22.5315 -22.4904 -22.4829 -22.3481 -22.3326 -22.3244 -22.3086
   -22.2891 -22.2523 -22.2496 -22.2179 -22.1633 -21.5502 -21.5416 -21.3992
   -10.6570  -3.4217  -2.4748  -1.5895  -1.5779  -1.4452  -1.0884  -1.0646
    -0.8088  -0.7160  -0.5412  -0.5154  -0.3685  -0.2605  -0.2481  -0.1548
    -0.0240  -0.0088   0.1805   0.2597   0.4219   0.4724   0.5825   0.7854
     0.7947   0.8704   0.9645   1.0140   1.1559   1.2546

          k = 0.0233-0.0942 0.0000 ( 29098 PWs)   bands (ev):

   -43.0772 -43.0667 -43.0560 -42.9331 -42.9223 -42.9126 -42.8949 -42.4188
   -42.4078 -42.3976 -42.3596 -41.4449 -23.1151 -23.0973 -23.0792 -23.0745
   -23.0245 -22.9791 -22.9742 -22.9593 -22.9510 -22.9489 -22.9335 -22.9162
   -22.9022 -22.8931 -22.8912 -22.8568 -22.8039 -22.8020 -22.7542 -22.7055
   -22.6753 -22.4934 -22.4484 -22.4157 -22.3725 -22.3408 -22.3316 -22.3242
   -22.3097 -22.2885 -22.2651 -22.2255 -22.1853 -21.5578 -21.5463 -21.3991
   -10.6567  -2.8952  -2.2291  -1.9854  -1.6276  -1.4346  -1.0146  -0.9339
    -0.5806  -0.5074  -0.4039  -0.3650  -0.2241  -0.1281  -0.0318   0.0390
     0.1895   0.2125   0.2488   0.3998   0.4431   0.5021   0.5391   0.5990
     0.6871   0.7147   0.7637   0.8351   0.9071   0.9558

          k = 0.0233-0.0673 0.0000 ( 29098 PWs)   bands (ev):

   -43.0772 -43.0667 -43.0560 -42.9331 -42.9222 -42.9126 -42.8949 -42.4188
   -42.4078 -42.3976 -42.3596 -41.4449 -23.1151 -23.0973 -23.0792 -23.0745
   -23.0245 -22.9791 -22.9742 -22.9593 -22.9510 -22.9489 -22.9335 -22.9162
   -22.9022 -22.8931 -22.8912 -22.8568 -22.8039 -22.8020 -22.7542 -22.7055
   -22.6753 -22.4934 -22.4484 -22.4157 -22.3725 -22.3409 -22.3317 -22.3242
   -22.3097 -22.2885 -22.2651 -22.2255 -22.1853 -21.5578 -21.5463 -21.3991
   -10.6567  -2.8952  -2.2291  -1.9854  -1.6276  -1.4346  -1.0146  -0.9339
    -0.5806  -0.5074  -0.4039  -0.3650  -0.2241  -0.1281  -0.0318   0.0390
     0.1894   0.2125   0.2488   0.3998   0.4431   0.5021   0.5391   0.5990
     0.6871   0.7147   0.7637   0.8351   0.9071   0.9558

          k = 0.0233-0.0404 0.0000 ( 29087 PWs)   bands (ev):

   -43.0826 -43.0613 -43.0560 -42.9415 -42.9156 -42.9112 -42.8946 -42.4261
   -42.4019 -42.3970 -42.3589 -41.4449 -23.1254 -23.1072 -23.0884 -23.0799
   -23.0569 -23.0311 -23.0168 -22.9887 -22.9881 -22.9661 -22.9214 -22.9156
   -22.9048 -22.8934 -22.8399 -22.7977 -22.7937 -22.7329 -22.7289 -22.7123
   -22.6499 -22.5315 -22.4903 -22.4830 -22.3481 -22.3326 -22.3244 -22.3086
   -22.2891 -22.2523 -22.2496 -22.2179 -22.1632 -21.5503 -21.5416 -21.3992
   -10.6570  -3.4217  -2.4748  -1.5895  -1.5779  -1.4451  -1.0884  -1.0646
    -0.8088  -0.7160  -0.5412  -0.5154  -0.3685  -0.2605  -0.2481  -0.1548
    -0.0240  -0.0088   0.1806   0.2597   0.4219   0.4724   0.5825   0.7854
     0.7947   0.8704   0.9645   1.0140   1.1559   1.2546

          k = 0.0466-0.0269 0.0000 ( 29058 PWs)   bands (ev):

   -43.0811 -43.0627 -43.0560 -42.9392 -42.9184 -42.9103 -42.8950 -42.4241
   -42.4041 -42.3965 -42.3592 -41.4449 -23.1226 -23.1026 -23.0906 -23.0795
   -23.0345 -23.0249 -23.0017 -22.9965 -22.9624 -22.9519 -22.9252 -22.9173
   -22.9082 -22.8940 -22.8665 -22.7906 -22.7895 -22.7827 -22.7391 -22.7040
   -22.6540 -22.5215 -22.4869 -22.4556 -22.3463 -22.3329 -22.3265 -22.3015
   -22.2985 -22.2889 -22.2439 -22.2251 -22.1662 -21.5545 -21.5415 -21.3992
   -10.6569  -3.2858  -2.3499  -1.9805  -1.3790  -1.2636  -1.0539  -1.0476
    -0.7536  -0.7423  -0.5911  -0.4461  -0.2770  -0.2604  -0.1087  -0.0947
     0.0376   0.0540   0.1985   0.2834   0.4638   0.4701   0.5452   0.7538
     0.7701   0.7772   0.8581   0.9124   1.1454   1.1732

          k = 0.0466 0.0000 0.0000 ( 29087 PWs)   bands (ev):

   -43.0826 -43.0613 -43.0560 -42.9415 -42.9156 -42.9112 -42.8946 -42.4261
   -42.4019 -42.3969 -42.3589 -41.4449 -23.1254 -23.1072 -23.0884 -23.0800
   -23.0570 -23.0311 -23.0168 -22.9887 -22.9881 -22.9661 -22.9214 -22.9156
   -22.9048 -22.8934 -22.8398 -22.7977 -22.7938 -22.7329 -22.7290 -22.7122
   -22.6499 -22.5315 -22.4904 -22.4829 -22.3481 -22.3327 -22.3244 -22.3086
   -22.2891 -22.2522 -22.2496 -22.2179 -22.1633 -21.5502 -21.5416 -21.3992
   -10.6570  -3.4217  -2.4748  -1.5895  -1.5779  -1.4451  -1.0884  -1.0646
    -0.8088  -0.7160  -0.5412  -0.5154  -0.3685  -0.2605  -0.2481  -0.1548
    -0.0240  -0.0088   0.1805   0.2597   0.4219   0.4724   0.5825   0.7854
     0.7947   0.8704   0.9645   1.0140   1.1559   1.2546

          k = 0.0466 0.0269 0.0000 ( 29058 PWs)   bands (ev):

   -43.0811 -43.0627 -43.0560 -42.9392 -42.9184 -42.9102 -42.8950 -42.4240
   -42.4041 -42.3965 -42.3592 -41.4449 -23.1226 -23.1026 -23.0906 -23.0795
   -23.0345 -23.0249 -23.0017 -22.9965 -22.9624 -22.9519 -22.9252 -22.9173
   -22.9082 -22.8940 -22.8665 -22.7906 -22.7895 -22.7827 -22.7391 -22.7040
   -22.6540 -22.5215 -22.4870 -22.4556 -22.3463 -22.3330 -22.3265 -22.3015
   -22.2986 -22.2889 -22.2439 -22.2251 -22.1662 -21.5545 -21.5415 -21.3992
   -10.6569  -3.2858  -2.3499  -1.9805  -1.3790  -1.2636  -1.0539  -1.0476
    -0.7536  -0.7424  -0.5911  -0.4461  -0.2770  -0.2604  -0.1087  -0.0947
     0.0376   0.0540   0.1985   0.2834   0.4638   0.4701   0.5452   0.7538
     0.7701   0.7772   0.8581   0.9124   1.1454   1.1732

          k = 0.0466-0.1076 0.0000 ( 29098 PWs)   bands (ev):

   -43.0772 -43.0666 -43.0560 -42.9332 -42.9222 -42.9126 -42.8949 -42.4187
   -42.4079 -42.3976 -42.3596 -41.4449 -23.1151 -23.0972 -23.0792 -23.0746
   -23.0245 -22.9791 -22.9742 -22.9593 -22.9509 -22.9489 -22.9335 -22.9162
   -22.9022 -22.8931 -22.8911 -22.8568 -22.8039 -22.8020 -22.7542 -22.7055
   -22.6753 -22.4933 -22.4484 -22.4157 -22.3725 -22.3408 -22.3317 -22.3242
   -22.3097 -22.2885 -22.2651 -22.2255 -22.1854 -21.5578 -21.5463 -21.3991
   -10.6567  -2.8952  -2.2291  -1.9854  -1.6276  -1.4346  -1.0146  -0.9339
    -0.5806  -0.5074  -0.4039  -0.3650  -0.2241  -0.1281  -0.0318   0.0390
     0.1895   0.2125   0.2488   0.3998   0.4431   0.5021   0.5391   0.5990
     0.6871   0.7147   0.7637   0.8351   0.9071   0.9558

          k = 0.0466-0.0807 0.0000 ( 29103 PWs)   bands (ev):

   -43.0719 -43.0719 -43.0561 -42.9264 -42.9263 -42.9157 -42.8945 -42.4128
   -42.4124 -42.3988 -42.3598 -41.4450 -23.1059 -23.1055 -23.0790 -23.0254
   -23.0210 -23.0203 -22.9439 -22.9400 -22.9303 -22.9251 -22.9226 -22.9189
   -22.9184 -22.8911 -22.8809 -22.8750 -22.8747 -22.8185 -22.7162 -22.7121
   -22.7114 -22.4513 -22.4382 -22.3893 -22.3849 -22.3789 -22.3342 -22.3308
   -22.3258 -22.2882 -22.2480 -22.2173 -22.2171 -21.5541 -21.5541 -21.3990
   -10.6566  -2.3238  -2.3119  -2.2800  -1.5090  -1.5083  -1.3760  -0.6213
    -0.6131  -0.3278  -0.1924  -0.1895  -0.1373  -0.1336  -0.1028  -0.0530
     0.3055   0.3180   0.3229   0.3896   0.4239   0.5495   0.5634   0.5988
     0.6192   0.6223   0.7390   0.8004   0.8578   0.8810

          k = 0.0466-0.0538 0.0000 ( 29098 PWs)   bands (ev):

   -43.0772 -43.0666 -43.0560 -42.9332 -42.9222 -42.9126 -42.8949 -42.4188
   -42.4079 -42.3976 -42.3596 -41.4449 -23.1151 -23.0973 -23.0792 -23.0746
   -23.0245 -22.9791 -22.9742 -22.9593 -22.9509 -22.9489 -22.9334 -22.9162
   -22.9022 -22.8931 -22.8911 -22.8568 -22.8039 -22.8020 -22.7542 -22.7055
   -22.6753 -22.4934 -22.4484 -22.4157 -22.3725 -22.3408 -22.3317 -22.3242
   -22.3097 -22.2885 -22.2651 -22.2255 -22.1853 -21.5578 -21.5463 -21.3991
   -10.6567  -2.8952  -2.2291  -1.9854  -1.6276  -1.4346  -1.0146  -0.9339
    -0.5806  -0.5074  -0.4039  -0.3650  -0.2241  -0.1281  -0.0318   0.0390
     0.1894   0.2125   0.2488   0.3998   0.4431   0.5021   0.5391   0.5990
     0.6871   0.7147   0.7637   0.8351   0.9071   0.9558

          k =-0.0699 0.0404 0.0000 ( 29048 PWs)   bands (ev):

   -43.0772 -43.0667 -43.0560 -42.9317 -42.9254 -42.9103 -42.8955 -42.4180
   -42.4096 -42.3965 -42.3597 -41.4449 -23.1150 -23.0977 -23.0888 -23.0789
   -22.9879 -22.9795 -22.9771 -22.9700 -22.9484 -22.9468 -22.9446 -22.9291
   -22.9105 -22.8935 -22.8502 -22.8429 -22.8174 -22.8071 -22.7931 -22.6827
   -22.6755 -22.4984 -22.4601 -22.3774 -22.3627 -22.3406 -22.3377 -22.3271
   -22.3159 -22.3010 -22.2884 -22.2121 -22.1795 -21.5607 -21.5434 -21.3991
   -10.6567  -2.6854  -2.6468  -1.8576  -1.7313  -0.9996  -0.9843  -0.9125
    -0.7259  -0.5777  -0.5620  -0.4194  -0.2463  -0.0973   0.1334   0.1661
     0.1846   0.2287   0.2852   0.3315   0.4463   0.4525   0.5233   0.5795
     0.6111   0.6949   0.7163   0.8963   0.9011   0.9047

          k =-0.0699 0.0673 0.0000 ( 29098 PWs)   bands (ev):

   -43.0772 -43.0666 -43.0560 -42.9332 -42.9222 -42.9126 -42.8949 -42.4188
   -42.4079 -42.3976 -42.3596 -41.4449 -23.1151 -23.0972 -23.0793 -23.0746
   -23.0245 -22.9791 -22.9742 -22.9593 -22.9510 -22.9489 -22.9334 -22.9162
   -22.9022 -22.8931 -22.8911 -22.8568 -22.8039 -22.8020 -22.7542 -22.7055
   -22.6753 -22.4934 -22.4484 -22.4157 -22.3725 -22.3408 -22.3317 -22.3242
   -22.3097 -22.2885 -22.2651 -22.2255 -22.1854 -21.5578 -21.5463 -21.3991
   -10.6567  -2.8952  -2.2291  -1.9854  -1.6276  -1.4346  -1.0146  -0.9339
    -0.5806  -0.5074  -0.4039  -0.3650  -0.2241  -0.1281  -0.0318   0.0390
     0.1894   0.2125   0.2488   0.3998   0.4431   0.5020   0.5391   0.5990
     0.6871   0.7147   0.7637   0.8351   0.9071   0.9558

          k =-0.0699 0.0942 0.0000 ( 29098 PWs)   bands (ev):

   -43.0772 -43.0666 -43.0560 -42.9332 -42.9222 -42.9126 -42.8949 -42.4187
   -42.4079 -42.3976 -42.3596 -41.4449 -23.1151 -23.0972 -23.0793 -23.0746
   -23.0245 -22.9791 -22.9742 -22.9593 -22.9510 -22.9489 -22.9334 -22.9162
   -22.9022 -22.8931 -22.8911 -22.8568 -22.8039 -22.8020 -22.7542 -22.7055
   -22.6753 -22.4933 -22.4484 -22.4157 -22.3725 -22.3408 -22.3317 -22.3242
   -22.3097 -22.2885 -22.2651 -22.2255 -22.1854 -21.5578 -21.5463 -21.3991
   -10.6567  -2.8952  -2.2291  -1.9854  -1.6276  -1.4346  -1.0146  -0.9339
    -0.5806  -0.5074  -0.4039  -0.3650  -0.2241  -0.1281  -0.0318   0.0390
     0.1894   0.2125   0.2488   0.3998   0.4431   0.5021   0.5391   0.5990
     0.6871   0.7147   0.7637   0.8351   0.9071   0.9558

          k =-0.0699-0.0404 0.0000 ( 29048 PWs)   bands (ev):

   -43.0772 -43.0667 -43.0560 -42.9317 -42.9255 -42.9102 -42.8955 -42.4179
   -42.4097 -42.3965 -42.3597 -41.4449 -23.1150 -23.0977 -23.0888 -23.0789
   -22.9879 -22.9795 -22.9771 -22.9700 -22.9484 -22.9468 -22.9446 -22.9291
   -22.9105 -22.8935 -22.8502 -22.8430 -22.8174 -22.8071 -22.7931 -22.6827
   -22.6755 -22.4984 -22.4601 -22.3774 -22.3627 -22.3405 -22.3377 -22.3271
   -22.3159 -22.3010 -22.2884 -22.2121 -22.1795 -21.5607 -21.5434 -21.3991
   -10.6567  -2.6854  -2.6468  -1.8576  -1.7313  -0.9996  -0.9843  -0.9125
    -0.7259  -0.5777  -0.5620  -0.4194  -0.2463  -0.0973   0.1334   0.1661
     0.1846   0.2287   0.2852   0.3315   0.4463   0.4525   0.5233   0.5795
     0.6111   0.6949   0.7163   0.8963   0.9011   0.9046

     the Fermi energy is     0.3993 ev

!    total energy              =   -1144.43521331 Ry
     Harris-Foulkes estimate   =   -1144.43517573 Ry
     estimated scf accuracy    <       0.00000532 Ry

     The total energy is the sum of the following terms:

     one-electron contribution =   -5478.89925455 Ry
     hartree contribution      =    2731.56328531 Ry
     xc contribution           =    -344.18211029 Ry
     ewald contribution        =    1947.20885940 Ry
     electric field correction =       0.00120933 Ry
     smearing contrib. (-TS)   =      -0.12720252 Ry

     convergence has been achieved in  11 iterations
 
 BEEF-vdW xc energy contributions
           1 :   -300.110827545917     
           2 :    269.395156543764     
           3 :   -216.576951696428     
           4 :    154.677411134616     
           5 :   -95.7438385387775     
           6 :    47.3139325726383     
           7 :   -11.9362631932598     
           8 :   -11.0695638627413     
           9 :    23.3917221480002     
          10 :   -26.4871569692446     
          11 :    21.6787327855424     
          12 :   -10.9658766617390     
          13 :   -2.45791127717268     
          14 :    14.6349449676852     
          15 :   -22.0974695886761     
          16 :    23.1552063638812     
          17 :   -18.3771976917845     
          18 :    10.0031232929190     
          19 :  -0.752855775441731     
          20 :   -7.20689899342278     
          21 :    12.6639449765242     
          22 :   -15.1920846269605     
          23 :    14.8125035458464     
          24 :   -11.8424123103264     
          25 :    6.97481826025194     
          26 :   -1.35495300659630     
          27 :   -3.60150310493123     
          28 :    6.66612662429486     
          29 :   -7.28542746608758     
          30 :    5.77971380262909     
          31 :   -28.8049941550204     
          32 :   -19.6829997501713     

     Forces acting on atoms (Ry/au):


     negative rho (up, down):  4.909E-04 0.000E+00
     atom    1 type  1   force =    -0.00066167   -0.00038244    0.00579338
     atom    2 type  1   force =     0.00066169   -0.00039552    0.00579083
     atom    3 type  1   force =    -0.00001015    0.00077802    0.00579533
     atom    4 type  1   force =     0.00001148    0.00000448    0.00583237
     atom    5 type  1   force =     0.00003417    0.00555086   -0.00008099
     atom    6 type  1   force =    -0.00003336    0.00001163    0.00395129
     atom    7 type  1   force =    -0.00479564   -0.00280389   -0.00007600
     atom    8 type  1   force =     0.00479468   -0.00276201   -0.00009292
     atom    9 type  1   force =     0.00000454   -0.00001453    0.05045486
     atom   10 type  1   force =     0.00000210   -0.00041820    0.00700767
     atom   11 type  1   force =    -0.00035893    0.00021927    0.00699422
     atom   12 type  1   force =     0.00035323    0.00021317    0.00701433
     atom   13 type  2   force =    -0.00000213   -0.00000084   -0.09838438

     Total force =     0.111234     Total SCF correction =     0.003863


     entering subroutine stress ...


     negative rho (up, down):  4.909E-04 0.000E+00
          total   stress  (Ry/bohr**3)                   (kbar)     P=   -5.81
  -0.00001513   0.00000000  -0.00000000         -2.23      0.00     -0.00
   0.00000000  -0.00001513   0.00000000          0.00     -2.23      0.00
  -0.00000000   0.00000000  -0.00008830         -0.00      0.00    -12.99


     number of scf cycles    =   2
     number of bfgs steps    =   1

     energy   old            =   -1144.4176445344 Ry
     energy   new            =   -1144.4352133079 Ry

     CASE: energy  _new < energy  _old

     new trust radius        =       0.1776455211 bohr
     new conv_thr            =       0.0000001000 Ry


ATOMIC_POSITIONS (crystal)
Y1       0.166666667   0.166666667   0.386999750    0   0   0
Y1       0.666666667   0.166666667   0.386999750    0   0   0
Y1       0.166666667   0.666666667   0.386999750    0   0   0
Y1       0.666666667   0.666666667   0.386999750    0   0   0
Y1       0.833333333   0.333333333   0.500000000    0   0   0
Y1       0.333333333   0.333333333   0.500000000    0   0   0
Y1       0.833333333   0.833333333   0.500000000    0   0   0
Y1       0.333333333   0.833333333   0.500000000    0   0   0
Y1      -0.000005969  -0.000000267   0.616345120
Y1       0.500065745  -0.000121880   0.613413595
Y1      -0.000125370   0.500066780   0.613412591
Y1       0.500062464   0.500058766   0.613413725
N1       0.000000316  -0.000000033   0.692792764



     Writing output data file calc.save
     Check: negative starting charge=   -0.000567
     NEW-OLD atomic charge density approx. for the potential
     Check: negative starting charge=   -0.000574

     negative rho (up, down):  4.632E-04 0.000E+00
 
     Adding external electric field

     Computed dipole along edir(3) : 
        Dipole               -0.8616 Ry au,         -2.1901 Debye
        Dipole field         -0.0014 Ry au
 
        Potential amp.        0.1335 Ry
        Total length         47.6094 bohr
 

     total cpu time spent up to now is     1373.2 secs

     per-process dynamical memory:   118.1 Mb

     Self-consistent Calculation

     iteration #  1     ecut=    36.75 Ry     beta=0.30
     Davidson diagonalization with overlap
     ethr =  1.00E-06,  avg # of iterations = 12.2

     negative rho (up, down):  2.917E-04 0.000E+00
 
     Adding external electric field

     Computed dipole along edir(3) : 
        Dipole               -1.3205 Ry au,         -3.3564 Debye
        Dipole field         -0.0021 Ry au
 
        Potential amp.        0.2045 Ry
        Total length         47.6094 bohr
 

     total cpu time spent up to now is     1427.1 secs

     total energy              =   -1144.41647872 Ry
     Harris-Foulkes estimate   =   -1144.45600931 Ry
     estimated scf accuracy    <       0.08703073 Ry

     iteration #  2     ecut=    36.75 Ry     beta=0.30
     Davidson diagonalization with overlap
     ethr =  6.35E-05,  avg # of iterations =  9.3

     negative rho (up, down):  2.494E-04 0.000E+00
 
     Adding external electric field

     Computed dipole along edir(3) : 
        Dipole               -0.4891 Ry au,         -1.2431 Debye
        Dipole field         -0.0008 Ry au
 
        Potential amp.        0.0758 Ry
        Total length         47.6094 bohr
 

     total cpu time spent up to now is     1466.3 secs

     total energy              =   -1144.12945042 Ry
     Harris-Foulkes estimate   =   -1144.68367277 Ry
     estimated scf accuracy    <      19.83470254 Ry

     iteration #  3     ecut=    36.75 Ry     beta=0.30
     Davidson diagonalization with overlap
     ethr =  6.35E-05,  avg # of iterations =  7.7

     negative rho (up, down):  2.750E-04 0.000E+00
 
     Adding external electric field

     Computed dipole along edir(3) : 
        Dipole               -0.7651 Ry au,         -1.9447 Debye
        Dipole field         -0.0012 Ry au
 
        Potential amp.        0.1185 Ry
        Total length         47.6094 bohr
 

     total cpu time spent up to now is     1507.2 secs

     total energy              =   -1144.37543161 Ry
     Harris-Foulkes estimate   =   -1144.52984207 Ry
     estimated scf accuracy    <       5.41578648 Ry

     iteration #  4     ecut=    36.75 Ry     beta=0.30
     Davidson diagonalization with overlap
     ethr =  6.35E-05,  avg # of iterations =  8.4

     negative rho (up, down):  3.203E-04 0.000E+00
 
     Adding external electric field

     Computed dipole along edir(3) : 
        Dipole               -0.7550 Ry au,         -1.9191 Debye
        Dipole field         -0.0012 Ry au
 
        Potential amp.        0.1169 Ry
        Total length         47.6094 bohr
 

     total cpu time spent up to now is     1547.0 secs

     total energy              =   -1144.44975185 Ry
[...]
   -22.8153 -22.7653 -22.7466 -22.6741 -22.6503 -22.6240 -22.6209 -22.6040
   -22.5862 -22.5755 -22.5741 -22.5636 -22.5294 -22.4748 -22.4273 -22.3778
   -22.3482 -22.1901 -22.1552 -22.1115 -22.0730 -22.0466 -22.0235 -22.0118
   -22.0091 -21.9891 -21.9540 -21.9096 -21.8821 -21.0604 -20.8024 -20.7949
   -10.3693  -2.5533  -1.8951  -1.6679  -1.2967  -1.1384  -0.8865  -0.7578
    -0.5557  -0.4177  -0.1758  -0.1240  -0.0217   0.0722   0.2925   0.3666
     0.5074   0.5582   0.5832   0.7008   0.7852   0.8192   0.8677   0.9518
     1.0226   1.0541   1.0794   1.1963   1.2485   1.2969

          k = 0.0233-0.0673 0.0000 ( 29098 PWs)   bands (ev):

   -42.8772 -42.8665 -42.8562 -42.6034 -42.5925 -42.5834 -42.5697 -42.1224
   -42.0836 -42.0731 -42.0620 -40.6892 -22.8992 -22.8820 -22.8654 -22.8551
   -22.8153 -22.7652 -22.7466 -22.6741 -22.6503 -22.6240 -22.6209 -22.6040
   -22.5862 -22.5756 -22.5741 -22.5636 -22.5294 -22.4748 -22.4273 -22.3778
   -22.3482 -22.1900 -22.1552 -22.1115 -22.0730 -22.0466 -22.0235 -22.0118
   -22.0091 -21.9891 -21.9540 -21.9096 -21.8821 -21.0604 -20.8024 -20.7949
   -10.3693  -2.5533  -1.8951  -1.6679  -1.2967  -1.1384  -0.8865  -0.7578
    -0.5557  -0.4177  -0.1758  -0.1240  -0.0217   0.0722   0.2925   0.3666
     0.5074   0.5582   0.5832   0.7008   0.7852   0.8192   0.8677   0.9518
     1.0226   1.0541   1.0794   1.1963   1.2485   1.2969

          k = 0.0233-0.0404 0.0000 ( 29087 PWs)   bands (ev):

   -42.8824 -42.8613 -42.8562 -42.6121 -42.5854 -42.5815 -42.5699 -42.1254
   -42.0850 -42.0682 -42.0624 -40.6892 -22.9080 -22.8751 -22.8729 -22.8657
   -22.8504 -22.8200 -22.7081 -22.6900 -22.6622 -22.6612 -22.6380 -22.6143
   -22.5907 -22.5843 -22.5667 -22.5657 -22.4702 -22.4051 -22.4014 -22.3856
   -22.3225 -22.2289 -22.1944 -22.1802 -22.0500 -22.0331 -22.0199 -22.0099
   -21.9878 -21.9413 -21.9257 -21.9158 -21.8575 -21.0617 -20.7975 -20.7918
   -10.3700  -3.0761  -2.1308  -1.2911  -1.2451  -1.1792  -0.8564  -0.6903
    -0.6736  -0.5846  -0.4108  -0.3361  -0.1790  -0.0270   0.0176   0.1180
     0.3176   0.3276   0.4977   0.5613   0.7441   0.8027   0.9107   1.0949
     1.1198   1.1773   1.2589   1.3607   1.4853   1.5389

          k = 0.0466-0.0269 0.0000 ( 29058 PWs)   bands (ev):

   -42.8810 -42.8627 -42.8561 -42.6097 -42.5887 -42.5801 -42.5705 -42.1244
   -42.0850 -42.0689 -42.0628 -40.6892 -22.9056 -22.8769 -22.8757 -22.8656
   -22.8195 -22.8179 -22.7159 -22.6729 -22.6717 -22.6417 -22.6304 -22.6249
   -22.5948 -22.5814 -22.5668 -22.5643 -22.4613 -22.4559 -22.4123 -22.3762
   -22.3267 -22.2179 -22.1916 -22.1534 -22.0493 -22.0334 -22.0184 -22.0148
   -21.9874 -21.9719 -21.9405 -21.9082 -21.8616 -21.0613 -20.8002 -20.7917
   -10.3698  -2.9411  -2.0146  -1.6407  -1.1696  -0.9311  -0.7761  -0.7730
    -0.6335  -0.5558  -0.3766  -0.3462  -0.1905  -0.0224   0.1972   0.2146
     0.3844   0.3868   0.5151   0.6035   0.7879   0.7952   0.8799   1.0621
     1.0882   1.1124   1.1610   1.2605   1.4694   1.4828

          k = 0.0466 0.0000 0.0000 ( 29087 PWs)   bands (ev):

   -42.8824 -42.8613 -42.8561 -42.6121 -42.5854 -42.5815 -42.5699 -42.1254
   -42.0850 -42.0682 -42.0624 -40.6892 -22.9080 -22.8751 -22.8729 -22.8657
   -22.8504 -22.8200 -22.7081 -22.6900 -22.6622 -22.6612 -22.6380 -22.6143
   -22.5907 -22.5843 -22.5667 -22.5657 -22.4702 -22.4051 -22.4014 -22.3856
   -22.3225 -22.2289 -22.1944 -22.1802 -22.0500 -22.0331 -22.0199 -22.0099
   -21.9878 -21.9413 -21.9257 -21.9158 -21.8575 -21.0617 -20.7975 -20.7918
   -10.3700  -3.0761  -2.1308  -1.2911  -1.2451  -1.1792  -0.8564  -0.6902
    -0.6736  -0.5845  -0.4108  -0.3361  -0.1790  -0.0270   0.0176   0.1180
     0.3176   0.3276   0.4977   0.5613   0.7441   0.8027   0.9107   1.0949
     1.1198   1.1773   1.2589   1.3607   1.4853   1.5388

          k = 0.0466 0.0269 0.0000 ( 29058 PWs)   bands (ev):

   -42.8810 -42.8628 -42.8561 -42.6097 -42.5887 -42.5801 -42.5705 -42.1244
   -42.0850 -42.0689 -42.0628 -40.6892 -22.9056 -22.8769 -22.8757 -22.8655
   -22.8194 -22.8180 -22.7159 -22.6729 -22.6717 -22.6417 -22.6304 -22.6249
   -22.5948 -22.5815 -22.5668 -22.5642 -22.4613 -22.4559 -22.4123 -22.3762
   -22.3267 -22.2179 -22.1916 -22.1534 -22.0493 -22.0334 -22.0184 -22.0148
   -21.9874 -21.9719 -21.9405 -21.9082 -21.8616 -21.0613 -20.8002 -20.7917
   -10.3698  -2.9411  -2.0146  -1.6407  -1.1696  -0.9311  -0.7761  -0.7730
    -0.6335  -0.5558  -0.3766  -0.3462  -0.1905  -0.0224   0.1972   0.2146
     0.3844   0.3868   0.5151   0.6035   0.7879   0.7952   0.8799   1.0621
     1.0882   1.1124   1.1609   1.2605   1.4694   1.4828

          k = 0.0466-0.1076 0.0000 ( 29098 PWs)   bands (ev):

   -42.8772 -42.8665 -42.8561 -42.6034 -42.5925 -42.5834 -42.5697 -42.1224
   -42.0836 -42.0731 -42.0620 -40.6892 -22.8992 -22.8821 -22.8654 -22.8551
   -22.8153 -22.7653 -22.7466 -22.6741 -22.6503 -22.6240 -22.6209 -22.6040
   -22.5862 -22.5755 -22.5741 -22.5636 -22.5294 -22.4748 -22.4273 -22.3778
   -22.3482 -22.1901 -22.1552 -22.1115 -22.0730 -22.0466 -22.0235 -22.0118
   -22.0091 -21.9891 -21.9540 -21.9096 -21.8821 -21.0604 -20.8024 -20.7949
   -10.3693  -2.5533  -1.8951  -1.6679  -1.2967  -1.1384  -0.8865  -0.7578
    -0.5557  -0.4177  -0.1758  -0.1240  -0.0217   0.0722   0.2925   0.3666
     0.5074   0.5582   0.5832   0.7008   0.7852   0.8192   0.8677   0.9518
     1.0226   1.0541   1.0794   1.1963   1.2485   1.2969

          k = 0.0466-0.0807 0.0000 ( 29103 PWs)   bands (ev):

   -42.8731 -42.8705 -42.8562 -42.5962 -42.5962 -42.5878 -42.5689 -42.1215
   -42.0796 -42.0787 -42.0613 -40.6893 -22.8920 -22.8890 -22.8652 -22.8223
   -22.8043 -22.8013 -22.7124 -22.7036 -22.6102 -22.6092 -22.6029 -22.5960
   -22.5948 -22.5867 -22.5626 -22.5530 -22.5485 -22.5476 -22.3864 -22.3858
   -22.3857 -22.1542 -22.1274 -22.1067 -22.0915 -22.0595 -22.0441 -22.0088
   -22.0087 -22.0066 -21.9209 -21.9160 -21.9153 -21.0600 -20.8003 -20.7996
   -10.3691  -1.9903  -1.9775  -1.9344  -1.2638  -1.2527  -0.9903  -0.7111
    -0.6910  -0.2854   0.0429   0.0807   0.1346   0.1910   0.2234   0.2488
     0.5794   0.6499   0.6969   0.7327   0.7827   0.8013   0.8823   0.9524
     0.9528   1.0253   1.0850   1.1488   1.1912   1.2498

          k = 0.0466-0.0538 0.0000 ( 29098 PWs)   bands (ev):

   -42.8772 -42.8665 -42.8562 -42.6034 -42.5925 -42.5834 -42.5697 -42.1224
   -42.0836 -42.0731 -42.0620 -40.6892 -22.8992 -22.8820 -22.8654 -22.8551
   -22.8153 -22.7652 -22.7466 -22.6741 -22.6503 -22.6240 -22.6209 -22.6040
   -22.5862 -22.5756 -22.5741 -22.5636 -22.5294 -22.4748 -22.4273 -22.3778
   -22.3482 -22.1901 -22.1552 -22.1115 -22.0730 -22.0466 -22.0235 -22.0118
   -22.0091 -21.9891 -21.9540 -21.9096 -21.8821 -21.0604 -20.8024 -20.7949
   -10.3693  -2.5533  -1.8951  -1.6679  -1.2967  -1.1384  -0.8865  -0.7578
    -0.5557  -0.4177  -0.1758  -0.1240  -0.0217   0.0722   0.2925   0.3666
     0.5074   0.5582   0.5832   0.7008   0.7852   0.8192   0.8677   0.9518
     1.0226   1.0541   1.0794   1.1963   1.2485   1.2969

          k =-0.0699 0.0404 0.0000 ( 29048 PWs)   bands (ev):

   -42.8772 -42.8665 -42.8561 -42.6015 -42.5966 -42.5801 -42.5708 -42.1223
   -42.0846 -42.0714 -42.0628 -40.6892 -22.8992 -22.8820 -22.8704 -22.8654
   -22.7848 -22.7640 -22.7456 -22.6998 -22.6479 -22.6459 -22.6183 -22.6100
   -22.5805 -22.5674 -22.5661 -22.5218 -22.5158 -22.4889 -22.4823 -22.3527
   -22.3504 -22.1927 -22.1690 -22.0812 -22.0512 -22.0415 -22.0354 -22.0248
   -22.0116 -21.9924 -21.9851 -21.8871 -21.8839 -21.0604 -20.8043 -20.7930
   -10.3693  -2.3494  -2.3021  -1.5883  -1.3592  -0.8644  -0.7228  -0.7131
    -0.6200  -0.4575  -0.2181  -0.2025  -0.1832   0.0168   0.4632   0.5117
     0.5150   0.5480   0.6119   0.6964   0.7176   0.7816   0.8543   0.8847
     0.9589   1.0354   1.0906   1.2179   1.2635   1.2694

          k =-0.0699 0.0673 0.0000 ( 29098 PWs)   bands (ev):

   -42.8772 -42.8665 -42.8562 -42.6034 -42.5925 -42.5834 -42.5697 -42.1224
   -42.0836 -42.0731 -42.0620 -40.6892 -22.8992 -22.8820 -22.8654 -22.8551
   -22.8153 -22.7653 -22.7466 -22.6741 -22.6503 -22.6240 -22.6209 -22.6040
   -22.5862 -22.5755 -22.5741 -22.5636 -22.5294 -22.4748 -22.4273 -22.3778
   -22.3482 -22.1901 -22.1552 -22.1115 -22.0730 -22.0466 -22.0235 -22.0118
   -22.0091 -21.9891 -21.9540 -21.9096 -21.8821 -21.0604 -20.8024 -20.7949
   -10.3693  -2.5533  -1.8951  -1.6679  -1.2967  -1.1384  -0.8865  -0.7578
    -0.5557  -0.4177  -0.1758  -0.1240  -0.0217   0.0722   0.2925   0.3666
     0.5074   0.5582   0.5832   0.7008   0.7852   0.8192   0.8677   0.9518
     1.0226   1.0541   1.0794   1.1963   1.2485   1.2969

          k =-0.0699 0.0942 0.0000 ( 29098 PWs)   bands (ev):

   -42.8772 -42.8665 -42.8561 -42.6034 -42.5925 -42.5834 -42.5697 -42.1224
   -42.0836 -42.0731 -42.0620 -40.6892 -22.8992 -22.8821 -22.8654 -22.8551
   -22.8153 -22.7653 -22.7466 -22.6741 -22.6503 -22.6240 -22.6209 -22.6040
   -22.5862 -22.5755 -22.5741 -22.5636 -22.5294 -22.4748 -22.4273 -22.3778
   -22.3482 -22.1901 -22.1552 -22.1115 -22.0730 -22.0466 -22.0235 -22.0118
   -22.0091 -21.9891 -21.9540 -21.9096 -21.8821 -21.0604 -20.8024 -20.7949
   -10.3693  -2.5533  -1.8951  -1.6679  -1.2967  -1.1384  -0.8865  -0.7578
    -0.5557  -0.4177  -0.1758  -0.1240  -0.0217   0.0722   0.2925   0.3666
     0.5074   0.5582   0.5832   0.7008   0.7852   0.8192   0.8677   0.9518
     1.0226   1.0541   1.0794   1.1963   1.2485   1.2969

          k =-0.0699-0.0404 0.0000 ( 29048 PWs)   bands (ev):

   -42.8772 -42.8666 -42.8561 -42.6015 -42.5966 -42.5801 -42.5708 -42.1223
   -42.0846 -42.0713 -42.0628 -40.6892 -22.8992 -22.8821 -22.8704 -22.8653
   -22.7849 -22.7640 -22.7456 -22.6998 -22.6479 -22.6459 -22.6183 -22.6100
   -22.5805 -22.5673 -22.5661 -22.5218 -22.5158 -22.4889 -22.4823 -22.3527
   -22.3504 -22.1927 -22.1690 -22.0812 -22.0512 -22.0415 -22.0354 -22.0248
   -22.0116 -21.9924 -21.9851 -21.8871 -21.8839 -21.0604 -20.8043 -20.7930
   -10.3693  -2.3494  -2.3021  -1.5883  -1.3592  -0.8644  -0.7228  -0.7131
    -0.6200  -0.4575  -0.2181  -0.2025  -0.1832   0.0168   0.4632   0.5117
     0.5150   0.5480   0.6119   0.6964   0.7175   0.7816   0.8543   0.8847
     0.9589   1.0354   1.0906   1.2179   1.2635   1.2693

     the Fermi energy is     0.7230 ev

!    total energy              =   -1144.47504986 Ry
     Harris-Foulkes estimate   =   -1144.47505085 Ry
     estimated scf accuracy    <       0.00000002 Ry

     The total energy is the sum of the following terms:

     one-electron contribution =   -5549.39937533 Ry
     hartree contribution      =    2768.20671383 Ry
     xc contribution           =    -344.33343380 Ry
     ewald contribution        =    1981.17419173 Ry
     electric field correction =       0.00026888 Ry
     smearing contrib. (-TS)   =      -0.12341518 Ry

     convergence has been achieved in  13 iterations
 
 BEEF-vdW xc energy contributions
           1 :   -300.259778105576     
           2 :    269.580745954288     
           3 :   -216.799400726124     
           4 :    154.902808094231     
           5 :   -95.9241642311797     
           6 :    47.4100733844275     
           7 :   -11.9413608152166     
           8 :   -11.1259831891249     
           9 :    23.4660981785834     
          10 :   -26.5501798467417     
          11 :    21.7264921643990     
          12 :   -11.0109387944621     
          13 :   -2.40364628514868     
          14 :    14.5738698060862     
          15 :   -22.0483960023213     
          16 :    23.1401216006140     
          17 :   -18.4026127846687     
          18 :    10.0548187382829     
          19 :  -0.807916856115526     
          20 :   -7.16505220857618     
          21 :    12.6394912758029     
          22 :   -15.1792798750781     
          23 :    14.8016791451391     
          24 :   -11.8258399630269     
          25 :    6.94985170757269     
          26 :   -1.32363419733144     
          27 :   -3.63604608161950     
          28 :    6.70417609164701     
          29 :   -7.33136786933596     
          30 :    5.83825099391493     
          31 :   -28.8154599086436     
          32 :   -19.7013065357207     

     Forces acting on atoms (Ry/au):


     negative rho (up, down):  4.825E-04 0.000E+00
     atom    1 type  1   force =    -0.00031143   -0.00017971    0.00590687
     atom    2 type  1   force =     0.00031162   -0.00017954    0.00590711
     atom    3 type  1   force =     0.00000014    0.00035948    0.00590674
     atom    4 type  1   force =    -0.00000020   -0.00000031    0.00760834
     atom    5 type  1   force =    -0.00000021    0.01477570   -0.01139354
     atom    6 type  1   force =     0.00000039    0.00000045    0.01441315
     atom    7 type  1   force =    -0.01279587   -0.00738722   -0.01139587
     atom    8 type  1   force =     0.01279556   -0.00738787   -0.01139268
     atom    9 type  1   force =     0.00000142    0.00000040   -0.00042030
     atom   10 type  1   force =     0.00000086    0.00045287   -0.00147215
     atom   11 type  1   force =     0.00039128   -0.00022527   -0.00147244
     atom   12 type  1   force =    -0.00039072   -0.00022515   -0.00147607
     atom   13 type  2   force =    -0.00000286   -0.00000383   -0.00071916

     Total force =     0.002796     Total SCF correction =     0.000089


     entering subroutine stress ...


     negative rho (up, down):  4.825E-04 0.000E+00
          total   stress  (Ry/bohr**3)                   (kbar)     P=   -3.83
  -0.00002669   0.00000000  -0.00000000         -3.93      0.00     -0.00
   0.00000000  -0.00002669  -0.00000000          0.00     -3.93     -0.00
  -0.00000000  -0.00000000  -0.00002466         -0.00     -0.00     -3.63


     bfgs converged in  12 scf cycles and  11 bfgs steps
     (criteria: energy <  1.0E+00, force <  1.9E-03)

     End of BFGS Geometry Optimization

     Final energy   =   -1144.4750498635 Ry
Begin final coordinates

ATOMIC_POSITIONS (crystal)
Y1       0.166666667   0.166666667   0.386999750    0   0   0
Y1       0.666666667   0.166666667   0.386999750    0   0   0
Y1       0.166666667   0.666666667   0.386999750    0   0   0
Y1       0.666666667   0.666666667   0.386999750    0   0   0
Y1       0.833333333   0.333333333   0.500000000    0   0   0
Y1       0.333333333   0.333333333   0.500000000    0   0   0
Y1       0.833333333   0.833333333   0.500000000    0   0   0
Y1       0.333333333   0.833333333   0.500000000    0   0   0
Y1      -0.000002765   0.000003742   0.600422398
Y1       0.501136015  -0.002271115   0.617184231
Y1      -0.002274409   0.501141980   0.617183873
Y1       0.501133701   0.501139087   0.617187241
N1      -0.000002760  -0.000004193   0.675483286
End final coordinates



     Writing output data file calc.save
 
     init_run     :     18.96s CPU     19.51s WALL (       1 calls)
     electrons    :   6727.82s CPU   7248.01s WALL (      12 calls)
     update_pot   :     49.37s CPU     51.47s WALL (      11 calls)
     forces       :    306.05s CPU    328.22s WALL (      12 calls)
     stress       :    904.25s CPU    958.73s WALL (      12 calls)

     Called by init_run:
     wfcinit      :      8.02s CPU      8.14s WALL (       1 calls)
     potinit      :      3.05s CPU      3.27s WALL (       1 calls)

     Called by electrons:
     c_bands      :   2508.41s CPU   2681.90s WALL (     169 calls)
     sum_band     :   1383.75s CPU   1488.39s WALL (     169 calls)
     v_of_rho     :    486.94s CPU    531.84s WALL (     181 calls)
     newd         :   1186.21s CPU   1200.74s WALL (     181 calls)
     mix_rho      :     18.45s CPU     18.92s WALL (     169 calls)
     vdW_energy   :    220.28s CPU    243.66s WALL (     613 calls)
     vdW_ffts     :    577.67s CPU    595.55s WALL (    1250 calls)
     vdW_v        :    215.45s CPU    221.40s WALL (     613 calls)

     Called by c_bands:
     init_us_2    :     17.13s CPU     17.23s WALL (    1815 calls)
     cegterg      :   2168.47s CPU   2221.08s WALL (     845 calls)

     Called by *egterg:
     h_psi        :   1538.57s CPU   1565.14s WALL (    5002 calls)
     s_psi        :    128.78s CPU    129.05s WALL (    5002 calls)
     g_psi        :      8.55s CPU      8.58s WALL (    4152 calls)
     cdiaghg      :    131.21s CPU    132.11s WALL (    4942 calls)

     Called by h_psi:
     add_vuspsi   :    132.58s CPU    132.82s WALL (    5002 calls)

     General routines
     calbec       :    198.08s CPU    202.23s WALL (    5967 calls)
     fft          :    917.34s CPU    977.68s WALL (   37193 calls)
     ffts         :      1.07s CPU      1.13s WALL (     350 calls)
     fftw         :    883.83s CPU    914.12s WALL (  423048 calls)
     interpolate  :     10.84s CPU     11.34s WALL (     350 calls)
     davcio       :      0.00s CPU      0.04s WALL (       5 calls)
 
     Parallel routines
     fft_scatter  :   1043.50s CPU   1129.71s WALL (  460591 calls)
 
     PWSCF        :     2h14m CPU        2h24m WALL

 
   This run was terminated on:   2:21:31   3May2018            

=------------------------------------------------------------------------------=
   JOB DONE.
=------------------------------------------------------------------------------=
Job  /afs/slac/g/suncat/bin/suncat-tsmpirun -x LD_LIBRARY_PATH -wdir /scratch/qe559481_ZiMRK pw.x -npool 4 -in pw.inp

TID   HOST_NAME   COMMAND_LINE            STATUS            TERMINATION_TIME
===== ========== ================  =======================  ===================
00000 suncat0065 pw.x -npool 4 -i  Done                     05/03/2018 02:21:31
00001 suncat0065 pw.x -npool 4 -i  Done                     05/03/2018 02:21:31
00002 suncat0065 pw.x -npool 4 -i  Done                     05/03/2018 02:21:31
00003 suncat0065 pw.x -npool 4 -i  Done                     05/03/2018 02:21:31
00004 suncat0065 pw.x -npool 4 -i  Done                     05/03/2018 02:21:31
00005 suncat0065 pw.x -npool 4 -i  Done                     05/03/2018 02:21:31
00006 suncat0065 pw.x -npool 4 -i  Done                     05/03/2018 02:21:31
00007 suncat0065 pw.x -npool 4 -i  Done                     05/03/2018 02:21:31
00008 suncat0024 pw.x -npool 4 -i  Done                     05/03/2018 02:21:31
00009 suncat0024 pw.x -npool 4 -i  Done                     05/03/2018 02:21:31
00010 suncat0024 pw.x -npool 4 -i  Done                     05/03/2018 02:21:31
00011 suncat0024 pw.x -npool 4 -i  Done                     05/03/2018 02:21:31
00012 suncat0024 pw.x -npool 4 -i  Done                     05/03/2018 02:21:31
00013 suncat0024 pw.x -npool 4 -i  Done                     05/03/2018 02:21:31
00014 suncat0024 pw.x -npool 4 -i  Done                     05/03/2018 02:21:31
00015 suncat0024 pw.x -npool 4 -i  Done                     05/03/2018 02:21:31
00016 suncat0204 pw.x -npool 4 -i  Done                     05/03/2018 02:21:31
00017 suncat0204 pw.x -npool 4 -i  Done                     05/03/2018 02:21:31
00018 suncat0204 pw.x -npool 4 -i  Done                     05/03/2018 02:21:31
00019 suncat0204 pw.x -npool 4 -i  Done                     05/03/2018 02:21:31
00020 suncat0204 pw.x -npool 4 -i  Done                     05/03/2018 02:21:31
00021 suncat0204 pw.x -npool 4 -i  Done                     05/03/2018 02:21:31
00022 suncat0204 pw.x -npool 4 -i  Done                     05/03/2018 02:21:31
00023 suncat0204 pw.x -npool 4 -i  Done                     05/03/2018 02:21:31
00024 suncat0203 pw.x -npool 4 -i  Done                     05/03/2018 02:21:31
00025 suncat0203 pw.x -npool 4 -i  Done                     05/03/2018 02:21:31
00026 suncat0203 pw.x -npool 4 -i  Done                     05/03/2018 02:21:31
00027 suncat0203 pw.x -npool 4 -i  Done                     05/03/2018 02:21:31
00028 suncat0203 pw.x -npool 4 -i  Done                     05/03/2018 02:21:31
00029 suncat0203 pw.x -npool 4 -i  Done                     05/03/2018 02:21:31
00030 suncat0203 pw.x -npool 4 -i  Done                     05/03/2018 02:21:31
00031 suncat0203 pw.x -npool 4 -i  Done                     05/03/2018 02:21:31
