  python dir          : /home/users/mamunm/src/espresso
  espresso dir        : /home/users/vossj/suncat/s2/qe5/bin
  pseudo dir          : /home/users/mamunm/src/pseudo/gbrv1.5pbe
  ase-espresso py git : GITVERSION



     Program PWSCF v.5.1rc2 starts on  3Feb2018 at 20:35:11 

     This program is part of the open-source Quantum ESPRESSO suite
     for quantum simulation of materials; please cite
         "P. Giannozzi et al., J. Phys.:Condens. Matter 21 395502 (2009);
          URL http://www.quantum-espresso.org", 
     in publications or presentations arising from this work. More details at
     http://www.quantum-espresso.org/quote

     Parallel version (MPI), running on    16 processors
     R & G space division:  proc/nbgrp/npool/nimage =      16
     Reading input from pw.inp
     Message from routine read_cards :
     DEPRECATED: no units specified in CELL_PARAMETERS card

     Current dimensions of program PWSCF are:
     Max number of different atomic species (ntypx) = 10
     Max number of k-points (npk) =  40000
     Max angular momentum in pseudopotentials (lmaxx) =  3
     Presently stress not available with electric field


     **************************************************************************
     Initializing libbeef V0.1.2 with the BEEF-vdW functional.
     Citation: Wellendorff et al., PRB 85, 235149 (2012).
     **************************************************************************


     IMPORTANT: XC functional enforced from input :
     Exchange-correlation      = BEEF-VDW ( 1  4 27 13 2)
     Any further DFT definition will be discarded
     Please, verify this is what you really want


     Subspace diagonalization in iterative solution of the eigenvalue problem:
     scalapack distributed-memory algorithm (size of sub-group:  2*  2 procs)

 
     Parallelization info
     --------------------
     sticks:   dense  smooth     PW     G-vecs:    dense   smooth      PW
     Min         177      71     20                33565     8490    1340
     Max         178      72     22                33592     8516    1349
     Sum        2839    1147    337               537229   136073   21493
 


     bravais-lattice index     =            0
     lattice parameter (alat)  =       1.8897  a.u.
     unit-cell volume          =    4515.4205 (a.u.)^3
     number of atoms/cell      =           13
     number of atomic types    =            2
     number of electrons       =       246.00
     number of Kohn-Sham states=          133
     kinetic-energy cutoff     =      36.7493  Ry
     charge density cutoff     =     367.4932  Ry
     convergence threshold     =      1.0E-05
     mixing beta               =       0.3000
     number of iterations used =           10  plain     mixing
     Exchange-correlation      = BEEF-VDW ( 1  4 27 13 2)
     nstep                     =           50


     celldm(1)=   1.889726  celldm(2)=   0.000000  celldm(3)=   0.000000
     celldm(4)=   0.000000  celldm(5)=   0.000000  celldm(6)=   0.000000

     crystal axes: (cart. coord. in units of alat)
               a(1) = (   5.606773   0.000000   0.000000 )  
               a(2) = (   2.803387   4.855608   0.000000 )  
               a(3) = (   0.000000   0.000000  24.577911 )  

     reciprocal axes: (cart. coord. in units 2 pi/alat)
               b(1) = (  0.178356 -0.102974  0.000000 )  
               b(2) = (  0.000000  0.205947  0.000000 )  
               b(3) = (  0.000000  0.000000  0.040687 )  


     PseudoPot. # 1 for Zn read from file:
     /home/users/mamunm/src/pseudo/gbrv1.5pbe/Zn.UPF
     MD5 check sum: df62231357ef9e81f77b2b3087fa5675
     Pseudo is Ultrasoft, Zval = 20.0
     Generated by new atomic code, or converted to UPF format
     Using radial grid of  943 points,  6 beta functions with: 
                l(1) =   0
                l(2) =   0
                l(3) =   1
                l(4) =   1
                l(5) =   2
                l(6) =   2
     Q(r) pseudized with  8 coefficients,  rinner =    1.100   1.100   1.100
                                                       1.100   1.100

     PseudoPot. # 2 for S  read from file:
     /home/users/mamunm/src/pseudo/gbrv1.5pbe/S.UPF
     MD5 check sum: 88d86576ff6df21479756cfb9bdac1df
     Pseudo is Ultrasoft + core correction, Zval =  6.0
     Generated by new atomic code, or converted to UPF format
     Using radial grid of  907 points,  6 beta functions with: 
                l(1) =   0
                l(2) =   0
                l(3) =   1
                l(4) =   1
                l(5) =   2
                l(6) =   2
     Q(r) pseudized with  8 coefficients,  rinner =    1.300   1.300   1.300
                                                       1.300   1.300

     vdW kernel table read from file vdW_kernel_table
     MD5 check sum: 095c7af220d748ca6e76c0b4c6cfb241

     atomic species   valence    mass     pseudopotential
        Zn1           20.00    65.38000     Zn( 1.00)
        S1             6.00    32.06000     S ( 1.00)

     No symmetry found



   Cartesian axes

     site n.     atom                  positions (alat units)
         1           Zn1 tau(   1) = (   1.4016933   0.8092680  10.0000000  )
         2           Zn1 tau(   2) = (   4.2050800   0.8092680  10.0000000  )
         3           Zn1 tau(   3) = (   2.8033867   3.2370721  10.0000000  )
         4           Zn1 tau(   4) = (   5.6067733   3.2370721  10.0000000  )
         5           Zn1 tau(   5) = (   5.6067733   1.6185360  12.2889556  )
         6           Zn1 tau(   6) = (   2.8033867   1.6185360  12.2889556  )
         7           Zn1 tau(   7) = (   7.0084667   4.0463401  12.2889556  )
         8           Zn1 tau(   8) = (   4.2050800   4.0463401  12.2889556  )
         9           Zn1 tau(   9) = (   0.0000000   0.0000000  14.5779113  )
        10           Zn1 tau(  10) = (   2.8033867   0.0000000  14.5779113  )
        11           Zn1 tau(  11) = (   1.4016933   2.4278041  14.5779113  )
        12           Zn1 tau(  12) = (   4.2050800   2.4278041  14.5779113  )
        13           S1  tau(  13) = (   2.8033867   1.6185360  16.0534113  )

     number of k points=    20  Fermi-Dirac smearing, width (Ry)=  0.0110
                       cart. coord. in units 2pi/alat
        k(    1) = (   0.0000000   0.0000000   0.0000000), wk =   0.0555556
        k(    2) = (   0.0000000   0.0343246   0.0000000), wk =   0.1111111
        k(    3) = (   0.0000000   0.0686491   0.0000000), wk =   0.1111111
        k(    4) = (   0.0000000  -0.1029737   0.0000000), wk =   0.0555556
        k(    5) = (   0.0297260  -0.0171623   0.0000000), wk =   0.1111111
        k(    6) = (   0.0297260   0.0171623   0.0000000), wk =   0.1111111
        k(    7) = (   0.0297260   0.0514869   0.0000000), wk =   0.1111111
        k(    8) = (   0.0297260  -0.1201360   0.0000000), wk =   0.1111111
        k(    9) = (   0.0297260  -0.0858114   0.0000000), wk =   0.1111111
        k(   10) = (   0.0297260  -0.0514869   0.0000000), wk =   0.1111111
        k(   11) = (   0.0594519  -0.0343246   0.0000000), wk =   0.1111111
        k(   12) = (   0.0594519  -0.0000000   0.0000000), wk =   0.1111111
        k(   13) = (   0.0594519   0.0343246   0.0000000), wk =   0.1111111
        k(   14) = (   0.0594519  -0.1372983   0.0000000), wk =   0.1111111
        k(   15) = (   0.0594519  -0.1029737   0.0000000), wk =   0.1111111
        k(   16) = (   0.0594519  -0.0686491   0.0000000), wk =   0.1111111
        k(   17) = (  -0.0891779   0.0514869   0.0000000), wk =   0.0555556
        k(   18) = (  -0.0891779   0.0858114   0.0000000), wk =   0.1111111
        k(   19) = (  -0.0891779   0.1201360   0.0000000), wk =   0.1111111
        k(   20) = (  -0.0891779  -0.0514869   0.0000000), wk =   0.0555556

     Dense  grid:   537229 G-vectors     FFT dimensions: (  72,  72, 288)

     Smooth grid:   136073 G-vectors     FFT dimensions: (  45,  45, 180)

     Largest allocated arrays     est. size (Mb)     dimensions
        Kohn-Sham Wavefunctions         2.22 Mb     (    1092,  133)
        NL pseudopotentials             3.90 Mb     (    1092,  234)
        Each V/rho on FFT grid          1.42 Mb     (   93312)
        Each G-vector array             0.26 Mb     (   33592)
        G-vector shells                 0.10 Mb     (   13432)
     Largest temporary arrays     est. size (Mb)     dimensions
        Auxiliary wavefunctions         8.86 Mb     (    1092,  532)
        Each subspace H/S matrix        1.08 Mb     (     266,  266)
        Each <psi_i|beta_j> matrix      0.47 Mb     (     234,  133)
        Arrays for rho mixing          14.24 Mb     (   93312,   10)

     Initial potential from superposition of free atoms
     Check: negative starting charge=   -0.000808

     starting charge  245.99827, renormalised to  246.00000

     negative rho (up, down):  8.082E-04 0.000E+00


     ************************************************************************
     *
     * You are using vdW-DF for exchange-correlation in this calculation.
     * Please cite the following three references that made this development
     * possible:
     *
     *   M. Dion, H. Rydberg, E. Schroder, D. C. Langreth, and
     *   B. I. Lundqvist, Phys. Rev. Lett. 92, 246401 (2004).
     *
     *   T. Thonhauser, V. R. Cooper, S. Li, A. Puzder, P. Hyldgaard, and
     *   D. C. Langreth, Phys. Rev. B 76, 125112 (2007).
     *
     *   G. Roman-Perez and J. M. Soler, Phys. Rev. Lett. 103, 096102 (2009).
     *
     *
     * If you are using vdW-DF2, please also cite:
     *
     *   K. Lee, E. D. Murray, L. Kong, B. I. Lundqvist, and
     *   D. C. Langreth, Phys. Rev. B 82, 081101(R) (2010).
     *
     *
     * If you are calculating the stress with vdW-DF, please also cite:
     *
     *   R. Sabatini, E. Kucukbenli, B. Kolb, T. Thonhauser, and
     *   S. de Gironcoli, J. Phys.: Condens. Matter 24, 424209 (2012).
     *
     ************************************************************************

     Carrying out vdW-DF run using the following parameters:

     Nqs =      20    Nr_points =    1024   r_max =   100.000
     q_mesh =
               0.00001000     0.04494208     0.09755937     0.15916263
               0.23128650     0.31572767     0.41458969     0.53033537
               0.66584808     0.82450364     1.01025438     1.22772762
               1.48234092     1.78043706     2.12944203     2.53805004
               3.01644009     3.57652955     4.23227104     5.00000000

     Gradients computed in reciprocal space

     ************************************************************************


 
     Adding external electric field

     Computed dipole along edir(3) : 
        Dipole               -0.0000 Ry au,         -0.0001 Debye
        Dipole field         -0.0000 Ry au
 
        Potential amp.        0.0000 Ry
        Total length         45.2844 bohr
 
     Starting wfc are  160 randomized atomic wfcs

     total cpu time spent up to now is        7.1 secs

     per-process dynamical memory:    51.8 Mb

     Self-consistent Calculation

     iteration #  1     ecut=    36.75 Ry     beta=0.30
     Davidson diagonalization with overlap
     ethr =  1.00E-02,  avg # of iterations =  3.0

     Threshold (ethr) on eigenvalues was too large:
     Diagonalizing with lowered threshold

     Davidson diagonalization with overlap
     ethr =  1.81E-04,  avg # of iterations =  4.4

     negative rho (up, down):  8.627E-04 0.000E+00
 
     Adding external electric field

     Computed dipole along edir(3) : 
        Dipole               -1.0661 Ry au,         -2.7098 Debye
        Dipole field         -0.0030 Ry au
 
        Potential amp.        0.2687 Ry
        Total length         45.2844 bohr
 

     total cpu time spent up to now is       38.9 secs

     total energy              =   -5577.61239576 Ry
     Harris-Foulkes estimate   =   -5577.78183421 Ry
     estimated scf accuracy    <       0.45212041 Ry

     iteration #  2     ecut=    36.75 Ry     beta=0.30
     Davidson diagonalization with overlap
     ethr =  1.84E-04,  avg # of iterations =  5.5

     negative rho (up, down):  9.944E-04 0.000E+00
 
     Adding external electric field

     Computed dipole along edir(3) : 
        Dipole                0.1008 Ry au,          0.2562 Debye
        Dipole field          0.0003 Ry au
 
        Potential amp.       -0.0254 Ry
        Total length         45.2844 bohr
 

     total cpu time spent up to now is       59.2 secs

     total energy              =   -5577.44766022 Ry
     Harris-Foulkes estimate   =   -5577.88723825 Ry
     estimated scf accuracy    <       3.83475719 Ry

     iteration #  3     ecut=    36.75 Ry     beta=0.30
     Davidson diagonalization with overlap
     ethr =  1.84E-04,  avg # of iterations =  4.8

     negative rho (up, down):  1.016E-03 0.000E+00
 
     Adding external electric field

     Computed dipole along edir(3) : 
        Dipole               -0.1627 Ry au,         -0.4136 Debye
        Dipole field         -0.0005 Ry au
 
        Potential amp.        0.0410 Ry
        Total length         45.2844 bohr
 

     total cpu time spent up to now is       77.5 secs

     total energy              =   -5577.69436187 Ry
     Harris-Foulkes estimate   =   -5577.75111738 Ry
     estimated scf accuracy    <       0.57860338 Ry

     iteration #  4     ecut=    36.75 Ry     beta=0.30
     Davidson diagonalization with overlap
     ethr =  1.84E-04,  avg # of iterations =  3.4

     negative rho (up, down):  1.007E-03 0.000E+00
 
     Adding external electric field

     Computed dipole along edir(3) : 
        Dipole               -0.1417 Ry au,         -0.3601 Debye
        Dipole field         -0.0004 Ry au
 
        Potential amp.        0.0357 Ry
        Total length         45.2844 bohr
 

     total cpu time spent up to now is       93.3 secs

     total energy              =   -5577.71973920 Ry
     Harris-Foulkes estimate   =   -5577.72574519 Ry
     estimated scf accuracy    <       0.03466267 Ry

     iteration #  5     ecut=    36.75 Ry     beta=0.30
     Davidson diagonalization with overlap
     ethr =  1.41E-05,  avg # of iterations =  3.5

     negative rho (up, down):  9.984E-04 0.000E+00
 
     Adding external electric field

     Computed dipole along edir(3) : 
        Dipole               -0.1456 Ry au,         -0.3701 Debye
        Dipole field         -0.0004 Ry au
 
        Potential amp.        0.0367 Ry
        Total length         45.2844 bohr
 

     total cpu time spent up to now is      109.2 secs

     total energy              =   -5577.72346127 Ry
     Harris-Foulkes estimate   =   -5577.72319852 Ry
     estimated scf accuracy    <       0.00798170 Ry

     iteration #  6     ecut=    36.75 Ry     beta=0.30
     Davidson diagonalization with overlap
     ethr =  3.24E-06,  avg # of iterations =  2.5

     negative rho (up, down):  1.018E-03 0.000E+00
 
     Adding external electric field

     Computed dipole along edir(3) : 
        Dipole               -0.1342 Ry au,         -0.3411 Debye
        Dipole field         -0.0004 Ry au
 
        Potential amp.        0.0338 Ry
        Total length         45.2844 bohr
 

     total cpu time spent up to now is      124.2 secs

     total energy              =   -5577.72403940 Ry
     Harris-Foulkes estimate   =   -5577.72406397 Ry
     estimated scf accuracy    <       0.00172110 Ry

     iteration #  7     ecut=    36.75 Ry     beta=0.30
     Davidson diagonalization with overlap
     ethr =  7.00E-07,  avg # of iterations =  2.0

     negative rho (up, down):  1.030E-03 0.000E+00
 
     Adding external electric field

     Computed dipole along edir(3) : 
        Dipole               -0.1352 Ry au,         -0.3437 Debye
        Dipole field         -0.0004 Ry au
 
        Potential amp.        0.0341 Ry
        Total length         45.2844 bohr
 

     total cpu time spent up to now is      138.1 secs

     total energy              =   -5577.72419198 Ry
     Harris-Foulkes estimate   =   -5577.72414357 Ry
     estimated scf accuracy    <       0.00014660 Ry

     iteration #  8     ecut=    36.75 Ry     beta=0.30
     Davidson diagonalization with overlap
     ethr =  5.96E-08,  avg # of iterations =  2.5

     negative rho (up, down):  1.033E-03 0.000E+00
 
     Adding external electric field

     Computed dipole along edir(3) : 
        Dipole               -0.1383 Ry au,         -0.3516 Debye
        Dipole field         -0.0004 Ry au
 
        Potential amp.        0.0349 Ry
        Total length         45.2844 bohr
 

     total cpu time spent up to now is      153.8 secs

     total energy              =   -5577.72421711 Ry
     Harris-Foulkes estimate   =   -5577.72421024 Ry
     estimated scf accuracy    <       0.00003229 Ry

     iteration #  9     ecut=    36.75 Ry     beta=0.30
     Davidson diagonalization with overlap
     ethr =  1.31E-08,  avg # of iterations =  2.5

     negative rho (up, down):  1.049E-03 0.000E+00

     negative rho (up, down):  1.049E-03 0.000E+00

     negative rho (up, down):  1.049E-03 0.000E+00

     negative rho (up, down):  1.049E-03 0.000E+00

     negative rho (up, down):  1.049E-03 0.000E+00

     negative rho (up, down):  1.049E-03 0.000E+00

     negative rho (up, down):  1.049E-03 0.000E+00

     negative rho (up, down):  1.049E-03 0.000E+00

     negative rho (up, down):  1.049E-03 0.000E+00

     negative rho (up, down):  1.049E-03 0.000E+00

     negative rho (up, down):  1.049E-03 0.000E+00

     negative rho (up, down):  1.049E-03 0.000E+00

     negative rho (up, down):  1.049E-03 0.000E+00

     negative rho (up, down):  1.049E-03 0.000E+00

     negative rho (up, down):  1.049E-03 0.000E+00

     negative rho (up, down):  1.049E-03 0.000E+00

     negative rho (up, down):  1.049E-03 0.000E+00

     negative rho (up, down):  1.049E-03 0.000E+00

     negative rho (up, down):  1.049E-03 0.000E+00

     negative rho (up, down):  1.049E-03 0.000E+00

     negative rho (up, down):  1.049E-03 0.000E+00

     negative rho (up, down):  1.049E-03 0.000E+00

     negative rho (up, down):  1.049E-03 0.000E+00

     negative rho (up, down):  1.049E-03 0.000E+00

     negative rho (up, down):  1.049E-03 0.000E+00

     negative rho (up, down):  1.049E-03 0.000E+00

     negative rho (up, down):  1.049E-03 0.000E+00

     negative rho (up, down):  1.049E-03 0.000E+00

     negative rho (up, down):  1.049E-03 0.000E+00

     negative rho (up, down):  1.049E-03 0.000E+00

     negative rho (up, down):  1.049E-03 0.000E+00

     negative rho (up, down):  1.049E-03 0.000E+00

     negative rho (up, down):  1.049E-03 0.000E+00

     negative rho (up, down):  1.049E-03 0.000E+00

     negative rho (up, down):  1.049E-03 0.000E+00
 
     Adding external electric field

     Computed dipole along edir(3) : 
        Dipole               -0.1233 Ry au,         -0.3134 Debye
        Dipole field         -0.0003 Ry au
 
        Potential amp.        0.0311 Ry
        Total length         45.2844 bohr
 

     total cpu time spent up to now is      180.3 secs

     End of self-consistent calculation

          k = 0.0000 0.0000 0.0000 ( 16931 PWs)   bands (ev):

  -126.2939-126.2381-126.2372-126.2372-126.2274-126.2265-126.2265-126.0517
  -126.0508-126.0508-126.0239-126.0046 -80.4776 -80.4649 -80.4649 -80.4396
   -80.4310 -80.4310 -80.4196 -80.4196 -80.4151 -80.4090 -80.4090 -80.4082
   -80.4065 -80.4048 -80.4047 -80.4036 -80.4006 -80.3998 -80.3998 -80.3937
   -80.3937 -80.2412 -80.2397 -80.2397 -80.2307 -80.2271 -80.2271 -80.2201
   -80.2185 -80.2185 -80.2142 -80.1964 -80.1964 -80.1850 -80.1799 -80.1799
   -13.4545  -8.9146  -7.9182  -7.8422  -7.8422  -7.8015  -7.8014  -7.8014
    -7.7926  -7.7670  -7.7225  -7.7225  -7.6624  -7.5610  -7.5411  -7.5411
    -7.4225  -7.4225  -7.3338  -7.2784  -7.2784  -7.2522  -7.2522  -7.2448
    -7.2287  -7.2287  -7.2069  -7.1989  -7.1989  -7.1791  -7.0706  -7.0706
    -7.0283  -7.0283  -6.9350  -6.9350  -6.9054  -6.8814  -6.8814  -6.8233
    -6.7893  -6.7893  -6.7791  -6.7491  -6.7491  -6.6936  -6.6875  -6.6875
    -6.6827  -6.6631  -6.6631  -6.6507  -6.6507  -6.6328  -6.6234  -6.6234
    -6.5916  -6.5794  -6.5794  -6.4681  -6.4517  -6.4517  -6.3683  -3.6257
    -3.3355  -3.3355  -2.9174  -2.0178  -1.8662  -1.8662  -1.6571  -1.6571
    -1.3186  -0.6994  -0.6994  -0.6987   0.3956   0.8820   0.8820   1.1809
     2.3193   2.6319   2.6319   3.0988   3.5609

          k = 0.0000 0.0343 0.0000 ( 16966 PWs)   bands (ev):

  -126.2939-126.2380-126.2372-126.2372-126.2274-126.2266-126.2265-126.0516
  -126.0508-126.0508-126.0239-126.0047 -80.4776 -80.4648 -80.4648 -80.4390
   -80.4314 -80.4309 -80.4196 -80.4195 -80.4156 -80.4091 -80.4087 -80.4082
   -80.4059 -80.4049 -80.4049 -80.4041 -80.4009 -80.3999 -80.3998 -80.3945
   -80.3939 -80.2412 -80.2398 -80.2398 -80.2301 -80.2268 -80.2266 -80.2207
   -80.2192 -80.2187 -80.2143 -80.1965 -80.1964 -80.1850 -80.1801 -80.1800
   -13.4426  -8.7514  -7.8739  -7.8244  -7.7952  -7.7724  -7.7522  -7.7498
    -7.7415  -7.6985  -7.6969  -7.6919  -7.6370  -7.5316  -7.5081  -7.4976
    -7.4195  -7.4095  -7.3185  -7.2877  -7.2682  -7.2666  -7.2470  -7.2378
    -7.2259  -7.2092  -7.2044  -7.1836  -7.1759  -7.1619  -7.0962  -7.0656
    -7.0506  -7.0160  -6.9654  -6.9561  -6.9368  -6.9184  -6.8817  -6.8683
    -6.8317  -6.8127  -6.7880  -6.7680  -6.7647  -6.7337  -6.7141  -6.7138
    -6.7061  -6.7052  -6.6898  -6.6852  -6.6681  -6.6552  -6.6406  -6.6331
    -6.6306  -6.6077  -6.5981  -6.5163  -6.5014  -6.4928  -6.1793  -4.2237
    -3.6177  -3.5470  -3.3439  -2.8154  -2.4716  -2.2405  -1.6708  -0.8457
    -0.7038  -0.5448  -0.5279   0.0010   0.7686   1.1261   1.2796   1.6570
     2.6098   2.6638   2.7241   3.2838   4.0077

          k = 0.0000 0.0686 0.0000 ( 16996 PWs)   bands (ev):

  -126.2939-126.2379-126.2373-126.2372-126.2272-126.2267-126.2265-126.0515
  -126.0510-126.0508-126.0239-126.0047 -80.4777 -80.4648 -80.4645 -80.4376
   -80.4325 -80.4307 -80.4199 -80.4190 -80.4164 -80.4094 -80.4078 -80.4078
   -80.4055 -80.4052 -80.4047 -80.4041 -80.4011 -80.3999 -80.3999 -80.3964
   -80.3942 -80.2410 -80.2401 -80.2398 -80.2289 -80.2260 -80.2253 -80.2218
   -80.2212 -80.2189 -80.2143 -80.1966 -80.1965 -80.1851 -80.1806 -80.1802
   -13.4188  -8.3056  -7.8265  -7.7491  -7.6988  -7.6776  -7.6463  -7.6358
    -7.6266  -7.6093  -7.6085  -7.5887  -7.5176  -7.4646  -7.4258  -7.4240
    -7.4020  -7.3882  -7.3376  -7.2935  -7.2666  -7.2543  -7.2466  -7.2088
    -7.1896  -7.1710  -7.1633  -7.1552  -7.1408  -7.1277  -7.1235  -7.1124
    -7.0623  -7.0518  -7.0392  -7.0078  -6.9812  -6.9675  -6.9301  -6.9024
    -6.8846  -6.8726  -6.8582  -6.8490  -6.8173  -6.8119  -6.7879  -6.7738
    -6.7628  -6.7523  -6.7457  -6.7381  -6.7342  -6.7264  -6.7146  -6.6788
    -6.6643  -6.6258  -6.6257  -6.5919  -6.5726  -6.5579  -5.8459  -5.5897
    -4.3437  -3.8620  -3.5449  -3.3072  -2.8392  -2.4692  -1.9989  -1.0085
    -0.9597   0.0766   0.4575   0.9086   1.3796   1.8789   1.9003   3.1061
     3.1677   3.3242   3.6134   3.9071   4.7420

          k = 0.0000-0.1030 0.0000 ( 17028 PWs)   bands (ev):

  -126.2939-126.2378-126.2375-126.2372-126.2271-126.2268-126.2265-126.0514
  -126.0511-126.0508-126.0239-126.0047 -80.4777 -80.4647 -80.4645 -80.4366
   -80.4334 -80.4305 -80.4200 -80.4186 -80.4170 -80.4096 -80.4076 -80.4070
   -80.4060 -80.4057 -80.4048 -80.4027 -80.4016 -80.3998 -80.3997 -80.3980
   -80.3942 -80.2408 -80.2402 -80.2397 -80.2283 -80.2239 -80.2239 -80.2239
   -80.2233 -80.2189 -80.2143 -80.1968 -80.1965 -80.1851 -80.1809 -80.1802
   -13.4068  -7.9277  -7.8260  -7.7016  -7.6650  -7.6143  -7.5889  -7.5798
    -7.5512  -7.5079  -7.5006  -7.4817  -7.4738  -7.4549  -7.4498  -7.3941
    -7.3837  -7.3540  -7.3387  -7.2973  -7.2657  -7.2541  -7.2411  -7.2236
    -7.2054  -7.1833  -7.1463  -7.1378  -7.1146  -7.1081  -7.0913  -7.0844
    -7.0678  -7.0561  -7.0196  -7.0168  -6.9915  -6.9683  -6.9653  -6.9434
    -6.9303  -6.9018  -6.8947  -6.8928  -6.8840  -6.8661  -6.8575  -6.8325
    -6.8125  -6.8048  -6.7795  -6.7549  -6.7536  -6.7418  -6.7233  -6.6808
    -6.6653  -6.6571  -6.6270  -6.6191  -6.5795  -6.5670  -6.5319  -5.3781
    -5.0119  -3.9837  -3.6352  -3.3337  -2.9581  -2.7408  -2.0077  -1.0335
    -1.0238  -0.1803   0.9393   1.6201   1.7568   2.7234   3.0321   3.1098
     3.1499   3.5199   4.1099   4.3363   4.6760

          k = 0.0297-0.0172 0.0000 ( 16966 PWs)   bands (ev):

  -126.2939-126.2380-126.2372-126.2372-126.2274-126.2266-126.2265-126.0516
  -126.0508-126.0508-126.0239-126.0047 -80.4776 -80.4648 -80.4648 -80.4390
   -80.4314 -80.4309 -80.4196 -80.4195 -80.4156 -80.4091 -80.4087 -80.4082
   -80.4059 -80.4049 -80.4049 -80.4041 -80.4009 -80.3999 -80.3998 -80.3945
   -80.3939 -80.2412 -80.2398 -80.2398 -80.2301 -80.2268 -80.2266 -80.2207
   -80.2192 -80.2187 -80.2143 -80.1965 -80.1964 -80.1850 -80.1801 -80.1800
   -13.4426  -8.7514  -7.8739  -7.8244  -7.7952  -7.7724  -7.7522  -7.7498
    -7.7415  -7.6985  -7.6969  -7.6919  -7.6370  -7.5316  -7.5081  -7.4976
    -7.4195  -7.4095  -7.3185  -7.2877  -7.2682  -7.2666  -7.2470  -7.2378
    -7.2259  -7.2092  -7.2044  -7.1836  -7.1759  -7.1619  -7.0962  -7.0656
    -7.0506  -7.0160  -6.9654  -6.9561  -6.9368  -6.9184  -6.8817  -6.8683
    -6.8317  -6.8127  -6.7880  -6.7680  -6.7647  -6.7337  -6.7141  -6.7138
    -6.7061  -6.7052  -6.6898  -6.6852  -6.6681  -6.6552  -6.6406  -6.6331
    -6.6306  -6.6077  -6.5981  -6.5163  -6.5014  -6.4928  -6.1793  -4.2237
    -3.6177  -3.5470  -3.3439  -2.8154  -2.4716  -2.2405  -1.6708  -0.8457
    -0.7038  -0.5448  -0.5279   0.0010   0.7686   1.1261   1.2796   1.6570
     2.6098   2.6638   2.7241   3.2838   4.0077

          k = 0.0297 0.0172 0.0000 ( 16966 PWs)   bands (ev):

  -126.2939-126.2380-126.2372-126.2372-126.2274-126.2266-126.2265-126.0516
  -126.0508-126.0508-126.0239-126.0047 -80.4776 -80.4648 -80.4648 -80.4390
   -80.4314 -80.4309 -80.4196 -80.4195 -80.4156 -80.4091 -80.4087 -80.4082
   -80.4059 -80.4049 -80.4049 -80.4041 -80.4009 -80.3999 -80.3998 -80.3945
   -80.3939 -80.2412 -80.2398 -80.2398 -80.2301 -80.2268 -80.2266 -80.2207
   -80.2192 -80.2187 -80.2143 -80.1965 -80.1964 -80.1850 -80.1801 -80.1800
   -13.4426  -8.7514  -7.8739  -7.8244  -7.7952  -7.7724  -7.7522  -7.7498
    -7.7415  -7.6985  -7.6969  -7.6919  -7.6370  -7.5316  -7.5081  -7.4976
    -7.4195  -7.4095  -7.3185  -7.2877  -7.2682  -7.2666  -7.2470  -7.2378
    -7.2259  -7.2092  -7.2044  -7.1836  -7.1759  -7.1619  -7.0962  -7.0656
    -7.0506  -7.0160  -6.9655  -6.9561  -6.9368  -6.9184  -6.8817  -6.8683
    -6.8317  -6.8127  -6.7880  -6.7680  -6.7647  -6.7337  -6.7141  -6.7138
    -6.7061  -6.7052  -6.6898  -6.6852  -6.6681  -6.6552  -6.6406  -6.6331
    -6.6306  -6.6077  -6.5981  -6.5163  -6.5014  -6.4928  -6.1793  -4.2237
    -3.6177  -3.5470  -3.3439  -2.8154  -2.4716  -2.2405  -1.6708  -0.8457
    -0.7038  -0.5448  -0.5279   0.0010   0.7686   1.1261   1.2796   1.6570
     2.6098   2.6638   2.7241   3.2838   4.0077

          k = 0.0297 0.0515 0.0000 ( 16978 PWs)   bands (ev):

  -126.2939-126.2379-126.2373-126.2372-126.2273-126.2267-126.2265-126.0515
  -126.0509-126.0508-126.0239-126.0047 -80.4776 -80.4648 -80.4646 -80.4380
   -80.4322 -80.4307 -80.4198 -80.4191 -80.4162 -80.4092 -80.4082 -80.4078
   -80.4053 -80.4051 -80.4047 -80.4045 -80.4009 -80.3999 -80.3998 -80.3957
   -80.3941 -80.2410 -80.2400 -80.2398 -80.2292 -80.2265 -80.2257 -80.2216
   -80.2201 -80.2191 -80.2143 -80.1966 -80.1965 -80.1851 -80.1805 -80.1802
   -13.4248  -8.4427  -7.8129  -7.7814  -7.7308  -7.6974  -7.6796  -7.6664
    -7.6568  -7.6450  -7.6353  -7.6131  -7.5490  -7.4760  -7.4616  -7.4265
    -7.4173  -7.3884  -7.3139  -7.3043  -7.2812  -7.2660  -7.2459  -7.2122
    -7.2026  -7.1831  -7.1674  -7.1571  -7.1522  -7.1404  -7.1323  -7.1002
    -7.0654  -7.0419  -7.0060  -6.9943  -6.9786  -6.9577  -6.9280  -6.8860
    -6.8680  -6.8554  -6.8474  -6.8151  -6.8062  -6.7881  -6.7648  -6.7517
    -6.7499  -6.7326  -6.7249  -6.7240  -6.7030  -6.6993  -6.6989  -6.6653
    -6.6418  -6.6331  -6.6195  -6.5941  -6.5619  -6.5527  -5.9220  -4.8373
    -4.7306  -3.8197  -3.6146  -3.4127  -2.3726  -2.0859  -1.6193  -1.2672
    -0.8919  -0.0631  -0.0354   0.4959   1.2554   1.7930   2.1304   2.1970
     2.9943   3.4338   3.5689   3.8549   4.1511

          k = 0.0297-0.1201 0.0000 ( 16986 PWs)   bands (ev):

  -126.2939-126.2378-126.2375-126.2372-126.2271-126.2268-126.2265-126.0514
  -126.0511-126.0508-126.0239-126.0047 -80.4777 -80.4646 -80.4645 -80.4365
   -80.4335 -80.4305 -80.4200 -80.4185 -80.4170 -80.4094 -80.4076 -80.4074
   -80.4059 -80.4055 -80.4049 -80.4028 -80.4013 -80.4000 -80.3996 -80.3976
   -80.3944 -80.2407 -80.2402 -80.2398 -80.2280 -80.2256 -80.2239 -80.2236
   -80.2217 -80.2194 -80.2143 -80.1967 -80.1965 -80.1851 -80.1808 -80.1803
   -13.4069  -7.9708  -7.7699  -7.6956  -7.6415  -7.6177  -7.5912  -7.5679
    -7.5595  -7.5468  -7.5294  -7.4974  -7.4492  -7.4440  -7.4357  -7.4036
    -7.3775  -7.3541  -7.3222  -7.3092  -7.2852  -7.2504  -7.2405  -7.2256
    -7.2124  -7.1938  -7.1666  -7.1447  -7.1351  -7.1216  -7.1137  -7.1081
    -7.0642  -7.0605  -7.0477  -7.0287  -7.0182  -6.9843  -6.9725  -6.9541
    -6.9367  -6.9037  -6.8919  -6.8781  -6.8643  -6.8561  -6.8371  -6.8232
    -6.8001  -6.7858  -6.7701  -6.7541  -6.7428  -6.7307  -6.6921  -6.6861
    -6.6737  -6.6577  -6.6425  -6.6203  -6.6076  -6.5866  -6.0555  -5.4552
    -5.0469  -4.6541  -3.8947  -3.3116  -2.8008  -2.1809  -1.6406  -1.1341
    -0.6714   0.3403   0.5494   0.7138   1.6421   2.2083   2.6099   2.8657
     3.5223   3.8447   3.9737   4.2391   4.6413

          k = 0.0297-0.0858 0.0000 ( 16986 PWs)   bands (ev):

  -126.2939-126.2378-126.2375-126.2372-126.2271-126.2268-126.2265-126.0514
  -126.0511-126.0508-126.0239-126.0047 -80.4777 -80.4646 -80.4645 -80.4365
   -80.4335 -80.4305 -80.4200 -80.4185 -80.4170 -80.4094 -80.4076 -80.4074
   -80.4059 -80.4055 -80.4049 -80.4028 -80.4013 -80.4000 -80.3996 -80.3976
   -80.3944 -80.2407 -80.2402 -80.2398 -80.2280 -80.2256 -80.2239 -80.2236
   -80.2217 -80.2194 -80.2143 -80.1967 -80.1965 -80.1851 -80.1808 -80.1803
   -13.4069  -7.9708  -7.7699  -7.6956  -7.6415  -7.6177  -7.5912  -7.5679
    -7.5595  -7.5468  -7.5294  -7.4974  -7.4492  -7.4440  -7.4357  -7.4036
    -7.3775  -7.3541  -7.3222  -7.3092  -7.2852  -7.2504  -7.2405  -7.2256
    -7.2124  -7.1938  -7.1666  -7.1447  -7.1351  -7.1216  -7.1137  -7.1081
    -7.0642  -7.0605  -7.0477  -7.0287  -7.0182  -6.9843  -6.9725  -6.9541
    -6.9367  -6.9037  -6.8919  -6.8781  -6.8643  -6.8561  -6.8371  -6.8232
    -6.8001  -6.7858  -6.7701  -6.7541  -6.7428  -6.7307  -6.6921  -6.6861
    -6.6737  -6.6577  -6.6425  -6.6203  -6.6076  -6.5866  -6.0555  -5.4552
    -5.0469  -4.6541  -3.8947  -3.3116  -2.8008  -2.1809  -1.6406  -1.1341
    -0.6714   0.3403   0.5494   0.7138   1.6421   2.2083   2.6099   2.8657
     3.5223   3.8447   3.9737   4.2391   4.6413

          k = 0.0297-0.0515 0.0000 ( 16978 PWs)   bands (ev):

  -126.2939-126.2379-126.2373-126.2372-126.2273-126.2267-126.2265-126.0515
  -126.0509-126.0508-126.0239-126.0047 -80.4776 -80.4648 -80.4646 -80.4380
   -80.4322 -80.4307 -80.4198 -80.4191 -80.4162 -80.4092 -80.4082 -80.4078
   -80.4053 -80.4051 -80.4047 -80.4045 -80.4009 -80.3999 -80.3998 -80.3957
   -80.3941 -80.2410 -80.2400 -80.2398 -80.2292 -80.2265 -80.2257 -80.2216
   -80.2201 -80.2191 -80.2143 -80.1966 -80.1965 -80.1851 -80.1805 -80.1802
   -13.4248  -8.4427  -7.8129  -7.7814  -7.7308  -7.6974  -7.6796  -7.6664
    -7.6568  -7.6450  -7.6353  -7.6131  -7.5490  -7.4760  -7.4616  -7.4265
    -7.4173  -7.3884  -7.3139  -7.3043  -7.2812  -7.2660  -7.2459  -7.2122
    -7.2026  -7.1831  -7.1674  -7.1571  -7.1522  -7.1404  -7.1323  -7.1002
    -7.0654  -7.0419  -7.0060  -6.9943  -6.9786  -6.9577  -6.9280  -6.8860
    -6.8680  -6.8554  -6.8474  -6.8151  -6.8062  -6.7881  -6.7648  -6.7517
    -6.7499  -6.7326  -6.7249  -6.7240  -6.7030  -6.6993  -6.6989  -6.6653
    -6.6418  -6.6331  -6.6195  -6.5941  -6.5619  -6.5527  -5.9220  -4.8373
    -4.7306  -3.8197  -3.6146  -3.4127  -2.3726  -2.0859  -1.6193  -1.2672
    -0.8919  -0.0631  -0.0354   0.4959   1.2554   1.7930   2.1304   2.1970
     2.9943   3.4338   3.5689   3.8549   4.1511

          k = 0.0595-0.0343 0.0000 ( 16996 PWs)   bands (ev):

  -126.2939-126.2379-126.2373-126.2372-126.2272-126.2267-126.2265-126.0515
  -126.0510-126.0508-126.0239-126.0047 -80.4777 -80.4648 -80.4645 -80.4376
   -80.4325 -80.4307 -80.4199 -80.4190 -80.4164 -80.4094 -80.4078 -80.4078
   -80.4055 -80.4052 -80.4047 -80.4041 -80.4011 -80.3999 -80.3999 -80.3964
   -80.3942 -80.2410 -80.2401 -80.2398 -80.2289 -80.2260 -80.2253 -80.2218
   -80.2212 -80.2189 -80.2143 -80.1966 -80.1965 -80.1851 -80.1806 -80.1802
   -13.4188  -8.3056  -7.8265  -7.7491  -7.6988  -7.6776  -7.6463  -7.6358
    -7.6266  -7.6093  -7.6085  -7.5887  -7.5176  -7.4646  -7.4258  -7.4240
    -7.4020  -7.3882  -7.3376  -7.2935  -7.2666  -7.2543  -7.2466  -7.2088
    -7.1896  -7.1710  -7.1633  -7.1552  -7.1408  -7.1277  -7.1235  -7.1124
    -7.0623  -7.0518  -7.0392  -7.0078  -6.9812  -6.9675  -6.9301  -6.9024
    -6.8846  -6.8726  -6.8582  -6.8490  -6.8173  -6.8119  -6.7879  -6.7738
    -6.7628  -6.7524  -6.7457  -6.7381  -6.7342  -6.7264  -6.7146  -6.6788
    -6.6643  -6.6258  -6.6257  -6.5919  -6.5726  -6.5579  -5.8459  -5.5897
    -4.3437  -3.8620  -3.5449  -3.3072  -2.8391  -2.4692  -1.9989  -1.0085
    -0.9597   0.0766   0.4575   0.9086   1.3796   1.8789   1.9003   3.1061
     3.1677   3.3242   3.6134   3.9071   4.7420

          k = 0.0595-0.0000 0.0000 ( 16978 PWs)   bands (ev):

  -126.2939-126.2379-126.2373-126.2372-126.2273-126.2267-126.2265-126.0515
  -126.0509-126.0508-126.0239-126.0047 -80.4776 -80.4648 -80.4646 -80.4380
   -80.4322 -80.4307 -80.4198 -80.4191 -80.4162 -80.4092 -80.4082 -80.4078
   -80.4053 -80.4051 -80.4047 -80.4045 -80.4009 -80.3999 -80.3998 -80.3957
   -80.3941 -80.2410 -80.2400 -80.2398 -80.2292 -80.2265 -80.2257 -80.2216
   -80.2201 -80.2191 -80.2143 -80.1966 -80.1965 -80.1851 -80.1805 -80.1802
   -13.4248  -8.4427  -7.8129  -7.7814  -7.7308  -7.6974  -7.6796  -7.6664
    -7.6568  -7.6450  -7.6353  -7.6131  -7.5490  -7.4760  -7.4616  -7.4265
    -7.4173  -7.3884  -7.3139  -7.3043  -7.2812  -7.2660  -7.2459  -7.2122
    -7.2026  -7.1831  -7.1674  -7.1571  -7.1522  -7.1404  -7.1323  -7.1002
    -7.0654  -7.0419  -7.0060  -6.9943  -6.9786  -6.9577  -6.9280  -6.8860
    -6.8680  -6.8554  -6.8474  -6.8151  -6.8062  -6.7881  -6.7648  -6.7517
    -6.7499  -6.7326  -6.7249  -6.7240  -6.7030  -6.6993  -6.6989  -6.6653
    -6.6418  -6.6331  -6.6195  -6.5941  -6.5619  -6.5527  -5.9220  -4.8373
    -4.7306  -3.8197  -3.6146  -3.4127  -2.3726  -2.0859  -1.6193  -1.2672
    -0.8919  -0.0631  -0.0354   0.4959   1.2554   1.7930   2.1304   2.1970
     2.9943   3.4338   3.5689   3.8549   4.1511

          k = 0.0595 0.0343 0.0000 ( 16996 PWs)   bands (ev):

  -126.2939-126.2379-126.2373-126.2372-126.2272-126.2267-126.2265-126.0515
  -126.0510-126.0508-126.0239-126.0047 -80.4777 -80.4648 -80.4645 -80.4376
   -80.4325 -80.4307 -80.4199 -80.4190 -80.4164 -80.4094 -80.4078 -80.4078
   -80.4055 -80.4052 -80.4047 -80.4041 -80.4011 -80.3999 -80.3998 -80.3964
   -80.3941 -80.2410 -80.2401 -80.2398 -80.2289 -80.2260 -80.2253 -80.2218
   -80.2212 -80.2189 -80.2143 -80.1966 -80.1965 -80.1851 -80.1806 -80.1802
   -13.4188  -8.3056  -7.8265  -7.7491  -7.6988  -7.6776  -7.6463  -7.6358
    -7.6266  -7.6093  -7.6085  -7.5887  -7.5176  -7.4646  -7.4258  -7.4240
    -7.4020  -7.3882  -7.3376  -7.2935  -7.2666  -7.2543  -7.2466  -7.2088
    -7.1896  -7.1710  -7.1633  -7.1552  -7.1408  -7.1277  -7.1235  -7.1124
    -7.0623  -7.0518  -7.0392  -7.0078  -6.9812  -6.9675  -6.9301  -6.9024
    -6.8846  -6.8726  -6.8582  -6.8490  -6.8173  -6.8119  -6.7879  -6.7738
    -6.7628  -6.7524  -6.7457  -6.7381  -6.7342  -6.7264  -6.7146  -6.6788
    -6.6643  -6.6258  -6.6257  -6.5919  -6.5726  -6.5579  -5.8459  -5.5897
    -4.3437  -3.8620  -3.5449  -3.3072  -2.8391  -2.4692  -1.9989  -1.0085
    -0.9597   0.0766   0.4575   0.9086   1.3796   1.8789   1.9003   3.1061
     3.1677   3.3242   3.6134   3.9071   4.7420

          k = 0.0595-0.1373 0.0000 ( 16986 PWs)   bands (ev):

  -126.2939-126.2378-126.2375-126.2372-126.2271-126.2268-126.2265-126.0514
  -126.0511-126.0508-126.0239-126.0047 -80.4777 -80.4646 -80.4645 -80.4365
   -80.4335 -80.4305 -80.4200 -80.4185 -80.4170 -80.4094 -80.4076 -80.4074
   -80.4059 -80.4055 -80.4049 -80.4028 -80.4013 -80.4000 -80.3996 -80.3976
   -80.3943 -80.2407 -80.2402 -80.2398 -80.2279 -80.2256 -80.2239 -80.2236
   -80.2217 -80.2194 -80.2143 -80.1967 -80.1965 -80.1851 -80.1808 -80.1803
   -13.4069  -7.9708  -7.7699  -7.6956  -7.6415  -7.6177  -7.5912  -7.5679
    -7.5595  -7.5468  -7.5294  -7.4974  -7.4492  -7.4440  -7.4357  -7.4036
    -7.3775  -7.3541  -7.3222  -7.3092  -7.2852  -7.2504  -7.2405  -7.2256
    -7.2124  -7.1938  -7.1666  -7.1447  -7.1351  -7.1216  -7.1137  -7.1081
    -7.0642  -7.0605  -7.0477  -7.0287  -7.0182  -6.9843  -6.9725  -6.9541
    -6.9367  -6.9037  -6.8919  -6.8781  -6.8643  -6.8561  -6.8371  -6.8232
    -6.8001  -6.7858  -6.7701  -6.7541  -6.7428  -6.7307  -6.6921  -6.6861
    -6.6737  -6.6577  -6.6425  -6.6203  -6.6076  -6.5866  -6.0555  -5.4552
    -5.0469  -4.6541  -3.8947  -3.3116  -2.8008  -2.1809  -1.6406  -1.1341
    -0.6714   0.3403   0.5494   0.7138   1.6421   2.2083   2.6099   2.8657
     3.5223   3.8447   3.9737   4.2391   4.6413

          k = 0.0595-0.1030 0.0000 ( 17004 PWs)   bands (ev):

  -126.2939-126.2376-126.2376-126.2372-126.2270-126.2270-126.2265-126.0512
  -126.0512-126.0508-126.0239-126.0047 -80.4776 -80.4646 -80.4646 -80.4351
   -80.4350 -80.4304 -80.4202 -80.4179 -80.4178 -80.4092 -80.4074 -80.4073
   -80.4066 -80.4055 -80.4051 -80.4017 -80.4015 -80.4003 -80.3994 -80.3984
   -80.3947 -80.2404 -80.2404 -80.2398 -80.2264 -80.2264 -80.2249 -80.2222
   -80.2222 -80.2203 -80.2143 -80.1967 -80.1967 -80.1851 -80.1807 -80.1807
   -13.4010  -7.7961  -7.6915  -7.6162  -7.5882  -7.5523  -7.5383  -7.5266
    -7.4973  -7.4892  -7.4886  -7.4850  -7.4615  -7.4495  -7.4402  -7.4255
    -7.3819  -7.3401  -7.3318  -7.3211  -7.3034  -7.2686  -7.2500  -7.2429
    -7.2177  -7.1945  -7.1669  -7.1546  -7.1362  -7.1245  -7.1203  -7.1050
    -7.0896  -7.0745  -7.0546  -7.0468  -7.0429  -7.0230  -7.0136  -6.9894
    -6.9525  -6.9524  -6.9511  -6.8896  -6.8783  -6.8421  -6.8382  -6.8378
    -6.8089  -6.7836  -6.7660  -6.7475  -6.7251  -6.7069  -6.6997  -6.6912
    -6.6738  -6.6667  -6.6650  -6.6496  -6.6295  -6.2143  -6.1163  -6.0643
    -4.8850  -4.8683  -4.5954  -3.0953  -2.9269  -2.4357  -0.9705  -0.8187
    -0.1368   0.4688   0.4980   0.6884   1.7126   1.8521   1.8968   2.8013
     2.9836   3.6663   4.3728   4.3910   5.0871

          k = 0.0595-0.0686 0.0000 ( 16986 PWs)   bands (ev):

  -126.2939-126.2378-126.2375-126.2372-126.2271-126.2268-126.2265-126.0514
  -126.0511-126.0508-126.0239-126.0047 -80.4777 -80.4646 -80.4645 -80.4365
   -80.4335 -80.4305 -80.4200 -80.4185 -80.4170 -80.4094 -80.4076 -80.4074
   -80.4059 -80.4055 -80.4049 -80.4028 -80.4013 -80.4000 -80.3996 -80.3976
   -80.3943 -80.2407 -80.2402 -80.2398 -80.2279 -80.2256 -80.2239 -80.2236
   -80.2217 -80.2194 -80.2143 -80.1967 -80.1965 -80.1851 -80.1808 -80.1803
   -13.4069  -7.9708  -7.7699  -7.6956  -7.6415  -7.6177  -7.5912  -7.5679
    -7.5595  -7.5468  -7.5294  -7.4974  -7.4492  -7.4440  -7.4357  -7.4036
    -7.3775  -7.3541  -7.3222  -7.3092  -7.2852  -7.2504  -7.2405  -7.2256
    -7.2124  -7.1938  -7.1666  -7.1447  -7.1351  -7.1216  -7.1137  -7.1081
    -7.0642  -7.0605  -7.0477  -7.0287  -7.0182  -6.9843  -6.9725  -6.9541
    -6.9367  -6.9037  -6.8919  -6.8781  -6.8643  -6.8561  -6.8371  -6.8232
    -6.8001  -6.7858  -6.7701  -6.7541  -6.7428  -6.7307  -6.6921  -6.6861
    -6.6737  -6.6577  -6.6425  -6.6203  -6.6076  -6.5866  -6.0555  -5.4552
    -5.0469  -4.6541  -3.8947  -3.3116  -2.8008  -2.1809  -1.6406  -1.1341
    -0.6714   0.3403   0.5494   0.7138   1.6421   2.2083   2.6099   2.8657
     3.5223   3.8447   3.9737   4.2391   4.6413

          k =-0.0892 0.0515 0.0000 ( 17028 PWs)   bands (ev):

  -126.2939-126.2378-126.2375-126.2372-126.2271-126.2268-126.2265-126.0514
  -126.0511-126.0508-126.0239-126.0047 -80.4777 -80.4647 -80.4645 -80.4366
   -80.4334 -80.4305 -80.4200 -80.4186 -80.4170 -80.4096 -80.4076 -80.4070
   -80.4060 -80.4057 -80.4048 -80.4027 -80.4016 -80.3998 -80.3997 -80.3980
   -80.3942 -80.2408 -80.2403 -80.2397 -80.2283 -80.2239 -80.2239 -80.2239
   -80.2233 -80.2189 -80.2143 -80.1968 -80.1965 -80.1851 -80.1809 -80.1802
   -13.4068  -7.9277  -7.8260  -7.7016  -7.6650  -7.6143  -7.5889  -7.5798
    -7.5512  -7.5079  -7.5006  -7.4817  -7.4738  -7.4549  -7.4498  -7.3941
    -7.3837  -7.3540  -7.3387  -7.2973  -7.2657  -7.2541  -7.2411  -7.2236
    -7.2054  -7.1833  -7.1463  -7.1378  -7.1146  -7.1081  -7.0913  -7.0844
    -7.0678  -7.0561  -7.0196  -7.0168  -6.9915  -6.9683  -6.9653  -6.9434
    -6.9303  -6.9018  -6.8947  -6.8928  -6.8840  -6.8661  -6.8575  -6.8325
    -6.8125  -6.8048  -6.7795  -6.7549  -6.7536  -6.7418  -6.7233  -6.6808
    -6.6653  -6.6571  -6.6270  -6.6191  -6.5795  -6.5671  -6.5319  -5.3781
    -5.0119  -3.9837  -3.6352  -3.3337  -2.9581  -2.7408  -2.0077  -1.0335
    -1.0238  -0.1803   0.9393   1.6201   1.7568   2.7234   3.0321   3.1098
     3.1499   3.5199   4.1099   4.3363   4.6760

          k =-0.0892 0.0858 0.0000 ( 16986 PWs)   bands (ev):

  -126.2939-126.2378-126.2375-126.2372-126.2271-126.2268-126.2265-126.0514
  -126.0511-126.0508-126.0239-126.0047 -80.4777 -80.4646 -80.4645 -80.4365
   -80.4335 -80.4305 -80.4200 -80.4185 -80.4170 -80.4094 -80.4076 -80.4074
   -80.4059 -80.4055 -80.4049 -80.4028 -80.4013 -80.4000 -80.3996 -80.3976
   -80.3943 -80.2407 -80.2402 -80.2398 -80.2279 -80.2256 -80.2239 -80.2236
   -80.2217 -80.2194 -80.2143 -80.1967 -80.1965 -80.1851 -80.1808 -80.1803
   -13.4069  -7.9708  -7.7699  -7.6956  -7.6415  -7.6177  -7.5912  -7.5679
    -7.5595  -7.5468  -7.5294  -7.4974  -7.4492  -7.4440  -7.4357  -7.4036
    -7.3775  -7.3541  -7.3222  -7.3092  -7.2852  -7.2504  -7.2405  -7.2256
    -7.2124  -7.1938  -7.1666  -7.1447  -7.1351  -7.1216  -7.1137  -7.1081
    -7.0642  -7.0605  -7.0477  -7.0287  -7.0182  -6.9843  -6.9725  -6.9541
    -6.9367  -6.9037  -6.8919  -6.8781  -6.8643  -6.8561  -6.8371  -6.8232
    -6.8001  -6.7858  -6.7701  -6.7541  -6.7428  -6.7307  -6.6921  -6.6861
    -6.6737  -6.6577  -6.6425  -6.6203  -6.6076  -6.5866  -6.0555  -5.4552
    -5.0469  -4.6541  -3.8947  -3.3116  -2.8008  -2.1809  -1.6406  -1.1341
    -0.6714   0.3403   0.5494   0.7138   1.6421   2.2083   2.6099   2.8657
     3.5223   3.8447   3.9737   4.2391   4.6413

          k =-0.0892 0.1201 0.0000 ( 16986 PWs)   bands (ev):

  -126.2939-126.2378-126.2375-126.2372-126.2271-126.2268-126.2265-126.0514
  -126.0511-126.0508-126.0239-126.0047 -80.4777 -80.4646 -80.4645 -80.4365
   -80.4335 -80.4305 -80.4200 -80.4185 -80.4170 -80.4094 -80.4076 -80.4074
   -80.4059 -80.4055 -80.4049 -80.4028 -80.4013 -80.4000 -80.3996 -80.3976
   -80.3943 -80.2407 -80.2402 -80.2398 -80.2279 -80.2256 -80.2239 -80.2236
   -80.2217 -80.2194 -80.2143 -80.1967 -80.1965 -80.1851 -80.1808 -80.1803
   -13.4069  -7.9708  -7.7699  -7.6956  -7.6415  -7.6177  -7.5912  -7.5679
    -7.5595  -7.5468  -7.5294  -7.4974  -7.4492  -7.4440  -7.4357  -7.4036
    -7.3775  -7.3541  -7.3222  -7.3092  -7.2852  -7.2504  -7.2405  -7.2256
    -7.2124  -7.1938  -7.1666  -7.1447  -7.1351  -7.1216  -7.1137  -7.1081
    -7.0642  -7.0605  -7.0477  -7.0287  -7.0182  -6.9843  -6.9725  -6.9541
    -6.9367  -6.9037  -6.8919  -6.8781  -6.8643  -6.8561  -6.8371  -6.8232
    -6.8001  -6.7858  -6.7701  -6.7541  -6.7428  -6.7307  -6.6921  -6.6861
    -6.6737  -6.6577  -6.6425  -6.6203  -6.6076  -6.5866  -6.0555  -5.4552
    -5.0469  -4.6541  -3.8947  -3.3116  -2.8008  -2.1809  -1.6406  -1.1341
    -0.6714   0.3403   0.5494   0.7138   1.6421   2.2083   2.6099   2.8657
     3.5223   3.8447   3.9737   4.2391   4.6413

          k =-0.0892-0.0515 0.0000 ( 17028 PWs)   bands (ev):

  -126.2939-126.2378-126.2375-126.2372-126.2271-126.2268-126.2265-126.0514
  -126.0511-126.0508-126.0239-126.0047 -80.4777 -80.4647 -80.4645 -80.4366
   -80.4334 -80.4305 -80.4200 -80.4186 -80.4170 -80.4096 -80.4076 -80.4070
   -80.4060 -80.4057 -80.4048 -80.4027 -80.4016 -80.3998 -80.3997 -80.3980
   -80.3942 -80.2408 -80.2403 -80.2397 -80.2283 -80.2239 -80.2239 -80.2239
   -80.2233 -80.2189 -80.2143 -80.1968 -80.1965 -80.1851 -80.1809 -80.1802
   -13.4068  -7.9277  -7.8260  -7.7016  -7.6650  -7.6143  -7.5889  -7.5798
    -7.5512  -7.5079  -7.5006  -7.4817  -7.4738  -7.4549  -7.4498  -7.3941
    -7.3837  -7.3540  -7.3387  -7.2973  -7.2657  -7.2541  -7.2411  -7.2236
    -7.2054  -7.1833  -7.1463  -7.1378  -7.1146  -7.1081  -7.0913  -7.0844
    -7.0678  -7.0561  -7.0196  -7.0168  -6.9915  -6.9683  -6.9653  -6.9434
    -6.9303  -6.9018  -6.8947  -6.8928  -6.8840  -6.8661  -6.8575  -6.8325
    -6.8125  -6.8048  -6.7795  -6.7549  -6.7536  -6.7418  -6.7233  -6.6808
    -6.6653  -6.6571  -6.6270  -6.6191  -6.5795  -6.5671  -6.5319  -5.3781
    -5.0119  -3.9837  -3.6352  -3.3337  -2.9581  -2.7408  -2.0077  -1.0335
    -1.0238  -0.1803   0.9393   1.6201   1.7568   2.7234   3.0321   3.1098
     3.1499   3.5199   4.1099   4.3363   4.6760

     the Fermi energy is     0.5344 ev

!    total energy              =   -5577.72422156 Ry
     Harris-Foulkes estimate   =   -5577.72423228 Ry
     estimated scf accuracy    <       0.00000611 Ry

     The total energy is the sum of the following terms:

     one-electron contribution =  -36149.65730872 Ry
     hartree contribution      =   18055.69549656 Ry
     xc contribution           =    -529.83984109 Ry
     ewald contribution        =   13046.10447965 Ry
     electric field correction =       0.00004231 Ry
     smearing contrib. (-TS)   =      -0.02709027 Ry

     convergence has been achieved in   9 iterations
 
 BEEF-vdW xc energy contributions
           1 :   -470.468424675366     
           2 :    426.256345444652     
           3 :   -352.079482070056     
           4 :    269.393062778084     
           5 :   -197.198603053789     
           6 :    144.978218255417     
           7 :   -111.402489475948     
           8 :    88.5493939678773     
           9 :   -68.3863826166981     
          10 :    47.4565873284032     
          11 :   -27.4445263011364     
          12 :    12.2044512658209     
          13 :   -3.96648150340638     
          14 :    1.47769727530181     
          15 :   -1.04395469864397     
          16 :  -0.744404470401037     
          17 :    4.82227442784750     
          18 :   -9.51692208029488     
          19 :    12.3064894306290     
          20 :   -11.9553693095596     
          21 :    9.41423647491331     
          22 :   -6.96284222768520     
          23 :    6.42269637197359     
          24 :   -7.87418491090290     
          25 :    9.79377133522439     
          26 :   -10.3795043783284     
          27 :    8.96055265575910     
          28 :   -6.42354405259601     
          29 :    4.42011433971771     
          30 :   -4.05882499461484     
          31 :   -36.6845204996799     
          32 :   -25.0426663034675     

     Forces acting on atoms (Ry/au):


     negative rho (up, down):  1.049E-03 0.000E+00
     atom    1 type  1   force =    -0.00268694   -0.00155164   -0.00932851
     atom    2 type  1   force =     0.00268718   -0.00155102   -0.00933199
     atom    3 type  1   force =    -0.00000033    0.00310514   -0.00933301
     atom    4 type  1   force =    -0.00000074   -0.00000052   -0.00648587
     atom    5 type  1   force =    -0.00000128    0.00219622    0.00581015
     atom    6 type  1   force =    -0.00000255   -0.00000218    0.00067870
     atom    7 type  1   force =    -0.00190700   -0.00109817    0.00580682
     atom    8 type  1   force =     0.00190451   -0.00109705    0.00580889
     atom    9 type  1   force =    -0.00000257    0.00000048   -0.00816229
     atom   10 type  1   force =     0.00000408   -0.06891226   -0.02526540
     atom   11 type  1   force =    -0.05967667    0.03445228   -0.02526770
     atom   12 type  1   force =     0.05968207    0.03445860   -0.02527191
     atom   13 type  2   force =     0.00000025    0.00000011    0.10034213

     Total force =     0.162164     Total SCF correction =     0.015576


     entering subroutine stress ...


     negative rho (up, down):  1.049E-03 0.000E+00
          total   stress  (Ry/bohr**3)                   (kbar)     P=    0.06
  -0.00004603  -0.00000000   0.00000000         -6.77     -0.00      0.00
  -0.00000000  -0.00004603   0.00000000         -0.00     -6.77      0.00
   0.00000000   0.00000000   0.00009331          0.00      0.00     13.73


     BFGS Geometry Optimization

     number of scf cycles    =   1
     number of bfgs steps    =   0

     energy   new            =   -5577.7242215599 Ry

     new trust radius        =       0.1003421286 bohr
     new conv_thr            =       0.0000099958 Ry


ATOMIC_POSITIONS (crystal)
Zn1      0.166666667   0.166666667   0.406869400    0   0   0
Zn1      0.666666667   0.166666667   0.406869400    0   0   0
Zn1      0.166666667   0.666666667   0.406869400    0   0   0
Zn1      0.666666667   0.666666667   0.406869400    0   0   0
Zn1      0.833333333   0.333333333   0.500000000    0   0   0
Zn1      0.333333333   0.333333333   0.500000000    0   0   0
Zn1      0.833333333   0.833333333   0.500000000    0   0   0
Zn1      0.333333333   0.833333333   0.500000000    0   0   0
Zn1     -0.000000269   0.000000053   0.592954861
Zn1      0.503755506  -0.007510243   0.592586621
Zn1     -0.007509741   0.503754702   0.592586571
Zn1      0.503755204   0.503755390   0.592586481
S1       0.333333351   0.333333346   0.655324607



     Writing output data file calc.save
     Check: negative starting charge=   -0.000808
     NEW-OLD atomic charge density approx. for the potential
     Check: negative starting charge=   -0.000801

     negative rho (up, down):  1.041E-03 0.000E+00
 
     Adding external electric field

     Computed dipole along edir(3) : 
        Dipole               -0.1233 Ry au,         -0.3134 Debye
        Dipole field         -0.0003 Ry au
 
        Potential amp.        0.0311 Ry
        Total length         45.2844 bohr
 

     total cpu time spent up to now is      200.2 secs

     per-process dynamical memory:    51.8 Mb

     Self-consistent Calculation

     iteration #  1     ecut=    36.75 Ry     beta=0.30
     Davidson diagonalization with overlap
     ethr =  1.00E-06,  avg # of iterations =  4.6

     negative rho (up, down):  1.030E-03 0.000E+00
 
     Adding external electric field

     Computed dipole along edir(3) : 
        Dipole               -0.3619 Ry au,         -0.9200 Debye
        Dipole field         -0.0010 Ry au
 
        Potential amp.        0.0912 Ry
        Total length         45.2844 bohr
 

     total cpu time spent up to now is      232.3 secs

     total energy              =   -5577.74135048 Ry
     Harris-Foulkes estimate   =   -5577.74419439 Ry
     estimated scf accuracy    <       0.00652523 Ry

     iteration #  2     ecut=    36.75 Ry     beta=0.30
     Davidson diagonalization with overlap
     ethr =  2.65E-06,  avg # of iterations =  5.5

     negative rho (up, down):  1.035E-03 0.000E+00
 
     Adding external electric field

     Computed dipole along edir(3) : 
        Dipole               -0.1713 Ry au,         -0.4354 Debye
        Dipole field         -0.0005 Ry au
 
        Potential amp.        0.0432 Ry
        Total length         45.2844 bohr
 

     total cpu time spent up to now is      252.6 secs

     total energy              =   -5577.73625066 Ry
     Harris-Foulkes estimate   =   -5577.75195291 Ry
     estimated scf accuracy    <       0.17294229 Ry

     iteration #  3     ecut=    36.75 Ry     beta=0.30
     Davidson diagonalization with overlap
     ethr =  2.65E-06,  avg # of iterations =  5.0

     negative rho (up, down):  1.035E-03 0.000E+00
 
     Adding external electric field

     Computed dipole along edir(3) : 
        Dipole               -0.1794 Ry au,         -0.4561 Debye
        Dipole field         -0.0005 Ry au
 
        Potential amp.        0.0452 Ry
        Total length         45.2844 bohr
 

     total cpu time spent up to now is      271.0 secs

     total energy              =   -5577.74396653 Ry
     Harris-Foulkes estimate   =   -5577.74409552 Ry
     estimated scf accuracy    <       0.00067788 Ry

     iteration #  4     ecut=    36.75 Ry     beta=0.30
     Davidson diagonalization with overlap
     ethr =  2.76E-07,  avg # of iterations =  2.2

     negative rho (up, down):  1.027E-03 0.000E+00
 
     Adding external electric field

     Computed dipole along edir(3) : 
        Dipole               -0.1816 Ry au,         -0.4615 Debye
        Dipole field         -0.0005 Ry au
 
        Potential amp.        0.0458 Ry
        Total length         45.2844 bohr
 

     total cpu time spent up to now is      285.0 secs

     total energy              =   -5577.74404384 Ry
     Harris-Foulkes estimate   =   -5577.74405291 Ry
     estimated scf accuracy    <       0.00009590 Ry

     iteration #  5     ecut=    36.75 Ry     beta=0.30
     Davidson diagonalization with overlap
     ethr =  3.90E-08,  avg # of iterations =  2.2

     negative rho (up, down):  1.024E-03 0.000E+00
 
     Adding external electric field

     Computed dipole along edir(3) : 
        Dipole               -0.1827 Ry au,         -0.4643 Debye
        Dipole field         -0.0005 Ry au
 
        Potential amp.        0.0460 Ry
        Total length         45.2844 bohr
 

     total cpu time spent up to now is      299.2 secs

     total energy              =   -5577.74405644 Ry
     Harris-Foulkes estimate   =   -5577.74405138 Ry
     estimated scf accuracy    <       0.00001473 Ry

     iteration #  6     ecut=    36.75 Ry     beta=0.30
     Davidson diagonalization with overlap
     ethr =  5.99E-09,  avg # of iterations =  2.0

     negative rho (up, down):  1.025E-03 0.000E+00

     negative rho (up, down):  1.025E-03 0.000E+00

     negative rho (up, down):  1.025E-03 0.000E+00

     negative rho (up, down):  1.025E-03 0.000E+00

     negative rho (up, down):  1.025E-03 0.000E+00

     negative rho (up, down):  1.025E-03 0.000E+00

     negative rho (up, down):  1.025E-03 0.000E+00

     negative rho (up, down):  1.025E-03 0.000E+00

     negative rho (up, down):  1.025E-03 0.000E+00

     negative rho (up, down):  1.025E-03 0.000E+00

     negative rho (up, down):  1.025E-03 0.000E+00

     negative rho (up, down):  1.025E-03 0.000E+00

     negative rho (up, down):  1.025E-03 0.000E+00

     negative rho (up, down):  1.025E-03 0.000E+00

     negative rho (up, down):  1.025E-03 0.000E+00

     negative rho (up, down):  1.025E-03 0.000E+00

     negative rho (up, down):  1.025E-03 0.000E+00

     negative rho (up, down):  1.025E-03 0.000E+00

     negative rho (up, down):  1.025E-03 0.000E+00

     negative rho (up, down):  1.025E-03 0.000E+00

     negative rho (up, down):  1.025E-03 0.000E+00

     negative rho (up, down):  1.025E-03 0.000E+00

     negative rho (up, down):  1.025E-03 0.000E+00

     negative rho (up, down):  1.025E-03 0.000E+00

     negative rho (up, down):  1.025E-03 0.000E+00

     negative rho (up, down):  1.025E-03 0.000E+00

     negative rho (up, down):  1.025E-03 0.000E+00

     negative rho (up, down):  1.025E-03 0.000E+00

     negative rho (up, down):  1.025E-03 0.000E+00

     negative rho (up, down):  1.025E-03 0.000E+00

     negative rho (up, down):  1.025E-03 0.000E+00

     negative rho (up, down):  1.025E-03 0.000E+00

     negative rho (up, down):  1.025E-03 0.000E+00

     negative rho (up, down):  1.025E-03 0.000E+00

     negative rho (up, down):  1.025E-03 0.000E+00
 
     Adding external electric field

     Computed dipole along edir(3) : 
        Dipole               -0.1788 Ry au,         -0.4546 Debye
        Dipole field         -0.0005 Ry au
 
        Potential amp.        0.0451 Ry
        Total length         45.2844 bohr
 

     total cpu time spent up to now is      325.2 secs

     End of self-consistent calculation

          k = 0.0000 0.0000 0.0000 ( 16931 PWs)   bands (ev):

  -126.3440-126.2921-126.2912-126.2912-126.2209-126.2199-126.2199-126.1090
  -126.1081-126.1080-126.0842-126.0665 -80.5266 -80.5157 -80.5157 -80.4726
   -80.4726 -80.4713 -80.4701 -80.4696 -80.4696 -80.4679 -80.4585 -80.4585
   -80.4232 -80.4153 -80.4153 -80.4055 -80.4055 -80.4011 -80.3806 -80.3764
   -80.3764 -80.2983 -80.2968 -80.2968 -80.2879 -80.2845 -80.2845 -80.2775
   -80.2757 -80.2757 -80.2751 -80.2568 -80.2568 -80.2471 -80.2413 -80.2413
   -13.0477  -8.9841  -7.9052  -7.8748  -7.8748  -7.8524  -7.8229  -7.8151
    -7.8151  -7.8111  -7.7551  -7.7551  -7.7263  -7.6027  -7.5875  -7.5875
    -7.3965  -7.3965  -7.3466  -7.3222  -7.3222  -7.2987  -7.2987  -7.2983
    -7.2587  -7.2527  -7.2527  -7.2332  -7.2332  -7.2256  -7.1194  -7.1194
    -7.0388  -7.0388  -6.9478  -6.9478  -6.9261  -6.9261  -6.9174  -6.8772
    -6.8308  -6.8255  -6.8255  -6.8006  -6.8006  -6.7457  -6.7457  -6.7425
    -6.7175  -6.7175  -6.7014  -6.6939  -6.6939  -6.6777  -6.6777  -6.6559
    -6.6465  -6.6042  -6.6042  -6.5253  -6.5104  -6.5104  -6.4442  -3.6510
    -3.1489  -3.1489  -2.8791  -2.0958  -1.9174  -1.9174  -1.7212  -1.7212
    -1.3718  -0.7701  -0.7701  -0.7586   0.3005   0.8322   0.8322   1.1043
     2.2426   2.5975   2.5975   3.0479   3.4775

          k = 0.0000 0.0343 0.0000 ( 16966 PWs)   bands (ev):

  -126.3440-126.2921-126.2913-126.2912-126.2209-126.2200-126.2199-126.1089
  -126.1081-126.1081-126.0842-126.0665 -80.5267 -80.5156 -80.5155 -80.4727
   -80.4724 -80.4711 -80.4697 -80.4697 -80.4696 -80.4684 -80.4593 -80.4587
   -80.4228 -80.4157 -80.4152 -80.4055 -80.4054 -80.4016 -80.3806 -80.3767
   -80.3765 -80.2984 -80.2969 -80.2969 -80.2873 -80.2842 -80.2841 -80.2780
   -80.2765 -80.2759 -80.2752 -80.2569 -80.2569 -80.2472 -80.2416 -80.2414
   -13.0347  -8.8196  -7.8605  -7.8444  -7.8252  -7.8063  -7.7881  -7.7728
    -7.7700  -7.7452  -7.7328  -7.7261  -7.6917  -7.5730  -7.5496  -7.5406
    -7.4024  -7.3849  -7.3404  -7.3308  -7.3040  -7.3025  -7.2881  -7.2854
    -7.2714  -7.2544  -7.2335  -7.2215  -7.2144  -7.2059  -7.1431  -7.1038
    -7.0553  -7.0427  -6.9977  -6.9694  -6.9694  -6.9416  -6.9210  -6.9207
    -6.8642  -6.8444  -6.8378  -6.8213  -6.8102  -6.7713  -6.7705  -6.7654
    -6.7616  -6.7416  -6.7323  -6.7229  -6.7126  -6.7083  -6.6833  -6.6802
    -6.6746  -6.6402  -6.6396  -6.5734  -6.5601  -6.5514  -6.2513  -4.2026
    -3.6236  -3.4156  -3.3128  -2.8552  -2.4758  -2.2101  -1.7212  -0.9169
    -0.7677  -0.6044  -0.5853  -0.0544   0.7043   1.0591   1.2347   1.5656
     2.5473   2.5924   2.6728   3.2382   3.9616

          k = 0.0000 0.0686 0.0000 ( 16996 PWs)   bands (ev):

  -126.3440-126.2919-126.2914-126.2912-126.2207-126.2201-126.2199-126.1088
  -126.1082-126.1081-126.0842-126.0665 -80.5267 -80.5155 -80.5152 -80.4731
   -80.4715 -80.4708 -80.4700 -80.4697 -80.4692 -80.4680 -80.4614 -80.4589
   -80.4216 -80.4165 -80.4150 -80.4058 -80.4050 -80.4023 -80.3800 -80.3775
   -80.3766 -80.2981 -80.2972 -80.2969 -80.2861 -80.2833 -80.2827 -80.2792
   -80.2785 -80.2761 -80.2753 -80.2571 -80.2570 -80.2473 -80.2421 -80.2416
   -13.0088  -8.3665  -7.8268  -7.7476  -7.7096  -7.7078  -7.6903  -7.6741
    -7.6706  -7.6561  -7.6454  -7.6312  -7.5522  -7.5020  -7.4475  -7.4251
    -7.4147  -7.4009  -7.3842  -7.3443  -7.3005  -7.2748  -7.2739  -7.2430
    -7.2219  -7.2136  -7.2058  -7.2054  -7.1828  -7.1613  -7.1592  -7.1290
    -7.1054  -7.0767  -7.0732  -7.0592  -7.0079  -6.9987  -6.9471  -6.9245
    -6.9201  -6.9097  -6.9049  -6.8804  -6.8652  -6.8553  -6.8432  -6.8206
    -6.8167  -6.8014  -6.7998  -6.7871  -6.7795  -6.7654  -6.7637  -6.7162
    -6.7072  -6.6820  -6.6673  -6.6488  -6.6282  -6.6154  -5.9079  -5.6383
    -4.3102  -3.7805  -3.5499  -3.3577  -2.8150  -2.4665  -2.0148  -1.0556
    -1.0119   0.0213   0.4125   0.8416   1.3091   1.8172   1.8464   3.0180
     3.1241   3.2528   3.5691   3.8494   4.7273

          k = 0.0000-0.1030 0.0000 ( 17028 PWs)   bands (ev):

  -126.3440-126.2918-126.2915-126.2912-126.2206-126.2202-126.2199-126.1087
  -126.1084-126.1081-126.0842-126.0665 -80.5267 -80.5155 -80.5151 -80.4734
   -80.4707 -80.4706 -80.4702 -80.4702 -80.4697 -80.4663 -80.4633 -80.4590
   -80.4208 -80.4172 -80.4148 -80.4059 -80.4047 -80.4027 -80.3797 -80.3781
   -80.3766 -80.2980 -80.2974 -80.2968 -80.2856 -80.2813 -80.2813 -80.2811
   -80.2806 -80.2761 -80.2753 -80.2573 -80.2570 -80.2473 -80.2424 -80.2417
   -12.9958  -7.9427  -7.8717  -7.7030  -7.6646  -7.6562  -7.6431  -7.6136
    -7.5750  -7.5495  -7.5463  -7.5369  -7.5203  -7.4751  -7.4295  -7.4222
    -7.4156  -7.3781  -7.3546  -7.3344  -7.3035  -7.2979  -7.2781  -7.2614
    -7.2421  -7.2066  -7.1733  -7.1591  -7.1477  -7.1426  -7.1240  -7.1176
    -7.0978  -7.0849  -7.0634  -7.0459  -7.0423  -7.0113  -7.0028  -6.9775
    -6.9584  -6.9500  -6.9469  -6.9422  -6.9095  -6.9088  -6.8970  -6.8896
    -6.8625  -6.8505  -6.8191  -6.8045  -6.8005  -6.7949  -6.7803  -6.7161
    -6.7128  -6.7086  -6.6748  -6.6725  -6.6351  -6.6240  -6.5847  -5.4041
    -5.0504  -3.9151  -3.6716  -3.2924  -2.9289  -2.7445  -2.0720  -1.0718
    -1.0650  -0.2286   0.8870   1.5350   1.6905   2.6770   2.9695   3.0489
     3.1072   3.4318   4.0863   4.3411   4.6811

          k = 0.0297-0.0172 0.0000 ( 16966 PWs)   bands (ev):

  -126.3440-126.2921-126.2913-126.2912-126.2209-126.2200-126.2199-126.1089
  -126.1081-126.1081-126.0842-126.0665 -80.5267 -80.5156 -80.5155 -80.4727
   -80.4724 -80.4711 -80.4697 -80.4697 -80.4696 -80.4684 -80.4593 -80.4587
   -80.4228 -80.4157 -80.4152 -80.4055 -80.4054 -80.4016 -80.3806 -80.3767
   -80.3765 -80.2984 -80.2969 -80.2969 -80.2873 -80.2842 -80.2841 -80.2780
   -80.2765 -80.2759 -80.2752 -80.2569 -80.2569 -80.2472 -80.2416 -80.2414
   -13.0347  -8.8196  -7.8605  -7.8444  -7.8252  -7.8063  -7.7881  -7.7728
    -7.7700  -7.7452  -7.7328  -7.7261  -7.6917  -7.5730  -7.5496  -7.5406
    -7.4024  -7.3849  -7.3404  -7.3308  -7.3040  -7.3025  -7.2881  -7.2854
    -7.2714  -7.2544  -7.2335  -7.2215  -7.2144  -7.2059  -7.1431  -7.1038
    -7.0553  -7.0427  -6.9977  -6.9694  -6.9694  -6.9416  -6.9210  -6.9207
    -6.8642  -6.8444  -6.8378  -6.8213  -6.8102  -6.7713  -6.7705  -6.7654
    -6.7616  -6.7416  -6.7323  -6.7229  -6.7126  -6.7083  -6.6833  -6.6802
    -6.6746  -6.6402  -6.6396  -6.5734  -6.5601  -6.5514  -6.2513  -4.2026
    -3.6236  -3.4156  -3.3128  -2.8552  -2.4758  -2.2101  -1.7212  -0.9169
    -0.7677  -0.6044  -0.5853  -0.0544   0.7043   1.0591   1.2347   1.5656
     2.5473   2.5924   2.6728   3.2382   3.9616

          k = 0.0297 0.0172 0.0000 ( 16966 PWs)   bands (ev):

  -126.3440-126.2921-126.2913-126.2912-126.2209-126.2200-126.2199-126.1089
  -126.1081-126.1081-126.0842-126.0665 -80.5267 -80.5156 -80.5155 -80.4727
   -80.4724 -80.4711 -80.4697 -80.4697 -80.4696 -80.4684 -80.4593 -80.4587
   -80.4228 -80.4157 -80.4152 -80.4055 -80.4054 -80.4016 -80.3806 -80.3767
   -80.3765 -80.2984 -80.2969 -80.2969 -80.2873 -80.2842 -80.2841 -80.2780
   -80.2765 -80.2759 -80.2752 -80.2569 -80.2569 -80.2472 -80.2416 -80.2414
   -13.0347  -8.8196  -7.8605  -7.8444  -7.8252  -7.8063  -7.7881  -7.7728
    -7.7700  -7.7452  -7.7328  -7.7261  -7.6917  -7.5730  -7.5496  -7.5406
    -7.4024  -7.3849  -7.3404  -7.3308  -7.3040  -7.3025  -7.2881  -7.2854
    -7.2714  -7.2544  -7.2335  -7.2215  -7.2144  -7.2059  -7.1431  -7.1038
    -7.0553  -7.0427  -6.9977  -6.9694  -6.9694  -6.9416  -6.9210  -6.9207
    -6.8642  -6.8444  -6.8378  -6.8213  -6.8102  -6.7713  -6.7705  -6.7654
    -6.7616  -6.7416  -6.7323  -6.7229  -6.7126  -6.7083  -6.6833  -6.6802
    -6.6746  -6.6402  -6.6396  -6.5734  -6.5601  -6.5514  -6.2513  -4.2026
    -3.6236  -3.4156  -3.3128  -2.8552  -2.4758  -2.2101  -1.7212  -0.9169
    -0.7677  -0.6044  -0.5853  -0.0544   0.7043   1.0591   1.2347   1.5656
     2.5473   2.5924   2.6728   3.2382   3.9616

          k = 0.0297 0.0515 0.0000 ( 16978 PWs)   bands (ev):

  -126.3440-126.2920-126.2914-126.2912-126.2208-126.2201-126.2199-126.1088
  -126.1082-126.1081-126.0842-126.0665 -80.5267 -80.5155 -80.5153 -80.4729
   -80.4720 -80.4708 -80.4699 -80.4697 -80.4690 -80.4685 -80.4606 -80.4589
   -80.4219 -80.4163 -80.4150 -80.4057 -80.4051 -80.4021 -80.3801 -80.3773
   -80.3766 -80.2981 -80.2971 -80.2969 -80.2864 -80.2839 -80.2831 -80.2790
   -80.2774 -80.2763 -80.2752 -80.2571 -80.2570 -80.2472 -80.2419 -80.2416
   -13.0153  -8.5070  -7.8052  -7.7741  -7.7593  -7.7295  -7.7178  -7.7078
    -7.6947  -7.6879  -7.6744  -7.6546  -7.5856  -7.5102  -7.4996  -7.4502
    -7.4288  -7.3712  -7.3669  -7.3312  -7.3096  -7.2958  -7.2809  -7.2515
    -7.2413  -7.2277  -7.2126  -7.2038  -7.1926  -7.1767  -7.1679  -7.1198
    -7.0987  -7.0752  -7.0442  -7.0265  -7.0080  -6.9955  -6.9424  -6.9185
    -6.9042  -6.8947  -6.8782  -6.8572  -6.8488  -6.8286  -6.8216  -6.8017
    -6.7910  -6.7813  -6.7719  -6.7600  -6.7546  -6.7486  -6.7449  -6.7067
    -6.6893  -6.6863  -6.6678  -6.6478  -6.6190  -6.6106  -5.9894  -4.8334
    -4.7881  -3.7727  -3.5382  -3.4032  -2.3842  -2.0563  -1.6555  -1.3261
    -0.9461  -0.1268  -0.0810   0.4284   1.1909   1.7332   2.0716   2.1120
     2.9384   3.3875   3.5485   3.8000   4.0678

          k = 0.0297-0.1201 0.0000 ( 16986 PWs)   bands (ev):

  -126.3440-126.2918-126.2915-126.2912-126.2206-126.2202-126.2199-126.1087
  -126.1084-126.1081-126.0842-126.0665 -80.5267 -80.5154 -80.5151 -80.4730
   -80.4712 -80.4705 -80.4702 -80.4699 -80.4697 -80.4665 -80.4628 -80.4592
   -80.4207 -80.4172 -80.4147 -80.4059 -80.4046 -80.4028 -80.3796 -80.3780
   -80.3766 -80.2979 -80.2973 -80.2969 -80.2852 -80.2829 -80.2812 -80.2809
   -80.2790 -80.2766 -80.2752 -80.2572 -80.2570 -80.2472 -80.2423 -80.2418
   -12.9959  -8.0107  -7.7748  -7.6766  -7.6699  -7.6456  -7.6280  -7.6160
    -7.5992  -7.5972  -7.5701  -7.5393  -7.4837  -7.4779  -7.4666  -7.4307
    -7.3973  -7.3616  -7.3557  -7.3323  -7.3104  -7.2800  -7.2743  -7.2641
    -7.2506  -7.2232  -7.2041  -7.1819  -7.1735  -7.1575  -7.1471  -7.1316
    -7.1065  -7.0978  -7.0895  -7.0652  -7.0590  -7.0117  -7.0034  -6.9787
    -6.9661  -6.9580  -6.9421  -6.9196  -6.9050  -6.8972  -6.8760  -6.8681
    -6.8484  -6.8351  -6.8139  -6.8074  -6.7854  -6.7792  -6.7394  -6.7325
    -6.7235  -6.7097  -6.6898  -6.6736  -6.6613  -6.6437  -6.1083  -5.5008
    -5.0855  -4.6560  -3.8438  -3.2745  -2.7564  -2.1941  -1.6919  -1.1604
    -0.7221   0.2700   0.4871   0.6554   1.5875   2.1634   2.5379   2.8148
     3.4538   3.7722   3.9414   4.2136   4.5974

          k = 0.0297-0.0858 0.0000 ( 16986 PWs)   bands (ev):

  -126.3440-126.2918-126.2915-126.2912-126.2206-126.2202-126.2199-126.1087
  -126.1084-126.1081-126.0842-126.0665 -80.5267 -80.5154 -80.5151 -80.4730
   -80.4712 -80.4705 -80.4702 -80.4699 -80.4697 -80.4665 -80.4628 -80.4592
   -80.4207 -80.4172 -80.4147 -80.4059 -80.4046 -80.4028 -80.3796 -80.3780
   -80.3766 -80.2979 -80.2973 -80.2969 -80.2852 -80.2829 -80.2812 -80.2809
   -80.2790 -80.2766 -80.2752 -80.2572 -80.2570 -80.2472 -80.2423 -80.2418
   -12.9959  -8.0107  -7.7748  -7.6766  -7.6699  -7.6456  -7.6280  -7.6160
    -7.5992  -7.5972  -7.5701  -7.5393  -7.4837  -7.4779  -7.4666  -7.4307
    -7.3973  -7.3616  -7.3557  -7.3323  -7.3104  -7.2800  -7.2743  -7.2641
    -7.2506  -7.2232  -7.2041  -7.1819  -7.1735  -7.1575  -7.1471  -7.1316
    -7.1065  -7.0978  -7.0895  -7.0652  -7.0590  -7.0117  -7.0034  -6.9787
    -6.9661  -6.9580  -6.9421  -6.9196  -6.9050  -6.8972  -6.8760  -6.8681
    -6.8484  -6.8351  -6.8139  -6.8074  -6.7854  -6.7792  -6.7394  -6.7325
    -6.7235  -6.7097  -6.6898  -6.6736  -6.6613  -6.6437  -6.1083  -5.5008
    -5.0855  -4.6560  -3.8438  -3.2745  -2.7564  -2.1941  -1.6919  -1.1604
    -0.7221   0.2700   0.4871   0.6554   1.5875   2.1634   2.5379   2.8148
     3.4538   3.7722   3.9414   4.2136   4.5974

          k = 0.0297-0.0515 0.0000 ( 16978 PWs)   bands (ev):

  -126.3440-126.2920-126.2914-126.2912-126.2208-126.2201-126.2199-126.1088
  -126.1082-126.1081-126.0842-126.0665 -80.5267 -80.5155 -80.5153 -80.4729
   -80.4720 -80.4708 -80.4699 -80.4697 -80.4690 -80.4685 -80.4606 -80.4589
   -80.4219 -80.4163 -80.4150 -80.4057 -80.4051 -80.4021 -80.3801 -80.3773
   -80.3766 -80.2981 -80.2971 -80.2969 -80.2864 -80.2839 -80.2831 -80.2790
   -80.2774 -80.2763 -80.2752 -80.2571 -80.2570 -80.2472 -80.2419 -80.2416
   -13.0153  -8.5070  -7.8052  -7.7741  -7.7593  -7.7295  -7.7178  -7.7078
    -7.6947  -7.6879  -7.6744  -7.6546  -7.5856  -7.5102  -7.4996  -7.4502
    -7.4288  -7.3712  -7.3669  -7.3312  -7.3096  -7.2958  -7.2809  -7.2515
    -7.2413  -7.2277  -7.2126  -7.2038  -7.1926  -7.1767  -7.1679  -7.1198
    -7.0987  -7.0752  -7.0442  -7.0265  -7.0080  -6.9955  -6.9424  -6.9185
    -6.9042  -6.8947  -6.8782  -6.8572  -6.8488  -6.8286  -6.8216  -6.8017
    -6.7910  -6.7813  -6.7719  -6.7600  -6.7546  -6.7486  -6.7449  -6.7067
    -6.6893  -6.6863  -6.6678  -6.6478  -6.6190  -6.6106  -5.9894  -4.8334
    -4.7881  -3.7727  -3.5382  -3.4032  -2.3842  -2.0563  -1.6555  -1.3261
    -0.9461  -0.1268  -0.0809   0.4284   1.1909   1.7332   2.0716   2.1120
     2.9384   3.3875   3.5485   3.8000   4.0678

          k = 0.0595-0.0343 0.0000 ( 16996 PWs)   bands (ev):

  -126.3440-126.2919-126.2914-126.2912-126.2207-126.2201-126.2199-126.1088
  -126.1082-126.1081-126.0842-126.0665 -80.5267 -80.5155 -80.5152 -80.4731
   -80.4715 -80.4708 -80.4700 -80.4697 -80.4692 -80.4680 -80.4614 -80.4589
   -80.4216 -80.4165 -80.4150 -80.4058 -80.4050 -80.4023 -80.3800 -80.3775
   -80.3766 -80.2981 -80.2972 -80.2969 -80.2861 -80.2833 -80.2827 -80.2792
   -80.2785 -80.2761 -80.2753 -80.2571 -80.2570 -80.2473 -80.2421 -80.2416
   -13.0088  -8.3665  -7.8268  -7.7476  -7.7096  -7.7078  -7.6903  -7.6741
    -7.6706  -7.6561  -7.6454  -7.6312  -7.5522  -7.5020  -7.4475  -7.4251
    -7.4147  -7.4009  -7.3842  -7.3443  -7.3005  -7.2748  -7.2739  -7.2430
    -7.2219  -7.2136  -7.2058  -7.2054  -7.1828  -7.1613  -7.1592  -7.1290
    -7.1054  -7.0767  -7.0732  -7.0592  -7.0079  -6.9987  -6.9471  -6.9245
    -6.9201  -6.9097  -6.9049  -6.8804  -6.8652  -6.8553  -6.8432  -6.8206
    -6.8167  -6.8014  -6.7998  -6.7871  -6.7795  -6.7654  -6.7637  -6.7162
    -6.7072  -6.6820  -6.6673  -6.6488  -6.6282  -6.6154  -5.9079  -5.6383
    -4.3102  -3.7805  -3.5499  -3.3577  -2.8150  -2.4665  -2.0148  -1.0556
    -1.0119   0.0213   0.4125   0.8416   1.3091   1.8172   1.8464   3.0180
     3.1241   3.2528   3.5691   3.8494   4.7273

          k = 0.0595-0.0000 0.0000 ( 16978 PWs)   bands (ev):

  -126.3440-126.2920-126.2914-126.2912-126.2208-126.2201-126.2199-126.1088
  -126.1082-126.1081-126.0842-126.0665 -80.5267 -80.5155 -80.5153 -80.4729
   -80.4720 -80.4708 -80.4699 -80.4697 -80.4690 -80.4685 -80.4606 -80.4589
   -80.4219 -80.4163 -80.4150 -80.4057 -80.4051 -80.4021 -80.3801 -80.3773
   -80.3766 -80.2981 -80.2971 -80.2969 -80.2864 -80.2839 -80.2831 -80.2790
   -80.2774 -80.2763 -80.2752 -80.2571 -80.2570 -80.2472 -80.2419 -80.2416
   -13.0153  -8.5070  -7.8052  -7.7741  -7.7593  -7.7295  -7.7178  -7.7078
    -7.6947  -7.6879  -7.6744  -7.6546  -7.5856  -7.5102  -7.4996  -7.4502
    -7.4288  -7.3712  -7.3669  -7.3312  -7.3096  -7.2958  -7.2809  -7.2515
    -7.2413  -7.2277  -7.2126  -7.2038  -7.1926  -7.1767  -7.1679  -7.1198
    -7.0987  -7.0752  -7.0442  -7.0265  -7.0080  -6.9955  -6.9424  -6.9185
    -6.9042  -6.8947  -6.8782  -6.8572  -6.8488  -6.8286  -6.8216  -6.8017
    -6.7910  -6.7813  -6.7719  -6.7600  -6.7546  -6.7486  -6.7449  -6.7067
    -6.6893  -6.6863  -6.6678  -6.6478  -6.6190  -6.6106  -5.9894  -4.8334
    -4.7881  -3.7727  -3.5382  -3.4032  -2.3842  -2.0563  -1.6555  -1.3261
    -0.9461  -0.1268  -0.0810   0.4284   1.1909   1.7332   2.0716   2.1120
     2.9384   3.3875   3.5485   3.8000   4.0678

          k = 0.0595 0.0343 0.0000 ( 16996 PWs)   bands (ev):

  -126.3440-126.2919-126.2914-126.2912-126.2207-126.2201-126.2199-126.1088
  -126.1082-126.1081-126.0842-126.0665 -80.5267 -80.5155 -80.5152 -80.4731
   -80.4715 -80.4708 -80.4700 -80.4697 -80.4692 -80.4680 -80.4614 -80.4589
   -80.4216 -80.4165 -80.4150 -80.4058 -80.4050 -80.4023 -80.3800 -80.3775
   -80.3766 -80.2981 -80.2972 -80.2969 -80.2861 -80.2833 -80.2827 -80.2792
   -80.2785 -80.2761 -80.2753 -80.2571 -80.2570 -80.2473 -80.2421 -80.2416
   -13.0088  -8.3665  -7.8268  -7.7476  -7.7096  -7.7078  -7.6903  -7.6741
    -7.6706  -7.6561  -7.6454  -7.6312  -7.5522  -7.5020  -7.4475  -7.4251
    -7.4147  -7.4009  -7.3842  -7.3443  -7.3005  -7.2748  -7.2739  -7.2430
    -7.2219  -7.2136  -7.2058  -7.2054  -7.1828  -7.1613  -7.1592  -7.1290
    -7.1054  -7.0767  -7.0732  -7.0592  -7.0079  -6.9987  -6.9471  -6.9245
    -6.9201  -6.9097  -6.9049  -6.8804  -6.8652  -6.8553  -6.8432  -6.8206
    -6.8167  -6.8014  -6.7998  -6.7871  -6.7795  -6.7654  -6.7637  -6.7162
    -6.7072  -6.6820  -6.6673  -6.6488  -6.6282  -6.6154  -5.9079  -5.6383
    -4.3102  -3.7805  -3.5499  -3.3577  -2.8150  -2.4665  -2.0148  -1.0556
    -1.0119   0.0213   0.4125   0.8416   1.3091   1.8172   1.8464   3.0180
     3.1241   3.2528   3.5691   3.8494   4.7273

          k = 0.0595-0.1373 0.0000 ( 16986 PWs)   bands (ev):

  -126.3440-126.2918-126.2915-126.2912-126.2206-126.2202-126.2199-126.1087
  -126.1084-126.1081-126.0842-126.0665 -80.5267 -80.5154 -80.5151 -80.4730
   -80.4712 -80.4705 -80.4702 -80.4699 -80.4697 -80.4665 -80.4628 -80.4592
   -80.4207 -80.4172 -80.4147 -80.4059 -80.4046 -80.4028 -80.3796 -80.3780
   -80.3766 -80.2979 -80.2973 -80.2969 -80.2852 -80.2829 -80.2812 -80.2809
   -80.2790 -80.2766 -80.2752 -80.2572 -80.2570 -80.2472 -80.2423 -80.2418
   -12.9959  -8.0107  -7.7748  -7.6766  -7.6699  -7.6456  -7.6280  -7.6160
    -7.5992  -7.5972  -7.5701  -7.5393  -7.4837  -7.4779  -7.4666  -7.4307
    -7.3973  -7.3616  -7.3557  -7.3323  -7.3104  -7.2800  -7.2743  -7.2641
    -7.2506  -7.2232  -7.2041  -7.1819  -7.1735  -7.1575  -7.1471  -7.1316
    -7.1065  -7.0978  -7.0895  -7.0652  -7.0590  -7.0117  -7.0034  -6.9787
    -6.9661  -6.9580  -6.9421  -6.9196  -6.9050  -6.8972  -6.8760  -6.8681
    -6.8484  -6.8351  -6.8139  -6.8074  -6.7854  -6.7792  -6.7394  -6.7325
    -6.7235  -6.7097  -6.6898  -6.6736  -6.6613  -6.6437  -6.1083  -5.5008
    -5.0855  -4.6560  -3.8438  -3.2745  -2.7564  -2.1941  -1.6919  -1.1604
    -0.7221   0.2700   0.4871   0.6554   1.5875   2.1634   2.5379   2.8148
     3.4538   3.7722   3.9414   4.2136   4.5974

          k = 0.0595-0.1030 0.0000 ( 17004 PWs)   bands (ev):

  -126.3440-126.2917-126.2917-126.2912-126.2206-126.2203-126.2200-126.1085
  -126.1085-126.1081-126.0842-126.0665 -80.5267 -80.5152 -80.5152 -80.4728
   -80.4709 -80.4709 -80.4703 -80.4703 -80.4697 -80.4646 -80.4646 -80.4595
   -80.4201 -80.4179 -80.4147 -80.4061 -80.4043 -80.4032 -80.3793 -80.3784
   -80.3767 -80.2976 -80.2975 -80.2969 -80.2837 -80.2836 -80.2823 -80.2795
   -80.2795 -80.2775 -80.2752 -80.2572 -80.2572 -80.2472 -80.2422 -80.2422
   -12.9895  -7.7765  -7.6698  -7.6595  -7.5860  -7.5853  -7.5746  -7.5626
    -7.5406  -7.5399  -7.5328  -7.5284  -7.5075  -7.5002  -7.4956  -7.4884
    -7.3981  -7.3898  -7.3578  -7.3405  -7.2978  -7.2897  -7.2626  -7.2493
    -7.2400  -7.2120  -7.2050  -7.2022  -7.1690  -7.1602  -7.1521  -7.1471
    -7.1327  -7.1201  -7.1050  -7.0920  -7.0765  -7.0682  -7.0473  -7.0257
    -7.0082  -7.0061  -6.9709  -6.9210  -6.9176  -6.8883  -6.8867  -6.8720
    -6.8532  -6.8289  -6.8219  -6.7808  -6.7716  -6.7511  -6.7478  -6.7380
    -6.7251  -6.7199  -6.7195  -6.7054  -6.6870  -6.2520  -6.1944  -6.1091
    -4.8999  -4.8823  -4.5946  -3.0404  -2.8668  -2.4371  -0.9856  -0.8871
    -0.1952   0.4121   0.4296   0.6291   1.6714   1.8254   1.8437   2.7310
     2.8964   3.5820   4.3547   4.3612   5.0543

          k = 0.0595-0.0686 0.0000 ( 16986 PWs)   bands (ev):

  -126.3440-126.2918-126.2915-126.2912-126.2206-126.2202-126.2199-126.1087
  -126.1084-126.1081-126.0842-126.0665 -80.5267 -80.5154 -80.5151 -80.4730
   -80.4712 -80.4705 -80.4702 -80.4699 -80.4697 -80.4665 -80.4628 -80.4592
   -80.4207 -80.4172 -80.4147 -80.4059 -80.4046 -80.4028 -80.3796 -80.3780
   -80.3766 -80.2979 -80.2973 -80.2969 -80.2852 -80.2829 -80.2812 -80.2809
   -80.2790 -80.2766 -80.2752 -80.2572 -80.2570 -80.2472 -80.2423 -80.2418
   -12.9959  -8.0107  -7.7748  -7.6766  -7.6699  -7.6456  -7.6280  -7.6160
    -7.5992  -7.5972  -7.5701  -7.5393  -7.4837  -7.4779  -7.4666  -7.4307
    -7.3973  -7.3616  -7.3557  -7.3323  -7.3104  -7.2800  -7.2743  -7.2641
    -7.2506  -7.2232  -7.2041  -7.1819  -7.1735  -7.1575  -7.1471  -7.1316
    -7.1065  -7.0978  -7.0895  -7.0652  -7.0590  -7.0117  -7.0034  -6.9787
    -6.9661  -6.9580  -6.9421  -6.9196  -6.9050  -6.8972  -6.8760  -6.8681
    -6.8484  -6.8351  -6.8139  -6.8074  -6.7854  -6.7792  -6.7394  -6.7325
    -6.7235  -6.7097  -6.6898  -6.6736  -6.6613  -6.6437  -6.1083  -5.5008
    -5.0855  -4.6560  -3.8438  -3.2745  -2.7564  -2.1941  -1.6919  -1.1604
    -0.7221   0.2700   0.4871   0.6554   1.5875   2.1634   2.5379   2.8148
     3.4538   3.7722   3.9414   4.2136   4.5974

          k =-0.0892 0.0515 0.0000 ( 17028 PWs)   bands (ev):

  -126.3440-126.2918-126.2915-126.2912-126.2206-126.2202-126.2199-126.1087
  -126.1084-126.1081-126.0842-126.0665 -80.5267 -80.5155 -80.5151 -80.4734
   -80.4707 -80.4706 -80.4702 -80.4702 -80.4697 -80.4663 -80.4633 -80.4590
   -80.4208 -80.4172 -80.4148 -80.4059 -80.4047 -80.4027 -80.3797 -80.3781
   -80.3766 -80.2980 -80.2974 -80.2968 -80.2856 -80.2813 -80.2813 -80.2811
   -80.2806 -80.2761 -80.2753 -80.2573 -80.2570 -80.2473 -80.2424 -80.2417
   -12.9958  -7.9427  -7.8717  -7.7030  -7.6646  -7.6562  -7.6431  -7.6136
    -7.5750  -7.5495  -7.5463  -7.5369  -7.5203  -7.4751  -7.4295  -7.4222
    -7.4156  -7.3781  -7.3546  -7.3344  -7.3035  -7.2979  -7.2781  -7.2614
    -7.2421  -7.2066  -7.1733  -7.1591  -7.1477  -7.1426  -7.1240  -7.1176
    -7.0978  -7.0849  -7.0634  -7.0459  -7.0423  -7.0113  -7.0028  -6.9775
    -6.9584  -6.9500  -6.9469  -6.9422  -6.9095  -6.9088  -6.8970  -6.8896
    -6.8625  -6.8505  -6.8191  -6.8045  -6.8005  -6.7949  -6.7803  -6.7161
    -6.7128  -6.7086  -6.6748  -6.6725  -6.6351  -6.6240  -6.5847  -5.4041
    -5.0504  -3.9151  -3.6716  -3.2924  -2.9289  -2.7445  -2.0720  -1.0718
    -1.0650  -0.2286   0.8870   1.5350   1.6905   2.6770   2.9695   3.0489
     3.1072   3.4318   4.0863   4.3411   4.6811

          k =-0.0892 0.0858 0.0000 ( 16986 PWs)   bands (ev):

  -126.3440-126.2918-126.2915-126.2912-126.2206-126.2202-126.2199-126.1087
  -126.1084-126.1081-126.0842-126.0665 -80.5267 -80.5154 -80.5151 -80.4730
   -80.4712 -80.4705 -80.4702 -80.4699 -80.4697 -80.4665 -80.4628 -80.4592
   -80.4207 -80.4172 -80.4147 -80.4059 -80.4046 -80.4028 -80.3796 -80.3780
   -80.3766 -80.2979 -80.2973 -80.2969 -80.2852 -80.2829 -80.2812 -80.2809
   -80.2790 -80.2766 -80.2752 -80.2572 -80.2570 -80.2472 -80.2423 -80.2418
   -12.9959  -8.0107  -7.7748  -7.6766  -7.6699  -7.6456  -7.6280  -7.6160
    -7.5992  -7.5972  -7.5701  -7.5393  -7.4837  -7.4779  -7.4666  -7.4307
    -7.3973  -7.3616  -7.3557  -7.3323  -7.3104  -7.2800  -7.2743  -7.2641
    -7.2506  -7.2232  -7.2041  -7.1819  -7.1735  -7.1575  -7.1471  -7.1316
    -7.1065  -7.0978  -7.0895  -7.0652  -7.0590  -7.0117  -7.0034  -6.9787
    -6.9661  -6.9580  -6.9421  -6.9196  -6.9050  -6.8972  -6.8760  -6.8681
    -6.8484  -6.8351  -6.8139  -6.8074  -6.7854  -6.7792  -6.7394  -6.7325
    -6.7235  -6.7097  -6.6898  -6.6736  -6.6613  -6.6437  -6.1083  -5.5008
    -5.0855  -4.6560  -3.8438  -3.2745  -2.7564  -2.1941  -1.6919  -1.1604
    -0.7221   0.2700   0.4871   0.6554   1.5875   2.1634   2.5379   2.8148
     3.4538   3.7722   3.9414   4.2136   4.5974

[...]
   -80.5108 -80.5092 -80.5086 -80.5025 -80.5001 -80.4886 -80.4805 -80.4799
   -80.3622 -80.3559 -80.3553 -80.3551 -80.3504 -80.3498 -80.3439 -80.3431
   -80.3416 -80.3390 -80.3362 -80.3361 -80.3352 -80.3328 -80.3322 -80.3297
   -80.3290 -80.3225 -80.3216 -80.3071 -80.3065 -80.3042 -80.2957 -80.2951
   -12.6140  -8.2812  -7.7934  -7.7225  -7.6984  -7.6931  -7.6658  -7.6637
    -7.6513  -7.6417  -7.6192  -7.6099  -7.5767  -7.5110  -7.4729  -7.4449
    -7.4083  -7.3896  -7.3666  -7.3562  -7.3243  -7.2778  -7.2764  -7.2725
    -7.2596  -7.2258  -7.2129  -7.1965  -7.1842  -7.1440  -7.1358  -7.1011
    -7.1010  -7.0895  -7.0642  -7.0593  -7.0109  -7.0034  -6.9668  -6.9550
    -6.9263  -6.9181  -6.9122  -6.9004  -6.8951  -6.8752  -6.8694  -6.8573
    -6.8492  -6.8384  -6.8325  -6.8231  -6.7973  -6.7722  -6.7513  -6.7352
    -6.7209  -6.7033  -6.6972  -6.6846  -6.6635  -6.6372  -5.9424  -5.5341
    -4.2830  -3.5904  -3.4946  -3.3732  -2.7916  -2.4690  -2.0830  -1.1427
    -0.9728  -0.0715   0.2852   0.8847   1.2711   1.7113   1.7452   2.9603
     3.1541   3.1598   3.5682   3.7094   4.6097

          k = 0.0595-0.0000 0.0000 ( 16978 PWs)   bands (ev):

  -126.3327-126.3321-126.3320-126.3074-126.1671-126.1665-126.1663-126.1503
  -126.1483-126.1483-126.1483-126.1371 -80.5137 -80.5135 -80.5125 -80.5110
   -80.5107 -80.5091 -80.5090 -80.5017 -80.5001 -80.4886 -80.4803 -80.4799
   -80.3622 -80.3559 -80.3552 -80.3551 -80.3503 -80.3498 -80.3439 -80.3437
   -80.3423 -80.3388 -80.3362 -80.3361 -80.3343 -80.3328 -80.3322 -80.3297
   -80.3289 -80.3222 -80.3216 -80.3069 -80.3065 -80.3042 -80.2956 -80.2951
   -12.6212  -8.4226  -7.7861  -7.7580  -7.7326  -7.7135  -7.6987  -7.6820
    -7.6771  -7.6614  -7.6548  -7.6321  -7.5941  -7.5358  -7.5227  -7.4734
    -7.4039  -7.3961  -7.3546  -7.3309  -7.3282  -7.2975  -7.2857  -7.2790
    -7.2639  -7.2303  -7.2185  -7.2122  -7.1951  -7.1682  -7.1382  -7.1008
    -7.0774  -7.0636  -7.0514  -7.0460  -7.0070  -6.9805  -6.9738  -6.9446
    -6.9142  -6.9080  -6.8950  -6.8766  -6.8738  -6.8646  -6.8479  -6.8328
    -6.8182  -6.8058  -6.8051  -6.7885  -6.7714  -6.7651  -6.7523  -6.7334
    -6.7273  -6.6963  -6.6878  -6.6794  -6.6610  -6.6244  -6.0117  -4.7531
    -4.6282  -3.8307  -3.4938  -3.3510  -2.3682  -2.0622  -1.5950  -1.2384
    -0.9590  -0.3688  -0.0649   0.2712   1.1721   1.7314   2.1016   2.1832
     2.7571   3.2516   3.4297   3.7142   3.8593

          k = 0.0595 0.0343 0.0000 ( 16996 PWs)   bands (ev):

  -126.3327-126.3322-126.3320-126.3074-126.1670-126.1665-126.1663-126.1503
  -126.1483-126.1483-126.1483-126.1371 -80.5138 -80.5129 -80.5123 -80.5111
   -80.5108 -80.5092 -80.5086 -80.5025 -80.5001 -80.4886 -80.4805 -80.4799
   -80.3622 -80.3559 -80.3553 -80.3551 -80.3504 -80.3498 -80.3439 -80.3431
   -80.3416 -80.3390 -80.3362 -80.3361 -80.3352 -80.3328 -80.3322 -80.3297
   -80.3290 -80.3225 -80.3216 -80.3071 -80.3065 -80.3042 -80.2957 -80.2951
   -12.6140  -8.2812  -7.7934  -7.7225  -7.6984  -7.6931  -7.6658  -7.6637
    -7.6513  -7.6417  -7.6192  -7.6099  -7.5767  -7.5110  -7.4729  -7.4449
    -7.4083  -7.3896  -7.3666  -7.3562  -7.3243  -7.2778  -7.2764  -7.2725
    -7.2596  -7.2258  -7.2129  -7.1965  -7.1842  -7.1440  -7.1358  -7.1011
    -7.1010  -7.0895  -7.0642  -7.0593  -7.0109  -7.0034  -6.9668  -6.9550
    -6.9263  -6.9181  -6.9122  -6.9004  -6.8951  -6.8752  -6.8694  -6.8573
    -6.8492  -6.8384  -6.8325  -6.8231  -6.7973  -6.7722  -6.7513  -6.7352
    -6.7209  -6.7033  -6.6972  -6.6846  -6.6635  -6.6372  -5.9424  -5.5341
    -4.2830  -3.5904  -3.4945  -3.3732  -2.7916  -2.4690  -2.0830  -1.1427
    -0.9728  -0.0715   0.2852   0.8847   1.2711   1.7113   1.7452   2.9603
     3.1541   3.1598   3.5682   3.7094   4.6097

          k = 0.0595-0.1373 0.0000 ( 16986 PWs)   bands (ev):

  -126.3326-126.3323-126.3320-126.3074-126.1669-126.1666-126.1663-126.1503
  -126.1483-126.1483-126.1483-126.1371 -80.5133 -80.5124 -80.5117 -80.5113
   -80.5108 -80.5100 -80.5074 -80.5039 -80.5004 -80.4886 -80.4807 -80.4801
   -80.3619 -80.3558 -80.3554 -80.3551 -80.3505 -80.3497 -80.3432 -80.3424
   -80.3401 -80.3399 -80.3365 -80.3361 -80.3358 -80.3331 -80.3322 -80.3297
   -80.3293 -80.3228 -80.3219 -80.3073 -80.3067 -80.3040 -80.2959 -80.2952
   -12.5997  -7.9307  -7.7169  -7.6774  -7.6428  -7.6254  -7.6107  -7.6042
    -7.5932  -7.5781  -7.5488  -7.5329  -7.5193  -7.4699  -7.4520  -7.4339
    -7.4143  -7.3830  -7.3685  -7.3339  -7.3147  -7.2959  -7.2693  -7.2597
    -7.2427  -7.2268  -7.2195  -7.1978  -7.1788  -7.1695  -7.1539  -7.1369
    -7.1274  -7.1034  -7.0787  -7.0483  -7.0393  -7.0167  -7.0118  -6.9945
    -6.9887  -6.9686  -6.9512  -6.9398  -6.9203  -6.9022  -6.8964  -6.8911
    -6.8662  -6.8525  -6.8388  -6.8313  -6.8168  -6.8008  -6.7622  -6.7574
    -6.7468  -6.7344  -6.7164  -6.6979  -6.6858  -6.6454  -6.0639  -5.5292
    -4.9960  -4.5793  -3.7969  -3.2829  -2.7064  -2.2056  -1.6445  -1.2786
    -0.9006   0.1898   0.5039   0.6715   1.4342   2.0297   2.5518   2.8421
     3.3400   3.6181   4.0179   4.1004   4.6021

          k = 0.0595-0.1030 0.0000 ( 17004 PWs)   bands (ev):

  -126.3324-126.3324-126.3320-126.3074-126.1668-126.1668-126.1663-126.1502
  -126.1483-126.1483-126.1483-126.1371 -80.5127 -80.5120 -80.5120 -80.5109
   -80.5109 -80.5108 -80.5056 -80.5056 -80.5007 -80.4886 -80.4806 -80.4806
   -80.3618 -80.3555 -80.3555 -80.3551 -80.3507 -80.3496 -80.3423 -80.3417
   -80.3417 -80.3381 -80.3381 -80.3362 -80.3358 -80.3335 -80.3322 -80.3296
   -80.3295 -80.3226 -80.3226 -80.3072 -80.3071 -80.3039 -80.2960 -80.2952
   -12.5926  -7.6950  -7.6420  -7.6150  -7.5920  -7.5813  -7.5564  -7.5464
    -7.5401  -7.5301  -7.5250  -7.5214  -7.4843  -7.4842  -7.4793  -7.4486
    -7.4455  -7.3970  -7.3915  -7.3325  -7.3220  -7.2753  -7.2747  -7.2693
    -7.2638  -7.2124  -7.2070  -7.1967  -7.1918  -7.1765  -7.1726  -7.1534
    -7.1462  -7.1306  -7.1147  -7.0754  -7.0743  -7.0704  -7.0658  -7.0259
    -6.9982  -6.9971  -6.9645  -6.9489  -6.9259  -6.9000  -6.8943  -6.8848
    -6.8807  -6.8664  -6.8304  -6.7916  -6.7858  -6.7835  -6.7765  -6.7734
    -6.7592  -6.7570  -6.7501  -6.7347  -6.6913  -6.2340  -6.1830  -6.0120
    -5.0495  -4.8436  -4.3715  -2.9880  -2.9199  -2.4140  -1.2153  -1.0459
    -0.2158   0.4171   0.6063   0.6286   1.4964   1.7922   1.8310   2.5925
     2.9357   3.4352   4.1663   4.3833   4.8530

          k = 0.0595-0.0686 0.0000 ( 16986 PWs)   bands (ev):

  -126.3326-126.3323-126.3320-126.3074-126.1669-126.1666-126.1663-126.1503
  -126.1483-126.1483-126.1483-126.1371 -80.5133 -80.5124 -80.5117 -80.5113
   -80.5108 -80.5100 -80.5074 -80.5039 -80.5004 -80.4886 -80.4807 -80.4801
   -80.3619 -80.3558 -80.3554 -80.3551 -80.3505 -80.3497 -80.3432 -80.3424
   -80.3401 -80.3399 -80.3365 -80.3361 -80.3358 -80.3331 -80.3322 -80.3297
   -80.3293 -80.3228 -80.3219 -80.3073 -80.3067 -80.3040 -80.2959 -80.2952
   -12.5997  -7.9307  -7.7169  -7.6774  -7.6428  -7.6254  -7.6107  -7.6042
    -7.5932  -7.5781  -7.5488  -7.5329  -7.5193  -7.4699  -7.4520  -7.4339
    -7.4143  -7.3830  -7.3685  -7.3339  -7.3147  -7.2959  -7.2693  -7.2597
    -7.2427  -7.2268  -7.2195  -7.1978  -7.1788  -7.1695  -7.1539  -7.1369
    -7.1274  -7.1034  -7.0787  -7.0483  -7.0393  -7.0167  -7.0118  -6.9945
    -6.9887  -6.9686  -6.9512  -6.9398  -6.9203  -6.9022  -6.8964  -6.8911
    -6.8662  -6.8525  -6.8388  -6.8313  -6.8168  -6.8008  -6.7622  -6.7574
    -6.7468  -6.7344  -6.7164  -6.6979  -6.6858  -6.6454  -6.0639  -5.5292
    -4.9960  -4.5793  -3.7969  -3.2829  -2.7064  -2.2056  -1.6445  -1.2786
    -0.9006   0.1898   0.5039   0.6715   1.4342   2.0297   2.5518   2.8421
     3.3400   3.6181   4.0179   4.1004   4.6021

          k =-0.0892 0.0515 0.0000 ( 17028 PWs)   bands (ev):

  -126.3326-126.3323-126.3320-126.3074-126.1669-126.1666-126.1663-126.1503
  -126.1483-126.1483-126.1483-126.1371 -80.5136 -80.5119 -80.5118 -80.5114
   -80.5109 -80.5100 -80.5072 -80.5044 -80.5002 -80.4886 -80.4809 -80.4800
   -80.3619 -80.3559 -80.3554 -80.3550 -80.3505 -80.3497 -80.3436 -80.3420
   -80.3401 -80.3396 -80.3373 -80.3362 -80.3360 -80.3328 -80.3322 -80.3297
   -80.3292 -80.3231 -80.3217 -80.3075 -80.3066 -80.3041 -80.2960 -80.2952
   -12.5996  -7.8913  -7.7850  -7.6913  -7.6626  -7.6439  -7.6080  -7.5882
    -7.5759  -7.5577  -7.5377  -7.5254  -7.5194  -7.4881  -7.4321  -7.4153
    -7.4098  -7.3952  -7.3569  -7.3202  -7.3195  -7.2838  -7.2786  -7.2599
    -7.2377  -7.2133  -7.2120  -7.1746  -7.1715  -7.1372  -7.1326  -7.1219
    -7.1160  -7.0844  -7.0585  -7.0293  -7.0235  -7.0111  -7.0063  -7.0010
    -6.9976  -6.9794  -6.9602  -6.9523  -6.9424  -6.9206  -6.9007  -6.8924
    -6.8712  -6.8612  -6.8576  -6.8391  -6.8358  -6.8127  -6.7742  -6.7427
    -6.7217  -6.7206  -6.7000  -6.6985  -6.6720  -6.6659  -6.5266  -5.4772
    -4.9534  -3.7343  -3.5645  -3.3263  -2.9088  -2.7437  -2.1820  -1.2492
    -1.0291  -0.2464   0.7269   1.3416   1.4927   2.5862   3.0234   3.0833
     3.2283   3.4602   4.0327   4.3131   4.6307

          k =-0.0892 0.0858 0.0000 ( 16986 PWs)   bands (ev):

  -126.3326-126.3323-126.3320-126.3074-126.1669-126.1666-126.1663-126.1503
  -126.1483-126.1483-126.1483-126.1371 -80.5133 -80.5124 -80.5117 -80.5113
   -80.5108 -80.5100 -80.5074 -80.5039 -80.5004 -80.4886 -80.4807 -80.4801
   -80.3619 -80.3558 -80.3554 -80.3551 -80.3505 -80.3497 -80.3432 -80.3424
   -80.3401 -80.3399 -80.3365 -80.3361 -80.3358 -80.3331 -80.3322 -80.3297
   -80.3293 -80.3228 -80.3219 -80.3073 -80.3067 -80.3040 -80.2959 -80.2952
   -12.5997  -7.9307  -7.7169  -7.6774  -7.6428  -7.6254  -7.6107  -7.6042
    -7.5932  -7.5781  -7.5488  -7.5329  -7.5193  -7.4699  -7.4520  -7.4339
    -7.4143  -7.3830  -7.3685  -7.3339  -7.3147  -7.2959  -7.2693  -7.2597
    -7.2427  -7.2268  -7.2195  -7.1978  -7.1788  -7.1695  -7.1539  -7.1369
    -7.1274  -7.1034  -7.0787  -7.0483  -7.0393  -7.0167  -7.0118  -6.9945
    -6.9887  -6.9686  -6.9512  -6.9398  -6.9203  -6.9022  -6.8964  -6.8911
    -6.8662  -6.8525  -6.8388  -6.8313  -6.8168  -6.8008  -6.7622  -6.7574
    -6.7468  -6.7344  -6.7164  -6.6979  -6.6858  -6.6454  -6.0639  -5.5292
    -4.9960  -4.5793  -3.7969  -3.2829  -2.7064  -2.2056  -1.6445  -1.2786
    -0.9006   0.1898   0.5039   0.6715   1.4342   2.0297   2.5518   2.8421
     3.3400   3.6181   4.0179   4.1004   4.6021

          k =-0.0892 0.1201 0.0000 ( 16986 PWs)   bands (ev):

  -126.3326-126.3323-126.3320-126.3074-126.1669-126.1666-126.1663-126.1503
  -126.1483-126.1483-126.1483-126.1371 -80.5133 -80.5124 -80.5117 -80.5113
   -80.5108 -80.5100 -80.5074 -80.5039 -80.5004 -80.4886 -80.4807 -80.4801
   -80.3619 -80.3558 -80.3554 -80.3551 -80.3505 -80.3497 -80.3432 -80.3424
   -80.3401 -80.3399 -80.3365 -80.3361 -80.3358 -80.3331 -80.3322 -80.3297
   -80.3293 -80.3228 -80.3219 -80.3073 -80.3067 -80.3040 -80.2959 -80.2952
   -12.5997  -7.9307  -7.7169  -7.6774  -7.6428  -7.6254  -7.6107  -7.6042
    -7.5932  -7.5781  -7.5488  -7.5329  -7.5193  -7.4699  -7.4520  -7.4339
    -7.4143  -7.3830  -7.3685  -7.3339  -7.3147  -7.2959  -7.2693  -7.2597
    -7.2427  -7.2268  -7.2195  -7.1978  -7.1788  -7.1695  -7.1539  -7.1369
    -7.1274  -7.1034  -7.0787  -7.0483  -7.0393  -7.0167  -7.0118  -6.9945
    -6.9887  -6.9686  -6.9512  -6.9398  -6.9203  -6.9022  -6.8964  -6.8911
    -6.8662  -6.8525  -6.8388  -6.8313  -6.8168  -6.8008  -6.7622  -6.7574
    -6.7468  -6.7344  -6.7164  -6.6979  -6.6858  -6.6454  -6.0639  -5.5292
    -4.9960  -4.5793  -3.7969  -3.2829  -2.7064  -2.2056  -1.6445  -1.2786
    -0.9006   0.1898   0.5039   0.6715   1.4342   2.0297   2.5518   2.8421
     3.3400   3.6181   4.0179   4.1004   4.6021

          k =-0.0892-0.0515 0.0000 ( 17028 PWs)   bands (ev):

  -126.3326-126.3323-126.3320-126.3074-126.1669-126.1666-126.1663-126.1503
  -126.1483-126.1483-126.1483-126.1371 -80.5136 -80.5119 -80.5118 -80.5114
   -80.5109 -80.5100 -80.5072 -80.5044 -80.5002 -80.4886 -80.4809 -80.4800
   -80.3619 -80.3559 -80.3554 -80.3550 -80.3505 -80.3497 -80.3436 -80.3420
   -80.3401 -80.3396 -80.3373 -80.3362 -80.3360 -80.3328 -80.3322 -80.3297
   -80.3292 -80.3231 -80.3217 -80.3075 -80.3066 -80.3041 -80.2960 -80.2952
   -12.5996  -7.8913  -7.7850  -7.6913  -7.6626  -7.6439  -7.6080  -7.5882
    -7.5759  -7.5577  -7.5377  -7.5254  -7.5194  -7.4881  -7.4321  -7.4153
    -7.4098  -7.3952  -7.3569  -7.3202  -7.3195  -7.2838  -7.2786  -7.2599
    -7.2377  -7.2133  -7.2120  -7.1746  -7.1715  -7.1372  -7.1326  -7.1219
    -7.1160  -7.0844  -7.0585  -7.0293  -7.0235  -7.0111  -7.0063  -7.0010
    -6.9976  -6.9794  -6.9602  -6.9523  -6.9424  -6.9206  -6.9007  -6.8924
    -6.8712  -6.8612  -6.8576  -6.8391  -6.8358  -6.8127  -6.7742  -6.7427
    -6.7217  -6.7206  -6.7000  -6.6985  -6.6720  -6.6659  -6.5266  -5.4772
    -4.9534  -3.7343  -3.5645  -3.3263  -2.9088  -2.7437  -2.1820  -1.2492
    -1.0291  -0.2464   0.7269   1.3416   1.4927   2.5862   3.0234   3.0833
     3.2283   3.4602   4.0327   4.3131   4.6307

     the Fermi energy is     0.4296 ev

!    total energy              =   -5577.76195647 Ry
     Harris-Foulkes estimate   =   -5577.76195589 Ry
     estimated scf accuracy    <       0.00000004 Ry

     The total energy is the sum of the following terms:

     one-electron contribution =  -35427.39292762 Ry
     hartree contribution      =   17694.15459052 Ry
     xc contribution           =    -529.68676647 Ry
     ewald contribution        =   12685.18767208 Ry
     electric field correction =       0.00015000 Ry
     smearing contrib. (-TS)   =      -0.02467498 Ry

     convergence has been achieved in   6 iterations
 
 BEEF-vdW xc energy contributions
           1 :   -470.306339663450     
           2 :    425.990113227118     
           3 :   -351.683929077171     
           4 :    268.935842507174     
           5 :   -196.784349484955     
           6 :    144.672031403176     
           7 :   -111.191538414898     
           8 :    88.3693455719596     
           9 :   -68.1869722072072     
          10 :    47.2508214467185     
          11 :   -27.3004386714683     
          12 :    12.1860415146426     
          13 :   -4.07343586514730     
          14 :    1.63525204050461     
          15 :   -1.15351014277690     
          16 :  -0.733502189986439     
          17 :    4.87869191207000     
          18 :   -9.55954193364528     
          19 :    12.2763844153735     
          20 :   -11.8677852649218     
          21 :    9.34740317258183     
          22 :   -6.99157856417617     
          23 :    6.55020649148526     
          24 :   -8.01908383350087     
          25 :    9.84618858525062     
          26 :   -10.2845992125167     
          27 :    8.76502144662675     
          28 :   -6.24839141810872     
          29 :    4.37998025237937     
          30 :   -4.18887422593173     
          31 :   -36.6711434319105     
          32 :   -25.0023031298064     

     Forces acting on atoms (Ry/au):


     negative rho (up, down):  9.906E-04 0.000E+00
     atom    1 type  1   force =    -0.00082787   -0.00047794   -0.01096426
     atom    2 type  1   force =     0.00082780   -0.00047794   -0.01096430
     atom    3 type  1   force =    -0.00000001    0.00095588   -0.01096426
     atom    4 type  1   force =    -0.00000002   -0.00000001   -0.00766981
     atom    5 type  1   force =     0.00000001    0.00501328    0.00889143
     atom    6 type  1   force =     0.00000001    0.00000001    0.01057042
     atom    7 type  1   force =    -0.00434162   -0.00250664    0.00889149
     atom    8 type  1   force =     0.00434164   -0.00250666    0.00889134
     atom    9 type  1   force =    -0.00000016   -0.00000002    0.00061992
     atom   10 type  1   force =     0.00000015    0.00097237    0.00058314
     atom   11 type  1   force =     0.00084205   -0.00048603    0.00058310
     atom   12 type  1   force =    -0.00084211   -0.00048628    0.00058314
     atom   13 type  2   force =     0.00000012   -0.00000002    0.00094864

     Total force =     0.002267     Total SCF correction =     0.000640
     SCF correction compared to forces is large: reduce conv_thr to get better values


     entering subroutine stress ...


     negative rho (up, down):  9.906E-04 0.000E+00
          total   stress  (Ry/bohr**3)                   (kbar)     P=  -12.56
  -0.00012322   0.00000000   0.00000000        -18.13      0.00      0.00
   0.00000000  -0.00012322  -0.00000000          0.00    -18.13     -0.00
   0.00000000  -0.00000000  -0.00000970          0.00     -0.00     -1.43


     bfgs converged in  20 scf cycles and  19 bfgs steps
     (criteria: energy <  1.0E+00, force <  1.9E-03)

     End of BFGS Geometry Optimization

     Final energy   =   -5577.7619564719 Ry
Begin final coordinates

ATOMIC_POSITIONS (crystal)
Zn1      0.166666667   0.166666667   0.406869400    0   0   0
Zn1      0.666666667   0.166666667   0.406869400    0   0   0
Zn1      0.166666667   0.666666667   0.406869400    0   0   0
Zn1      0.666666667   0.666666667   0.406869400    0   0   0
Zn1      0.833333333   0.333333333   0.500000000    0   0   0
Zn1      0.333333333   0.333333333   0.500000000    0   0   0
Zn1      0.833333333   0.833333333   0.500000000    0   0   0
Zn1      0.333333333   0.833333333   0.500000000    0   0   0
Zn1      0.000000310   0.000000006   0.588794989
Zn1      0.515418107  -0.030835889   0.602220761
Zn1     -0.030835601   0.515417735   0.602220743
Zn1      0.515418072   0.515418011   0.602220745
S1       0.333333459   0.333333367   0.663279301
End final coordinates



     Writing output data file calc.save
 
     init_run     :      5.92s CPU      6.47s WALL (       1 calls)
     electrons    :   2529.94s CPU   2692.14s WALL (      20 calls)
     update_pot   :     14.70s CPU     16.68s WALL (      19 calls)
     forces       :     76.15s CPU     77.97s WALL (      20 calls)
     stress       :    264.35s CPU    267.28s WALL (      20 calls)

     Called by init_run:
     wfcinit      :      4.48s CPU      4.88s WALL (       1 calls)
     potinit      :      0.52s CPU      0.61s WALL (       1 calls)

     Called by electrons:
     c_bands      :   1883.65s CPU   2004.17s WALL (     147 calls)
     sum_band     :    298.43s CPU    319.48s WALL (     147 calls)
     v_of_rho     :     56.00s CPU     65.99s WALL (     152 calls)
     newd         :     76.34s CPU     76.68s WALL (     152 calls)
     mix_rho      :      2.02s CPU      2.22s WALL (     147 calls)
     vdW_energy   :     65.83s CPU     72.40s WALL (     872 calls)
     vdW_ffts     :     91.34s CPU     99.06s WALL (    1784 calls)
     vdW_v        :     43.82s CPU     45.13s WALL (     872 calls)

     Called by c_bands:
     init_us_2    :     10.55s CPU     10.86s WALL (    6700 calls)
     cegterg      :   1819.98s CPU   1939.65s WALL (    2940 calls)

     Called by *egterg:
     h_psi        :    924.30s CPU   1021.71s WALL (   10910 calls)
     s_psi        :     78.33s CPU     78.44s WALL (   10910 calls)
     g_psi        :      3.31s CPU      3.35s WALL (    7950 calls)
     cdiaghg      :    446.76s CPU    456.57s WALL (   10210 calls)

     Called by h_psi:
     add_vuspsi   :     77.14s CPU     77.36s WALL (   10910 calls)

     General routines
     calbec       :    134.24s CPU    138.78s WALL (   14650 calls)
     fft          :    142.71s CPU    154.41s WALL (   52171 calls)
     ffts         :      0.36s CPU      0.40s WALL (     299 calls)
     fftw         :    784.05s CPU    880.21s WALL ( 2210280 calls)
     interpolate  :      1.42s CPU      1.70s WALL (     299 calls)
     davcio       :      0.00s CPU      0.06s WALL (      20 calls)
 
     Parallel routines
     fft_scatter  :    470.23s CPU    531.77s WALL ( 2262750 calls)
 
     PWSCF        : 48m26.74s CPU    51m30.01s WALL

 
   This run was terminated on:  21:26:41   3Feb2018            

=------------------------------------------------------------------------------=
   JOB DONE.
=------------------------------------------------------------------------------=
