  python dir    : /nfs/slac/g/suncatfs/mamunm/src/decaf-espresso/decaf
espresso dir  : /nfs/slac/g/suncatfs/sw/espv18/espresso-dynpy-beef/bin/pw.x
executable    : pam -g /afs/slac/g/suncat/bin/suncat-tsmpirun -x LD_LIBRARY_PATH -wdir /tmp/qe_673342lnu2s9f2_scratch pw.x -npool 2 -in pw.pwi

     Program PWSCF v.5.1rc2 (svn rev. 11289) starts on 11Jan2019 at 21:22:18 

     This program is part of the open-source Quantum ESPRESSO suite
     for quantum simulation of materials; please cite
         "P. Giannozzi et al., J. Phys.:Condens. Matter 21 395502 (2009);
          URL http://www.quantum-espresso.org", 
     in publications or presentations arising from this work. More details at
     http://www.quantum-espresso.org/quote

     Parallel version (MPI), running on    32 processors
     K-points division:     npool     =       2
     R & G space division:  proc/nbgrp/npool/nimage =      16
     Reading input from pw.pwi
Warning: card &CELL ignored
Warning: card / ignored

     Current dimensions of program PWSCF are:
     Max number of different atomic species (ntypx) = 10
     Max number of k-points (npk) =  40000
     Max angular momentum in pseudopotentials (lmaxx) =  3

     **************************************************************************
     Initializing libbeef V0.1.1 with the BEEF-vdW functional.
     Citation: Wellendorff et al., PRB 85, 235149 (2012).
     **************************************************************************


     IMPORTANT: XC functional enforced from input :
     Exchange-correlation      = BEEF-VDW ( 1  4 27 13 2)
     Any further DFT definition will be discarded
     Please, verify this is what you really want


     Subspace diagonalization in iterative solution of the eigenvalue problem:
     a serial algorithm will be used

 
     Parallelization info
     --------------------
     sticks:   dense  smooth     PW     G-vecs:    dense   smooth      PW
     Min         221      88     26                42669    10776    1670
     Max         222      89     27                42674    10821    1674
     Sum        3547    1417    421               682735   172803   26751
 


     bravais-lattice index     =            0
     lattice parameter (alat)  =      11.8187  a.u.
     unit-cell volume          =    5739.2980 (a.u.)^3
     number of atoms/cell      =           13
     number of atomic types    =            2
     number of electrons       =       150.00
     number of Kohn-Sham states=           85
     kinetic-energy cutoff     =      36.7493  Ry
     charge density cutoff     =     367.4933  Ry
     convergence threshold     =      1.0E-04
     mixing beta               =       0.2000
     number of iterations used =            8  plain     mixing
     Exchange-correlation      = BEEF-VDW ( 1  4 27 13 2)
     nstep                     =           50


     celldm(1)=  11.818741  celldm(2)=   0.000000  celldm(3)=   0.000000
     celldm(4)=   0.000000  celldm(5)=   0.000000  celldm(6)=   0.000000

     crystal axes: (cart. coord. in units of alat)
               a(1) = (   1.000000   0.000000   0.000000 )  
               a(2) = (   0.500000   0.866025   0.000000 )  
               a(3) = (   0.000000   0.000000   4.014343 )  

     reciprocal axes: (cart. coord. in units 2 pi/alat)
               b(1) = (  1.000000 -0.577350  0.000000 )  
               b(2) = (  0.000000  1.154701  0.000000 )  
               b(3) = (  0.000000  0.000000  0.249107 )  


     PseudoPot. # 1 for Cd read from file:
     /u/if/jboes/code/decaf-espresso/gbrv15pbe/Cd.UPF
     MD5 check sum: 17164a7926edb8e0dc231208abae86a6
     Pseudo is Ultrasoft + core correction, Zval = 12.0
     Generated by new atomic code, or converted to UPF format
     Using radial grid of  889 points,  6 beta functions with: 
                l(1) =   0
                l(2) =   0
                l(3) =   1
                l(4) =   1
                l(5) =   2
                l(6) =   2
     Q(r) pseudized with  6 coefficients,  rinner =    1.000   1.000   1.000
                                                       1.000   1.000

     PseudoPot. # 2 for S  read from file:
     /u/if/jboes/code/decaf-espresso/gbrv15pbe/S.UPF
     MD5 check sum: 88d86576ff6df21479756cfb9bdac1df
     Pseudo is Ultrasoft + core correction, Zval =  6.0
     Generated by new atomic code, or converted to UPF format
     Using radial grid of  907 points,  6 beta functions with: 
                l(1) =   0
                l(2) =   0
                l(3) =   1
                l(4) =   1
                l(5) =   2
                l(6) =   2
     Q(r) pseudized with  8 coefficients,  rinner =    1.300   1.300   1.300
                                                       1.300   1.300

     vdW kernel table read from file vdW_kernel_table
     MD5 check sum: 095c7af220d748ca6e76c0b4c6cfb241

     atomic species   valence    mass     pseudopotential
        Cd            12.00   112.41400     Cd( 1.00)
        S              6.00    32.06000     S ( 1.00)

     No symmetry found



   Cartesian axes

     site n.     atom                  positions (alat units)
         1           Cd  tau(   1) = (   0.2500000   0.1443376   1.5989234  )
         2           Cd  tau(   2) = (   0.7500000   0.1443376   1.5989234  )
         3           Cd  tau(   3) = (   0.5000000   0.5773503   1.5989234  )
         4           Cd  tau(   4) = (   1.0000000   0.5773503   1.5989234  )
         5           Cd  tau(   5) = (   1.0000000   0.2886751   2.0071717  )
         6           Cd  tau(   6) = (   0.5000000   0.2886751   2.0071717  )
         7           Cd  tau(   7) = (   1.2500000   0.7216878   2.0071717  )
         8           Cd  tau(   8) = (   0.7500000   0.7216878   2.0071717  )
         9           Cd  tau(   9) = (  -0.0166615  -0.0096191   2.5023037  )
        10           Cd  tau(  10) = (   0.5166785  -0.0096277   2.5024897  )
        11           Cd  tau(  11) = (   0.2500085   0.4522628   2.5025294  )
        12           Cd  tau(  12) = (   0.7499611   0.4329897   2.4269519  )
        13           S   tau(  13) = (   0.2498430   0.1442390   2.7719090  )

     number of k points=    20  Fermi-Dirac smearing, width (Ry)=  0.0110
                       cart. coord. in units 2pi/alat
        k(    1) = (   0.0000000   0.0000000   0.0000000), wk =   0.0555556
        k(    2) = (   0.0000000   0.1924501   0.0000000), wk =   0.1111111
        k(    3) = (   0.0000000   0.3849002   0.0000000), wk =   0.1111111
        k(    4) = (   0.0000000  -0.5773503   0.0000000), wk =   0.0555556
        k(    5) = (   0.1666667  -0.0962250   0.0000000), wk =   0.1111111
        k(    6) = (   0.1666667   0.0962250   0.0000000), wk =   0.1111111
        k(    7) = (   0.1666667   0.2886751   0.0000000), wk =   0.1111111
        k(    8) = (   0.1666667  -0.6735753   0.0000000), wk =   0.1111111
        k(    9) = (   0.1666667  -0.4811252   0.0000000), wk =   0.1111111
        k(   10) = (   0.1666667  -0.2886751   0.0000000), wk =   0.1111111
        k(   11) = (   0.3333333  -0.1924501   0.0000000), wk =   0.1111111
        k(   12) = (   0.3333333   0.0000000   0.0000000), wk =   0.1111111
        k(   13) = (   0.3333333   0.1924501   0.0000000), wk =   0.1111111
        k(   14) = (   0.3333333  -0.7698004   0.0000000), wk =   0.1111111
        k(   15) = (   0.3333333  -0.5773503   0.0000000), wk =   0.1111111
        k(   16) = (   0.3333333  -0.3849002   0.0000000), wk =   0.1111111
        k(   17) = (  -0.5000000   0.2886751   0.0000000), wk =   0.0555556
        k(   18) = (  -0.5000000   0.4811252   0.0000000), wk =   0.1111111
        k(   19) = (  -0.5000000   0.6735753   0.0000000), wk =   0.1111111
        k(   20) = (  -0.5000000  -0.2886751   0.0000000), wk =   0.0555556

     Dense  grid:   682735 G-vectors     FFT dimensions: (  75,  75, 300)

     Smooth grid:   172803 G-vectors     FFT dimensions: (  45,  45, 192)

     Largest allocated arrays     est. size (Mb)     dimensions
        Kohn-Sham Wavefunctions         1.79 Mb     (    1379,   85)
        NL pseudopotentials             4.92 Mb     (    1379,  234)
        Each V/rho on FFT grid          1.63 Mb     (  106875)
        Each G-vector array             0.33 Mb     (   42674)
        G-vector shells                 0.13 Mb     (   17058)
     Largest temporary arrays     est. size (Mb)     dimensions
        Auxiliary wavefunctions         7.15 Mb     (    1379,  340)
        Each subspace H/S matrix        1.76 Mb     (     340,  340)
        Each <psi_i|beta_j> matrix      0.30 Mb     (     234,   85)
        Arrays for rho mixing          13.05 Mb     (  106875,    8)

     Initial potential from superposition of free atoms
     Check: negative starting charge=   -0.261307

     starting charge  143.99947, renormalised to  150.00000

     negative rho (up, down):  2.722E-01 0.000E+00


     ************************************************************************
     *
     * You are using vdW-DF for exchange-correlation in this calculation.
     * Please cite the following three references that made this development
     * possible:
     *
     *   M. Dion, H. Rydberg, E. Schroder, D. C. Langreth, and
     *   B. I. Lundqvist, Phys. Rev. Lett. 92, 246401 (2004).
     *
     *   T. Thonhauser, V. R. Cooper, S. Li, A. Puzder, P. Hyldgaard, and
     *   D. C. Langreth, Phys. Rev. B 76, 125112 (2007).
     *
     *   G. Roman-Perez and J. M. Soler, Phys. Rev. Lett. 103, 096102 (2009).
     *
     *
     * If you are using vdW-DF2, please also cite:
     *
     *   K. Lee, E. D. Murray, L. Kong, B. I. Lundqvist, and
     *   D. C. Langreth, Phys. Rev. B 82, 081101(R) (2010).
     *
     *
     * If you are calculating the stress with vdW-DF, please also cite:
     *
     *   R. Sabatini, E. Kucukbenli, B. Kolb, T. Thonhauser, and
     *   S. de Gironcoli, J. Phys.: Condens. Matter 24, 424209 (2012).
     *
     ************************************************************************

     Carrying out vdW-DF run using the following parameters:

     Nqs =      20    Nr_points =    1024   r_max =   100.000
     q_mesh =
               0.00001000     0.04494208     0.09755937     0.15916263
               0.23128650     0.31572767     0.41458969     0.53033537
               0.66584808     0.82450364     1.01025438     1.22772762
               1.48234092     1.78043706     2.12944203     2.53805004
               3.01644009     3.57652955     4.23227104     5.00000000

     Gradients computed in reciprocal space

     ************************************************************************


 
     Adding external electric field

     Computed dipole along edir(3) : 
        Dipole               -2.1923 Ry au,         -5.5723 Debye
        Dipole field         -0.0048 Ry au
 
        Potential amp.        0.4099 Ry
        Total length         42.7000 bohr
 
     Starting wfc are  112 randomized atomic wfcs

     total cpu time spent up to now is        6.9 secs

     Self-consistent Calculation

     iteration #  1     ecut=    36.75 Ry     beta=0.20
     Davidson diagonalization with overlap
     ethr =  1.00E-02,  avg # of iterations =  5.1

     negative rho (up, down):  2.677E-01 0.000E+00
 
     Adding external electric field

     Computed dipole along edir(3) : 
        Dipole                7.4500 Ry au,         18.9359 Debye
        Dipole field          0.0163 Ry au
 
        Potential amp.       -1.3930 Ry
        Total length         42.7000 bohr
 

     total cpu time spent up to now is       18.5 secs

     total energy              =   -1412.57320688 Ry
     Harris-Foulkes estimate   =   -1418.16416224 Ry
     estimated scf accuracy    <      16.15621348 Ry

     iteration #  2     ecut=    36.75 Ry     beta=0.20
     Davidson diagonalization with overlap
     ethr =  1.00E-02,  avg # of iterations =  9.1

     negative rho (up, down):  2.671E-01 0.000E+00
 
     Adding external electric field

     Computed dipole along edir(3) : 
        Dipole               -1.8305 Ry au,         -4.6525 Debye
        Dipole field         -0.0040 Ry au
 
        Potential amp.        0.3423 Ry
        Total length         42.7000 bohr
 

     total cpu time spent up to now is       37.7 secs

     total energy              =   -1373.07808527 Ry
     Harris-Foulkes estimate   =   -1433.96298170 Ry
     estimated scf accuracy    <    2223.89854657 Ry

     iteration #  3     ecut=    36.75 Ry     beta=0.20
     Davidson diagonalization with overlap
     ethr =  1.00E-02,  avg # of iterations =  8.4

     negative rho (up, down):  2.665E-01 0.000E+00
 
     Adding external electric field

     Computed dipole along edir(3) : 
        Dipole               -1.6527 Ry au,         -4.2007 Debye
        Dipole field         -0.0036 Ry au
 
        Potential amp.        0.3090 Ry
        Total length         42.7000 bohr
 

     total cpu time spent up to now is       56.5 secs

     total energy              =   -1417.01591176 Ry
     Harris-Foulkes estimate   =   -1417.31343605 Ry
     estimated scf accuracy    <       1.85819723 Ry

     iteration #  4     ecut=    36.75 Ry     beta=0.20
     Davidson diagonalization with overlap
     ethr =  1.24E-03,  avg # of iterations =  3.1

     negative rho (up, down):  2.662E-01 0.000E+00
 
     Adding external electric field

     Computed dipole along edir(3) : 
        Dipole               -1.5343 Ry au,         -3.8998 Debye
        Dipole field         -0.0034 Ry au
 
        Potential amp.        0.2869 Ry
        Total length         42.7000 bohr
 

     total cpu time spent up to now is       67.6 secs

     total energy              =   -1417.47851188 Ry
     Harris-Foulkes estimate   =   -1417.52569462 Ry
     estimated scf accuracy    <       0.26497688 Ry

     iteration #  5     ecut=    36.75 Ry     beta=0.20
     Davidson diagonalization with overlap
     ethr =  1.77E-04,  avg # of iterations =  3.0

     negative rho (up, down):  2.665E-01 0.000E+00
 
     Adding external electric field

     Computed dipole along edir(3) : 
        Dipole               -1.3669 Ry au,         -3.4743 Debye
        Dipole field         -0.0030 Ry au
 
        Potential amp.        0.2556 Ry
        Total length         42.7000 bohr
 

     total cpu time spent up to now is       78.0 secs

     total energy              =   -1417.48114215 Ry
     Harris-Foulkes estimate   =   -1417.49931936 Ry
     estimated scf accuracy    <       0.12943305 Ry

     iteration #  6     ecut=    36.75 Ry     beta=0.20
     Davidson diagonalization with overlap
     ethr =  8.63E-05,  avg # of iterations =  1.1

     negative rho (up, down):  2.675E-01 0.000E+00
 
     Adding external electric field

     Computed dipole along edir(3) : 
        Dipole               -1.1911 Ry au,         -3.0276 Debye
        Dipole field         -0.0026 Ry au
 
        Potential amp.        0.2227 Ry
        Total length         42.7000 bohr
 

     total cpu time spent up to now is       87.3 secs

     total energy              =   -1417.48606283 Ry
     Harris-Foulkes estimate   =   -1417.48942932 Ry
     estimated scf accuracy    <       0.05833645 Ry

     iteration #  7     ecut=    36.75 Ry     beta=0.20
     Davidson diagonalization with overlap
     ethr =  3.89E-05,  avg # of iterations =  2.7

     negative rho (up, down):  2.683E-01 0.000E+00
 
     Adding external electric field

     Computed dipole along edir(3) : 
        Dipole               -1.0190 Ry au,         -2.5899 Debye
        Dipole field         -0.0022 Ry au
 
        Potential amp.        0.1905 Ry
        Total length         42.7000 bohr
 

     total cpu time spent up to now is       97.3 secs

     total energy              =   -1417.48681610 Ry
     Harris-Foulkes estimate   =   -1417.48916877 Ry
     estimated scf accuracy    <       0.02683974 Ry

     iteration #  8     ecut=    36.75 Ry     beta=0.20
     Davidson diagonalization with overlap
     ethr =  1.79E-05,  avg # of iterations =  3.2

     negative rho (up, down):  2.695E-01 0.000E+00
 
     Adding external electric field

     Computed dipole along edir(3) : 
        Dipole               -0.7847 Ry au,         -1.9946 Debye
        Dipole field         -0.0017 Ry au
 
        Potential amp.        0.1467 Ry
        Total length         42.7000 bohr
 

     total cpu time spent up to now is      107.5 secs

     total energy              =   -1417.48527769 Ry
     Harris-Foulkes estimate   =   -1417.48859102 Ry
     estimated scf accuracy    <       0.01493202 Ry

     iteration #  9     ecut=    36.75 Ry     beta=0.20
     Davidson diagonalization with overlap
     ethr =  9.95E-06,  avg # of iterations =  3.0

     negative rho (up, down):  2.694E-01 0.000E+00
 
     Adding external electric field

     Computed dipole along edir(3) : 
        Dipole               -0.7413 Ry au,         -1.8843 Debye
        Dipole field         -0.0016 Ry au
 
        Potential amp.        0.1386 Ry
        Total length         42.7000 bohr
 

     total cpu time spent up to now is      117.8 secs

     total energy              =   -1417.48590198 Ry
     Harris-Foulkes estimate   =   -1417.48633065 Ry
     estimated scf accuracy    <       0.00582703 Ry

     iteration # 10     ecut=    36.75 Ry     beta=0.20
     Davidson diagonalization with overlap
     ethr =  3.88E-06,  avg # of iterations =  3.0

     negative rho (up, down):  2.695E-01 0.000E+00
 
     Adding external electric field

     Computed dipole along edir(3) : 
        Dipole               -0.6092 Ry au,         -1.5485 Debye
        Dipole field         -0.0013 Ry au
 
        Potential amp.        0.1139 Ry
        Total length         42.7000 bohr
 

     total cpu time spent up to now is      128.4 secs

     total energy              =   -1417.48586191 Ry
     Harris-Foulkes estimate   =   -1417.48672906 Ry
     estimated scf accuracy    <       0.00438594 Ry

     iteration # 11     ecut=    36.75 Ry     beta=0.20
     Davidson diagonalization with overlap
     ethr =  2.92E-06,  avg # of iterations =  3.1

     negative rho (up, down):  2.698E-01 0.000E+00
 
     Adding external electric field

     Computed dipole along edir(3) : 
        Dipole               -0.4288 Ry au,         -1.0900 Debye
        Dipole field         -0.0009 Ry au
 
        Potential amp.        0.0802 Ry
        Total length         42.7000 bohr
 

     total cpu time spent up to now is      138.8 secs

     total energy              =   -1417.48589088 Ry
     Harris-Foulkes estimate   =   -1417.48641157 Ry
     estimated scf accuracy    <       0.00172890 Ry

     iteration # 12     ecut=    36.75 Ry     beta=0.20
     Davidson diagonalization with overlap
     ethr =  1.15E-06,  avg # of iterations =  3.3

     negative rho (up, down):  2.697E-01 0.000E+00
 
     Adding external electric field

     Computed dipole along edir(3) : 
        Dipole               -0.4344 Ry au,         -1.1041 Debye
        Dipole field         -0.0010 Ry au
 
        Potential amp.        0.0812 Ry
        Total length         42.7000 bohr
 

     total cpu time spent up to now is      149.7 secs

     total energy              =   -1417.48608029 Ry
     Harris-Foulkes estimate   =   -1417.48609780 Ry
     estimated scf accuracy    <       0.00012351 Ry

     iteration # 13     ecut=    36.75 Ry     beta=0.20
     Davidson diagonalization with overlap
     ethr =  8.23E-08,  avg # of iterations =  4.0

     negative rho (up, down):  2.698E-01 0.000E+00
 
     Adding external electric field

     Computed dipole along edir(3) : 
        Dipole               -0.3584 Ry au,         -0.9109 Debye
        Dipole field         -0.0008 Ry au
 
        Potential amp.        0.0670 Ry
        Total length         42.7000 bohr
 

     total cpu time spent up to now is      165.6 secs

     End of self-consistent calculation

          k = 0.0000 0.0000 0.0000 ( 21643 PWs)   bands (ev):

   -12.1393  -9.4581  -9.4457  -9.4457  -9.3132  -9.2958  -9.2767  -9.2767
    -9.2580  -9.2580  -9.2571  -9.1884  -9.1463  -9.1461  -9.0532  -8.9850
    -8.9695  -8.9695  -8.9360  -8.9251  -8.9251  -8.8472  -8.8472  -8.8051
    -8.8049  -8.7626  -8.7614  -8.7614  -8.6998  -8.6996  -8.6450  -8.5134
    -8.5133  -8.4690  -8.4689  -8.3744  -8.3723  -8.3721  -8.3714  -8.3562
    -8.3318  -8.3318  -8.3162  -8.3160  -8.2953  -8.2872  -8.2872  -8.2392
    -8.2391  -8.1830  -8.1829  -8.1578  -8.1552  -8.1512  -8.1511  -8.0735
    -8.0687  -8.0686  -7.9907  -7.9907  -7.9305  -7.5565  -5.7733  -3.6497
    -2.3550  -2.3547  -2.1436  -1.6637  -1.5642  -1.5641  -1.3307  -1.3305
    -1.2776  -0.8704  -0.1763  -0.1763  -0.0010   0.5563   0.5566   1.1864
     1.6420   1.6423   1.7992   2.3263   2.6858

          k = 0.0000 0.1925 0.0000 ( 21640 PWs)   bands (ev):

   -12.1313  -9.4241  -9.3956  -9.3879  -9.2714  -9.2640  -9.2535  -9.2510
    -9.2198  -9.2051  -9.2011  -9.1595  -9.1096  -9.0938  -9.0263  -8.9694
    -8.9562  -8.9557  -8.9354  -8.9162  -8.8818  -8.8618  -8.8187  -8.8098
    -8.8025  -8.7695  -8.7657  -8.7398  -8.7132  -8.6600  -8.6476  -8.5510
    -8.5223  -8.4785  -8.4672  -8.4320  -8.4042  -8.4040  -8.3860  -8.3717
    -8.3644  -8.3565  -8.3462  -8.3274  -8.3035  -8.3022  -8.2891  -8.2747
    -8.2477  -8.2217  -8.2062  -8.2007  -8.1965  -8.1910  -8.1591  -8.1236
    -8.1185  -8.1113  -8.0373  -8.0362  -7.9730  -7.3801  -5.6392  -3.5864
    -3.3623  -2.7081  -2.5691  -2.3663  -2.1344  -1.8360  -1.4800  -0.6064
    -0.5985  -0.4094  -0.1123  -0.0573   0.4259   0.7482   0.8846   1.3434
     1.6986   1.9218   2.3359   2.6853   3.2122

          k = 0.0000 0.3849 0.0000 ( 21582 PWs)   bands (ev):

   -12.1153  -9.3505  -9.2533  -9.2399  -9.2087  -9.1918  -9.1884  -9.1789
    -9.1130  -9.1039  -9.0898  -9.0823  -9.0102  -8.9989  -8.9663  -8.9646
    -8.9362  -8.9180  -8.9144  -8.8712  -8.8549  -8.8235  -8.8224  -8.7804
    -8.7681  -8.7450  -8.7372  -8.7113  -8.6913  -8.6723  -8.5950  -8.5889
    -8.5666  -8.5482  -8.5246  -8.5191  -8.4982  -8.4950  -8.4621  -8.4330
    -8.4328  -8.4062  -8.3769  -8.3749  -8.3643  -8.3623  -8.3486  -8.3343
    -8.3211  -8.3011  -8.2897  -8.2807  -8.2795  -8.2482  -8.2163  -8.2092
    -8.1662  -8.1368  -8.1314  -8.0765  -8.0592  -6.8830  -5.2730  -4.8484
    -3.6894  -3.2250  -2.9247  -2.8400  -2.4421  -2.1601  -1.7762  -1.1286
    -0.6892  -0.1711   0.2437   0.9494   1.0583   1.1978   1.4236   2.3994
     2.6040   2.7530   3.1895   3.3662   3.8568

          k = 0.0000-0.5774 0.0000 ( 21576 PWs)   bands (ev):

   -12.1072  -9.2615  -9.2543  -9.1683  -9.1471  -9.1194  -9.1179  -9.0894
    -9.0801  -9.0611  -9.0586  -9.0512  -8.9823  -8.9469  -8.9414  -8.9178
    -8.9034  -8.8996  -8.8812  -8.8267  -8.8171  -8.8166  -8.7780  -8.7771
    -8.7195  -8.7148  -8.7042  -8.7003  -8.6865  -8.6678  -8.6589  -8.6292
    -8.5950  -8.5700  -8.5665  -8.5544  -8.5347  -8.5328  -8.5097  -8.4936
    -8.4908  -8.4674  -8.4526  -8.4409  -8.4288  -8.4271  -8.4254  -8.3741
    -8.3372  -8.3341  -8.3283  -8.3116  -8.3056  -8.2693  -8.2346  -8.2188
    -8.1999  -8.1690  -8.1441  -8.0936  -8.0704  -6.1125  -5.9973  -4.7850
    -4.3403  -3.0622  -3.0417  -2.8785  -2.5941  -2.5415  -1.8856  -1.2468
    -0.7614  -0.3175   0.6037   0.9236   1.2276   1.8993   2.6226   2.6633
     3.0421   3.0573   3.5659   3.7031   3.7876

          k = 0.1667-0.0962 0.0000 ( 21640 PWs)   bands (ev):

   -12.1313  -9.4241  -9.3956  -9.3879  -9.2714  -9.2640  -9.2534  -9.2511
    -9.2198  -9.2051  -9.2011  -9.1595  -9.1096  -9.0938  -9.0263  -8.9694
    -8.9562  -8.9556  -8.9354  -8.9162  -8.8818  -8.8618  -8.8187  -8.8098
    -8.8025  -8.7695  -8.7657  -8.7399  -8.7132  -8.6600  -8.6476  -8.5510
    -8.5223  -8.4785  -8.4672  -8.4320  -8.4042  -8.4040  -8.3860  -8.3717
    -8.3644  -8.3565  -8.3462  -8.3274  -8.3035  -8.3022  -8.2891  -8.2747
    -8.2477  -8.2217  -8.2062  -8.2007  -8.1964  -8.1910  -8.1591  -8.1236
    -8.1184  -8.1114  -8.0373  -8.0362  -7.9730  -7.3801  -5.6392  -3.5864
    -3.3623  -2.7081  -2.5691  -2.3663  -2.1344  -1.8360  -1.4800  -0.6064
    -0.5985  -0.4095  -0.1123  -0.0573   0.4258   0.7482   0.8846   1.3434
     1.6986   1.9218   2.3359   2.6853   3.2122

          k = 0.1667 0.0962 0.0000 ( 21640 PWs)   bands (ev):

   -12.1313  -9.4241  -9.3956  -9.3879  -9.2714  -9.2640  -9.2535  -9.2511
    -9.2198  -9.2051  -9.2011  -9.1595  -9.1094  -9.0939  -9.0263  -8.9694
    -8.9562  -8.9556  -8.9354  -8.9164  -8.8818  -8.8618  -8.8187  -8.8098
    -8.8025  -8.7695  -8.7657  -8.7399  -8.7133  -8.6599  -8.6475  -8.5510
    -8.5222  -8.4784  -8.4673  -8.4321  -8.4043  -8.4040  -8.3859  -8.3717
    -8.3644  -8.3565  -8.3463  -8.3273  -8.3037  -8.3021  -8.2891  -8.2747
    -8.2476  -8.2216  -8.2062  -8.2007  -8.1965  -8.1910  -8.1591  -8.1236
    -8.1185  -8.1113  -8.0373  -8.0362  -7.9730  -7.3801  -5.6392  -3.5865
    -3.3623  -2.7083  -2.5689  -2.3662  -2.1343  -1.8360  -1.4800  -0.6061
    -0.5986  -0.4098  -0.1121  -0.0576   0.4257   0.7483   0.8845   1.3433
     1.6986   1.9221   2.3359   2.6853   3.2121

          k = 0.1667 0.2887 0.0000 ( 21609 PWs)   bands (ev):

   -12.1193  -9.3472  -9.3385  -9.2665  -9.2167  -9.2044  -9.2040  -9.1946
    -9.1471  -9.1310  -9.1111  -9.0972  -9.0547  -9.0176  -8.9941  -8.9473
    -8.9383  -8.9297  -8.9208  -8.8995  -8.8711  -8.8594  -8.7978  -8.7877
    -8.7729  -8.7676  -8.7446  -8.7373  -8.6807  -8.6592  -8.6179  -8.5770
    -8.5641  -8.5247  -8.5124  -8.5001  -8.4824  -8.4714  -8.4221  -8.4161
    -8.4114  -8.3895  -8.3780  -8.3582  -8.3458  -8.3302  -8.3239  -8.3058
    -8.2904  -8.2702  -8.2595  -8.2525  -8.2420  -8.2324  -8.2260  -8.1852
    -8.1754  -8.1405  -8.1140  -8.0732  -8.0414  -7.0454  -5.3823  -4.0605
    -3.9770  -3.4443  -3.0452  -2.9516  -1.9180  -1.7450  -1.3220  -0.9107
    -0.8700  -0.5055   0.0363   0.2833   0.8328   1.3638   1.8916   2.0247
     2.3327   2.5449   2.8308   2.9966   3.5023

          k = 0.1667-0.6736 0.0000 ( 21571 PWs)   bands (ev):

   -12.1072  -9.2591  -9.1959  -9.1795  -9.1706  -9.1227  -9.1073  -9.0991
    -9.0667  -9.0561  -9.0348  -9.0293  -9.0115  -8.9650  -8.9464  -8.9236
    -8.9167  -8.8935  -8.8769  -8.8473  -8.8134  -8.8039  -8.7776  -8.7679
    -8.7578  -8.7410  -8.7265  -8.7112  -8.7039  -8.6800  -8.6536  -8.6422
    -8.6057  -8.5950  -8.5690  -8.5469  -8.5390  -8.5346  -8.5128  -8.5023
    -8.4751  -8.4606  -8.4427  -8.4220  -8.4033  -8.3932  -8.3672  -8.3528
    -8.3441  -8.3322  -8.3148  -8.3036  -8.2853  -8.2697  -8.2424  -8.2272
    -8.2078  -8.1864  -8.1585  -8.1165  -8.0741  -6.3824  -5.3790  -4.8724
    -4.3356  -3.9843  -3.2625  -2.9552  -2.3658  -1.8866  -1.3649  -1.2100
    -0.9415   0.1141   0.4879   0.6790   1.1056   1.7545   2.1717   2.5025
     2.7066   3.0070   3.5043   3.6036   3.8924

          k = 0.1667-0.4811 0.0000 ( 21571 PWs)   bands (ev):

   -12.1072  -9.2591  -9.1959  -9.1795  -9.1706  -9.1227  -9.1073  -9.0991
    -9.0667  -9.0561  -9.0348  -9.0293  -9.0115  -8.9650  -8.9464  -8.9236
    -8.9167  -8.8935  -8.8769  -8.8473  -8.8134  -8.8038  -8.7776  -8.7679
    -8.7578  -8.7410  -8.7265  -8.7112  -8.7039  -8.6800  -8.6535  -8.6421
    -8.6057  -8.5950  -8.5690  -8.5469  -8.5390  -8.5345  -8.5128  -8.5023
    -8.4751  -8.4607  -8.4426  -8.4220  -8.4034  -8.3932  -8.3670  -8.3529
    -8.3442  -8.3323  -8.3149  -8.3036  -8.2853  -8.2697  -8.2424  -8.2272
    -8.2078  -8.1864  -8.1585  -8.1165  -8.0741  -6.3824  -5.3790  -4.8723
    -4.3357  -3.9844  -3.2625  -2.9552  -2.3659  -1.8865  -1.3652  -1.2099
    -0.9415   0.1142   0.4877   0.6791   1.1057   1.7544   2.1719   2.5025
     2.7065   3.0070   3.5043   3.6034   3.8925

          k = 0.1667-0.2887 0.0000 ( 21609 PWs)   bands (ev):

   -12.1193  -9.3472  -9.3385  -9.2665  -9.2167  -9.2044  -9.2040  -9.1946
    -9.1471  -9.1310  -9.1111  -9.0972  -9.0548  -9.0176  -8.9940  -8.9473
    -8.9383  -8.9297  -8.9208  -8.8995  -8.8710  -8.8594  -8.7978  -8.7877
    -8.7729  -8.7675  -8.7445  -8.7373  -8.6806  -8.6592  -8.6179  -8.5770
    -8.5642  -8.5246  -8.5124  -8.5000  -8.4825  -8.4714  -8.4221  -8.4162
    -8.4113  -8.3894  -8.3780  -8.3583  -8.3458  -8.3303  -8.3239  -8.3057
    -8.2904  -8.2702  -8.2596  -8.2526  -8.2420  -8.2325  -8.2261  -8.1853
    -8.1755  -8.1406  -8.1141  -8.0732  -8.0414  -7.0454  -5.3822  -4.0607
    -3.9769  -3.4442  -3.0451  -2.9520  -1.9181  -1.7450  -1.3220  -0.9106
    -0.8701  -0.5055   0.0361   0.2833   0.8333   1.3640   1.8913   2.0248
     2.3331   2.5446   2.8308   2.9963   3.5027

          k = 0.3333-0.1925 0.0000 ( 21582 PWs)   bands (ev):

   -12.1153  -9.3505  -9.2533  -9.2399  -9.2087  -9.1919  -9.1883  -9.1789
    -9.1130  -9.1039  -9.0898  -9.0823  -9.0101  -8.9989  -8.9663  -8.9646
    -8.9362  -8.9180  -8.9145  -8.8712  -8.8549  -8.8235  -8.8224  -8.7803
    -8.7681  -8.7451  -8.7372  -8.7113  -8.6914  -8.6722  -8.5950  -8.5889
    -8.5666  -8.5482  -8.5246  -8.5191  -8.4982  -8.4950  -8.4621  -8.4330
    -8.4328  -8.4062  -8.3769  -8.3749  -8.3643  -8.3623  -8.3486  -8.3343
    -8.3211  -8.3011  -8.2897  -8.2807  -8.2795  -8.2482  -8.2163  -8.2092
    -8.1663  -8.1368  -8.1314  -8.0764  -8.0592  -6.8830  -5.2730  -4.8483
    -3.6893  -3.2250  -2.9248  -2.8400  -2.4421  -2.1600  -1.7762  -1.1286
    -0.6892  -0.1711   0.2437   0.9494   1.0583   1.1978   1.4236   2.3994
     2.6040   2.7529   3.1895   3.3662   3.8568

          k = 0.3333 0.0000 0.0000 ( 21609 PWs)   bands (ev):

   -12.1193  -9.3472  -9.3386  -9.2665  -9.2167  -9.2044  -9.2040  -9.1946
    -9.1471  -9.1310  -9.1111  -9.0972  -9.0547  -9.0176  -8.9941  -8.9473
    -8.9383  -8.9297  -8.9208  -8.8995  -8.8712  -8.8594  -8.7978  -8.7877
    -8.7729  -8.7676  -8.7446  -8.7373  -8.6807  -8.6592  -8.6179  -8.5770
    -8.5641  -8.5247  -8.5125  -8.5001  -8.4824  -8.4714  -8.4221  -8.4161
    -8.4114  -8.3894  -8.3780  -8.3582  -8.3458  -8.3302  -8.3239  -8.3058
    -8.2903  -8.2702  -8.2595  -8.2525  -8.2420  -8.2324  -8.2260  -8.1853
    -8.1754  -8.1404  -8.1140  -8.0733  -8.0414  -7.0454  -5.3823  -4.0605
    -3.9770  -3.4443  -3.0452  -2.9516  -1.9181  -1.7450  -1.3221  -0.9107
    -0.8700  -0.5055   0.0363   0.2833   0.8327   1.3638   1.8917   2.0246
     2.3327   2.5449   2.8308   2.9966   3.5022

          k = 0.3333 0.1925 0.0000 ( 21582 PWs)   bands (ev):

   -12.1153  -9.3505  -9.2533  -9.2399  -9.2087  -9.1918  -9.1884  -9.1789
    -9.1130  -9.1039  -9.0898  -9.0823  -9.0101  -8.9988  -8.9663  -8.9647
    -8.9363  -8.9182  -8.9145  -8.8714  -8.8550  -8.8235  -8.8225  -8.7805
    -8.7680  -8.7452  -8.7372  -8.7113  -8.6914  -8.6723  -8.5949  -8.5889
    -8.5667  -8.5482  -8.5248  -8.5191  -8.4981  -8.4949  -8.4621  -8.4329
    -8.4328  -8.4061  -8.3769  -8.3748  -8.3642  -8.3623  -8.3486  -8.3342
    -8.3212  -8.3010  -8.2897  -8.2807  -8.2795  -8.2482  -8.2162  -8.2092
    -8.1663  -8.1368  -8.1314  -8.0763  -8.0592  -6.8830  -5.2731  -4.8482
    -3.6894  -3.2249  -2.9246  -2.8400  -2.4419  -2.1601  -1.7761  -1.1287
    -0.6892  -0.1713   0.2437   0.9491   1.0580   1.1979   1.4238   2.3995
     2.6040   2.7525   3.1897   3.3664   3.8566

          k = 0.3333-0.7698 0.0000 ( 21571 PWs)   bands (ev):

   -12.1072  -9.2591  -9.1959  -9.1795  -9.1706  -9.1227  -9.1073  -9.0991
    -9.0667  -9.0561  -9.0348  -9.0293  -9.0115  -8.9650  -8.9464  -8.9236
    -8.9167  -8.8935  -8.8769  -8.8474  -8.8135  -8.8041  -8.7776  -8.7678
    -8.7579  -8.7410  -8.7265  -8.7112  -8.7039  -8.6800  -8.6536  -8.6422
    -8.6058  -8.5952  -8.5690  -8.5468  -8.5390  -8.5345  -8.5128  -8.5022
    -8.4750  -8.4606  -8.4427  -8.4220  -8.4033  -8.3931  -8.3671  -8.3529
    -8.3441  -8.3322  -8.3148  -8.3036  -8.2853  -8.2697  -8.2424  -8.2272
    -8.2078  -8.1863  -8.1584  -8.1165  -8.0739  -6.3824  -5.3791  -4.8724
    -4.3356  -3.9843  -3.2624  -2.9553  -2.3658  -1.8864  -1.3650  -1.2100
    -0.9416   0.1140   0.4880   0.6790   1.1054   1.7543   2.1719   2.5023
     2.7067   3.0069   3.5043   3.6034   3.8923

          k = 0.3333-0.5774 0.0000 ( 21606 PWs)   bands (ev):

   -12.1031  -9.1561  -9.1448  -9.1355  -9.1342  -9.0817  -9.0805  -9.0771
    -9.0604  -9.0406  -9.0369  -9.0095  -9.0016  -8.9435  -8.9089  -8.8690
    -8.8687  -8.8518  -8.8337  -8.8283  -8.8083  -8.7994  -8.7967  -8.7819
    -8.7792  -8.7616  -8.7247  -8.7229  -8.7157  -8.6884  -8.6713  -8.6713
    -8.6615  -8.6569  -8.6565  -8.6245  -8.5701  -8.5498  -8.5205  -8.4931
    -8.4867  -8.4847  -8.4257  -8.4236  -8.4045  -8.3904  -8.3870  -8.3551
    -8.3451  -8.3327  -8.3309  -8.2996  -8.2958  -8.2888  -8.2715  -8.2481
    -8.2239  -8.2086  -8.1955  -8.1427  -8.0792  -5.6088  -5.5378  -5.4341
    -4.4091  -4.1949  -3.8267  -2.5601  -2.5265  -2.2668  -1.1960  -1.1235
    -0.1606   0.3536   0.4563   0.8313   1.3555   1.5776   1.9069   2.2267
     2.2417   2.8363   3.6319   3.7671   3.7940

          k = 0.3333-0.3849 0.0000 ( 21571 PWs)   bands (ev):

   -12.1072  -9.2591  -9.1959  -9.1795  -9.1706  -9.1227  -9.1073  -9.0991
    -9.0667  -9.0561  -9.0348  -9.0293  -9.0115  -8.9650  -8.9464  -8.9236
    -8.9167  -8.8935  -8.8769  -8.8473  -8.8134  -8.8039  -8.7776  -8.7679
    -8.7578  -8.7409  -8.7265  -8.7112  -8.7039  -8.6800  -8.6535  -8.6421
    -8.6057  -8.5951  -8.5690  -8.5468  -8.5390  -8.5345  -8.5127  -8.5023
    -8.4751  -8.4607  -8.4426  -8.4220  -8.4034  -8.3932  -8.3670  -8.3529
    -8.3442  -8.3323  -8.3149  -8.3036  -8.2853  -8.2697  -8.2424  -8.2273
    -8.2078  -8.1864  -8.1585  -8.1165  -8.0740  -6.3824  -5.3790  -4.8722
    -4.3357  -3.9844  -3.2625  -2.9552  -2.3658  -1.8865  -1.3652  -1.2098
    -0.9415   0.1142   0.4877   0.6791   1.1057   1.7543   2.1720   2.5025
     2.7066   3.0070   3.5043   3.6034   3.8925

          k =-0.5000 0.2887 0.0000 ( 21576 PWs)   bands (ev):

   -12.1072  -9.2615  -9.2543  -9.1683  -9.1471  -9.1194  -9.1179  -9.0894
    -9.0801  -9.0611  -9.0586  -9.0512  -8.9823  -8.9469  -8.9415  -8.9178
    -8.9034  -8.8995  -8.8812  -8.8268  -8.8171  -8.8166  -8.7780  -8.7771
    -8.7195  -8.7148  -8.7042  -8.7003  -8.6865  -8.6678  -8.6589  -8.6292
    -8.5950  -8.5700  -8.5665  -8.5544  -8.5346  -8.5328  -8.5097  -8.4935
    -8.4908  -8.4674  -8.4526  -8.4410  -8.4288  -8.4270  -8.4253  -8.3741
    -8.3372  -8.3341  -8.3283  -8.3116  -8.3056  -8.2693  -8.2345  -8.2188
    -8.1999  -8.1690  -8.1441  -8.0936  -8.0704  -6.1125  -5.9973  -4.7850
    -4.3402  -3.0622  -3.0417  -2.8786  -2.5941  -2.5416  -1.8856  -1.2467
    -0.7615  -0.3175   0.6037   0.9235   1.2276   1.8993   2.6225   2.6633
     3.0421   3.0572   3.5658   3.7031   3.7876

          k =-0.5000 0.4811 0.0000 ( 21571 PWs)   bands (ev):

   -12.1072  -9.2591  -9.1959  -9.1795  -9.1706  -9.1227  -9.1073  -9.0991
    -9.0667  -9.0561  -9.0348  -9.0293  -9.0115  -8.9650  -8.9464  -8.9236
    -8.9167  -8.8935  -8.8769  -8.8473  -8.8134  -8.8039  -8.7776  -8.7678
    -8.7578  -8.7410  -8.7265  -8.7112  -8.7039  -8.6800  -8.6536  -8.6422
    -8.6057  -8.5951  -8.5690  -8.5469  -8.5390  -8.5346  -8.5128  -8.5023
    -8.4751  -8.4606  -8.4427  -8.4220  -8.4033  -8.3932  -8.3672  -8.3528
    -8.3441  -8.3322  -8.3148  -8.3036  -8.2853  -8.2697  -8.2424  -8.2272
    -8.2078  -8.1864  -8.1585  -8.1165  -8.0741  -6.3824  -5.3790  -4.8724
    -4.3356  -3.9843  -3.2626  -2.9551  -2.3658  -1.8866  -1.3649  -1.2100
    -0.9416   0.1141   0.4879   0.6790   1.1055   1.7545   2.1717   2.5025
     2.7066   3.0069   3.5043   3.6036   3.8924

          k =-0.5000 0.6736 0.0000 ( 21571 PWs)   bands (ev):

   -12.1072  -9.2591  -9.1959  -9.1795  -9.1706  -9.1227  -9.1073  -9.0991
    -9.0667  -9.0561  -9.0348  -9.0293  -9.0115  -8.9650  -8.9464  -8.9236
    -8.9168  -8.8936  -8.8769  -8.8475  -8.8135  -8.8040  -8.7776  -8.7678
    -8.7579  -8.7410  -8.7265  -8.7112  -8.7039  -8.6800  -8.6536  -8.6422
    -8.6058  -8.5952  -8.5690  -8.5469  -8.5390  -8.5345  -8.5128  -8.5022
    -8.4750  -8.4606  -8.4427  -8.4220  -8.4033  -8.3931  -8.3671  -8.3529
    -8.3441  -8.3322  -8.3148  -8.3036  -8.2853  -8.2697  -8.2424  -8.2272
    -8.2078  -8.1863  -8.1584  -8.1165  -8.0740  -6.3824  -5.3791  -4.8724
    -4.3356  -3.9843  -3.2623  -2.9552  -2.3658  -1.8864  -1.3650  -1.2100
    -0.9416   0.1140   0.4880   0.6789   1.1054   1.7543   2.1719   2.5024
     2.7067   3.0069   3.5043   3.6034   3.8923

          k =-0.5000-0.2887 0.0000 ( 21576 PWs)   bands (ev):

   -12.1072  -9.2615  -9.2542  -9.1683  -9.1471  -9.1193  -9.1179  -9.0894
    -9.0802  -9.0611  -9.0586  -9.0512  -8.9824  -8.9469  -8.9414  -8.9178
    -8.9035  -8.8995  -8.8812  -8.8270  -8.8171  -8.8169  -8.7780  -8.7771
    -8.7194  -8.7149  -8.7042  -8.7003  -8.6866  -8.6679  -8.6589  -8.6294
    -8.5950  -8.5699  -8.5665  -8.5544  -8.5347  -8.5328  -8.5098  -8.4932
    -8.4908  -8.4675  -8.4526  -8.4409  -8.4288  -8.4270  -8.4252  -8.3741
    -8.3371  -8.3340  -8.3282  -8.3116  -8.3056  -8.2692  -8.2344  -8.2188
    -8.1997  -8.1690  -8.1440  -8.0936  -8.0702  -6.1127  -5.9972  -4.7853
    -4.3399  -3.0621  -3.0417  -2.8788  -2.5940  -2.5413  -1.8854  -1.2470
    -0.7614  -0.3178   0.6040   0.9232   1.2276   1.8991   2.6224   2.6634
     3.0421   3.0568   3.5657   3.7030   3.7874

     the Fermi energy is     0.3775 ev

!    total energy              =   -1417.48612398 Ry
     Harris-Foulkes estimate   =   -1417.48627988 Ry
     estimated scf accuracy    <       0.00006307 Ry

     The total energy is the sum of the following terms:

     one-electron contribution =   -8440.89318910 Ry
     hartree contribution      =    4314.59883376 Ry
     xc contribution           =    -498.32990749 Ry
     ewald contribution        =    3207.16621086 Ry
     electric field correction =       0.00028118 Ry
     smearing contrib. (-TS)   =      -0.02835319 Ry

     convergence has been achieved in  13 iterations

     Forces acting on atoms (Ry/au):


     negative rho (up, down):  2.698E-01 0.000E+00
     atom    1 type  1   force =     0.00004567   -0.00030840   -0.01805321
     atom    2 type  1   force =     0.00011803    0.00001736   -0.02063042
     atom    3 type  1   force =     0.00015992    0.00001752   -0.02072806
     atom    4 type  1   force =    -0.00012844    0.00021350   -0.02039478
     atom    5 type  1   force =     0.00495699   -0.00288136    0.02035368
     atom    6 type  1   force =    -0.00508548   -0.00283681    0.02043328
     atom    7 type  1   force =    -0.00003240   -0.00001080    0.01942308
     atom    8 type  1   force =     0.00002252    0.00575739    0.02034039
     atom    9 type  1   force =     0.00371323    0.00211783    0.00057432
     atom   10 type  1   force =    -0.00375708    0.00223067    0.00071588
     atom   11 type  1   force =    -0.00002067   -0.00438091    0.00074449
     atom   12 type  1   force =    -0.00001499    0.00003961    0.00068761
     atom   13 type  2   force =     0.00002270    0.00002439   -0.00346624

     Total force =     0.008393     Total SCF correction =     0.014662
     SCF correction compared to forces is large: reduce conv_thr to get better values

     BFGS Geometry Optimization

     number of scf cycles    =   1
     number of bfgs steps    =   0

     energy   new            =   -1417.4861239813 Ry

     new trust radius        =       0.0044437625 bohr
     new conv_thr            =       0.0001000000 Ry


ATOMIC_POSITIONS (angstrom)
Cd       1.563552067   0.902717207  10.000000000    0   0   0
Cd       4.690656202   0.902717207  10.000000000    0   0   0
Cd       3.127104135   3.610868828  10.000000000    0   0   0
Cd       6.254208270   3.610868828  10.000000000    0   0   0
Cd       6.254208270   1.805434414  12.553269834    0   0   0
Cd       3.127104135   1.805434414  12.553269834    0   0   0
Cd       7.817760337   4.513586035  12.553269834    0   0   0
Cd       4.690656202   4.513586035  12.553269834    0   0   0
Cd      -0.102239749  -0.059039108  15.650232154
Cd       3.229426728  -0.059033077  15.651470675
Cd       1.563594256   2.826227481  15.651734270
Cd       4.690404806   2.708028950  15.179026537
S        1.562582015   0.902113686  17.334261713



     Writing output data file calc.save
     Check: negative starting charge=   -0.261307
     NEW-OLD atomic charge density approx. for the potential
     Check: negative starting charge=   -0.261328

     negative rho (up, down):  2.698E-01 0.000E+00
 
     Adding external electric field

     Computed dipole along edir(3) : 
        Dipole               -0.3570 Ry au,         -0.9074 Debye
        Dipole field         -0.0008 Ry au
 
        Potential amp.        0.0668 Ry
        Total length         42.7000 bohr
 

     total cpu time spent up to now is      178.8 secs

     Self-consistent Calculation

     iteration #  1     ecut=    36.75 Ry     beta=0.20
     Davidson diagonalization with overlap
     ethr =  1.00E-06,  avg # of iterations =  4.0

     negative rho (up, down):  2.698E-01 0.000E+00
 
     Adding external electric field

     Computed dipole along edir(3) : 
        Dipole               -0.6057 Ry au,         -1.5396 Debye
        Dipole field         -0.0013 Ry au
 
        Potential amp.        0.1133 Ry
        Total length         42.7000 bohr
 

     total cpu time spent up to now is      193.4 secs

     total energy              =   -1417.48283130 Ry
     Harris-Foulkes estimate   =   -1417.48607463 Ry
     estimated scf accuracy    <       0.01059096 Ry

     iteration #  2     ecut=    36.75 Ry     beta=0.20
     Davidson diagonalization with overlap
     ethr =  7.06E-06,  avg # of iterations =  4.0

     negative rho (up, down):  2.698E-01 0.000E+00
 
     Adding external electric field

     Computed dipole along edir(3) : 
        Dipole               -0.4056 Ry au,         -1.0309 Debye
        Dipole field         -0.0009 Ry au
 
        Potential amp.        0.0758 Ry
        Total length         42.7000 bohr
 

     total cpu time spent up to now is      204.6 secs

     total energy              =   -1417.47912125 Ry
     Harris-Foulkes estimate   =   -1417.49368886 Ry
     estimated scf accuracy    <       0.19151909 Ry

     iteration #  3     ecut=    36.75 Ry     beta=0.20
     Davidson diagonalization with overlap
     ethr =  7.06E-06,  avg # of iterations =  4.0

     negative rho (up, down):  2.699E-01 0.000E+00
 
     Adding external electric field

     Computed dipole along edir(3) : 
        Dipole               -0.4357 Ry au,         -1.1074 Debye
        Dipole field         -0.0010 Ry au
 
        Potential amp.        0.0815 Ry
        Total length         42.7000 bohr
 

     total cpu time spent up to now is      215.7 secs

     End of self-consistent calculation

          k = 0.0000 0.0000 0.0000 ( 21643 PWs)   bands (ev):

   -12.1347  -9.4367  -9.4246  -9.4245  -9.2914  -9.2736  -9.2554  -9.2554
    -9.2355  -9.2353  -9.2353  -9.1740  -9.1323  -9.1321  -9.0308  -8.9633
    -8.9483  -8.9483  -8.9223  -8.9052  -8.9052  -8.8249  -8.8249  -8.7880
    -8.7878  -8.7440  -8.7440  -8.7416  -8.6871  -8.6870  -8.6295  -8.4936
    -8.4935  -8.4529  -8.4528  -8.3597  -8.3532  -8.3531  -8.3512  -8.3373
    -8.3147  -8.3147  -8.3022  -8.3021  -8.2799  -8.2689  -8.2688  -8.2217
    -8.2216  -8.1673  -8.1673  -8.1395  -8.1354  -8.1322  -8.1322  -8.0514
    -8.0464  -8.0464  -7.9793  -7.9793  -7.9238  -7.5284  -5.7468  -3.6255
    -2.3464  -2.3461  -2.1299  -1.6351  -1.5365  -1.5365  -1.3027  -1.3027
    -1.2508  -0.8422  -0.1504  -0.1503   0.0258   0.5813   0.5816   1.2130
     1.6680   1.6682   1.8257   2.3470   2.7076

          k = 0.0000 0.1925 0.0000 ( 21640 PWs)   bands (ev):

   -12.1267  -9.4028  -9.3743  -9.3667  -9.2496  -9.2421  -9.2322  -9.2297
    -9.1976  -9.1831  -9.1786  -9.1448  -9.0956  -9.0794  -9.0043  -8.9478
    -8.9354  -8.9347  -8.9155  -8.9016  -8.8620  -8.8395  -8.7996  -8.7910
    -8.7807  -8.7548  -8.7456  -8.7230  -8.7003  -8.6469  -8.6314  -8.5312
    -8.5026  -8.4626  -8.4499  -8.4137  -8.3856  -8.3850  -8.3705  -8.3529
    -8.3447  -8.3389  -8.3290  -8.3143  -8.2886  -8.2865  -8.2702  -8.2559
    -8.2299  -8.2071  -8.1897  -8.1810  -8.1777  -8.1731  -8.1416  -8.1016
    -8.0966  -8.0903  -8.0265  -8.0241  -7.9657  -7.3523  -5.6129  -3.5618
    -3.3374  -2.6949  -2.5550  -2.3397  -2.1114  -1.8197  -1.4544  -0.5800
    -0.5711  -0.3821  -0.0871  -0.0314   0.4516   0.7747   0.9108   1.3702
     1.7224   1.9447   2.3581   2.7103   3.2352

          k = 0.0000 0.3849 0.0000 ( 21582 PWs)   bands (ev):

   -12.1108  -9.3293  -9.2320  -9.2188  -9.1873  -9.1702  -9.1671  -9.1573
    -9.0953  -9.0852  -9.0680  -9.0604  -8.9934  -8.9803  -8.9473  -8.9444
    -8.9158  -8.8994  -8.8937  -8.8548  -8.8342  -8.8033  -8.8029  -8.7666
    -8.7481  -8.7309  -8.7170  -8.6907  -8.6743  -8.6519  -8.5794  -8.5731
    -8.5477  -8.5294  -8.5063  -8.5003  -8.4853  -8.4759  -8.4409  -8.4140
    -8.4139  -8.3889  -8.3603  -8.3580  -8.3454  -8.3431  -8.3322  -8.3200
    -8.3068  -8.2810  -8.2717  -8.2659  -8.2616  -8.2290  -8.1997  -8.1923
    -8.1479  -8.1187  -8.1175  -8.0634  -8.0508  -6.8552  -5.2467  -4.8215
    -3.6677  -3.2045  -2.9048  -2.8143  -2.4236  -2.1394  -1.7554  -1.1053
    -0.6646  -0.1471   0.2698   0.9746   1.0842   1.2244   1.4480   2.4255
     2.6274   2.7753   3.2148   3.3926   3.8813

          k = 0.0000-0.5774 0.0000 ( 21576 PWs)   bands (ev):

   -12.1027  -9.2404  -9.2330  -9.1470  -9.1263  -9.0977  -9.0963  -9.0721
    -9.0582  -9.0421  -9.0374  -9.0300  -8.9639  -8.9268  -8.9217  -8.8970
    -8.8839  -8.8809  -8.8613  -8.8097  -8.8026  -8.7991  -8.7576  -8.7565
    -8.6999  -8.6976  -8.6840  -8.6801  -8.6690  -8.6507  -8.6375  -8.6127
    -8.5786  -8.5536  -8.5478  -8.5353  -8.5146  -8.5111  -8.4905  -8.4806
    -8.4720  -8.4480  -8.4391  -8.4223  -8.4126  -8.4088  -8.4064  -8.3557
    -8.3211  -8.3188  -8.3128  -8.2996  -8.2857  -8.2518  -8.2185  -8.2073
    -8.1838  -8.1496  -8.1240  -8.0840  -8.0579  -6.0849  -5.9696  -4.7588
    -4.3188  -3.0411  -3.0181  -2.8555  -2.5737  -2.5237  -1.8610  -1.2275
    -0.7372  -0.2940   0.6287   0.9482   1.2538   1.9231   2.6491   2.6901
     3.0682   3.0828   3.5914   3.7249   3.8126

          k = 0.1667-0.0962 0.0000 ( 21640 PWs)   bands (ev):

   -12.1267  -9.4028  -9.3743  -9.3668  -9.2496  -9.2421  -9.2322  -9.2297
    -9.1976  -9.1831  -9.1786  -9.1448  -9.0956  -9.0794  -9.0043  -8.9478
    -8.9354  -8.9347  -8.9155  -8.9016  -8.8620  -8.8395  -8.7996  -8.7910
    -8.7807  -8.7548  -8.7456  -8.7230  -8.7004  -8.6469  -8.6314  -8.5312
    -8.5026  -8.4626  -8.4499  -8.4137  -8.3856  -8.3850  -8.3705  -8.3529
    -8.3447  -8.3389  -8.3290  -8.3143  -8.2886  -8.2865  -8.2702  -8.2559
    -8.2299  -8.2071  -8.1897  -8.1810  -8.1777  -8.1730  -8.1416  -8.1016
    -8.0966  -8.0903  -8.0265  -8.0240  -7.9657  -7.3523  -5.6129  -3.5618
    -3.3374  -2.6949  -2.5551  -2.3397  -2.1114  -1.8196  -1.4544  -0.5800
    -0.5712  -0.3821  -0.0871  -0.0314   0.4515   0.7747   0.9108   1.3702
     1.7225   1.9447   2.3581   2.7103   3.2351

          k = 0.1667 0.0962 0.0000 ( 21640 PWs)   bands (ev):

   -12.1267  -9.4028  -9.3743  -9.3667  -9.2496  -9.2421  -9.2322  -9.2297
    -9.1976  -9.1832  -9.1786  -9.1449  -9.0955  -9.0795  -9.0043  -8.9478
    -8.9354  -8.9347  -8.9155  -8.9017  -8.8620  -8.8395  -8.7997  -8.7909
    -8.7807  -8.7548  -8.7456  -8.7231  -8.7005  -8.6468  -8.6313  -8.5312
    -8.5026  -8.4625  -8.4500  -8.4138  -8.3856  -8.3850  -8.3704  -8.3529
    -8.3447  -8.3388  -8.3290  -8.3142  -8.2886  -8.2864  -8.2702  -8.2559
    -8.2299  -8.2070  -8.1898  -8.1810  -8.1777  -8.1731  -8.1416  -8.1016
    -8.0966  -8.0903  -8.0264  -8.0240  -7.9658  -7.3523  -5.6129  -3.5619
    -3.3373  -2.6951  -2.5549  -2.3395  -2.1113  -1.8197  -1.4543  -0.5797
    -0.5714  -0.3824  -0.0869  -0.0316   0.4514   0.7749   0.9107   1.3700
     1.7225   1.9450   2.3582   2.7103   3.2351

          k = 0.1667 0.2887 0.0000 ( 21609 PWs)   bands (ev):

   -12.1148  -9.3259  -9.3174  -9.2454  -9.1952  -9.1829  -9.1824  -9.1733
    -9.1251  -9.1090  -9.0955  -9.0759  -9.0407  -8.9969  -8.9780  -8.9264
    -8.9183  -8.9087  -8.9006  -8.8789  -8.8545  -8.8389  -8.7778  -8.7718
    -8.7574  -8.7482  -8.7275  -8.7158  -8.6661  -8.6420  -8.6002  -8.5568
    -8.5489  -8.5052  -8.4947  -8.4821  -8.4665  -8.4534  -8.4019  -8.3991
    -8.3926  -8.3706  -8.3606  -8.3417  -8.3273  -8.3145  -8.3090  -8.2903
    -8.2719  -8.2532  -8.2433  -8.2355  -8.2242  -8.2132  -8.2064  -8.1643
    -8.1555  -8.1238  -8.1024  -8.0605  -8.0334  -7.0177  -5.3562  -4.0333
    -3.9512  -3.4205  -3.0306  -2.9340  -1.8987  -1.7276  -1.2988  -0.8843
    -0.8426  -0.4789   0.0615   0.3076   0.8578   1.3878   1.9181   2.0516
     2.3573   2.5696   2.8536   3.0223   3.5262

          k = 0.1667-0.6736 0.0000 ( 21571 PWs)   bands (ev):

   -12.1027  -9.2380  -9.1747  -9.1582  -9.1493  -9.1015  -9.0859  -9.0776
    -9.0471  -9.0379  -9.0137  -9.0085  -8.9912  -8.9479  -8.9276  -8.9028
    -8.8971  -8.8727  -8.8559  -8.8316  -8.7972  -8.7882  -8.7562  -8.7495
    -8.7397  -8.7211  -8.7068  -8.6913  -8.6841  -8.6605  -8.6351  -8.6233
    -8.5898  -8.5783  -8.5528  -8.5273  -8.5212  -8.5143  -8.4948  -8.4844
    -8.4601  -8.4430  -8.4262  -8.4022  -8.3885  -8.3753  -8.3511  -8.3348
    -8.3282  -8.3161  -8.2959  -8.2846  -8.2683  -8.2532  -8.2259  -8.2091
    -8.1955  -8.1677  -8.1417  -8.1074  -8.0619  -6.3547  -5.3514  -4.8468
    -4.3087  -3.9632  -3.2443  -2.9353  -2.3468  -1.8659  -1.3422  -1.1870
    -0.9175   0.1370   0.5126   0.7055   1.1313   1.7805   2.1961   2.5274
     2.7327   3.0324   3.5278   3.6298   3.9152

          k = 0.1667-0.4811 0.0000 ( 21571 PWs)   bands (ev):

   -12.1027  -9.2380  -9.1747  -9.1582  -9.1493  -9.1015  -9.0859  -9.0776
    -9.0471  -9.0379  -9.0137  -9.0085  -8.9912  -8.9479  -8.9276  -8.9028
    -8.8971  -8.8727  -8.8559  -8.8316  -8.7971  -8.7882  -8.7562  -8.7496
    -8.7397  -8.7211  -8.7069  -8.6913  -8.6841  -8.6605  -8.6350  -8.6233
    -8.5898  -8.5783  -8.5528  -8.5273  -8.5211  -8.5143  -8.4947  -8.4844
    -8.4601  -8.4430  -8.4261  -8.4023  -8.3887  -8.3754  -8.3510  -8.3349
    -8.3283  -8.3161  -8.2959  -8.2846  -8.2684  -8.2531  -8.2259  -8.2091
    -8.1955  -8.1677  -8.1417  -8.1074  -8.0618  -6.3547  -5.3515  -4.8467
    -4.3088  -3.9633  -3.2442  -2.9353  -2.3469  -1.8657  -1.3425  -1.1868
    -0.9175   0.1371   0.5124   0.7057   1.1315   1.7804   2.1964   2.5274
     2.7326   3.0324   3.5277   3.6296   3.9153

          k = 0.1667-0.2887 0.0000 ( 21609 PWs)   bands (ev):

   -12.1148  -9.3259  -9.3174  -9.2454  -9.1952  -9.1829  -9.1824  -9.1733
    -9.1251  -9.1090  -9.0954  -9.0759  -9.0408  -8.9969  -8.9780  -8.9264
    -8.9182  -8.9087  -8.9006  -8.8789  -8.8544  -8.8390  -8.7778  -8.7718
    -8.7574  -8.7481  -8.7275  -8.7158  -8.6660  -8.6420  -8.6002  -8.5569
    -8.5489  -8.5052  -8.4946  -8.4820  -8.4666  -8.4534  -8.4019  -8.3991
    -8.3926  -8.3706  -8.3606  -8.3418  -8.3274  -8.3146  -8.3091  -8.2902
    -8.2720  -8.2532  -8.2433  -8.2355  -8.2242  -8.2133  -8.2064  -8.1643
    -8.1556  -8.1239  -8.1024  -8.0605  -8.0333  -7.0177  -5.3562  -4.0334
    -3.9510  -3.4203  -3.0306  -2.9344  -1.8988  -1.7276  -1.2988  -0.8842
    -0.8427  -0.4788   0.0613   0.3077   0.8583   1.3879   1.9178   2.0518
     2.3576   2.5693   2.8536   3.0220   3.5268

          k = 0.3333-0.1925 0.0000 ( 21582 PWs)   bands (ev):

   -12.1108  -9.3293  -9.2320  -9.2188  -9.1873  -9.1702  -9.1671  -9.1573
    -9.0953  -9.0852  -9.0680  -9.0604  -8.9934  -8.9803  -8.9473  -8.9444
    -8.9158  -8.8994  -8.8938  -8.8549  -8.8342  -8.8032  -8.8030  -8.7666
    -8.7481  -8.7309  -8.7170  -8.6907  -8.6743  -8.6519  -8.5794  -8.5731
    -8.5477  -8.5294  -8.5063  -8.5003  -8.4853  -8.4759  -8.4409  -8.4140
    -8.4139  -8.3888  -8.3603  -8.3580  -8.3454  -8.3431  -8.3322  -8.3200
    -8.3069  -8.2810  -8.2717  -8.2659  -8.2616  -8.2290  -8.1997  -8.1923
    -8.1479  -8.1187  -8.1175  -8.0633  -8.0508  -6.8552  -5.2467  -4.8215
    -3.6677  -3.2045  -2.9048  -2.8143  -2.4237  -2.1393  -1.7554  -1.1053
    -0.6646  -0.1472   0.2698   0.9746   1.0842   1.2244   1.4480   2.4255
     2.6275   2.7752   3.2148   3.3926   3.8813

          k = 0.3333 0.0000 0.0000 ( 21609 PWs)   bands (ev):

   -12.1148  -9.3259  -9.3174  -9.2454  -9.1952  -9.1828  -9.1824  -9.1733
    -9.1251  -9.1090  -9.0955  -9.0759  -9.0407  -8.9969  -8.9780  -8.9264
    -8.9183  -8.9087  -8.9006  -8.8790  -8.8545  -8.8389  -8.7778  -8.7718
    -8.7574  -8.7482  -8.7275  -8.7158  -8.6661  -8.6420  -8.6002  -8.5568
    -8.5489  -8.5052  -8.4948  -8.4821  -8.4665  -8.4534  -8.4019  -8.3991
    -8.3926  -8.3706  -8.3606  -8.3417  -8.3273  -8.3145  -8.3090  -8.2903
    -8.2719  -8.2532  -8.2432  -8.2354  -8.2242  -8.2132  -8.2064  -8.1643
    -8.1555  -8.1238  -8.1024  -8.0605  -8.0334  -7.0177  -5.3562  -4.0332
    -3.9512  -3.4205  -3.0305  -2.9340  -1.8988  -1.7275  -1.2989  -0.8843
    -0.8426  -0.4789   0.0615   0.3076   0.8578   1.3878   1.9182   2.0516
     2.3573   2.5696   2.8536   3.0224   3.5262

          k = 0.3333 0.1925 0.0000 ( 21582 PWs)   bands (ev):

   -12.1108  -9.3293  -9.2320  -9.2188  -9.1873  -9.1702  -9.1671  -9.1573
    -9.0953  -9.0852  -9.0680  -9.0604  -8.9933  -8.9803  -8.9474  -8.9444
    -8.9159  -8.8995  -8.8938  -8.8551  -8.8342  -8.8032  -8.8031  -8.7667
    -8.7481  -8.7310  -8.7169  -8.6907  -8.6743  -8.6520  -8.5793  -8.5731
    -8.5477  -8.5294  -8.5064  -8.5003  -8.4853  -8.4759  -8.4409  -8.4140
    -8.4138  -8.3888  -8.3601  -8.3580  -8.3453  -8.3431  -8.3321  -8.3199
    -8.3069  -8.2810  -8.2717  -8.2659  -8.2616  -8.2290  -8.1996  -8.1923
    -8.1479  -8.1187  -8.1175  -8.0631  -8.0509  -6.8552  -5.2469  -4.8214
    -3.6678  -3.2044  -2.9046  -2.8143  -2.4234  -2.1394  -1.7553  -1.1053
    -0.6646  -0.1474   0.2699   0.9743   1.0838   1.2245   1.4482   2.4256
     2.6275   2.7748   3.2151   3.3928   3.8810

          k = 0.3333-0.7698 0.0000 ( 21571 PWs)   bands (ev):

   -12.1027  -9.2380  -9.1747  -9.1582  -9.1493  -9.1015  -9.0859  -9.0777
    -9.0471  -9.0379  -9.0137  -9.0085  -8.9912  -8.9480  -8.9276  -8.9028
    -8.8971  -8.8727  -8.8559  -8.8318  -8.7972  -8.7884  -8.7562  -8.7495
    -8.7398  -8.7212  -8.7068  -8.6913  -8.6841  -8.6605  -8.6351  -8.6233
    -8.5900  -8.5785  -8.5528  -8.5273  -8.5210  -8.5143  -8.4948  -8.4844
    -8.4600  -8.4430  -8.4262  -8.4022  -8.3885  -8.3752  -8.3510  -8.3349
    -8.3282  -8.3160  -8.2959  -8.2846  -8.2683  -8.2531  -8.2258  -8.2091
    -8.1955  -8.1677  -8.1417  -8.1075  -8.0617  -6.3547  -5.3515  -4.8468
    -4.3087  -3.9632  -3.2441  -2.9354  -2.3468  -1.8657  -1.3423  -1.1869
    -0.9175   0.1369   0.5127   0.7055   1.1312   1.7803   2.1963   2.5272
     2.7329   3.0323   3.5278   3.6296   3.9150

          k = 0.3333-0.5774 0.0000 ( 21606 PWs)   bands (ev):

   -12.0987  -9.1349  -9.1236  -9.1141  -9.1128  -9.0606  -9.0595  -9.0559
    -9.0396  -9.0209  -9.0168  -8.9893  -8.9807  -8.9244  -8.8960  -8.8482
    -8.8467  -8.8299  -8.8159  -8.8099  -8.7932  -8.7820  -8.7786  -8.7617
    -8.7587  -8.7436  -8.7040  -8.7021  -8.6949  -8.6727  -8.6549  -8.6498
    -8.6441  -8.6365  -8.6341  -8.6020  -8.5558  -8.5369  -8.5087  -8.4757
    -8.4683  -8.4658  -8.4153  -8.4138  -8.3849  -8.3703  -8.3671  -8.3369
    -8.3260  -8.3174  -8.3106  -8.2782  -8.2752  -8.2680  -8.2535  -8.2366
    -8.2101  -8.1958  -8.1818  -8.1309  -8.0673  -5.5819  -5.5096  -5.4068
    -4.3821  -4.1718  -3.8113  -2.5385  -2.5074  -2.2464  -1.1743  -1.1035
    -0.1394   0.3796   0.4832   0.8574   1.3819   1.6030   1.9320   2.2512
     2.2679   2.8618   3.6554   3.7894   3.8179

          k = 0.3333-0.3849 0.0000 ( 21571 PWs)   bands (ev):

   -12.1027  -9.2380  -9.1747  -9.1582  -9.1493  -9.1015  -9.0859  -9.0776
    -9.0471  -9.0379  -9.0137  -9.0085  -8.9912  -8.9479  -8.9276  -8.9028
    -8.8971  -8.8727  -8.8559  -8.8316  -8.7971  -8.7882  -8.7562  -8.7496
    -8.7397  -8.7211  -8.7069  -8.6913  -8.6841  -8.6605  -8.6350  -8.6233
    -8.5899  -8.5783  -8.5528  -8.5273  -8.5211  -8.5143  -8.4948  -8.4844
    -8.4601  -8.4430  -8.4261  -8.4023  -8.3887  -8.3753  -8.3509  -8.3349
    -8.3283  -8.3161  -8.2959  -8.2846  -8.2684  -8.2531  -8.2259  -8.2091
    -8.1955  -8.1677  -8.1417  -8.1074  -8.0618  -6.3547  -5.3515  -4.8467
    -4.3088  -3.9633  -3.2443  -2.9353  -2.3468  -1.8658  -1.3425  -1.1868
    -0.9175   0.1371   0.5124   0.7056   1.1315   1.7803   2.1964   2.5274
     2.7327   3.0324   3.5277   3.6296   3.9153

          k =-0.5000 0.2887 0.0000 ( 21576 PWs)   bands (ev):

   -12.1028  -9.2404  -9.2329  -9.1470  -9.1263  -9.0977  -9.0962  -9.0721
    -9.0582  -9.0421  -9.0374  -9.0300  -8.9639  -8.9268  -8.9217  -8.8970
    -8.8839  -8.8808  -8.8613  -8.8097  -8.8027  -8.7991  -8.7575  -8.7565
    -8.6998  -8.6976  -8.6840  -8.6801  -8.6690  -8.6508  -8.6375  -8.6128
    -8.5787  -8.5536  -8.5478  -8.5353  -8.5146  -8.5111  -8.4905  -8.4805
    -8.4720  -8.4480  -8.4391  -8.4223  -8.4126  -8.4088  -8.4064  -8.3558
    -8.3211  -8.3187  -8.3128  -8.2995  -8.2857  -8.2519  -8.2185  -8.2073
    -8.1838  -8.1496  -8.1240  -8.0840  -8.0578  -6.0849  -5.9696  -4.7588
    -4.3188  -3.0412  -3.0181  -2.8555  -2.5737  -2.5238  -1.8611  -1.2274
    -0.7373  -0.2941   0.6288   0.9481   1.2538   1.9231   2.6490   2.6901
     3.0682   3.0828   3.5914   3.7249   3.8126

          k =-0.5000 0.4811 0.0000 ( 21571 PWs)   bands (ev):

   -12.1027  -9.2380  -9.1747  -9.1582  -9.1493  -9.1015  -9.0859  -9.0776
    -9.0471  -9.0379  -9.0137  -9.0085  -8.9912  -8.9479  -8.9276  -8.9028
    -8.8971  -8.8727  -8.8559  -8.8317  -8.7972  -8.7882  -8.7562  -8.7495
    -8.7397  -8.7212  -8.7068  -8.6913  -8.6841  -8.6605  -8.6351  -8.6233
    -8.5898  -8.5783  -8.5528  -8.5273  -8.5212  -8.5143  -8.4948  -8.4844
    -8.4601  -8.4430  -8.4262  -8.4022  -8.3885  -8.3753  -8.3511  -8.3348
    -8.3282  -8.3160  -8.2958  -8.2846  -8.2683  -8.2532  -8.2258  -8.2090
    -8.1955  -8.1677  -8.1417  -8.1074  -8.0619  -6.3547  -5.3514  -4.8468
    -4.3087  -3.9632  -3.2443  -2.9353  -2.3468  -1.8659  -1.3422  -1.1869
    -0.9175   0.1370   0.5126   0.7055   1.1313   1.7805   2.1961   2.5274
     2.7327   3.0323   3.5278   3.6299   3.9152

          k =-0.5000 0.6736 0.0000 ( 21571 PWs)   bands (ev):

   -12.1027  -9.2380  -9.1747  -9.1582  -9.1493  -9.1015  -9.0859  -9.0777
    -9.0471  -9.0379  -9.0137  -9.0085  -8.9912  -8.9480  -8.9276  -8.9029
    -8.8971  -8.8727  -8.8559  -8.8318  -8.7973  -8.7884  -8.7562  -8.7495
    -8.7398  -8.7212  -8.7068  -8.6913  -8.6841  -8.6605  -8.6351  -8.6233
    -8.5899  -8.5785  -8.5528  -8.5273  -8.5210  -8.5143  -8.4948  -8.4844
    -8.4600  -8.4430  -8.4262  -8.4022  -8.3885  -8.3752  -8.3510  -8.3349
    -8.3282  -8.3160  -8.2959  -8.2846  -8.2683  -8.2531  -8.2258  -8.2090
    -8.1955  -8.1677  -8.1417  -8.1075  -8.0617  -6.3547  -5.3515  -4.8468
    -4.3087  -3.9632  -3.2441  -2.9354  -2.3469  -1.8657  -1.3423  -1.1869
    -0.9176   0.1369   0.5127   0.7054   1.1312   1.7803   2.1963   2.5272
     2.7329   3.0323   3.5278   3.6296   3.9151

          k =-0.5000-0.2887 0.0000 ( 21576 PWs)   bands (ev):

   -12.1027  -9.2404  -9.2330  -9.1470  -9.1262  -9.0977  -9.0962  -9.0721
    -9.0583  -9.0420  -9.0374  -9.0300  -8.9640  -8.9268  -8.9217  -8.8970
    -8.8841  -8.8808  -8.8613  -8.8100  -8.8030  -8.7991  -8.7575  -8.7565
    -8.6998  -8.6977  -8.6840  -8.6801  -8.6691  -8.6508  -8.6375  -8.6130
    -8.5786  -8.5534  -8.5477  -8.5352  -8.5146  -8.5111  -8.4906  -8.4802
    -8.4720  -8.4480  -8.4392  -8.4222  -8.4124  -8.4088  -8.4064  -8.3557
    -8.3210  -8.3186  -8.3127  -8.2995  -8.2857  -8.2518  -8.2184  -8.2073
    -8.1836  -8.1496  -8.1240  -8.0840  -8.0576  -6.0851  -5.9694  -4.7592
    -4.3184  -3.0410  -3.0181  -2.8558  -2.5737  -2.5235  -1.8608  -1.2276
    -0.7373  -0.2944   0.6290   0.9477   1.2538   1.9229   2.6489   2.6902
     3.0682   3.0824   3.5913   3.7248   3.8123

     the Fermi energy is     0.4027 ev

!    total energy              =   -1417.48615400 Ry
     Harris-Foulkes estimate   =   -1417.48611874 Ry
     estimated scf accuracy    <       0.00002301 Ry

     The total energy is the sum of the following terms:

     one-electron contribution =   -8440.78979353 Ry
     hartree contribution      =    4314.54705556 Ry
     xc contribution           =    -498.36562412 Ry
     ewald contribution        =    3207.15009909 Ry
     electric field correction =       0.00041562 Ry
     smearing contrib. (-TS)   =      -0.02830661 Ry

     convergence has been achieved in   3 iterations

     Forces acting on atoms (Ry/au):


     negative rho (up, down):  2.699E-01 0.000E+00
     atom    1 type  1   force =    -0.00002677    0.00008609   -0.01585144
     atom    2 type  1   force =    -0.00001617   -0.00010911   -0.01813184
     atom    3 type  1   force =    -0.00014174    0.00006254   -0.01809698
     atom    4 type  1   force =     0.00013768   -0.00000595   -0.01820345
     atom    5 type  1   force =     0.00600804   -0.00345396    0.02057076
     atom    6 type  1   force =    -0.00597604   -0.00347349    0.02051963
     atom    7 type  1   force =     0.00000904    0.00001140    0.01721159
     atom    8 type  1   force =    -0.00001601    0.00693279    0.02058490
     atom    9 type  1   force =    -0.00441699   -0.00250521   -0.00234620
     atom   10 type  1   force =     0.00432837   -0.00258409   -0.00239916
     atom   11 type  1   force =     0.00000230    0.00513141   -0.00244939
     atom   12 type  1   force =     0.00007534   -0.00010104   -0.00302970
     atom   13 type  2   force =     0.00003294    0.00000861    0.00162129

     Total force =     0.010325     Total SCF correction =     0.018443
     SCF correction compared to forces is large: reduce conv_thr to get better values

     number of scf cycles    =   2
     number of bfgs steps    =   1

     energy   old            =   -1417.4861239813 Ry
     energy   new            =   -1417.4861539997 Ry

     CASE: energy  _new < energy  _old

     new trust radius        =       0.0024353701 bohr
     new conv_thr            =       0.0000010000 Ry


ATOMIC_POSITIONS (angstrom)
Cd       1.563552067   0.902717207  10.000000000    0   0   0
Cd       4.690656202   0.902717207  10.000000000    0   0   0
Cd       3.127104135   3.610868828  10.000000000    0   0   0
Cd       6.254208270   3.610868828  10.000000000    0   0   0
Cd       6.254208270   1.805434414  12.553269834    0   0   0
Cd       3.127104135   1.805434414  12.553269834    0   0   0
Cd       7.817760337   4.513586035  12.553269834    0   0   0
Cd       4.690656202   4.513586035  12.553269834    0   0   0
Cd      -0.103228311  -0.059599432  15.649663893
Cd       3.230391804  -0.059609621  15.650893559
Cd       1.563594193   2.827373865  15.651145492
Cd       4.690423161   2.708004938  15.178291063
S        1.562590942   0.902116590  17.334559646



     Writing output data file calc.save
     Check: negative starting charge=   -0.261328
     NEW-OLD atomic charge density approx. for the potential
     Check: negative starting charge=   -0.261297

     negative rho (up, down):  2.699E-01 0.000E+00
 
     Adding external electric field

     Computed dipole along edir(3) : 
        Dipole               -0.4380 Ry au,         -1.1133 Debye
        Dipole field         -0.0010 Ry au
 
        Potential amp.        0.0819 Ry
        Total length         42.7000 bohr
 

     total cpu time spent up to now is      229.0 secs

     Self-consistent Calculation

     iteration #  1     ecut=    36.75 Ry     beta=0.20
     Davidson diagonalization with overlap
     ethr =  1.00E-06,  avg # of iterations =  3.0

     negative rho (up, down):  2.699E-01 0.000E+00
 
     Adding external electric field

     Computed dipole along edir(3) : 
        Dipole               -0.2923 Ry au,         -0.7431 Debye
        Dipole field         -0.0006 Ry au
 
        Potential amp.        0.0547 Ry
        Total length         42.7000 bohr
 

     total cpu time spent up to now is      242.0 secs

     total energy              =   -1417.48495566 Ry
     Harris-Foulkes estimate   =   -1417.48654980 Ry
     estimated scf accuracy    <       0.00383218 Ry

     iteration #  2     ecut=    36.75 Ry     beta=0.20
     Davidson diagonalization with overlap
     ethr =  2.55E-06,  avg # of iterations =  4.5

     negative rho (up, down):  2.698E-01 0.000E+00
 
     Adding external electric field

     Computed dipole along edir(3) : 
        Dipole               -0.4100 Ry au,         -1.0422 Debye
        Dipole field         -0.0009 Ry au
 
        Potential amp.        0.0767 Ry
        Total length         42.7000 bohr
 

     total cpu time spent up to now is      253.5 secs

     total energy              =   -1417.48387525 Ry
     Harris-Foulkes estimate   =   -1417.48837005 Ry
     estimated scf accuracy    <       0.06079216 Ry

     iteration #  3     ecut=    36.75 Ry     beta=0.20
     Davidson diagonalization with overlap
     ethr =  2.55E-06,  avg # of iterations =  3.6

     negative rho (up, down):  2.698E-01 0.000E+00
 
     Adding external electric field

     Computed dipole along edir(3) : 
        Dipole               -0.4098 Ry au,         -1.0417 Debye
        Dipole field         -0.0009 Ry au
 
        Potential amp.        0.0766 Ry
        Total length         42.7000 bohr
 

     total cpu time spent up to now is      264.5 secs

     total energy              =   -1417.48615908 Ry
     Harris-Foulkes estimate   =   -1417.48616889 Ry
     estimated scf accuracy    <       0.00003960 Ry

     iteration #  4     ecut=    36.75 Ry     beta=0.20
     Davidson diagonalization with overlap
     ethr =  2.64E-08,  avg # of iterations =  3.0

     negative rho (up, down):  2.698E-01 0.000E+00
 
     Adding external electric field

     Computed dipole along edir(3) : 
        Dipole               -0.4099 Ry au,         -1.0419 Debye
        Dipole field         -0.0009 Ry au
 
        Potential amp.        0.0767 Ry
        Total length         42.7000 bohr
 

     total cpu time spent up to now is      277.0 secs

     total energy              =   -1417.48617019 Ry
     Harris-Foulkes estimate   =   -1417.48617150 Ry
     estimated scf accuracy    <       0.00000457 Ry

     iteration #  5     ecut=    36.75 Ry     beta=0.20
     Davidson diagonalization with overlap
     ethr =  3.05E-09,  avg # of iterations =  1.3

     negative rho (up, down):  2.698E-01 0.000E+00
 
     Adding external electric field

     Computed dipole along edir(3) : 
        Dipole               -0.4095 Ry au,         -1.0408 Debye
        Dipole field         -0.0009 Ry au
 
        Potential amp.        0.0766 Ry
        Total length         42.7000 bohr
 

     total cpu time spent up to now is      286.7 secs

     total energy              =   -1417.48616950 Ry
     Harris-Foulkes estimate   =   -1417.48617123 Ry
     estimated scf accuracy    <       0.00000152 Ry

     iteration #  6     ecut=    36.75 Ry     beta=0.20
     Davidson diagonalization with overlap
     ethr =  1.01E-09,  avg # of iterations =  3.0

     negative rho (up, down):  2.698E-01 0.000E+00
 
     Adding external electric field

     Computed dipole along edir(3) : 
        Dipole               -0.4074 Ry au,         -1.0356 Debye
        Dipole field         -0.0009 Ry au
 
        Potential amp.        0.0762 Ry
        Total length         42.7000 bohr
 

     total cpu time spent up to now is      299.7 secs

     End of self-consistent calculation

          k = 0.0000 0.0000 0.0000 ( 21643 PWs)   bands (ev):

   -12.1278  -9.4400  -9.4277  -9.4277  -9.2947  -9.2770  -9.2586  -9.2586
    -9.2386  -9.2386  -9.2384  -9.1746  -9.1326  -9.1324  -9.0339  -8.9663
    -8.9511  -8.9511  -8.9222  -8.9081  -8.9081  -8.8279  -8.8279  -8.7893
    -8.7891  -8.7456  -8.7455  -8.7445  -8.6868  -8.6866  -8.6304  -8.4960
    -8.4960  -8.4537  -8.4535  -8.3598  -8.3549  -8.3548  -8.3534  -8.3394
    -8.3159  -8.3159  -8.3020  -8.3018  -8.2805  -8.2707  -8.2706  -8.2230
    -8.2229  -8.1680  -8.1680  -8.1411  -8.1382  -8.1347  -8.1347  -8.0542
    -8.0492  -8.0492  -7.9785  -7.9785  -7.9211  -7.5343  -5.7520  -3.6290
    -2.3422  -2.3420  -2.1286  -1.6415  -1.5424  -1.5424  -1.3082  -1.3081
    -1.2558  -0.8478  -0.1550  -0.1549   0.0207   0.5768   0.5771   1.2082
     1.6633   1.6636   1.8206   2.3446   2.7050

          k = 0.0000 0.1925 0.0000 ( 21640 PWs)   bands (ev):

   -12.1198  -9.4061  -9.3775  -9.3699  -9.2529  -9.2454  -9.2353  -9.2328
    -9.2008  -9.1862  -9.1819  -9.1456  -9.0960  -9.0798  -9.0073  -8.9508
    -8.9380  -8.9374  -8.9182  -8.9019  -8.8649  -8.8425  -8.8016  -8.7930
    -8.7836  -8.7552  -8.7482  -8.7242  -8.7000  -8.6467  -8.6325  -8.5336
    -8.5050  -8.4633  -8.4512  -8.4151  -8.3871  -8.3868  -8.3709  -8.3549
    -8.3468  -8.3403  -8.3303  -8.3139  -8.2889  -8.2872  -8.2722  -8.2578
    -8.2314  -8.2073  -8.1909  -8.1837  -8.1800  -8.1749  -8.1429  -8.1044
    -8.0993  -8.0928  -8.0255  -8.0235  -7.9632  -7.3581  -5.6180  -3.5656
    -3.3418  -2.6932  -2.5539  -2.3449  -2.1145  -1.8193  -1.4588  -0.5848
    -0.5763  -0.3874  -0.0917  -0.0358   0.4471   0.7693   0.9061   1.3652
     1.7186   1.9415   2.3549   2.7062   3.2320

          k = 0.0000 0.3849 0.0000 ( 21582 PWs)   bands (ev):

   -12.1038  -9.3324  -9.2352  -9.2219  -9.1905  -9.1734  -9.1703  -9.1603
    -9.0968  -9.0876  -9.0711  -9.0635  -8.9947  -8.9827  -8.9487  -8.9474
    -8.9185  -8.9014  -8.8964  -8.8558  -8.8369  -8.8058  -8.8053  -8.7666
    -8.7509  -8.7310  -8.7197  -8.6933  -8.6755  -8.6545  -8.5801  -8.5739
    -8.5497  -8.5313  -8.5079  -8.5022  -8.4849  -8.4778  -8.4436  -8.4158
    -8.4157  -8.3903  -8.3603  -8.3598  -8.3475  -8.3451  -8.3331  -8.3203
    -8.3070  -8.2834  -8.2731  -8.2663  -8.2632  -8.2309  -8.2006  -8.1934
    -8.1494  -8.1196  -8.1185  -8.0631  -8.0487  -6.8610  -5.2518  -4.8269
    -3.6703  -3.2063  -2.9068  -2.8192  -2.4243  -2.1412  -1.7572  -1.1083
    -0.6685  -0.1506   0.2654   0.9707   1.0794   1.2190   1.4441   2.4208
     2.6236   2.7721   3.2102   3.3877   3.8775

          k = 0.0000-0.5774 0.0000 ( 21576 PWs)   bands (ev):

   -12.0957  -9.2435  -9.2361  -9.1502  -9.1293  -9.1008  -9.0993  -9.0737
    -9.0614  -9.0444  -9.0404  -9.0331  -8.9660  -8.9293  -8.9243  -8.8998
    -8.8865  -8.8830  -8.8639  -8.8111  -8.8028  -8.8007  -8.7597  -8.7593
    -8.7024  -8.6987  -8.6866  -8.6827  -8.6702  -8.6522  -8.6402  -8.6137
    -8.5797  -8.5547  -8.5500  -8.5376  -8.5170  -8.5140  -8.4923  -8.4801
    -8.4737  -8.4499  -8.4385  -8.4241  -8.4122  -8.4111  -8.4089  -8.3575
    -8.3219  -8.3193  -8.3133  -8.2986  -8.2880  -8.2533  -8.2192  -8.2062
    -8.1846  -8.1516  -8.1263  -8.0824  -8.0574  -6.0907  -5.9753  -4.7637
    -4.3214  -3.0437  -3.0219  -2.8587  -2.5754  -2.5241  -1.8648  -1.2283
    -0.7410  -0.2974   0.6247   0.9445   1.2494   1.9197   2.6436   2.6845
     3.0629   3.0781   3.5866   3.7223   3.8081

          k = 0.1667-0.0962 0.0000 ( 21640 PWs)   bands (ev):

   -12.1198  -9.4061  -9.3775  -9.3699  -9.2529  -9.2454  -9.2353  -9.2328
    -9.2008  -9.1862  -9.1819  -9.1456  -9.0959  -9.0798  -9.0073  -8.9508
    -8.9380  -8.9374  -8.9182  -8.9019  -8.8649  -8.8425  -8.8017  -8.7930
    -8.7836  -8.7552  -8.7482  -8.7242  -8.7001  -8.6467  -8.6325  -8.5336
    -8.5050  -8.4633  -8.4512  -8.4151  -8.3871  -8.3868  -8.3709  -8.3549
    -8.3468  -8.3403  -8.3303  -8.3139  -8.2889  -8.2872  -8.2722  -8.2578
    -8.2313  -8.2073  -8.1909  -8.1837  -8.1800  -8.1749  -8.1429  -8.1044
    -8.0993  -8.0928  -8.0255  -8.0235  -7.9632  -7.3581  -5.6180  -3.5656
    -3.3418  -2.6932  -2.5539  -2.3449  -2.1145  -1.8193  -1.4587  -0.5848
    -0.5764  -0.3875  -0.0917  -0.0358   0.4471   0.7693   0.9061   1.3652
     1.7186   1.9415   2.3550   2.7062   3.2320

          k = 0.1667 0.0962 0.0000 ( 21640 PWs)   bands (ev):

   -12.1198  -9.4061  -9.3775  -9.3699  -9.2529  -9.2453  -9.2353  -9.2328
    -9.2008  -9.1862  -9.1819  -9.1456  -9.0958  -9.0799  -9.0073  -8.9508
    -8.9381  -8.9374  -8.9183  -8.9020  -8.8649  -8.8425  -8.8017  -8.7930
    -8.7836  -8.7553  -8.7481  -8.7243  -8.7002  -8.6466  -8.6324  -8.5336
    -8.5050  -8.4632  -8.4513  -8.4152  -8.3871  -8.3869  -8.3708  -8.3549
    -8.3468  -8.3402  -8.3303  -8.3138  -8.2890  -8.2871  -8.2722  -8.2578
    -8.2313  -8.2073  -8.1909  -8.1837  -8.1800  -8.1749  -8.1429  -8.1044
    -8.0993  -8.0928  -8.0254  -8.0235  -7.9632  -7.3581  -5.6181  -3.5657
    -3.3417  -2.6934  -2.5537  -2.3448  -2.1144  -1.8193  -1.4587  -0.5846
    -0.5765  -0.3877  -0.0915  -0.0361   0.4469   0.7694   0.9060   1.3650
     1.7186   1.9417   2.3550   2.7061   3.2319

          k = 0.1667 0.2887 0.0000 ( 21609 PWs)   bands (ev):

   -12.1078  -9.3291  -9.3205  -9.2485  -9.1984  -9.1861  -9.1856  -9.1764
    -9.1282  -9.1122  -9.0965  -9.0789  -9.0410  -8.9998  -8.9791  -8.9292
    -8.9207  -8.9115  -8.9031  -8.8813  -8.8557  -8.8416  -8.7807  -8.7726
    -8.7583  -8.7505  -8.7289  -8.7187  -8.6664  -8.6434  -8.6019  -8.5590
    -8.5495  -8.5073  -8.4961  -8.4836  -8.4673  -8.4549  -8.4042  -8.4001
    -8.3946  -8.3724  -8.3619  -8.3426  -8.3292  -8.3152  -8.3093  -8.2910
    -8.2737  -8.2545  -8.2442  -8.2367  -8.2258  -8.2152  -8.2086  -8.1667
    -8.1577  -8.1248  -8.1017  -8.0602  -8.0311  -7.0235  -5.3612  -4.0390
    -3.9560  -3.4239  -3.0296  -2.9344  -1.9000  -1.7277  -1.3021  -0.8893
    -0.8481  -0.4836   0.0575   0.3041   0.8534   1.3840   1.9127   2.0462
     2.3533   2.5655   2.8503   3.0176   3.5229

          k = 0.1667-0.6736 0.0000 ( 21571 PWs)   bands (ev):

   -12.0957  -9.2411  -9.1778  -9.1613  -9.1524  -9.1046  -9.0889  -9.0807
    -9.0495  -9.0400  -9.0166  -9.0115  -8.9939  -8.9493  -8.9298  -8.9056
    -8.8997  -8.8754  -8.8586  -8.8326  -8.7982  -8.7890  -8.7589  -8.7514
    -8.7413  -8.7236  -8.7092  -8.6936  -8.6866  -8.6627  -8.6369  -8.6255
    -8.5906  -8.5794  -8.5537  -8.5294  -8.5226  -8.5167  -8.4962  -8.4860
    -8.4604  -8.4442  -8.4273  -8.4044  -8.3886  -8.3770  -8.3519  -8.3364
    -8.3289  -8.3169  -8.2977  -8.2865  -8.2693  -8.2543  -8.2268  -8.2104
    -8.1949  -8.1695  -8.1428  -8.1055  -8.0613  -6.3605  -5.3572  -4.8515
    -4.3141  -3.9656  -3.2451  -2.9368  -2.3479  -1.8678  -1.3452  -1.1900
    -0.9209   0.1342   0.5084   0.7003   1.1270   1.7759   2.1917   2.5234
     2.7279   3.0281   3.5242   3.6246   3.9118

          k = 0.1667-0.4811 0.0000 ( 21571 PWs)   bands (ev):

   -12.0957  -9.2411  -9.1778  -9.1613  -9.1524  -9.1046  -9.0889  -9.0807
    -9.0495  -9.0400  -9.0166  -9.0115  -8.9939  -8.9493  -8.9298  -8.9056
    -8.8997  -8.8754  -8.8586  -8.8325  -8.7981  -8.7889  -8.7589  -8.7515
    -8.7413  -8.7236  -8.7092  -8.6937  -8.6865  -8.6627  -8.6369  -8.6255
    -8.5906  -8.5793  -8.5537  -8.5294  -8.5226  -8.5167  -8.4962  -8.4860
    -8.4604  -8.4442  -8.4272  -8.4044  -8.3888  -8.3770  -8.3518  -8.3365
    -8.3290  -8.3170  -8.2978  -8.2865  -8.2694  -8.2543  -8.2268  -8.2105
    -8.1949  -8.1695  -8.1428  -8.1055  -8.0612  -6.3605  -5.3572  -4.8513
    -4.3142  -3.9657  -3.2451  -2.9368  -2.3479  -1.8676  -1.3455  -1.1899
    -0.9209   0.1343   0.5082   0.7004   1.1271   1.7757   2.1919   2.5234
     2.7278   3.0281   3.5241   3.6244   3.9119

          k = 0.1667-0.2887 0.0000 ( 21609 PWs)   bands (ev):

   -12.1078  -9.3291  -9.3205  -9.2485  -9.1984  -9.1861  -9.1856  -9.1764
    -9.1282  -9.1122  -9.0965  -9.0789  -9.0411  -8.9998  -8.9790  -8.9292
    -8.9207  -8.9115  -8.9031  -8.8812  -8.8555  -8.8416  -8.7807  -8.7726
    -8.7583  -8.7504  -8.7289  -8.7187  -8.6662  -8.6433  -8.6020  -8.5591
    -8.5496  -8.5073  -8.4960  -8.4836  -8.4673  -8.4550  -8.4042  -8.4001
    -8.3946  -8.3724  -8.3619  -8.3427  -8.3292  -8.3152  -8.3094  -8.2909
    -8.2738  -8.2546  -8.2442  -8.2368  -8.2258  -8.2152  -8.2086  -8.1667
    -8.1577  -8.1249  -8.1017  -8.0601  -8.0311  -7.0235  -5.3612  -4.0392
    -3.9559  -3.4238  -3.0295  -2.9348  -1.9001  -1.7277  -1.3021  -0.8892
    -0.8482  -0.4835   0.0573   0.3041   0.8539   1.3841   1.9124   2.0463
     2.3536   2.5651   2.8503   3.0173   3.5234

          k = 0.3333-0.1925 0.0000 ( 21582 PWs)   bands (ev):

   -12.1038  -9.3324  -9.2352  -9.2219  -9.1905  -9.1734  -9.1703  -9.1603
    -9.0968  -9.0876  -9.0711  -9.0635  -8.9947  -8.9827  -8.9488  -8.9474
    -8.9185  -8.9015  -8.8964  -8.8558  -8.8369  -8.8058  -8.8053  -8.7666
    -8.7509  -8.7310  -8.7197  -8.6933  -8.6755  -8.6545  -8.5801  -8.5739
    -8.5497  -8.5313  -8.5080  -8.5022  -8.4849  -8.4777  -8.4436  -8.4158
    -8.4157  -8.3903  -8.3603  -8.3598  -8.3475  -8.3451  -8.3331  -8.3203
    -8.3071  -8.2834  -8.2731  -8.2663  -8.2632  -8.2309  -8.2006  -8.1934
    -8.1494  -8.1196  -8.1185  -8.0631  -8.0487  -6.8610  -5.2518  -4.8269
    -3.6703  -3.2063  -2.9068  -2.8192  -2.4244  -2.1412  -1.7572  -1.1083
    -0.6685  -0.1507   0.2653   0.9707   1.0794   1.2190   1.4441   2.4208
     2.6236   2.7721   3.2102   3.3877   3.8774

          k = 0.3333 0.0000 0.0000 ( 21609 PWs)   bands (ev):

   -12.1078  -9.3291  -9.3205  -9.2485  -9.1984  -9.1860  -9.1855  -9.1764
    -9.1282  -9.1122  -9.0965  -9.0789  -9.0410  -8.9998  -8.9791  -8.9292
    -8.9207  -8.9115  -8.9031  -8.8813  -8.8557  -8.8416  -8.7807  -8.7726
    -8.7583  -8.7505  -8.7289  -8.7187  -8.6664  -8.6434  -8.6019  -8.5590
    -8.5495  -8.5073  -8.4962  -8.4836  -8.4673  -8.4549  -8.4042  -8.4001
    -8.3946  -8.3724  -8.3619  -8.3426  -8.3292  -8.3151  -8.3093  -8.2910
    -8.2737  -8.2545  -8.2442  -8.2367  -8.2258  -8.2152  -8.2086  -8.1667
    -8.1577  -8.1248  -8.1017  -8.0602  -8.0311  -7.0235  -5.3612  -4.0390
    -3.9560  -3.4239  -3.0295  -2.9344  -1.9001  -1.7276  -1.3022  -0.8893
    -0.8481  -0.4836   0.0575   0.3040   0.8534   1.3840   1.9127   2.0462
     2.3533   2.5655   2.8503   3.0177   3.5229

          k = 0.3333 0.1925 0.0000 ( 21582 PWs)   bands (ev):

   -12.1038  -9.3324  -9.2352  -9.2219  -9.1905  -9.1734  -9.1703  -9.1604
    -9.0968  -9.0876  -9.0711  -9.0635  -8.9946  -8.9826  -8.9489  -8.9474
    -8.9185  -8.9016  -8.8965  -8.8560  -8.8369  -8.8058  -8.8054  -8.7667
    -8.7509  -8.7312  -8.7196  -8.6933  -8.6756  -8.6545  -8.5800  -8.5739
    -8.5497  -8.5313  -8.5081  -8.5022  -8.4849  -8.4777  -8.4436  -8.4158
    -8.4157  -8.3903  -8.3601  -8.3598  -8.3474  -8.3451  -8.3330  -8.3202
    -8.3071  -8.2834  -8.2730  -8.2663  -8.2632  -8.2309  -8.2005  -8.1934
    -8.1494  -8.1196  -8.1184  -8.0629  -8.0487  -6.8610  -5.2520  -4.8267
    -3.6703  -3.2062  -2.9066  -2.8192  -2.4241  -2.1413  -1.7571  -1.1084
    -0.6685  -0.1509   0.2654   0.9703   1.0791   1.2191   1.4443   2.4209
     2.6236   2.7717   3.2105   3.3879   3.8773

          k = 0.3333-0.7698 0.0000 ( 21571 PWs)   bands (ev):

   -12.0957  -9.2411  -9.1778  -9.1613  -9.1524  -9.1046  -9.0889  -9.0808
    -9.0495  -9.0400  -9.0166  -9.0115  -8.9939  -8.9493  -8.9298  -8.9056
    -8.8997  -8.8754  -8.8587  -8.8327  -8.7983  -8.7891  -8.7589  -8.7514
    -8.7414  -8.7236  -8.7092  -8.6937  -8.6866  -8.6627  -8.6370  -8.6255
    -8.5907  -8.5795  -8.5537  -8.5293  -8.5225  -8.5167  -8.4962  -8.4860
    -8.4603  -8.4442  -8.4273  -8.4043  -8.3886  -8.3769  -8.3518  -8.3365
    -8.3289  -8.3169  -8.2978  -8.2865  -8.2693  -8.2543  -8.2267  -8.2104
    -8.1949  -8.1695  -8.1428  -8.1056  -8.0611  -6.3605  -5.3572  -4.8514
    -4.3142  -3.9655  -3.2449  -2.9369  -2.3478  -1.8676  -1.3453  -1.1899
    -0.9209   0.1341   0.5085   0.7003   1.1268   1.7756   2.1919   2.5232
     2.7281   3.0280   3.5242   3.6244   3.9117

          k = 0.3333-0.5774 0.0000 ( 21606 PWs)   bands (ev):

   -12.0916  -9.1380  -9.1266  -9.1172  -9.1159  -9.0637  -9.0626  -9.0590
    -9.0425  -9.0234  -9.0196  -8.9921  -8.9838  -8.9268  -8.8960  -8.8508
    -8.8496  -8.8329  -8.8177  -8.8117  -8.7941  -8.7824  -8.7815  -8.7645
    -8.7615  -8.7454  -8.7067  -8.7048  -8.6976  -8.6733  -8.6554  -8.6528
    -8.6459  -8.6391  -8.6371  -8.6049  -8.5561  -8.5364  -8.5078  -8.4770
    -8.4694  -8.4685  -8.4139  -8.4119  -8.3872  -8.3727  -8.3694  -8.3386
    -8.3278  -8.3180  -8.3128  -8.2808  -8.2778  -8.2705  -8.2551  -8.2355
    -8.2099  -8.1955  -8.1816  -8.1301  -8.0665  -5.5875  -5.5158  -5.4122
    -4.3875  -4.1749  -3.8109  -2.5409  -2.5085  -2.2480  -1.1765  -1.1046
    -0.1414   0.3743   0.4780   0.8522   1.3769   1.5990   1.9279   2.2472
     2.2631   2.8574   3.6518   3.7865   3.8145

          k = 0.3333-0.3849 0.0000 ( 21571 PWs)   bands (ev):

   -12.0957  -9.2411  -9.1778  -9.1613  -9.1524  -9.1046  -9.0889  -9.0808
    -9.0495  -9.0400  -9.0166  -9.0115  -8.9939  -8.9493  -8.9298  -8.9056
    -8.8997  -8.8754  -8.8586  -8.8325  -8.7981  -8.7889  -8.7589  -8.7515
    -8.7413  -8.7236  -8.7092  -8.6937  -8.6865  -8.6627  -8.6369  -8.6255
    -8.5906  -8.5794  -8.5537  -8.5294  -8.5226  -8.5167  -8.4962  -8.4860
    -8.4604  -8.4442  -8.4272  -8.4044  -8.3888  -8.3770  -8.3518  -8.3365
    -8.3290  -8.3170  -8.2978  -8.2865  -8.2694  -8.2543  -8.2268  -8.2105
    -8.1949  -8.1695  -8.1428  -8.1055  -8.0612  -6.3605  -5.3572  -4.8513
    -4.3142  -3.9656  -3.2451  -2.9368  -2.3479  -1.8677  -1.3455  -1.1898
    -0.9209   0.1343   0.5082   0.7004   1.1271   1.7757   2.1920   2.5234
     2.7279   3.0281   3.5242   3.6244   3.9119

          k =-0.5000 0.2887 0.0000 ( 21576 PWs)   bands (ev):

   -12.0957  -9.2435  -9.2361  -9.1502  -9.1293  -9.1008  -9.0993  -9.0737
    -9.0614  -9.0444  -9.0404  -9.0331  -8.9660  -8.9293  -8.9243  -8.8998
    -8.8866  -8.8830  -8.8639  -8.8111  -8.8029  -8.8006  -8.7597  -8.7593
    -8.7024  -8.6987  -8.6866  -8.6827  -8.6702  -8.6522  -8.6402  -8.6138
    -8.5797  -8.5546  -8.5500  -8.5376  -8.5170  -8.5140  -8.4923  -8.4801
    -8.4737  -8.4499  -8.4385  -8.4241  -8.4122  -8.4111  -8.4089  -8.3575
    -8.3219  -8.3193  -8.3133  -8.2986  -8.2880  -8.2533  -8.2192  -8.2062
    -8.1846  -8.1516  -8.1263  -8.0824  -8.0573  -6.0908  -5.9753  -4.7637
    -4.3214  -3.0437  -3.0219  -2.8587  -2.5754  -2.5242  -1.8649  -1.2283
    -0.7410  -0.2974   0.6247   0.9444   1.2494   1.9196   2.6435   2.6845
     3.0629   3.0781   3.5866   3.7223   3.8082

          k =-0.5000 0.4811 0.0000 ( 21571 PWs)   bands (ev):

   -12.0957  -9.2411  -9.1778  -9.1613  -9.1524  -9.1046  -9.0889  -9.0807
    -9.0495  -9.0400  -9.0166  -9.0115  -8.9939  -8.9493  -8.9298  -8.9056
    -8.8997  -8.8754  -8.8586  -8.8326  -8.7982  -8.7890  -8.7589  -8.7514
    -8.7414  -8.7236  -8.7092  -8.6936  -8.6866  -8.6627  -8.6370  -8.6255
    -8.5906  -8.5794  -8.5537  -8.5294  -8.5226  -8.5167  -8.4962  -8.4860
    -8.4604  -8.4442  -8.4273  -8.4044  -8.3886  -8.3770  -8.3519  -8.3364
    -8.3289  -8.3169  -8.2977  -8.2865  -8.2693  -8.2543  -8.2268  -8.2104
    -8.1949  -8.1695  -8.1428  -8.1055  -8.0612  -6.3605  -5.3572  -4.8515
    -4.3141  -3.9656  -3.2451  -2.9367  -2.3479  -1.8678  -1.3452  -1.1900
    -0.9209   0.1342   0.5084   0.7003   1.1269   1.7759   2.1917   2.5234
     2.7279   3.0281   3.5242   3.6246   3.9118

          k =-0.5000 0.6736 0.0000 ( 21571 PWs)   bands (ev):

   -12.0957  -9.2411  -9.1778  -9.1613  -9.1524  -9.1046  -9.0889  -9.0808
    -9.0495  -9.0400  -9.0166  -9.0115  -8.9939  -8.9493  -8.9298  -8.9056
    -8.8997  -8.8754  -8.8587  -8.8327  -8.7983  -8.7891  -8.7589  -8.7514
    -8.7414  -8.7236  -8.7092  -8.6937  -8.6866  -8.6627  -8.6370  -8.6255
    -8.5907  -8.5795  -8.5537  -8.5293  -8.5225  -8.5167  -8.4962  -8.4860
    -8.4603  -8.4442  -8.4273  -8.4043  -8.3886  -8.3769  -8.3518  -8.3365
    -8.3289  -8.3169  -8.2977  -8.2865  -8.2693  -8.2543  -8.2267  -8.2104
    -8.1949  -8.1695  -8.1428  -8.1056  -8.0611  -6.3605  -5.3572  -4.8514
    -4.3141  -3.9656  -3.2449  -2.9368  -2.3479  -1.8676  -1.3453  -1.1900
    -0.9210   0.1341   0.5085   0.7002   1.1268   1.7757   2.1918   2.5233
     2.7281   3.0280   3.5242   3.6244   3.9117

          k =-0.5000-0.2887 0.0000 ( 21576 PWs)   bands (ev):

   -12.0957  -9.2435  -9.2361  -9.1502  -9.1293  -9.1008  -9.0993  -9.0736
    -9.0614  -9.0444  -9.0404  -9.0331  -8.9660  -8.9293  -8.9243  -8.8998
    -8.8867  -8.8829  -8.8640  -8.8114  -8.8032  -8.8006  -8.7597  -8.7593
    -8.7023  -8.6989  -8.6866  -8.6827  -8.6703  -8.6523  -8.6402  -8.6140
    -8.5797  -8.5545  -8.5500  -8.5376  -8.5170  -8.5140  -8.4924  -8.4797
    -8.4737  -8.4500  -8.4385  -8.4241  -8.4121  -8.4112  -8.4089  -8.3575
    -8.3218  -8.3192  -8.3132  -8.2985  -8.2880  -8.2533  -8.2191  -8.2063
    -8.1844  -8.1516  -8.1263  -8.0824  -8.0571  -6.0909  -5.9751  -4.7640
    -4.3211  -3.0436  -3.0219  -2.8589  -2.5753  -2.5239  -1.8646  -1.2284
    -0.7410  -0.2977   0.6250   0.9441   1.2493   1.9195   2.6434   2.6847
     3.0630   3.0777   3.5865   3.7222   3.8080

     the Fermi energy is     0.3984 ev

!    total energy              =   -1417.48616993 Ry
     Harris-Foulkes estimate   =   -1417.48617364 Ry
     estimated scf accuracy    <       0.00000009 Ry

     The total energy is the sum of the following terms:

     one-electron contribution =   -8441.47680217 Ry
     hartree contribution      =    4314.90822027 Ry
     xc contribution           =    -498.35103014 Ry
     ewald contribution        =    3207.46142205 Ry
     electric field correction =       0.00036348 Ry
     smearing contrib. (-TS)   =      -0.02834342 Ry

     convergence has been achieved in   6 iterations

     Forces acting on atoms (Ry/au):


     negative rho (up, down):  2.698E-01 0.000E+00
     atom    1 type  1   force =    -0.00000354    0.00000481   -0.01723894
     atom    2 type  1   force =     0.00000508   -0.00005987   -0.01950219
     atom    3 type  1   force =    -0.00005572    0.00003251   -0.01950288
     atom    4 type  1   force =     0.00005852    0.00002716   -0.01950944
     atom    5 type  1   force =     0.00575760   -0.00332235    0.02004874
     atom    6 type  1   force =    -0.00576425   -0.00332447    0.02003287
     atom    7 type  1   force =     0.00000138   -0.00000113    0.01703247
     atom    8 type  1   force =     0.00000044    0.00664700    0.02005935
     atom    9 type  1   force =     0.00115962    0.00066422   -0.00029942
     atom   10 type  1   force =    -0.00120388    0.00068897   -0.00022813
     atom   11 type  1   force =     0.00000031   -0.00137069   -0.00023321
     atom   12 type  1   force =     0.00001796    0.00001048   -0.00003393
     atom   13 type  2   force =     0.00002649    0.00000334   -0.00062530

     Total force =     0.002486     Total SCF correction =     0.000817
     SCF correction compared to forces is large: reduce conv_thr to get better values

     bfgs converged in   3 scf cycles and   2 bfgs steps
     (criteria: energy <  1.0E+12, force <  1.9E-03)

     End of BFGS Geometry Optimization

     Final energy   =   -1417.4861699305 Ry
Begin final coordinates

ATOMIC_POSITIONS (angstrom)
Cd       1.563552067   0.902717207  10.000000000    0   0   0
Cd       4.690656202   0.902717207  10.000000000    0   0   0
Cd       3.127104135   3.610868828  10.000000000    0   0   0
Cd       6.254208270   3.610868828  10.000000000    0   0   0
Cd       6.254208270   1.805434414  12.553269834    0   0   0
Cd       3.127104135   1.805434414  12.553269834    0   0   0
Cd       7.817760337   4.513586035  12.553269834    0   0   0
Cd       4.690656202   4.513586035  12.553269834    0   0   0
Cd      -0.103228311  -0.059599432  15.649663893
Cd       3.230391804  -0.059609621  15.650893559
Cd       1.563594193   2.827373865  15.651145492
Cd       4.690423161   2.708004938  15.178291063
S        1.562590942   0.902116590  17.334559646
End final coordinates



     Writing output data file calc.save
 
     init_run     :      5.48s CPU      6.56s WALL (       1 calls)
     electrons    :    220.16s CPU    266.56s WALL (       3 calls)
     update_pot   :      3.70s CPU      4.15s WALL (       2 calls)
     forces       :     26.86s CPU     27.65s WALL (       3 calls)

     Called by init_run:
     wfcinit      :      2.35s CPU      3.00s WALL (       1 calls)
     potinit      :      0.83s CPU      1.04s WALL (       1 calls)

     Called by electrons:
     c_bands      :    145.94s CPU    178.88s WALL (      22 calls)
     sum_band     :     38.04s CPU     43.84s WALL (      22 calls)
     v_of_rho     :     13.56s CPU     18.24s WALL (      25 calls)
     newd         :     26.21s CPU     29.63s WALL (      25 calls)
     mix_rho      :      0.45s CPU      0.56s WALL (      22 calls)
     vdW_energy   :      3.22s CPU      3.82s WALL (      28 calls)
     vdW_ffts     :      4.56s CPU      6.66s WALL (      56 calls)
     vdW_v        :      1.96s CPU      2.35s WALL (      28 calls)

     Called by c_bands:
     init_us_2    :      1.23s CPU      1.33s WALL (     480 calls)
     cegterg      :    135.22s CPU    164.64s WALL (     220 calls)

     Called by *egterg:
     h_psi        :     74.88s CPU     98.81s WALL (    1047 calls)
     s_psi        :      9.81s CPU      9.92s WALL (    1047 calls)
     g_psi        :      0.93s CPU      0.94s WALL (     817 calls)
     cdiaghg      :     22.14s CPU     22.43s WALL (    1017 calls)

     Called by h_psi:
     add_vuspsi   :     10.35s CPU     10.49s WALL (    1047 calls)

     General routines
     calbec       :     14.89s CPU     15.49s WALL (    1297 calls)
     fft          :      7.92s CPU     12.05s WALL (    1823 calls)
     ffts         :      0.04s CPU      0.06s WALL (      47 calls)
     fftw         :     50.47s CPU     78.48s WALL (  116646 calls)
     interpolate  :      0.23s CPU      0.39s WALL (      47 calls)
     davcio       :      0.01s CPU      0.05s WALL (      10 calls)
 
     Parallel routines
     fft_scatter  :     27.99s CPU     51.08s WALL (  118516 calls)
 
     PWSCF        :  4m19.50s CPU     5m 9.60s WALL

 
   This run was terminated on:  21:27:28  11Jan2019            

=------------------------------------------------------------------------------=
   JOB DONE.
=------------------------------------------------------------------------------=
Job  /afs/slac/g/suncat/bin/suncat-tsmpirun -x LD_LIBRARY_PATH -wdir /tmp/qe_673342lnu2s9f2_scratch pw.x -npool 2 -in pw.pwi

TID   HOST_NAME   COMMAND_LINE            STATUS            TERMINATION_TIME
===== ========== ================  =======================  ===================
00000 suncat2060 pw.x -npool 2 -i  Done                     01/11/2019 21:27:28
00001 suncat2060 pw.x -npool 2 -i  Done                     01/11/2019 21:27:28
00002 suncat2060 pw.x -npool 2 -i  Done                     01/11/2019 21:27:28
00003 suncat2060 pw.x -npool 2 -i  Done                     01/11/2019 21:27:28
00004 suncat2060 pw.x -npool 2 -i  Done                     01/11/2019 21:27:28
00005 suncat2060 pw.x -npool 2 -i  Done                     01/11/2019 21:27:28
00006 suncat2060 pw.x -npool 2 -i  Done                     01/11/2019 21:27:28
00007 suncat2060 pw.x -npool 2 -i  Done                     01/11/2019 21:27:28
00008 suncat2060 pw.x -npool 2 -i  Done                     01/11/2019 21:27:28
00009 suncat2060 pw.x -npool 2 -i  Done                     01/11/2019 21:27:28
00010 suncat2060 pw.x -npool 2 -i  Done                     01/11/2019 21:27:28
00011 suncat2060 pw.x -npool 2 -i  Done                     01/11/2019 21:27:28
00012 suncat2060 pw.x -npool 2 -i  Done                     01/11/2019 21:27:28
00013 suncat2060 pw.x -npool 2 -i  Done                     01/11/2019 21:27:28
00014 suncat2060 pw.x -npool 2 -i  Done                     01/11/2019 21:27:28
00015 suncat2060 pw.x -npool 2 -i  Done                     01/11/2019 21:27:28
00016 suncat2055 pw.x -npool 2 -i  Done                     01/11/2019 21:27:28
00017 suncat2055 pw.x -npool 2 -i  Done                     01/11/2019 21:27:28
00018 suncat2055 pw.x -npool 2 -i  Done                     01/11/2019 21:27:28
00019 suncat2055 pw.x -npool 2 -i  Done                     01/11/2019 21:27:28
00020 suncat2055 pw.x -npool 2 -i  Done                     01/11/2019 21:27:28
00021 suncat2055 pw.x -npool 2 -i  Done                     01/11/2019 21:27:28
00022 suncat2055 pw.x -npool 2 -i  Done                     01/11/2019 21:27:28
00023 suncat2055 pw.x -npool 2 -i  Done                     01/11/2019 21:27:28
00024 suncat2055 pw.x -npool 2 -i  Done                     01/11/2019 21:27:28
00025 suncat2055 pw.x -npool 2 -i  Done                     01/11/2019 21:27:28
00026 suncat2055 pw.x -npool 2 -i  Done                     01/11/2019 21:27:28
00027 suncat2055 pw.x -npool 2 -i  Done                     01/11/2019 21:27:28
00028 suncat2055 pw.x -npool 2 -i  Done                     01/11/2019 21:27:28
00029 suncat2055 pw.x -npool 2 -i  Done                     01/11/2019 21:27:28
00030 suncat2055 pw.x -npool 2 -i  Done                     01/11/2019 21:27:28
00031 suncat2055 pw.x -npool 2 -i  Done                     01/11/2019 21:27:28
