  python dir          : /nfs/slac/g/suncatfs/sw/espv20/lib/python2.7/site-packages/espresso
  espresso dir        : /nfs/slac/g/suncatfs/sw/espv18/espresso-dynpy-beef/bin
  pseudo dir          : /afs/slac.stanford.edu/u/if/mamunm/psp/gbrv1.5pbe
  ase-espresso py git : ffa2778-git



     Program PWSCF v.5.1rc2 (svn rev. 11289) starts on 16Jan2018 at 14:23:48 

     This program is part of the open-source Quantum ESPRESSO suite
     for quantum simulation of materials; please cite
         "P. Giannozzi et al., J. Phys.:Condens. Matter 21 395502 (2009);
          URL http://www.quantum-espresso.org", 
     in publications or presentations arising from this work. More details at
     http://www.quantum-espresso.org/quote

     Parallel version (MPI), running on    32 processors
     R & G space division:  proc/nbgrp/npool/nimage =      32
     Reading input from pw.inp
     Message from routine read_cards :
     DEPRECATED: no units specified in CELL_PARAMETERS card

     Current dimensions of program PWSCF are:
     Max number of different atomic species (ntypx) = 10
     Max number of k-points (npk) =  40000
     Max angular momentum in pseudopotentials (lmaxx) =  3
     Presently stress not available with electric field


     **************************************************************************
     Initializing libbeef V0.1.1 with the BEEF-vdW functional.
     Citation: Wellendorff et al., PRB 85, 235149 (2012).
     **************************************************************************


     IMPORTANT: XC functional enforced from input :
     Exchange-correlation      = BEEF-VDW ( 1  4 27 13 2)
     Any further DFT definition will be discarded
     Please, verify this is what you really want


     Subspace diagonalization in iterative solution of the eigenvalue problem:
     a serial algorithm will be used

 
     Parallelization info
     --------------------
     sticks:   dense  smooth     PW     G-vecs:    dense   smooth      PW
     Min         134      54     15                26644     6724    1019
     Max         135      55     16                26659     6775    1034
     Sum        4315    1735    499               852865   215821   32865
 


     bravais-lattice index     =            0
     lattice parameter (alat)  =       1.8897  a.u.
     unit-cell volume          =    7171.5276 (a.u.)^3
     number of atoms/cell      =           13
     number of atomic types    =            2
     number of electrons       =       169.00
     number of Kohn-Sham states=           94
     kinetic-energy cutoff     =      36.7493  Ry
     charge density cutoff     =     367.4932  Ry
     convergence threshold     =      1.0E-05
     mixing beta               =       0.3000
     number of iterations used =           10  plain     mixing
     Exchange-correlation      = BEEF-VDW ( 1  4 27 13 2)
     nstep                     =           50


     celldm(1)=   1.889726  celldm(2)=   0.000000  celldm(3)=   0.000000
     celldm(4)=   0.000000  celldm(5)=   0.000000  celldm(6)=   0.000000

     crystal axes: (cart. coord. in units of alat)
               a(1) = (   6.917003   0.000000   0.000000 )  
               a(2) = (   3.458501   5.990300   0.000000 )  
               a(3) = (   0.000000   0.000000  25.647709 )  

     reciprocal axes: (cart. coord. in units 2 pi/alat)
               b(1) = (  0.144571 -0.083468  0.000000 )  
               b(2) = (  0.000000  0.166937  0.000000 )  
               b(3) = (  0.000000  0.000000  0.038990 )  


     PseudoPot. # 1 for Pb read from file:
     /afs/slac.stanford.edu/u/if/mamunm/psp/gbrv1.5pbe/Pb.UPF
     MD5 check sum: 3d1c1779aa92214d1e8f3a7db79003e2
     Pseudo is Ultrasoft + core correction, Zval = 14.0
     Generated by new atomic code, or converted to UPF format
     Using radial grid of  899 points,  6 beta functions with: 
                l(1) =   0
                l(2) =   0
                l(3) =   1
                l(4) =   1
                l(5) =   2
                l(6) =   2
     Q(r) pseudized with  6 coefficients,  rinner =    1.000   1.000   1.000
                                                       1.000   1.000

     PseudoPot. # 2 for H  read from file:
     /afs/slac.stanford.edu/u/if/mamunm/psp/gbrv1.5pbe/H.UPF
     MD5 check sum: 761ae9a214b05c3daf00ab9f6b793d6f
     Pseudo is Ultrasoft, Zval =  1.0
     Generated by new atomic code, or converted to UPF format
     Using radial grid of  615 points,  2 beta functions with: 
                l(1) =   0
                l(2) =   0
     Q(r) pseudized with  8 coefficients,  rinner =    0.700

     vdW kernel table read from file vdW_kernel_table
     MD5 check sum: 095c7af220d748ca6e76c0b4c6cfb241

     atomic species   valence    mass     pseudopotential
        Pb1           14.00   207.20000     Pb( 1.00)
        H1             1.00     1.00800     H ( 1.00)

     No symmetry found



   Cartesian axes

     site n.     atom                  positions (alat units)
         1           Pb1 tau(   1) = (   1.7292506   0.9983833  10.0000000  )
         2           Pb1 tau(   2) = (   5.1877519   0.9983833  10.0000000  )
         3           Pb1 tau(   3) = (   3.4585013   3.9935333  10.0000000  )
         4           Pb1 tau(   4) = (   6.9170025   3.9935333  10.0000000  )
         5           Pb1 tau(   5) = (   6.9170025   1.9967666  12.8238544  )
         6           Pb1 tau(   6) = (   3.4585013   1.9967666  12.8238544  )
         7           Pb1 tau(   7) = (   8.6462531   4.9919166  12.8238544  )
         8           Pb1 tau(   8) = (   5.1877519   4.9919166  12.8238544  )
         9           Pb1 tau(   9) = (   0.0000000   0.0000000  15.6477089  )
        10           Pb1 tau(  10) = (   3.4585013   0.0000000  15.6477089  )
        11           Pb1 tau(  11) = (   1.7292506   2.9951499  15.6477089  )
        12           Pb1 tau(  12) = (   5.1877519   2.9951499  15.6477089  )
        13           H1  tau(  13) = (   1.7292506   0.0000000  17.4177089  )

     number of k points=    20  Fermi-Dirac smearing, width (Ry)=  0.0110
                       cart. coord. in units 2pi/alat
        k(    1) = (   0.0000000   0.0000000   0.0000000), wk =   0.0555556
        k(    2) = (   0.0000000   0.0278228   0.0000000), wk =   0.1111111
        k(    3) = (   0.0000000   0.0556455   0.0000000), wk =   0.1111111
        k(    4) = (   0.0000000  -0.0834683   0.0000000), wk =   0.0555556
        k(    5) = (   0.0240952  -0.0139114   0.0000000), wk =   0.1111111
        k(    6) = (   0.0240952   0.0139114   0.0000000), wk =   0.1111111
        k(    7) = (   0.0240952   0.0417341   0.0000000), wk =   0.1111111
        k(    8) = (   0.0240952  -0.0973797   0.0000000), wk =   0.1111111
        k(    9) = (   0.0240952  -0.0695569   0.0000000), wk =   0.1111111
        k(   10) = (   0.0240952  -0.0417341   0.0000000), wk =   0.1111111
        k(   11) = (   0.0481904  -0.0278228   0.0000000), wk =   0.1111111
        k(   12) = (   0.0481904   0.0000000   0.0000000), wk =   0.1111111
        k(   13) = (   0.0481904   0.0278228   0.0000000), wk =   0.1111111
        k(   14) = (   0.0481904  -0.1112910   0.0000000), wk =   0.1111111
        k(   15) = (   0.0481904  -0.0834683   0.0000000), wk =   0.1111111
        k(   16) = (   0.0481904  -0.0556455   0.0000000), wk =   0.1111111
        k(   17) = (  -0.0722856   0.0417341   0.0000000), wk =   0.0555556
        k(   18) = (  -0.0722856   0.0695569   0.0000000), wk =   0.1111111
        k(   19) = (  -0.0722856   0.0973797   0.0000000), wk =   0.1111111
        k(   20) = (  -0.0722856  -0.0417341   0.0000000), wk =   0.0555556

     Dense  grid:   852865 G-vectors     FFT dimensions: (  80,  80, 300)

     Smooth grid:   215821 G-vectors     FFT dimensions: (  54,  54, 192)

     Largest allocated arrays     est. size (Mb)     dimensions
        Kohn-Sham Wavefunctions         1.23 Mb     (     858,   94)
        NL pseudopotentials             2.85 Mb     (     858,  218)
        Each V/rho on FFT grid          0.98 Mb     (   64000)
        Each G-vector array             0.20 Mb     (   26644)
        G-vector shells                 0.09 Mb     (   12051)
     Largest temporary arrays     est. size (Mb)     dimensions
        Auxiliary wavefunctions         4.92 Mb     (     858,  376)
        Each subspace H/S matrix        2.16 Mb     (     376,  376)
        Each <psi_i|beta_j> matrix      0.31 Mb     (     218,   94)
        Arrays for rho mixing           9.77 Mb     (   64000,   10)

     Check: negative/imaginary core charge=   -0.000001    0.000000

     Initial potential from superposition of free atoms
     Check: negative starting charge=   -0.198283

     starting charge  168.97177, renormalised to  169.00000

     negative rho (up, down):  1.983E-01 0.000E+00


     ************************************************************************
     *
     * You are using vdW-DF for exchange-correlation in this calculation.
     * Please cite the following three references that made this development
     * possible:
     *
     *   M. Dion, H. Rydberg, E. Schroder, D. C. Langreth, and
     *   B. I. Lundqvist, Phys. Rev. Lett. 92, 246401 (2004).
     *
     *   T. Thonhauser, V. R. Cooper, S. Li, A. Puzder, P. Hyldgaard, and
     *   D. C. Langreth, Phys. Rev. B 76, 125112 (2007).
     *
     *   G. Roman-Perez and J. M. Soler, Phys. Rev. Lett. 103, 096102 (2009).
     *
     *
     * If you are using vdW-DF2, please also cite:
     *
     *   K. Lee, E. D. Murray, L. Kong, B. I. Lundqvist, and
     *   D. C. Langreth, Phys. Rev. B 82, 081101(R) (2010).
     *
     *
     * If you are calculating the stress with vdW-DF, please also cite:
     *
     *   R. Sabatini, E. Kucukbenli, B. Kolb, T. Thonhauser, and
     *   S. de Gironcoli, J. Phys.: Condens. Matter 24, 424209 (2012).
     *
     ************************************************************************

     Carrying out vdW-DF run using the following parameters:

     Nqs =      20    Nr_points =    1024   r_max =   100.000
     q_mesh =
               0.00001000     0.04494208     0.09755937     0.15916263
               0.23128650     0.31572767     0.41458969     0.53033537
               0.66584808     0.82450364     1.01025438     1.22772762
               1.48234092     1.78043706     2.12944203     2.53805004
               3.01644009     3.57652955     4.23227104     5.00000000

     Gradients computed in reciprocal space

     ************************************************************************


 
     Adding external electric field

     Computed dipole along edir(3) : 
        Dipole               -0.0014 Ry au,         -0.0035 Debye
        Dipole field         -0.0000 Ry au
 
        Potential amp.        0.0002 Ry
        Total length         47.2555 bohr
 
     Starting wfc are  109 randomized atomic wfcs

     total cpu time spent up to now is       21.6 secs

     per-process dynamical memory:    60.5 Mb

     Self-consistent Calculation

     iteration #  1     ecut=    36.75 Ry     beta=0.30
     Davidson diagonalization with overlap
     ethr =  1.00E-02,  avg # of iterations =  2.0

     Threshold (ethr) on eigenvalues was too large:
     Diagonalizing with lowered threshold

     Davidson diagonalization with overlap
     ethr =  1.58E-04,  avg # of iterations =  2.5

     negative rho (up, down):  2.000E-01 0.000E+00
 
     Adding external electric field

     Computed dipole along edir(3) : 
        Dipole               -1.2726 Ry au,         -3.2346 Debye
        Dipole field         -0.0022 Ry au
 
        Potential amp.        0.2108 Ry
        Total length         47.2555 bohr
 

     total cpu time spent up to now is      106.9 secs

     total energy              =   -1993.26668426 Ry
     Harris-Foulkes estimate   =   -1993.37530350 Ry
     estimated scf accuracy    <       0.28512706 Ry

     iteration #  2     ecut=    36.75 Ry     beta=0.30
     Davidson diagonalization with overlap
     ethr =  1.69E-04,  avg # of iterations =  4.8

     negative rho (up, down):  1.993E-01 0.000E+00
 
     Adding external electric field

     Computed dipole along edir(3) : 
        Dipole               -0.0585 Ry au,         -0.1486 Debye
        Dipole field         -0.0001 Ry au
 
        Potential amp.        0.0097 Ry
        Total length         47.2555 bohr
 

     total cpu time spent up to now is      158.9 secs

     total energy              =   -1993.08814804 Ry
     Harris-Foulkes estimate   =   -1993.49641165 Ry
     estimated scf accuracy    <       5.15798847 Ry

     iteration #  3     ecut=    36.75 Ry     beta=0.30
     Davidson diagonalization with overlap
     ethr =  1.69E-04,  avg # of iterations =  4.5

     negative rho (up, down):  2.006E-01 0.000E+00
 
     Adding external electric field

     Computed dipole along edir(3) : 
        Dipole               -0.3089 Ry au,         -0.7851 Debye
        Dipole field         -0.0005 Ry au
 
        Potential amp.        0.0512 Ry
        Total length         47.2555 bohr
 

     total cpu time spent up to now is      210.0 secs

     total energy              =   -1993.31006738 Ry
     Harris-Foulkes estimate   =   -1993.35100863 Ry
     estimated scf accuracy    <       0.49863734 Ry

     iteration #  4     ecut=    36.75 Ry     beta=0.30
     Davidson diagonalization with overlap
     ethr =  1.69E-04,  avg # of iterations =  2.7

     negative rho (up, down):  2.021E-01 0.000E+00
 
     Adding external electric field

     Computed dipole along edir(3) : 
        Dipole               -0.2813 Ry au,         -0.7150 Debye
        Dipole field         -0.0005 Ry au
 
        Potential amp.        0.0466 Ry
        Total length         47.2555 bohr
 

     total cpu time spent up to now is      255.5 secs

     total energy              =   -1993.32861336 Ry
     Harris-Foulkes estimate   =   -1993.33694907 Ry
     estimated scf accuracy    <       0.04096227 Ry

     iteration #  5     ecut=    36.75 Ry     beta=0.30
     Davidson diagonalization with overlap
     ethr =  2.42E-05,  avg # of iterations =  3.5

     negative rho (up, down):  2.049E-01 0.000E+00
 
     Adding external electric field

     Computed dipole along edir(3) : 
        Dipole               -0.2927 Ry au,         -0.7439 Debye
        Dipole field         -0.0005 Ry au
 
        Potential amp.        0.0485 Ry
        Total length         47.2555 bohr
 

     total cpu time spent up to now is      303.0 secs

     total energy              =   -1993.33333255 Ry
     Harris-Foulkes estimate   =   -1993.33336044 Ry
     estimated scf accuracy    <       0.00285112 Ry

     iteration #  6     ecut=    36.75 Ry     beta=0.30
     Davidson diagonalization with overlap
     ethr =  1.69E-06,  avg # of iterations =  5.5

     negative rho (up, down):  2.089E-01 0.000E+00
 
     Adding external electric field

     Computed dipole along edir(3) : 
        Dipole               -0.2848 Ry au,         -0.7240 Debye
        Dipole field         -0.0005 Ry au
 
        Potential amp.        0.0472 Ry
        Total length         47.2555 bohr
 

     total cpu time spent up to now is      368.9 secs

     total energy              =   -1993.33555368 Ry
     Harris-Foulkes estimate   =   -1993.33553400 Ry
     estimated scf accuracy    <       0.00078370 Ry

     iteration #  7     ecut=    36.75 Ry     beta=0.30
     Davidson diagonalization with overlap
     ethr =  4.64E-07,  avg # of iterations =  2.0

     negative rho (up, down):  2.140E-01 0.000E+00
 
     Adding external electric field

     Computed dipole along edir(3) : 
        Dipole               -0.2853 Ry au,         -0.7252 Debye
        Dipole field         -0.0005 Ry au
 
        Potential amp.        0.0473 Ry
        Total length         47.2555 bohr
 

     total cpu time spent up to now is      412.5 secs

     total energy              =   -1993.33561802 Ry
     Harris-Foulkes estimate   =   -1993.33559891 Ry
     estimated scf accuracy    <       0.00024079 Ry

     iteration #  8     ecut=    36.75 Ry     beta=0.30
     Davidson diagonalization with overlap
     ethr =  1.42E-07,  avg # of iterations =  3.0

     negative rho (up, down):  2.146E-01 0.000E+00
 
     Adding external electric field

     Computed dipole along edir(3) : 
        Dipole               -0.2853 Ry au,         -0.7252 Debye
        Dipole field         -0.0005 Ry au
 
        Potential amp.        0.0472 Ry
        Total length         47.2555 bohr
 

     total cpu time spent up to now is      462.2 secs

     total energy              =   -1993.33563115 Ry
     Harris-Foulkes estimate   =   -1993.33565389 Ry
     estimated scf accuracy    <       0.00001919 Ry

     iteration #  9     ecut=    36.75 Ry     beta=0.30
     Davidson diagonalization with overlap
     ethr =  1.14E-08,  avg # of iterations =  5.0

     negative rho (up, down):  2.145E-01 0.000E+00

     negative rho (up, down):  2.145E-01 0.000E+00

     negative rho (up, down):  2.145E-01 0.000E+00

     negative rho (up, down):  2.145E-01 0.000E+00

     negative rho (up, down):  2.145E-01 0.000E+00

     negative rho (up, down):  2.145E-01 0.000E+00

     negative rho (up, down):  2.145E-01 0.000E+00

     negative rho (up, down):  2.145E-01 0.000E+00

     negative rho (up, down):  2.145E-01 0.000E+00

     negative rho (up, down):  2.145E-01 0.000E+00

     negative rho (up, down):  2.145E-01 0.000E+00

     negative rho (up, down):  2.145E-01 0.000E+00

     negative rho (up, down):  2.145E-01 0.000E+00

     negative rho (up, down):  2.145E-01 0.000E+00

     negative rho (up, down):  2.145E-01 0.000E+00

     negative rho (up, down):  2.145E-01 0.000E+00

     negative rho (up, down):  2.145E-01 0.000E+00

     negative rho (up, down):  2.145E-01 0.000E+00

     negative rho (up, down):  2.145E-01 0.000E+00

     negative rho (up, down):  2.145E-01 0.000E+00

     negative rho (up, down):  2.145E-01 0.000E+00

     negative rho (up, down):  2.145E-01 0.000E+00

     negative rho (up, down):  2.145E-01 0.000E+00

     negative rho (up, down):  2.145E-01 0.000E+00

     negative rho (up, down):  2.145E-01 0.000E+00

     negative rho (up, down):  2.145E-01 0.000E+00

     negative rho (up, down):  2.145E-01 0.000E+00

     negative rho (up, down):  2.145E-01 0.000E+00

     negative rho (up, down):  2.145E-01 0.000E+00

     negative rho (up, down):  2.145E-01 0.000E+00

     negative rho (up, down):  2.145E-01 0.000E+00

     negative rho (up, down):  2.145E-01 0.000E+00

     negative rho (up, down):  2.145E-01 0.000E+00

     negative rho (up, down):  2.145E-01 0.000E+00

     negative rho (up, down):  2.145E-01 0.000E+00
 
     Adding external electric field

     Computed dipole along edir(3) : 
        Dipole               -0.2867 Ry au,         -0.7287 Debye
        Dipole field         -0.0005 Ry au
 
        Potential amp.        0.0475 Ry
        Total length         47.2555 bohr
 

     total cpu time spent up to now is      626.0 secs

     End of self-consistent calculation

          k = 0.0000 0.0000 0.0000 ( 27033 PWs)   bands (ev):

   -16.6211 -16.6198 -16.6181 -16.5787 -16.5773 -16.5755 -16.5314 -16.5310
   -16.5290 -16.5281 -16.5155 -16.4954 -16.4954 -16.4902 -16.4865 -16.4833
   -16.4695 -16.4665 -16.4637 -16.4630 -16.4626 -16.4527 -16.4466 -16.4466
   -16.4410 -16.4350 -16.4346 -16.4274 -16.4236 -16.4227 -16.3604 -16.3569
   -16.3531 -16.3323 -16.3266 -16.3190 -16.3188 -16.3116 -16.3054 -16.3005
   -16.2411 -16.2390 -16.2322 -16.2291 -16.2273 -16.2241 -16.2177 -16.2135
   -16.2092 -16.2060 -16.2034 -16.1974 -16.1948 -16.1918 -16.1821 -16.1752
   -16.1715 -16.1488 -16.1442 -16.1367 -10.5741  -9.4764  -7.9661  -7.0366
    -7.0276  -7.0256  -6.6173  -6.5931  -6.5904  -5.9799  -5.9596  -5.9553
    -2.9342  -2.7397  -2.7371  -2.4314  -1.8896  -1.6874  -1.6856  -1.6390
    -1.5640  -1.5619  -0.2394   1.1634   2.1549   2.1552   2.1731   2.1979
     2.2017   2.6871   3.4913   3.5713   3.5753   3.6624

          k = 0.0000 0.0278 0.0000 ( 27010 PWs)   bands (ev):

   -16.6122 -16.6005 -16.5997 -16.5726 -16.5583 -16.5570 -16.5221 -16.5219
   -16.5208 -16.5190 -16.5086 -16.4947 -16.4857 -16.4809 -16.4745 -16.4709
   -16.4694 -16.4643 -16.4625 -16.4559 -16.4484 -16.4479 -16.4448 -16.4404
   -16.4371 -16.4305 -16.4248 -16.4239 -16.4222 -16.4197 -16.3587 -16.3586
   -16.3537 -16.3426 -16.3324 -16.3235 -16.3198 -16.3154 -16.3145 -16.3111
   -16.2522 -16.2478 -16.2453 -16.2391 -16.2377 -16.2347 -16.2263 -16.2261
   -16.2222 -16.2140 -16.2104 -16.2033 -16.2032 -16.2018 -16.1938 -16.1821
   -16.1789 -16.1614 -16.1565 -16.1505 -10.4520  -9.3592  -7.8631  -7.7016
    -7.1852  -7.1809  -6.9021  -6.5758  -6.5756  -6.0237  -5.9246  -5.9196
    -2.7217  -2.4959  -2.3068  -2.2117  -1.7983  -1.6417  -1.4941  -1.2650
    -1.1157  -0.6473  -0.1285   0.9732   1.4422   1.6887   2.0117   2.5323
     2.5425   2.9146   2.9519   3.0167   3.5343   3.6691

          k = 0.0000 0.0556 0.0000 ( 26980 PWs)   bands (ev):

   -16.5909 -16.5586 -16.5531 -16.5517 -16.5290 -16.5137 -16.5113 -16.5072
   -16.4955 -16.4941 -16.4941 -16.4810 -16.4737 -16.4723 -16.4689 -16.4585
   -16.4561 -16.4547 -16.4484 -16.4358 -16.4300 -16.4288 -16.4264 -16.4206
   -16.4162 -16.4142 -16.4133 -16.4064 -16.4054 -16.3932 -16.3674 -16.3587
   -16.3561 -16.3561 -16.3497 -16.3467 -16.3438 -16.3391 -16.3183 -16.3058
   -16.2888 -16.2883 -16.2816 -16.2729 -16.2719 -16.2672 -16.2577 -16.2447
   -16.2378 -16.2341 -16.2269 -16.2259 -16.2200 -16.2181 -16.2142 -16.2114
   -16.2029 -16.1939 -16.1623 -16.1580 -10.0860  -9.0097  -8.6580  -7.6859
    -7.5528  -7.3973  -7.3928  -6.6332  -6.6285  -6.4649  -5.8650  -5.8591
    -2.2659  -1.8445  -1.7870  -1.3543  -1.1194  -0.9200  -0.7828  -0.5300
    -0.4709   0.0891   0.4504   0.9583   0.9974   1.2011   1.6561   1.9718
     2.0616   2.3304   2.3578   2.8043   2.9914   3.0810

          k = 0.0000-0.0835 0.0000 ( 26962 PWs)   bands (ev):

   -16.5691 -16.5500 -16.5450 -16.5225 -16.5153 -16.5132 -16.5040 -16.4994
   -16.4798 -16.4757 -16.4743 -16.4656 -16.4597 -16.4564 -16.4532 -16.4424
   -16.4422 -16.4405 -16.4363 -16.4335 -16.4266 -16.4193 -16.4141 -16.4101
   -16.4067 -16.4042 -16.4006 -16.3990 -16.3974 -16.3944 -16.3832 -16.3742
   -16.3671 -16.3504 -16.3450 -16.3403 -16.3391 -16.3382 -16.3368 -16.3217
   -16.3077 -16.3032 -16.2984 -16.2929 -16.2892 -16.2813 -16.2715 -16.2681
   -16.2678 -16.2641 -16.2640 -16.2579 -16.2304 -16.2291 -16.2212 -16.2140
   -16.2042 -16.1988 -16.1623 -16.1580  -9.4846  -9.4766  -8.4484  -8.4262
    -7.4824  -7.4765  -7.0816  -7.0454  -6.6718  -6.6671  -5.8453  -5.8390
    -1.9803  -1.0855  -1.0379  -1.0133  -1.0073  -1.0027  -0.4982  -0.1990
     0.2858   0.4154   0.4784   0.7193   1.1647   1.6922   1.7012   1.7075
     1.9817   2.0988   2.1017   2.1922   2.3405   2.5150

          k = 0.0241-0.0139 0.0000 ( 27010 PWs)   bands (ev):

   -16.6118 -16.6015 -16.5991 -16.5719 -16.5589 -16.5567 -16.5239 -16.5230
   -16.5200 -16.5178 -16.5092 -16.4915 -16.4882 -16.4796 -16.4771 -16.4705
   -16.4692 -16.4634 -16.4614 -16.4556 -16.4484 -16.4469 -16.4454 -16.4425
   -16.4392 -16.4301 -16.4270 -16.4252 -16.4204 -16.4146 -16.3621 -16.3575
   -16.3533 -16.3390 -16.3349 -16.3230 -16.3194 -16.3171 -16.3153 -16.3101
   -16.2507 -16.2483 -16.2456 -16.2398 -16.2374 -16.2328 -16.2286 -16.2232
   -16.2207 -16.2160 -16.2102 -16.2068 -16.2044 -16.1993 -16.1929 -16.1823
   -16.1787 -16.1623 -16.1580 -16.1490 -10.4520  -9.3589  -7.8626  -7.6972
    -7.1919  -7.1817  -6.8850  -6.6012  -6.5740  -6.0059  -5.9426  -5.9214
    -2.6584  -2.4977  -2.3625  -2.1882  -1.7666  -1.6406  -1.5413  -1.1961
    -1.1149  -0.6765  -0.1794   0.9465   1.3829   1.6930   2.0586   2.5314
     2.6772   2.8154   2.9533   3.0018   3.4921   3.6657

          k = 0.0241 0.0139 0.0000 ( 27010 PWs)   bands (ev):

   -16.6118 -16.6015 -16.5991 -16.5719 -16.5589 -16.5567 -16.5239 -16.5230
   -16.5200 -16.5178 -16.5092 -16.4915 -16.4882 -16.4796 -16.4770 -16.4705
   -16.4692 -16.4634 -16.4614 -16.4556 -16.4484 -16.4469 -16.4454 -16.4425
   -16.4392 -16.4301 -16.4270 -16.4252 -16.4204 -16.4146 -16.3621 -16.3575
   -16.3533 -16.3390 -16.3349 -16.3230 -16.3194 -16.3172 -16.3153 -16.3101
   -16.2507 -16.2483 -16.2456 -16.2398 -16.2374 -16.2328 -16.2286 -16.2232
   -16.2207 -16.2160 -16.2102 -16.2068 -16.2044 -16.1993 -16.1929 -16.1823
   -16.1787 -16.1623 -16.1580 -16.1490 -10.4520  -9.3589  -7.8626  -7.6972
    -7.1919  -7.1817  -6.8850  -6.6012  -6.5740  -6.0059  -5.9426  -5.9214
    -2.6584  -2.4977  -2.3625  -2.1882  -1.7666  -1.6406  -1.5413  -1.1961
    -1.1149  -0.6765  -0.1794   0.9465   1.3829   1.6930   2.0586   2.5314
     2.6772   2.8154   2.9533   3.0018   3.4921   3.6657

          k = 0.0241 0.0417 0.0000 ( 26981 PWs)   bands (ev):

   -16.5868 -16.5848 -16.5593 -16.5497 -16.5481 -16.5156 -16.5132 -16.5044
   -16.5024 -16.4988 -16.4964 -16.4947 -16.4804 -16.4788 -16.4741 -16.4685
   -16.4587 -16.4481 -16.4458 -16.4444 -16.4401 -16.4362 -16.4305 -16.4284
   -16.4262 -16.4195 -16.4171 -16.4129 -16.4111 -16.3950 -16.3603 -16.3592
   -16.3547 -16.3498 -16.3489 -16.3435 -16.3382 -16.3285 -16.3250 -16.3049
   -16.2816 -16.2762 -16.2667 -16.2658 -16.2576 -16.2526 -16.2416 -16.2403
   -16.2342 -16.2312 -16.2259 -16.2223 -16.2168 -16.2124 -16.2071 -16.2025
   -16.1835 -16.1781 -16.1717 -16.1681 -10.2079  -9.1255  -8.1058  -8.1003
    -7.6571  -7.2058  -7.1856  -6.7590  -6.3723  -6.1482  -6.1290  -5.8591
    -2.4541  -2.1057  -1.6245  -1.5638  -1.4006  -1.2585  -0.9708  -0.8851
    -0.3303   0.0552   0.2006   0.8249   0.8877   1.1139   1.6514   2.0219
     2.4718   2.7293   2.7527   3.0486   3.1698   3.1844

          k = 0.0241-0.0974 0.0000 ( 26956 PWs)   bands (ev):

   -16.5621 -16.5354 -16.5343 -16.5264 -16.5201 -16.5061 -16.5037 -16.4942
   -16.4860 -16.4835 -16.4774 -16.4749 -16.4692 -16.4669 -16.4565 -16.4527
   -16.4457 -16.4411 -16.4378 -16.4349 -16.4237 -16.4211 -16.4137 -16.4114
   -16.4079 -16.4042 -16.4006 -16.3980 -16.3905 -16.3876 -16.3776 -16.3677
   -16.3642 -16.3598 -16.3554 -16.3472 -16.3435 -16.3330 -16.3274 -16.3162
   -16.3146 -16.3043 -16.3010 -16.2975 -16.2950 -16.2785 -16.2740 -16.2646
   -16.2597 -16.2525 -16.2492 -16.2382 -16.2309 -16.2234 -16.2186 -16.2134
   -16.2062 -16.1999 -16.1771 -16.1719  -9.7217  -9.0058  -8.6636  -8.3174
    -7.9960  -7.3692  -7.2534  -6.7008  -6.6559  -6.2276  -6.1747  -5.8061
    -2.0250  -1.5949  -1.1225  -0.9274  -0.7183  -0.6642  -0.3949  -0.1537
     0.0343   0.1879   0.6024   0.8023   0.9198   1.0426   1.4641   1.6264
     2.0133   2.4247   2.5407   2.5931   2.7516   2.8907

          k = 0.0241-0.0696 0.0000 ( 26956 PWs)   bands (ev):

   -16.5621 -16.5354 -16.5343 -16.5264 -16.5201 -16.5061 -16.5037 -16.4942
   -16.4860 -16.4835 -16.4774 -16.4749 -16.4692 -16.4669 -16.4565 -16.4527
   -16.4457 -16.4411 -16.4378 -16.4349 -16.4237 -16.4211 -16.4137 -16.4114
   -16.4079 -16.4042 -16.4006 -16.3980 -16.3905 -16.3876 -16.3776 -16.3677
   -16.3642 -16.3598 -16.3554 -16.3472 -16.3435 -16.3330 -16.3274 -16.3162
   -16.3146 -16.3043 -16.3010 -16.2975 -16.2950 -16.2785 -16.2740 -16.2646
   -16.2597 -16.2525 -16.2492 -16.2382 -16.2309 -16.2234 -16.2186 -16.2134
   -16.2062 -16.1999 -16.1771 -16.1719  -9.7217  -9.0058  -8.6636  -8.3174
    -7.9960  -7.3692  -7.2534  -6.7008  -6.6559  -6.2276  -6.1747  -5.8061
    -2.0250  -1.5949  -1.1225  -0.9274  -0.7183  -0.6642  -0.3949  -0.1537
     0.0343   0.1879   0.6024   0.8023   0.9198   1.0426   1.4641   1.6264
     2.0133   2.4247   2.5407   2.5931   2.7516   2.8907

          k = 0.0241-0.0417 0.0000 ( 26981 PWs)   bands (ev):

   -16.5869 -16.5848 -16.5593 -16.5497 -16.5481 -16.5156 -16.5132 -16.5044
   -16.5024 -16.4988 -16.4964 -16.4947 -16.4804 -16.4788 -16.4741 -16.4685
   -16.4587 -16.4481 -16.4458 -16.4444 -16.4401 -16.4362 -16.4305 -16.4284
   -16.4262 -16.4194 -16.4171 -16.4129 -16.4111 -16.3950 -16.3603 -16.3592
   -16.3547 -16.3498 -16.3489 -16.3435 -16.3382 -16.3285 -16.3250 -16.3049
   -16.2816 -16.2762 -16.2667 -16.2658 -16.2576 -16.2526 -16.2416 -16.2403
   -16.2342 -16.2312 -16.2259 -16.2223 -16.2168 -16.2124 -16.2071 -16.2025
   -16.1835 -16.1781 -16.1717 -16.1681 -10.2079  -9.1255  -8.1058  -8.1003
    -7.6571  -7.2058  -7.1856  -6.7590  -6.3723  -6.1482  -6.1290  -5.8591
    -2.4541  -2.1057  -1.6245  -1.5638  -1.4006  -1.2585  -0.9708  -0.8851
    -0.3303   0.0552   0.2006   0.8249   0.8877   1.1139   1.6514   2.0219
     2.4718   2.7293   2.7527   3.0486   3.1698   3.1844

          k = 0.0482-0.0278 0.0000 ( 26980 PWs)   bands (ev):

   -16.5901 -16.5575 -16.5543 -16.5510 -16.5315 -16.5146 -16.5104 -16.5092
   -16.4969 -16.4934 -16.4904 -16.4797 -16.4755 -16.4684 -16.4678 -16.4610
   -16.4592 -16.4546 -16.4470 -16.4387 -16.4330 -16.4306 -16.4274 -16.4205
   -16.4172 -16.4136 -16.4089 -16.4037 -16.4019 -16.3890 -16.3702 -16.3627
   -16.3549 -16.3541 -16.3503 -16.3490 -16.3427 -16.3393 -16.3181 -16.3062
   -16.2913 -16.2860 -16.2810 -16.2755 -16.2684 -16.2668 -16.2571 -16.2418
   -16.2372 -16.2350 -16.2276 -16.2242 -16.2231 -16.2158 -16.2141 -16.2134
   -16.2063 -16.1927 -16.1660 -16.1553 -10.0857  -9.0083  -8.6563  -7.6773
    -7.5518  -7.4033  -7.3935  -6.6590  -6.6277  -6.4528  -5.8833  -5.8612
    -2.1130  -1.8454  -1.8008  -1.2849  -1.1185  -0.9602  -0.6974  -0.5150
    -0.4701  -0.2359   0.4757   0.9350   1.0017   1.1833   1.5878   1.9657
     2.0958   2.3284   2.3938   2.7136   2.9951   3.1205

          k = 0.0482 0.0000 0.0000 ( 26981 PWs)   bands (ev):

   -16.5864 -16.5849 -16.5597 -16.5492 -16.5476 -16.5163 -16.5130 -16.5062
   -16.5012 -16.4992 -16.4961 -16.4943 -16.4797 -16.4775 -16.4745 -16.4717
   -16.4589 -16.4525 -16.4438 -16.4428 -16.4381 -16.4348 -16.4330 -16.4305
   -16.4262 -16.4226 -16.4186 -16.4099 -16.4041 -16.3938 -16.3649 -16.3579
   -16.3569 -16.3473 -16.3466 -16.3447 -16.3414 -16.3264 -16.3251 -16.3056
   -16.2775 -16.2749 -16.2712 -16.2636 -16.2582 -16.2531 -16.2419 -16.2380
   -16.2332 -16.2307 -16.2279 -16.2213 -16.2186 -16.2149 -16.2076 -16.2009
   -16.1848 -16.1790 -16.1696 -16.1689 -10.2077  -9.1245  -8.1062  -8.0987
    -7.6553  -7.1960  -7.1892  -6.7659  -6.3915  -6.1374  -6.1304  -5.8731
    -2.3340  -2.1394  -1.6340  -1.5649  -1.3287  -1.1824  -1.0773  -0.8854
    -0.3987   0.0597   0.1304   0.8102   0.8909   1.0809   1.7082   1.9693
     2.4763   2.7304   2.7419   3.0017   3.1683   3.2260

          k = 0.0482 0.0278 0.0000 ( 26980 PWs)   bands (ev):

   -16.5901 -16.5575 -16.5543 -16.5510 -16.5315 -16.5146 -16.5104 -16.5092
   -16.4969 -16.4934 -16.4904 -16.4797 -16.4755 -16.4684 -16.4678 -16.4610
   -16.4592 -16.4546 -16.4470 -16.4387 -16.4330 -16.4306 -16.4274 -16.4205
   -16.4172 -16.4136 -16.4089 -16.4037 -16.4019 -16.3890 -16.3702 -16.3627
   -16.3549 -16.3541 -16.3503 -16.3490 -16.3427 -16.3393 -16.3181 -16.3062
   -16.2913 -16.2860 -16.2810 -16.2755 -16.2684 -16.2668 -16.2571 -16.2418
   -16.2372 -16.2350 -16.2276 -16.2242 -16.2231 -16.2158 -16.2141 -16.2134
   -16.2063 -16.1927 -16.1659 -16.1553 -10.0857  -9.0083  -8.6563  -7.6773
    -7.5518  -7.4033  -7.3935  -6.6590  -6.6277  -6.4528  -5.8833  -5.8612
    -2.1130  -1.8454  -1.8008  -1.2849  -1.1185  -0.9602  -0.6974  -0.5150
    -0.4701  -0.2359   0.4757   0.9350   1.0017   1.1833   1.5878   1.9657
     2.0958   2.3284   2.3938   2.7136   2.9951   3.1205

          k = 0.0482-0.1113 0.0000 ( 26956 PWs)   bands (ev):

   -16.5602 -16.5360 -16.5344 -16.5284 -16.5201 -16.5090 -16.5032 -16.4935
   -16.4851 -16.4800 -16.4779 -16.4763 -16.4704 -16.4642 -16.4541 -16.4522
   -16.4498 -16.4443 -16.4388 -16.4321 -16.4278 -16.4217 -16.4148 -16.4107
   -16.4061 -16.4029 -16.3996 -16.3945 -16.3897 -16.3872 -16.3774 -16.3678
   -16.3647 -16.3590 -16.3565 -16.3489 -16.3442 -16.3326 -16.3270 -16.3207
   -16.3112 -16.3050 -16.3018 -16.2946 -16.2939 -16.2810 -16.2730 -16.2648
   -16.2591 -16.2522 -16.2467 -16.2406 -16.2296 -16.2224 -16.2188 -16.2133
   -16.2108 -16.1983 -16.1799 -16.1698  -9.7215  -9.0043  -8.6627  -8.3197
    -7.9895  -7.3798  -7.2510  -6.6918  -6.6591  -6.2408  -6.1791  -5.8095
    -1.9161  -1.5905  -1.0636  -0.9536  -0.7035  -0.6656  -0.4496  -0.2042
     0.0895   0.1328   0.5408   0.7527   0.9243   1.0197   1.4599   1.6996
     1.9004   2.4238   2.5387   2.5820   2.7746   2.8980

          k = 0.0482-0.0835 0.0000 ( 26934 PWs)   bands (ev):

   -16.5210 -16.5168 -16.5152 -16.5080 -16.5075 -16.5045 -16.4988 -16.4951
   -16.4915 -16.4890 -16.4861 -16.4828 -16.4637 -16.4617 -16.4575 -16.4523
   -16.4496 -16.4397 -16.4317 -16.4288 -16.4246 -16.4210 -16.4068 -16.4026
   -16.3973 -16.3949 -16.3925 -16.3877 -16.3836 -16.3776 -16.3744 -16.3679
   -16.3655 -16.3636 -16.3570 -16.3504 -16.3489 -16.3390 -16.3361 -16.3316
   -16.3205 -16.3162 -16.3118 -16.3069 -16.3011 -16.2986 -16.2844 -16.2830
   -16.2553 -16.2521 -16.2453 -16.2359 -16.2303 -16.2221 -16.2196 -16.2186
   -16.2084 -16.2069 -16.2005 -16.1924  -9.1288  -9.1213  -9.1186  -8.1195
    -8.0934  -8.0899  -6.8055  -6.7726  -6.7675  -6.1382  -6.0176  -5.9990
    -1.7123  -1.1518  -1.1160  -0.9491  -0.7476  -0.7424  -0.2061   0.2798
     0.4119   0.4597   0.6123   0.6158   1.0392   1.3568   1.3581   1.6864
     2.0390   2.0430   2.0819   2.3527   2.3546   3.0173

          k = 0.0482-0.0556 0.0000 ( 26956 PWs)   bands (ev):

   -16.5602 -16.5360 -16.5344 -16.5284 -16.5201 -16.5090 -16.5032 -16.4935
   -16.4851 -16.4800 -16.4779 -16.4763 -16.4704 -16.4642 -16.4541 -16.4522
   -16.4498 -16.4443 -16.4388 -16.4321 -16.4278 -16.4217 -16.4148 -16.4107
   -16.4061 -16.4029 -16.3996 -16.3945 -16.3897 -16.3872 -16.3774 -16.3678
   -16.3647 -16.3590 -16.3565 -16.3489 -16.3442 -16.3326 -16.3270 -16.3207
   -16.3112 -16.3050 -16.3018 -16.2946 -16.2939 -16.2810 -16.2730 -16.2648
   -16.2591 -16.2522 -16.2467 -16.2406 -16.2296 -16.2224 -16.2188 -16.2133
   -16.2108 -16.1983 -16.1799 -16.1698  -9.7215  -9.0043  -8.6627  -8.3197
    -7.9895  -7.3798  -7.2510  -6.6918  -6.6591  -6.2408  -6.1791  -5.8095
    -1.9161  -1.5905  -1.0636  -0.9536  -0.7035  -0.6656  -0.4496  -0.2042
     0.0895   0.1328   0.5408   0.7527   0.9243   1.0197   1.4599   1.6996
     1.9004   2.4238   2.5387   2.5820   2.7746   2.8980

          k =-0.0723 0.0417 0.0000 ( 26962 PWs)   bands (ev):

   -16.5623 -16.5591 -16.5380 -16.5307 -16.5198 -16.5069 -16.5063 -16.4964
   -16.4785 -16.4747 -16.4711 -16.4653 -16.4572 -16.4560 -16.4524 -16.4500
   -16.4458 -16.4428 -16.4407 -16.4334 -16.4255 -16.4204 -16.4129 -16.4104
   -16.4085 -16.4048 -16.3994 -16.3962 -16.3941 -16.3878 -16.3825 -16.3779
   -16.3560 -16.3522 -16.3491 -16.3459 -16.3423 -16.3356 -16.3328 -16.3248
   -16.3079 -16.3025 -16.2973 -16.2936 -16.2910 -16.2777 -16.2739 -16.2721
   -16.2649 -16.2647 -16.2598 -16.2544 -16.2325 -16.2286 -16.2187 -16.2161
   -16.2107 -16.1962 -16.1658 -16.1554  -9.4824  -9.4773  -8.4428  -8.4249
    -7.4885  -7.4775  -7.0700  -7.0474  -6.6953  -6.6660  -5.8640  -5.8410
    -1.7098  -1.0884  -1.0234  -1.0178  -1.0104  -1.0011  -0.4419  -0.2003
    -0.1101   0.4198   0.4951   0.7211   1.0286   1.6949   1.6966   1.7043
     1.9777   2.0983   2.1743   2.1916   2.4113   2.5123

          k =-0.0723 0.0696 0.0000 ( 26956 PWs)   bands (ev):

   -16.5604 -16.5361 -16.5327 -16.5284 -16.5210 -16.5094 -16.5033 -16.4925
   -16.4843 -16.4823 -16.4784 -16.4731 -16.4700 -16.4649 -16.4567 -16.4509
   -16.4495 -16.4451 -16.4395 -16.4369 -16.4249 -16.4206 -16.4165 -16.4095
   -16.4065 -16.4011 -16.3999 -16.3939 -16.3912 -16.3867 -16.3784 -16.3657
   -16.3639 -16.3592 -16.3575 -16.3483 -16.3437 -16.3325 -16.3269 -16.3172
   -16.3125 -16.3053 -16.3019 -16.2967 -16.2935 -16.2804 -16.2738 -16.2639
   -16.2589 -16.2520 -16.2488 -16.2396 -16.2302 -16.2225 -16.2192 -16.2142
   -16.2096 -16.1984 -16.1800 -16.1698  -9.7211  -9.0049  -8.6609  -8.3191
    -7.9921  -7.3765  -7.2482  -6.6996  -6.6581  -6.2380  -6.1857  -5.8140
    -1.7736  -1.6513  -1.0541  -0.9451  -0.7450  -0.6647  -0.4841  -0.2620
     0.0361   0.1968   0.5678   0.7495   0.9289   1.0268   1.5292   1.6498
     1.8361   2.4257   2.5356   2.5974   2.7395   2.8842

          k =-0.0723 0.0974 0.0000 ( 26956 PWs)   bands (ev):

   -16.5604 -16.5361 -16.5327 -16.5284 -16.5210 -16.5094 -16.5033 -16.4925
   -16.4843 -16.4823 -16.4784 -16.4731 -16.4700 -16.4649 -16.4567 -16.4509
   -16.4495 -16.4451 -16.4395 -16.4369 -16.4249 -16.4206 -16.4165 -16.4095
   -16.4065 -16.4011 -16.3999 -16.3939 -16.3912 -16.3867 -16.3784 -16.3657
   -16.3639 -16.3592 -16.3575 -16.3483 -16.3437 -16.3325 -16.3269 -16.3172
   -16.3125 -16.3053 -16.3019 -16.2967 -16.2935 -16.2804 -16.2738 -16.2639
   -16.2589 -16.2520 -16.2488 -16.2396 -16.2302 -16.2225 -16.2192 -16.2142
   -16.2096 -16.1984 -16.1800 -16.1698  -9.7211  -9.0049  -8.6609  -8.3191
    -7.9921  -7.3765  -7.2482  -6.6996  -6.6581  -6.2380  -6.1857  -5.8140
    -1.7736  -1.6514  -1.0541  -0.9451  -0.7450  -0.6647  -0.4841  -0.2620
     0.0361   0.1968   0.5678   0.7495   0.9289   1.0268   1.5292   1.6498
     1.8361   2.4257   2.5356   2.5974   2.7395   2.8842

          k =-0.0723-0.0417 0.0000 ( 26962 PWs)   bands (ev):

   -16.5623 -16.5591 -16.5380 -16.5307 -16.5198 -16.5069 -16.5063 -16.4964
   -16.4785 -16.4747 -16.4711 -16.4653 -16.4572 -16.4560 -16.4524 -16.4500
   -16.4458 -16.4428 -16.4407 -16.4334 -16.4255 -16.4204 -16.4129 -16.4104
   -16.4085 -16.4048 -16.3994 -16.3962 -16.3941 -16.3878 -16.3825 -16.3779
   -16.3560 -16.3522 -16.3491 -16.3459 -16.3423 -16.3356 -16.3328 -16.3248
   -16.3079 -16.3025 -16.2973 -16.2936 -16.2910 -16.2777 -16.2739 -16.2721
   -16.2649 -16.2647 -16.2598 -16.2544 -16.2325 -16.2286 -16.2187 -16.2161
   -16.2107 -16.1962 -16.1658 -16.1554  -9.4824  -9.4773  -8.4428  -8.4249
    -7.4885  -7.4775  -7.0700  -7.0474  -6.6953  -6.6660  -5.8640  -5.8410
    -1.7098  -1.0884  -1.0234  -1.0178  -1.0104  -1.0011  -0.4419  -0.2003
    -0.1101   0.4198   0.4951   0.7211   1.0286   1.6949   1.6966   1.7043
     1.9777   2.0983   2.1743   2.1916   2.4113   2.5123

     the Fermi energy is     1.0147 ev

!    total energy              =   -1993.33562614 Ry
     Harris-Foulkes estimate   =   -1993.33564856 Ry
     estimated scf accuracy    <       0.00000367 Ry

     The total energy is the sum of the following terms:

     one-electron contribution =   -9423.59230287 Ry
     hartree contribution      =    4780.76172371 Ry
     xc contribution           =    -784.53898595 Ry
     ewald contribution        =    3434.07485490 Ry
     electric field correction =       0.00014402 Ry
     smearing contrib. (-TS)   =      -0.04105996 Ry

     convergence has been achieved in   9 iterations
 
 BEEF-vdW xc energy contributions
           1 :   -699.420581803594     
           2 :    649.762569566385     
           3 :   -562.286328770086     
           4 :    456.117893906869     
           5 :   -351.021833908835     
           6 :    261.477887960596     
           7 :   -193.533630268878     
           8 :    145.197397741976     
           9 :   -109.691730039052     
          10 :    79.7898630881493     
          11 :   -51.2218970548969     
          12 :    23.8257765393174     
          13 :  -0.365695192848420     
          14 :   -15.9433673415409     
          15 :    23.7060023821837     
          16 :   -24.2691245429982     
          17 :    21.0170703610133     
          18 :   -17.6383240977942     
          19 :    16.4132625067831     
          20 :   -17.4335169605052     
          21 :    19.0631444854381     
          22 :   -19.2544568705362     
          23 :    16.9075686605150     
          24 :   -12.5219304212359     
          25 :    7.84916618592410     
          26 :   -4.83832110568983     
          27 :    4.52785358692108     
          28 :   -6.51256989765363     
          29 :    9.24464495461041     
          30 :   -10.9483425354564     
          31 :   -55.8904788439783     
          32 :   -40.9806034554795     

     Forces acting on atoms (Ry/au):


     negative rho (up, down):  2.145E-01 0.000E+00
     atom    1 type  1   force =     0.00000500   -0.00328903   -0.01102281
     atom    2 type  1   force =     0.00000266   -0.00086709   -0.00717636
     atom    3 type  1   force =     0.00038569    0.00129418   -0.00778378
     atom    4 type  1   force =    -0.00038029    0.00131339   -0.00785145
     atom    5 type  1   force =     0.00109530    0.00119792   -0.00247408
     atom    6 type  1   force =    -0.00112439    0.00119269   -0.00247029
     atom    7 type  1   force =     0.00000836   -0.00381008   -0.00861328
     atom    8 type  1   force =     0.00000196    0.00322591   -0.00011665
     atom    9 type  1   force =     0.01352536   -0.00077075    0.02900978
     atom   10 type  1   force =    -0.01351235   -0.00078110    0.02898663
     atom   11 type  1   force =     0.00000558    0.00212353    0.00877645
     atom   12 type  1   force =    -0.00001127   -0.00131784    0.00897109
     atom   13 type  2   force =    -0.00000162    0.00048826   -0.02823526

     Total force =     0.058625     Total SCF correction =     0.009852
     SCF correction compared to forces is large: reduce conv_thr to get better values


     entering subroutine stress ...


     negative rho (up, down):  2.145E-01 0.000E+00
          total   stress  (Ry/bohr**3)                   (kbar)     P=   10.10
   0.00007974  -0.00000000  -0.00000000         11.73     -0.00     -0.00
  -0.00000000   0.00008703   0.00000117         -0.00     12.80      0.17
  -0.00000000   0.00000117   0.00003927         -0.00      0.17      5.78

 !ASE

     Writing output data file calc.save
 
     init_run     :     14.93s CPU     21.29s WALL (       1 calls)
     electrons    :    423.18s CPU    604.60s WALL (       1 calls)
     forces       :      6.76s CPU      7.72s WALL (       1 calls)
     stress       :     18.09s CPU     19.69s WALL (       1 calls)

     Called by init_run:
     wfcinit      :     11.20s CPU     16.52s WALL (       1 calls)
     potinit      :      2.05s CPU      2.88s WALL (       1 calls)

     Called by electrons:
     c_bands      :    292.31s CPU    415.13s WALL (      10 calls)
     sum_band     :     51.48s CPU     75.47s WALL (      10 calls)
     v_of_rho     :     17.15s CPU     25.14s WALL (      10 calls)
     newd         :      6.45s CPU      6.74s WALL (      10 calls)
     mix_rho      :      0.57s CPU      0.80s WALL (      10 calls)
     vdW_energy   :      3.26s CPU      3.58s WALL (      46 calls)
     vdW_ffts     :     48.78s CPU     73.96s WALL (      94 calls)
     vdW_v        :      9.08s CPU     12.95s WALL (      46 calls)

     Called by c_bands:
     init_us_2    :      0.73s CPU      0.77s WALL (     460 calls)
     cegterg      :    286.78s CPU    409.23s WALL (     200 calls)

     Called by *egterg:
     h_psi        :    220.26s CPU    341.10s WALL (     930 calls)
     s_psi        :      8.07s CPU      8.11s WALL (     930 calls)
     g_psi        :      0.52s CPU      0.51s WALL (     710 calls)
     cdiaghg      :     32.64s CPU     33.70s WALL (     890 calls)

     Called by h_psi:
     add_vuspsi   :      8.35s CPU      8.35s WALL (     930 calls)

     General routines
     calbec       :     15.71s CPU     18.01s WALL (    1170 calls)
     fft          :     73.18s CPU    110.89s WALL (    2767 calls)
     ffts         :      0.13s CPU      0.19s WALL (      20 calls)
     fftw         :    225.47s CPU    365.51s WALL (  118092 calls)
     interpolate  :      0.64s CPU      0.98s WALL (      20 calls)
     davcio       :      0.00s CPU      0.04s WALL (      20 calls)
 
     Parallel routines
     fft_scatter  :    266.89s CPU    442.29s WALL (  120879 calls)
 
     PWSCF        :  7m43.85s CPU    10m54.71s WALL

 
   This run was terminated on:  14:34:43  16Jan2018            

=------------------------------------------------------------------------------=
   JOB DONE.
=------------------------------------------------------------------------------=
Job  /afs/slac/g/suncat/bin/suncat-tsmpirun -x LD_LIBRARY_PATH -wdir /scratch/qe842467_XjzXC pw.x -in pw.inp

TID   HOST_NAME   COMMAND_LINE            STATUS            TERMINATION_TIME
===== ========== ================  =======================  ===================
00000 suncat0100 pw.x -in pw.inp   Done                     01/16/2018 14:34:43
00001 suncat0100 pw.x -in pw.inp   Done                     01/16/2018 14:34:43
00002 suncat0100 pw.x -in pw.inp   Done                     01/16/2018 14:34:43
00003 suncat0100 pw.x -in pw.inp   Done                     01/16/2018 14:34:43
00004 suncat0100 pw.x -in pw.inp   Done                     01/16/2018 14:34:43
00005 suncat0100 pw.x -in pw.inp   Done                     01/16/2018 14:34:43
00006 suncat0100 pw.x -in pw.inp   Done                     01/16/2018 14:34:43
00007 suncat0100 pw.x -in pw.inp   Done                     01/16/2018 14:34:43
00008 suncat0283 pw.x -in pw.inp   Done                     01/16/2018 14:34:43
00009 suncat0283 pw.x -in pw.inp   Done                     01/16/2018 14:34:43
00010 suncat0283 pw.x -in pw.inp   Done                     01/16/2018 14:34:43
00011 suncat0283 pw.x -in pw.inp   Done                     01/16/2018 14:34:43
00012 suncat0283 pw.x -in pw.inp   Done                     01/16/2018 14:34:43
00013 suncat0283 pw.x -in pw.inp   Done                     01/16/2018 14:34:43
00014 suncat0283 pw.x -in pw.inp   Done                     01/16/2018 14:34:43
00015 suncat0283 pw.x -in pw.inp   Done                     01/16/2018 14:34:43
00016 suncat0282 pw.x -in pw.inp   Done                     01/16/2018 14:34:43
00017 suncat0282 pw.x -in pw.inp   Done                     01/16/2018 14:34:43
00018 suncat0282 pw.x -in pw.inp   Done                     01/16/2018 14:34:43
00019 suncat0282 pw.x -in pw.inp   Done                     01/16/2018 14:34:43
00020 suncat0282 pw.x -in pw.inp   Done                     01/16/2018 14:34:43
00021 suncat0282 pw.x -in pw.inp   Done                     01/16/2018 14:34:43
00022 suncat0282 pw.x -in pw.inp   Done                     01/16/2018 14:34:43
00023 suncat0282 pw.x -in pw.inp   Done                     01/16/2018 14:34:43
00024 suncat0214 pw.x -in pw.inp   Done                     01/16/2018 14:34:43
00025 suncat0214 pw.x -in pw.inp   Done                     01/16/2018 14:34:43
00026 suncat0214 pw.x -in pw.inp   Done                     01/16/2018 14:34:43
00027 suncat0214 pw.x -in pw.inp   Done                     01/16/2018 14:34:43
00028 suncat0214 pw.x -in pw.inp   Done                     01/16/2018 14:34:43
00029 suncat0214 pw.x -in pw.inp   Done                     01/16/2018 14:34:43
00030 suncat0214 pw.x -in pw.inp   Done                     01/16/2018 14:34:43
00031 suncat0214 pw.x -in pw.inp   Done                     01/16/2018 14:34:43

     Program PWSCF v.5.1rc2 (svn rev. 11289) starts on 16Jan2018 at 14:34:49 

     This program is part of the open-source Quantum ESPRESSO suite
     for quantum simulation of materials; please cite
         "P. Giannozzi et al., J. Phys.:Condens. Matter 21 395502 (2009);
          URL http://www.quantum-espresso.org", 
     in publications or presentations arising from this work. More details at
     http://www.quantum-espresso.org/quote

     Parallel version (MPI), running on    32 processors
     R & G space division:  proc/nbgrp/npool/nimage =      32
     Reading input from pw.inp
     Message from routine read_cards :
     DEPRECATED: no units specified in CELL_PARAMETERS card

     Current dimensions of program PWSCF are:
     Max number of different atomic species (ntypx) = 10
     Max number of k-points (npk) =  40000
     Max angular momentum in pseudopotentials (lmaxx) =  3
     Presently stress not available with electric field


     **************************************************************************
     Initializing libbeef V0.1.1 with the BEEF-vdW functional.
     Citation: Wellendorff et al., PRB 85, 235149 (2012).
     **************************************************************************


     IMPORTANT: XC functional enforced from input :
     Exchange-correlation      = BEEF-VDW ( 1  4 27 13 2)
     Any further DFT definition will be discarded
     Please, verify this is what you really want


     Subspace diagonalization in iterative solution of the eigenvalue problem:
     a serial algorithm will be used

 
     Parallelization info
     --------------------
     sticks:   dense  smooth     PW     G-vecs:    dense   smooth      PW
     Min         134      54     15                26644     6724    1019
     Max         135      55     16                26659     6775    1034
     Sum        4315    1735    499               852865   215821   32865
 


     bravais-lattice index     =            0
     lattice parameter (alat)  =       1.8897  a.u.
     unit-cell volume          =    7171.5276 (a.u.)^3
     number of atoms/cell      =           13
     number of atomic types    =            2
     number of electrons       =       169.00
     number of Kohn-Sham states=           94
     kinetic-energy cutoff     =      36.7493  Ry
     charge density cutoff     =     367.4932  Ry
     convergence threshold     =      1.0E-05
     mixing beta               =       0.3000
     number of iterations used =           10  plain     mixing
     Exchange-correlation      = BEEF-VDW ( 1  4 27 13 2)
     nstep                     =           50


     celldm(1)=   1.889726  celldm(2)=   0.000000  celldm(3)=   0.000000
     celldm(4)=   0.000000  celldm(5)=   0.000000  celldm(6)=   0.000000

     crystal axes: (cart. coord. in units of alat)
               a(1) = (   6.917003   0.000000   0.000000 )  
               a(2) = (   3.458501   5.990300   0.000000 )  
               a(3) = (   0.000000   0.000000  25.647709 )  

     reciprocal axes: (cart. coord. in units 2 pi/alat)
               b(1) = (  0.144571 -0.083468  0.000000 )  
               b(2) = (  0.000000  0.166937  0.000000 )  
               b(3) = (  0.000000  0.000000  0.038990 )  


     PseudoPot. # 1 for Pb read from file:
     /afs/slac.stanford.edu/u/if/mamunm/psp/gbrv1.5pbe/Pb.UPF
     MD5 check sum: 3d1c1779aa92214d1e8f3a7db79003e2
     Pseudo is Ultrasoft + core correction, Zval = 14.0
     Generated by new atomic code, or converted to UPF format
     Using radial grid of  899 points,  6 beta functions with: 
                l(1) =   0
                l(2) =   0
                l(3) =   1
                l(4) =   1
                l(5) =   2
                l(6) =   2
     Q(r) pseudized with  6 coefficients,  rinner =    1.000   1.000   1.000
                                                       1.000   1.000

     PseudoPot. # 2 for H  read from file:
     /afs/slac.stanford.edu/u/if/mamunm/psp/gbrv1.5pbe/H.UPF
     MD5 check sum: 761ae9a214b05c3daf00ab9f6b793d6f
     Pseudo is Ultrasoft, Zval =  1.0
     Generated by new atomic code, or converted to UPF format
     Using radial grid of  615 points,  2 beta functions with: 
                l(1) =   0
                l(2) =   0
     Q(r) pseudized with  8 coefficients,  rinner =    0.700

     vdW kernel table read from file vdW_kernel_table
     MD5 check sum: 095c7af220d748ca6e76c0b4c6cfb241

     atomic species   valence    mass     pseudopotential
        Pb1           14.00   207.20000     Pb( 1.00)
        H1             1.00     1.00800     H ( 1.00)

     No symmetry found



   Cartesian axes

     site n.     atom                  positions (alat units)
         1           Pb1 tau(   1) = (   1.7292506   0.9983833  10.0000000  )
         2           Pb1 tau(   2) = (   5.1877519   0.9983833  10.0000000  )
         3           Pb1 tau(   3) = (   3.4585013   3.9935333  10.0000000  )
         4           Pb1 tau(   4) = (   6.9170025   3.9935333  10.0000000  )
         5           Pb1 tau(   5) = (   6.9170025   1.9967666  12.8238544  )
         6           Pb1 tau(   6) = (   3.4585013   1.9967666  12.8238544  )
         7           Pb1 tau(   7) = (   8.6462531   4.9919166  12.8238544  )
         8           Pb1 tau(   8) = (   5.1877519   4.9919166  12.8238544  )
         9           Pb1 tau(   9) = (   3.4932763   5.9883182  15.7222960  )
        10           Pb1 tau(  10) = (   6.8822609   5.9882916  15.7222365  )
        11           Pb1 tau(  11) = (   8.6462675   3.0006098  15.6702741  )
        12           Pb1 tau(  12) = (   5.1877229   2.9917616  15.6707745  )
        13           H1  tau(  13) = (   1.7292465   0.0012554  17.3451131  )

     number of k points=    20  Fermi-Dirac smearing, width (Ry)=  0.0110
                       cart. coord. in units 2pi/alat
        k(    1) = (   0.0000000   0.0000000   0.0000000), wk =   0.0555556
        k(    2) = (   0.0000000   0.0278228   0.0000000), wk =   0.1111111
        k(    3) = (   0.0000000   0.0556455   0.0000000), wk =   0.1111111
        k(    4) = (   0.0000000  -0.0834683   0.0000000), wk =   0.0555556
        k(    5) = (   0.0240952  -0.0139114   0.0000000), wk =   0.1111111
        k(    6) = (   0.0240952   0.0139114   0.0000000), wk =   0.1111111
        k(    7) = (   0.0240952   0.0417341   0.0000000), wk =   0.1111111
        k(    8) = (   0.0240952  -0.0973797   0.0000000), wk =   0.1111111
        k(    9) = (   0.0240952  -0.0695569   0.0000000), wk =   0.1111111
        k(   10) = (   0.0240952  -0.0417341   0.0000000), wk =   0.1111111
        k(   11) = (   0.0481904  -0.0278228   0.0000000), wk =   0.1111111
        k(   12) = (   0.0481904   0.0000000   0.0000000), wk =   0.1111111
        k(   13) = (   0.0481904   0.0278228   0.0000000), wk =   0.1111111
        k(   14) = (   0.0481904  -0.1112910   0.0000000), wk =   0.1111111
        k(   15) = (   0.0481904  -0.0834683   0.0000000), wk =   0.1111111
        k(   16) = (   0.0481904  -0.0556455   0.0000000), wk =   0.1111111
        k(   17) = (  -0.0722856   0.0417341   0.0000000), wk =   0.0555556
        k(   18) = (  -0.0722856   0.0695569   0.0000000), wk =   0.1111111
        k(   19) = (  -0.0722856   0.0973797   0.0000000), wk =   0.1111111
        k(   20) = (  -0.0722856  -0.0417341   0.0000000), wk =   0.0555556

     Dense  grid:   852865 G-vectors     FFT dimensions: (  80,  80, 300)

     Smooth grid:   215821 G-vectors     FFT dimensions: (  54,  54, 192)

     Largest allocated arrays     est. size (Mb)     dimensions
        Kohn-Sham Wavefunctions         1.23 Mb     (     858,   94)
        NL pseudopotentials             2.85 Mb     (     858,  218)
        Each V/rho on FFT grid          0.98 Mb     (   64000)
        Each G-vector array             0.20 Mb     (   26644)
        G-vector shells                 0.09 Mb     (   12051)
     Largest temporary arrays     est. size (Mb)     dimensions
        Auxiliary wavefunctions         4.92 Mb     (     858,  376)
        Each subspace H/S matrix        2.16 Mb     (     376,  376)
        Each <psi_i|beta_j> matrix      0.31 Mb     (     218,   94)
        Arrays for rho mixing           9.77 Mb     (   64000,   10)

     Check: negative/imaginary core charge=   -0.000001    0.000000

     Initial potential from superposition of free atoms
     Check: negative starting charge=   -0.196724

     starting charge  168.97177, renormalised to  169.00000

     negative rho (up, down):  1.968E-01 0.000E+00


     ************************************************************************
     *
     * You are using vdW-DF for exchange-correlation in this calculation.
     * Please cite the following three references that made this development
     * possible:
     *
     *   M. Dion, H. Rydberg, E. Schroder, D. C. Langreth, and
     *   B. I. Lundqvist, Phys. Rev. Lett. 92, 246401 (2004).
     *
     *   T. Thonhauser, V. R. Cooper, S. Li, A. Puzder, P. Hyldgaard, and
     *   D. C. Langreth, Phys. Rev. B 76, 125112 (2007).
     *
     *   G. Roman-Perez and J. M. Soler, Phys. Rev. Lett. 103, 096102 (2009).
     *
     *
     * If you are using vdW-DF2, please also cite:
     *
     *   K. Lee, E. D. Murray, L. Kong, B. I. Lundqvist, and
     *   D. C. Langreth, Phys. Rev. B 82, 081101(R) (2010).
     *
     *
     * If you are calculating the stress with vdW-DF, please also cite:
     *
     *   R. Sabatini, E. Kucukbenli, B. Kolb, T. Thonhauser, and
     *   S. de Gironcoli, J. Phys.: Condens. Matter 24, 424209 (2012).
     *
     ************************************************************************

     Carrying out vdW-DF run using the following parameters:

     Nqs =      20    Nr_points =    1024   r_max =   100.000
     q_mesh =
               0.00001000     0.04494208     0.09755937     0.15916263
               0.23128650     0.31572767     0.41458969     0.53033537
               0.66584808     0.82450364     1.01025438     1.22772762
               1.48234092     1.78043706     2.12944203     2.53805004
               3.01644009     3.57652955     4.23227104     5.00000000

     Gradients computed in reciprocal space

     ************************************************************************


 
     Adding external electric field

     Computed dipole along edir(3) : 
        Dipole               -0.0014 Ry au,         -0.0034 Debye
        Dipole field         -0.0000 Ry au
 
        Potential amp.        0.0002 Ry
        Total length         47.2555 bohr
 
     Starting wfc are  109 randomized atomic wfcs

     total cpu time spent up to now is       21.9 secs

     per-process dynamical memory:    60.2 Mb

     Self-consistent Calculation

     iteration #  1     ecut=    36.75 Ry     beta=0.30
     Davidson diagonalization with overlap
     ethr =  1.00E-02,  avg # of iterations =  2.0

     Threshold (ethr) on eigenvalues was too large:
     Diagonalizing with lowered threshold

     Davidson diagonalization with overlap
     ethr =  1.33E-04,  avg # of iterations =  2.9

     negative rho (up, down):  1.985E-01 0.000E+00
 
     Adding external electric field

     Computed dipole along edir(3) : 
        Dipole               -1.0074 Ry au,         -2.5604 Debye
        Dipole field         -0.0018 Ry au
 
        Potential amp.        0.1668 Ry
        Total length         47.2555 bohr
 

     total cpu time spent up to now is      108.5 secs

     total energy              =   -1993.29475348 Ry
     Harris-Foulkes estimate   =   -1993.38599472 Ry
     estimated scf accuracy    <       0.24544598 Ry

     iteration #  2     ecut=    36.75 Ry     beta=0.30
     Davidson diagonalization with overlap
     ethr =  1.45E-04,  avg # of iterations =  4.5

     negative rho (up, down):  1.978E-01 0.000E+00
 
     Adding external electric field

     Computed dipole along edir(3) : 
        Dipole                0.0395 Ry au,          0.1003 Debye
        Dipole field          0.0001 Ry au
 
        Potential amp.       -0.0065 Ry
        Total length         47.2555 bohr
 

     total cpu time spent up to now is      160.2 secs

     total energy              =   -1993.17397697 Ry
     Harris-Foulkes estimate   =   -1993.45076099 Ry
     estimated scf accuracy    <       3.18077902 Ry

     iteration #  3     ecut=    36.75 Ry     beta=0.30
     Davidson diagonalization with overlap
     ethr =  1.45E-04,  avg # of iterations =  4.5

     negative rho (up, down):  1.989E-01 0.000E+00
 
     Adding external electric field

     Computed dipole along edir(3) : 
        Dipole               -0.2596 Ry au,         -0.6598 Debye
        Dipole field         -0.0005 Ry au
 
        Potential amp.        0.0430 Ry
        Total length         47.2555 bohr
 

     total cpu time spent up to now is      211.4 secs

     total energy              =   -1993.31822162 Ry
     Harris-Foulkes estimate   =   -1993.36829657 Ry
     estimated scf accuracy    <       0.61119890 Ry

     iteration #  4     ecut=    36.75 Ry     beta=0.30
     Davidson diagonalization with overlap
     ethr =  1.45E-04,  avg # of iterations =  2.9

     negative rho (up, down):  2.008E-01 0.000E+00
 
     Adding external electric field

     Computed dipole along edir(3) : 
        Dipole               -0.2215 Ry au,         -0.5631 Debye
        Dipole field         -0.0004 Ry au
 
        Potential amp.        0.0367 Ry
        Total length         47.2555 bohr
 

     total cpu time spent up to now is      258.1 secs

     total energy              =   -1993.34151651 Ry
     Harris-Foulkes estimate   =   -1993.35011475 Ry
     estimated scf accuracy    <       0.04197915 Ry

     iteration #  5     ecut=    36.75 Ry     beta=0.30
     Davidson diagonalization with overlap
     ethr =  2.48E-05,  avg # of iterations =  3.5

     negative rho (up, down):  2.037E-01 0.000E+00
 
     Adding external electric field

     Computed dipole along edir(3) : 
        Dipole               -0.2250 Ry au,         -0.5719 Debye
        Dipole field         -0.0004 Ry au
 
        Potential amp.        0.0373 Ry
        Total length         47.2555 bohr
 

     total cpu time spent up to now is      305.9 secs

     total energy              =   -1993.34629070 Ry
     Harris-Foulkes estimate   =   -1993.34625429 Ry
     estimated scf accuracy    <       0.00244085 Ry

     iteration #  6     ecut=    36.75 Ry     beta=0.30
     Davidson diagonalization with overlap
     ethr =  1.44E-06,  avg # of iterations =  5.5

     negative rho (up, down):  2.076E-01 0.000E+00
 
     Adding external electric field

     Computed dipole along edir(3) : 
        Dipole               -0.2195 Ry au,         -0.5580 Debye
        Dipole field         -0.0004 Ry au
 
        Potential amp.        0.0364 Ry
        Total length         47.2555 bohr
 

     total cpu time spent up to now is      371.6 secs

     total energy              =   -1993.34841486 Ry
     Harris-Foulkes estimate   =   -1993.34838647 Ry
     estimated scf accuracy    <       0.00070559 Ry

     iteration #  7     ecut=    36.75 Ry     beta=0.30
     Davidson diagonalization with overlap
     ethr =  4.18E-07,  avg # of iterations =  2.0

     negative rho (up, down):  2.129E-01 0.000E+00
 
     Adding external electric field

     Computed dipole along edir(3) : 
        Dipole               -0.2183 Ry au,         -0.5549 Debye
        Dipole field         -0.0004 Ry au
 
        Potential amp.        0.0362 Ry
        Total length         47.2555 bohr
 

     total cpu time spent up to now is      414.2 secs

     total energy              =   -1993.34846791 Ry
     Harris-Foulkes estimate   =   -1993.34845455 Ry
     estimated scf accuracy    <       0.00023497 Ry

     iteration #  8     ecut=    36.75 Ry     beta=0.30
     Davidson diagonalization with overlap
     ethr =  1.39E-07,  avg # of iterations =  3.0

     negative rho (up, down):  2.135E-01 0.000E+00
 
     Adding external electric field

     Computed dipole along edir(3) : 
        Dipole               -0.2190 Ry au,         -0.5567 Debye
        Dipole field         -0.0004 Ry au
 
        Potential amp.        0.0363 Ry
        Total length         47.2555 bohr
 

     total cpu time spent up to now is      463.3 secs

     total energy              =   -1993.34848437 Ry
     Harris-Foulkes estimate   =   -1993.34849971 Ry
     estimated scf accuracy    <       0.00001523 Ry

     iteration #  9     ecut=    36.75 Ry     beta=0.30
     Davidson diagonalization with overlap
     ethr =  9.01E-09,  avg # of iterations =  5.0

     negative rho (up, down):  2.134E-01 0.000E+00

     negative rho (up, down):  2.134E-01 0.000E+00

     negative rho (up, down):  2.134E-01 0.000E+00

     negative rho (up, down):  2.134E-01 0.000E+00

     negative rho (up, down):  2.134E-01 0.000E+00

     negative rho (up, down):  2.134E-01 0.000E+00

     negative rho (up, down):  2.134E-01 0.000E+00

     negative rho (up, down):  2.134E-01 0.000E+00

     negative rho (up, down):  2.134E-01 0.000E+00

     negative rho (up, down):  2.134E-01 0.000E+00

     negative rho (up, down):  2.134E-01 0.000E+00

     negative rho (up, down):  2.134E-01 0.000E+00

     negative rho (up, down):  2.134E-01 0.000E+00

     negative rho (up, down):  2.134E-01 0.000E+00

     negative rho (up, down):  2.134E-01 0.000E+00

     negative rho (up, down):  2.134E-01 0.000E+00

     negative rho (up, down):  2.134E-01 0.000E+00

     negative rho (up, down):  2.134E-01 0.000E+00

     negative rho (up, down):  2.134E-01 0.000E+00

     negative rho (up, down):  2.134E-01 0.000E+00

     negative rho (up, down):  2.134E-01 0.000E+00

     negative rho (up, down):  2.134E-01 0.000E+00

     negative rho (up, down):  2.134E-01 0.000E+00

     negative rho (up, down):  2.134E-01 0.000E+00

     negative rho (up, down):  2.134E-01 0.000E+00

     negative rho (up, down):  2.134E-01 0.000E+00

     negative rho (up, down):  2.134E-01 0.000E+00

     negative rho (up, down):  2.134E-01 0.000E+00

     negative rho (up, down):  2.134E-01 0.000E+00

     negative rho (up, down):  2.134E-01 0.000E+00

     negative rho (up, down):  2.134E-01 0.000E+00

     negative rho (up, down):  2.134E-01 0.000E+00

     negative rho (up, down):  2.134E-01 0.000E+00

     negative rho (up, down):  2.134E-01 0.000E+00

     negative rho (up, down):  2.134E-01 0.000E+00
 
     Adding external electric field

     Computed dipole along edir(3) : 
        Dipole               -0.2178 Ry au,         -0.5536 Debye
        Dipole field         -0.0004 Ry au
 
        Potential amp.        0.0361 Ry
        Total length         47.2555 bohr
 

     total cpu time spent up to now is      629.4 secs

     End of self-consistent calculation

          k = 0.0000 0.0000 0.0000 ( 27033 PWs)   bands (ev):

   -16.5644 -16.5625 -16.5623 -16.5274 -16.5251 -16.5244 -16.4768 -16.4740
   -16.4732 -16.4706 -16.4623 -16.4438 -16.4437 -16.4387 -16.4333 -16.4308
   -16.4174 -16.4138 -16.4117 -16.4114 -16.4103 -16.4003 -16.3924 -16.3910
   -16.3866 -16.3805 -16.3794 -16.3693 -16.3678 -16.3639 -16.3065 -16.3048
   -16.2996 -16.2793 -16.2737 -16.2663 -16.2656 -16.2584 -16.2524 -16.2474
   -16.1945 -16.1934 -16.1803 -16.1789 -16.1768 -16.1737 -16.1681 -16.1637
   -16.1579 -16.1558 -16.1542 -16.1498 -16.1440 -16.1412 -16.1339 -16.1257
   -16.1222 -16.0990 -16.0943 -16.0862 -10.4821  -9.4273  -7.9705  -6.9709
    -6.9526  -6.9431  -6.5741  -6.5301  -6.5177  -5.9555  -5.9244  -5.9009
    -2.9751  -2.6638  -2.6579  -2.4204  -1.8896  -1.6400  -1.6294  -1.5883
    -1.5305  -1.5209  -0.2487   1.1943   2.1786   2.1802   2.2135   2.2168
     2.2403   2.7789   3.5078   3.6628   3.6731   3.7561

          k = 0.0000 0.0278 0.0000 ( 27010 PWs)   bands (ev):

   -16.5561 -16.5435 -16.5429 -16.5211 -16.5059 -16.5055 -16.4685 -16.4658
   -16.4644 -16.4614 -16.4553 -16.4411 -16.4346 -16.4278 -16.4232 -16.4180
   -16.4153 -16.4128 -16.4085 -16.4035 -16.3966 -16.3942 -16.3898 -16.3881
   -16.3817 -16.3762 -16.3683 -16.3677 -16.3663 -16.3628 -16.3068 -16.3049
   -16.3005 -16.2894 -16.2789 -16.2710 -16.2675 -16.2631 -16.2616 -16.2577
   -16.2023 -16.2004 -16.1942 -16.1888 -16.1859 -16.1853 -16.1768 -16.1759
   -16.1723 -16.1640 -16.1616 -16.1559 -16.1537 -16.1520 -16.1452 -16.1324
   -16.1299 -16.1118 -16.1063 -16.1006 -10.3604  -9.3109  -7.8703  -7.6206
    -7.1146  -7.0941  -6.8626  -6.5171  -6.5077  -6.0046  -5.8896  -5.8703
    -2.7913  -2.4221  -2.2700  -2.1389  -1.7788  -1.5814  -1.4332  -1.2366
    -1.0836  -0.6101  -0.1238   0.9877   1.5015   1.7293   2.0705   2.5573
     2.5931   2.9677   3.0130   3.0778   3.5345   3.7267

          k = 0.0000 0.0556 0.0000 ( 26980 PWs)   bands (ev):

   -16.5350 -16.5066 -16.4949 -16.4946 -16.4747 -16.4595 -16.4591 -16.4544
   -16.4415 -16.4405 -16.4381 -16.4265 -16.4196 -16.4163 -16.4131 -16.4056
   -16.4022 -16.3984 -16.3969 -16.3819 -16.3771 -16.3745 -16.3722 -16.3687
   -16.3606 -16.3588 -16.3570 -16.3542 -16.3525 -16.3390 -16.3151 -16.3060
   -16.3044 -16.3032 -16.2964 -16.2933 -16.2913 -16.2851 -16.2680 -16.2552
   -16.2360 -16.2354 -16.2326 -16.2219 -16.2201 -16.2165 -16.2087 -16.1968
   -16.1884 -16.1857 -16.1777 -16.1769 -16.1713 -16.1704 -16.1644 -16.1612
   -16.1560 -16.1441 -16.1125 -16.1092  -9.9956  -8.9636  -8.5735  -7.6713
    -7.5327  -7.3176  -7.3024  -6.5830  -6.5670  -6.4491  -5.8339  -5.8176
    -2.4089  -1.7672  -1.7216  -1.3434  -1.0509  -0.8452  -0.7297  -0.4678
    -0.4376   0.1299   0.4898   1.0016   1.0791   1.2308   1.7379   2.0109
     2.1093   2.3959   2.3985   2.8662   2.9884   3.1146

          k = 0.0000-0.0835 0.0000 ( 26962 PWs)   bands (ev):

   -16.5129 -16.4957 -16.4921 -16.4720 -16.4570 -16.4563 -16.4448 -16.4418
   -16.4264 -16.4209 -16.4190 -16.4101 -16.4059 -16.4019 -16.3998 -16.3918
   -16.3879 -16.3870 -16.3818 -16.3798 -16.3775 -16.3636 -16.3605 -16.3517
   -16.3509 -16.3492 -16.3460 -16.3455 -16.3452 -16.3402 -16.3307 -16.3215
   -16.3120 -16.2982 -16.2964 -16.2887 -16.2880 -16.2843 -16.2836 -16.2699
   -16.2556 -16.2534 -16.2488 -16.2411 -16.2405 -16.2320 -16.2209 -16.2190
   -16.2176 -16.2147 -16.2134 -16.2099 -16.1837 -16.1797 -16.1740 -16.1635
   -16.1583 -16.1487 -16.1126 -16.1093  -9.4032  -9.3813  -8.4229  -8.3670
    -7.4085  -7.3851  -7.1052  -7.0137  -6.6125  -6.6070  -5.8166  -5.8007
    -2.1814  -1.0333  -0.9625  -0.9602  -0.9393  -0.9098  -0.4703  -0.1493
     0.3541   0.4991   0.5336   0.7723   1.2692   1.7186   1.7478   1.7527
     2.0680   2.1293   2.1464   2.2685   2.3655   2.5509

          k = 0.0241-0.0139 0.0000 ( 27010 PWs)   bands (ev):

   -16.5550 -16.5445 -16.5428 -16.5199 -16.5073 -16.5050 -16.4692 -16.4667
   -16.4628 -16.4617 -16.4560 -16.4393 -16.4337 -16.4274 -16.4241 -16.4181
   -16.4171 -16.4121 -16.4079 -16.4029 -16.3965 -16.3931 -16.3915 -16.3880
   -16.3849 -16.3760 -16.3714 -16.3683 -16.3637 -16.3585 -16.3085 -16.3057
   -16.3001 -16.2858 -16.2817 -16.2697 -16.2671 -16.2646 -16.2624 -16.2572
   -16.2030 -16.1991 -16.1946 -16.1896 -16.1865 -16.1824 -16.1780 -16.1739
   -16.1712 -16.1657 -16.1616 -16.1568 -16.1558 -16.1509 -16.1440 -16.1331
   -16.1292 -16.1126 -16.1084 -16.0988 -10.3604  -9.3106  -7.8693  -7.6127
    -7.1249  -7.0961  -6.8312  -6.5644  -6.5055  -5.9772  -5.9113  -5.8770
    -2.7066  -2.4165  -2.3226  -2.1222  -1.7424  -1.5879  -1.4935  -1.1649
    -1.0731  -0.6522  -0.1773   0.9705   1.4189   1.7349   2.1265   2.5705
     2.7206   2.8531   3.0089   3.0775   3.5024   3.7214

          k = 0.0241 0.0139 0.0000 ( 27010 PWs)   bands (ev):

   -16.5550 -16.5445 -16.5428 -16.5199 -16.5073 -16.5050 -16.4692 -16.4667
   -16.4628 -16.4617 -16.4560 -16.4393 -16.4337 -16.4274 -16.4241 -16.4181
   -16.4171 -16.4121 -16.4079 -16.4029 -16.3965 -16.3931 -16.3915 -16.3880
   -16.3850 -16.3760 -16.3714 -16.3683 -16.3637 -16.3585 -16.3085 -16.3057
   -16.3001 -16.2858 -16.2817 -16.2697 -16.2671 -16.2646 -16.2624 -16.2572
   -16.2030 -16.1991 -16.1946 -16.1896 -16.1865 -16.1824 -16.1780 -16.1739
   -16.1712 -16.1657 -16.1616 -16.1568 -16.1558 -16.1509 -16.1440 -16.1331
   -16.1292 -16.1126 -16.1084 -16.0988 -10.3604  -9.3106  -7.8693  -7.6127
    -7.1249  -7.0961  -6.8312  -6.5644  -6.5055  -5.9772  -5.9113  -5.8770
    -2.7066  -2.4165  -2.3226  -2.1222  -1.7424  -1.5879  -1.4935  -1.1649
    -1.0731  -0.6522  -0.1773   0.9705   1.4189   1.7349   2.1265   2.5705
     2.7206   2.8531   3.0089   3.0775   3.5024   3.7214

          k = 0.0241 0.0417 0.0000 ( 26981 PWs)   bands (ev):

   -16.5305 -16.5283 -16.5020 -16.4972 -16.4959 -16.4606 -16.4589 -16.4497
   -16.4471 -16.4440 -16.4424 -16.4413 -16.4276 -16.4252 -16.4206 -16.4151
   -16.4020 -16.3945 -16.3921 -16.3896 -16.3871 -16.3815 -16.3778 -16.3757
   -16.3748 -16.3661 -16.3609 -16.3583 -16.3564 -16.3400 -16.3090 -16.3066
   -16.3015 -16.2971 -16.2953 -16.2904 -16.2854 -16.2752 -16.2720 -16.2548
   -16.2297 -16.2234 -16.2168 -16.2145 -16.2072 -16.2022 -16.1939 -16.1918
   -16.1853 -16.1809 -16.1773 -16.1724 -16.1670 -16.1650 -16.1589 -16.1539
   -16.1341 -16.1288 -16.1226 -16.1183 -10.1171  -9.0788  -8.0367  -8.0054
    -7.6614  -7.1847  -7.1051  -6.6834  -6.3081  -6.1402  -6.0966  -5.8129
    -2.5096  -2.0979  -1.5694  -1.4776  -1.3712  -1.2093  -0.9250  -0.8118
    -0.3176   0.1012   0.2322   0.8399   0.9268   1.1968   1.7159   2.0885
     2.5121   2.7379   2.7763   3.1051   3.2419   3.2637

          k = 0.0241-0.0974 0.0000 ( 26956 PWs)   bands (ev):

   -16.5060 -16.4825 -16.4769 -16.4719 -16.4623 -16.4540 -16.4494 -16.4371
   -16.4321 -16.4272 -16.4217 -16.4194 -16.4133 -16.4108 -16.4035 -16.3999
   -16.3937 -16.3879 -16.3840 -16.3804 -16.3706 -16.3700 -16.3587 -16.3573
   -16.3518 -16.3499 -16.3471 -16.3437 -16.3367 -16.3343 -16.3242 -16.3156
   -16.3119 -16.3073 -16.3019 -16.2947 -16.2908 -16.2834 -16.2769 -16.2637
   -16.2599 -16.2557 -16.2496 -16.2467 -16.2437 -16.2284 -16.2241 -16.2155
   -16.2099 -16.2046 -16.2000 -16.1914 -16.1813 -16.1742 -16.1694 -16.1651
   -16.1603 -16.1499 -16.1279 -16.1228  -9.6327  -8.9196  -8.6221  -8.2315
    -7.9537  -7.3288  -7.2340  -6.6910  -6.5794  -6.2061  -6.1160  -5.7562
    -2.1811  -1.5443  -1.0887  -0.8717  -0.6549  -0.5872  -0.3343  -0.1011
     0.1128   0.2523   0.6503   0.8484   0.9639   1.0838   1.5354   1.6573
     2.0967   2.4802   2.5916   2.6324   2.7754   2.9473

          k = 0.0241-0.0696 0.0000 ( 26956 PWs)   bands (ev):

   -16.5060 -16.4825 -16.4769 -16.4719 -16.4623 -16.4540 -16.4494 -16.4371
   -16.4321 -16.4272 -16.4217 -16.4194 -16.4133 -16.4108 -16.4035 -16.3999
   -16.3937 -16.3879 -16.3840 -16.3804 -16.3706 -16.3700 -16.3587 -16.3573
   -16.3518 -16.3499 -16.3471 -16.3437 -16.3367 -16.3343 -16.3242 -16.3156
   -16.3119 -16.3073 -16.3019 -16.2947 -16.2908 -16.2834 -16.2769 -16.2637
   -16.2599 -16.2557 -16.2496 -16.2467 -16.2437 -16.2284 -16.2241 -16.2155
   -16.2099 -16.2046 -16.2000 -16.1914 -16.1813 -16.1742 -16.1694 -16.1651
   -16.1603 -16.1499 -16.1279 -16.1228  -9.6327  -8.9196  -8.6222  -8.2315
    -7.9537  -7.3288  -7.2339  -6.6910  -6.5794  -6.2061  -6.1160  -5.7562
    -2.1811  -1.5443  -1.0887  -0.8717  -0.6548  -0.5872  -0.3343  -0.1011
     0.1128   0.2523   0.6503   0.8484   0.9639   1.0838   1.5354   1.6573
     2.0967   2.4802   2.5916   2.6324   2.7754   2.9473

          k = 0.0241-0.0417 0.0000 ( 26981 PWs)   bands (ev):

   -16.5305 -16.5283 -16.5020 -16.4972 -16.4959 -16.4606 -16.4589 -16.4496
   -16.4471 -16.4440 -16.4424 -16.4413 -16.4276 -16.4252 -16.4206 -16.4151
   -16.4020 -16.3945 -16.3921 -16.3896 -16.3871 -16.3815 -16.3778 -16.3757
   -16.3748 -16.3661 -16.3609 -16.3583 -16.3564 -16.3400 -16.3090 -16.3066
   -16.3015 -16.2971 -16.2954 -16.2904 -16.2854 -16.2752 -16.2720 -16.2548
   -16.2297 -16.2234 -16.2168 -16.2145 -16.2072 -16.2022 -16.1939 -16.1918
   -16.1853 -16.1809 -16.1773 -16.1724 -16.1671 -16.1650 -16.1589 -16.1539
   -16.1341 -16.1288 -16.1226 -16.1183 -10.1171  -9.0788  -8.0367  -8.0054
    -7.6614  -7.1847  -7.1051  -6.6834  -6.3081  -6.1401  -6.0966  -5.8129
    -2.5096  -2.0978  -1.5694  -1.4776  -1.3712  -1.2093  -0.9250  -0.8118
    -0.3176   0.1011   0.2322   0.8399   0.9268   1.1968   1.7159   2.0885
     2.5121   2.7379   2.7763   3.1051   3.2419   3.2637

          k = 0.0482-0.0278 0.0000 ( 26980 PWs)   bands (ev):

   -16.5336 -16.5051 -16.4965 -16.4941 -16.4758 -16.4615 -16.4568 -16.4557
   -16.4428 -16.4389 -16.4356 -16.4250 -16.4212 -16.4146 -16.4113 -16.4055
   -16.4047 -16.4009 -16.3936 -16.3857 -16.3784 -16.3774 -16.3733 -16.3681
   -16.3638 -16.3606 -16.3545 -16.3511 -16.3472 -16.3345 -16.3181 -16.3107
   -16.3026 -16.3004 -16.2973 -16.2944 -16.2903 -16.2862 -16.2676 -16.2559
   -16.2381 -16.2347 -16.2296 -16.2240 -16.2202 -16.2160 -16.2085 -16.1932
   -16.1876 -16.1860 -16.1779 -16.1751 -16.1748 -16.1672 -16.1659 -16.1637
   -16.1572 -16.1439 -16.1171 -16.1059  -9.9954  -8.9642  -8.5673  -7.6524
    -7.5339  -7.3305  -7.3010  -6.6414  -6.5556  -6.4285  -5.8580  -5.8213
    -2.1923  -1.7660  -1.7355  -1.2621  -1.0615  -0.8951  -0.6611  -0.4745
    -0.4222  -0.2142   0.5247   0.9755   1.0684   1.2197   1.6387   2.0062
     2.1604   2.3874   2.4392   2.7475   3.0031   3.1664

          k = 0.0482 0.0000 0.0000 ( 26981 PWs)   bands (ev):

   -16.5300 -16.5278 -16.5024 -16.4969 -16.4953 -16.4622 -16.4580 -16.4502
   -16.4472 -16.4441 -16.4418 -16.4394 -16.4268 -16.4244 -16.4219 -16.4164
   -16.4024 -16.3968 -16.3914 -16.3896 -16.3851 -16.3822 -16.3779 -16.3765
   -16.3751 -16.3682 -16.3636 -16.3593 -16.3484 -16.3382 -16.3123 -16.3062
   -16.3045 -16.2949 -16.2934 -16.2904 -16.2870 -16.2744 -16.2724 -16.2554
   -16.2280 -16.2222 -16.2184 -16.2131 -16.2077 -16.2036 -16.1931 -16.1905
   -16.1834 -16.1814 -16.1778 -16.1720 -16.1696 -16.1656 -16.1605 -16.1523
   -16.1353 -16.1303 -16.1202 -16.1192 -10.1169  -9.0782  -8.0303  -8.0071
    -7.6587  -7.1519  -7.1319  -6.6932  -6.3439  -6.1273  -6.0904  -5.8328
    -2.3100  -2.1600  -1.5592  -1.4924  -1.2863  -1.1483  -1.0526  -0.8321
    -0.3847   0.0844   0.1781   0.8413   0.9155   1.1655   1.7656   2.0229
     2.5150   2.7374   2.7614   3.0672   3.2567   3.2785

          k = 0.0482 0.0278 0.0000 ( 26980 PWs)   bands (ev):

   -16.5336 -16.5051 -16.4965 -16.4941 -16.4758 -16.4615 -16.4568 -16.4557
   -16.4428 -16.4389 -16.4356 -16.4250 -16.4212 -16.4146 -16.4113 -16.4055
   -16.4047 -16.4009 -16.3936 -16.3857 -16.3784 -16.3774 -16.3733 -16.3681
   -16.3638 -16.3606 -16.3545 -16.3511 -16.3472 -16.3345 -16.3181 -16.3107
   -16.3026 -16.3004 -16.2973 -16.2944 -16.2903 -16.2861 -16.2676 -16.2559
   -16.2381 -16.2347 -16.2296 -16.2240 -16.2202 -16.2160 -16.2085 -16.1932
   -16.1876 -16.1860 -16.1779 -16.1751 -16.1748 -16.1672 -16.1659 -16.1637
   -16.1572 -16.1439 -16.1171 -16.1059  -9.9954  -8.9642  -8.5673  -7.6524
    -7.5339  -7.3305  -7.3010  -6.6414  -6.5556  -6.4284  -5.8580  -5.8213
    -2.1923  -1.7660  -1.7355  -1.2621  -1.0615  -0.8951  -0.6611  -0.4745
    -0.4222  -0.2142   0.5247   0.9755   1.0684   1.2197   1.6387   2.0062
     2.1603   2.3874   2.4392   2.7476   3.0031   3.1664

          k = 0.0482-0.1113 0.0000 ( 26956 PWs)   bands (ev):

   -16.5038 -16.4815 -16.4782 -16.4734 -16.4621 -16.4556 -16.4495 -16.4359
   -16.4283 -16.4264 -16.4222 -16.4189 -16.4166 -16.4091 -16.4021 -16.3993
   -16.3952 -16.3924 -16.3837 -16.3785 -16.3754 -16.3690 -16.3607 -16.3560
   -16.3527 -16.3490 -16.3451 -16.3409 -16.3367 -16.3327 -16.3246 -16.3155
   -16.3114 -16.3067 -16.3027 -16.2967 -16.2916 -16.2832 -16.2766 -16.2660
   -16.2597 -16.2533 -16.2498 -16.2462 -16.2426 -16.2308 -16.2233 -16.2165
   -16.2110 -16.2026 -16.1976 -16.1918 -16.1812 -16.1741 -16.1696 -16.1656
   -16.1618 -16.1496 -16.1314 -16.1205  -9.6326  -8.9203  -8.6156  -8.2391
    -7.9369  -7.3518  -7.2300  -6.6796  -6.5829  -6.2262  -6.1208  -5.7609
    -2.0254  -1.5482  -1.0345  -0.8994  -0.6470  -0.5881  -0.3898  -0.1514
     0.1582   0.1922   0.5815   0.8016   0.9712   1.0737   1.5061   1.7326
     1.9693   2.4845   2.5923   2.6064   2.7952   2.9532

          k = 0.0482-0.0835 0.0000 ( 26934 PWs)   bands (ev):

   -16.4639 -16.4610 -16.4555 -16.4534 -16.4526 -16.4500 -16.4410 -16.4394
   -16.4366 -16.4334 -16.4319 -16.4270 -16.4102 -16.4087 -16.4019 -16.3985
   -16.3964 -16.3890 -16.3788 -16.3747 -16.3723 -16.3687 -16.3496 -16.3484
   -16.3420 -16.3392 -16.3371 -16.3346 -16.3311 -16.3256 -16.3204 -16.3140
   -16.3133 -16.3110 -16.3078 -16.2995 -16.2974 -16.2886 -16.2845 -16.2817
   -16.2680 -16.2618 -16.2597 -16.2535 -16.2507 -16.2490 -16.2373 -16.2321
   -16.2088 -16.2043 -16.1962 -16.1885 -16.1802 -16.1726 -16.1711 -16.1703
   -16.1608 -16.1579 -16.1514 -16.1440  -9.0555  -9.0444  -9.0089  -8.1362
    -8.0347  -7.9891  -6.8379  -6.7447  -6.7346  -6.0695  -5.9555  -5.9468
    -1.8908  -1.0940  -1.0277  -0.8731  -0.6880  -0.6875  -0.1898   0.3132
     0.4670   0.5102   0.6745   0.6956   1.0947   1.4215   1.4403   1.7632
     2.0570   2.1019   2.1175   2.3873   2.3928   3.1211

          k = 0.0482-0.0556 0.0000 ( 26956 PWs)   bands (ev):

   -16.5038 -16.4815 -16.4782 -16.4734 -16.4621 -16.4556 -16.4495 -16.4360
[...]
   -16.3196 -16.3122 -16.3101 -16.3080 -16.3008 -16.2957 -16.2866 -16.2823
   -16.2785 -16.2737 -16.2711 -16.2662 -16.2627 -16.2524 -16.2483 -16.2439
   -16.2361 -16.2317 -16.2260 -16.2242 -16.2202 -16.2142 -16.2041 -16.2021
   -16.1901 -16.1815 -16.1774 -16.1734 -16.1707 -16.1664 -16.1604 -16.1534
   -16.1442 -16.1423 -16.1395 -16.1361 -16.1200 -16.1163 -16.1130 -16.1067
   -16.1014 -16.0854 -16.0664 -16.0622  -9.4345  -8.7247  -8.5499  -8.0480
    -7.9188  -7.3092  -7.1630  -6.7197  -6.4338  -6.2549  -5.9816  -5.6861
    -2.4726  -1.4025  -1.0833  -0.7723  -0.5757  -0.4098  -0.2073   0.0263
     0.2684   0.3875   0.6955   0.8282   1.0840   1.1315   1.6299   1.7456
     2.1854   2.4609   2.5621   2.6849   2.8503   3.1057

          k = 0.0241-0.0417 0.0000 ( 26981 PWs)   bands (ev):

   -16.4520 -16.4473 -16.4357 -16.4187 -16.4118 -16.3862 -16.3851 -16.3776
   -16.3744 -16.3651 -16.3633 -16.3605 -16.3564 -16.3465 -16.3420 -16.3391
   -16.3219 -16.3195 -16.3170 -16.3148 -16.3129 -16.3119 -16.3075 -16.3029
   -16.2973 -16.2914 -16.2835 -16.2761 -16.2749 -16.2633 -16.2529 -16.2514
   -16.2331 -16.2288 -16.2221 -16.2138 -16.2078 -16.2016 -16.1944 -16.1919
   -16.1656 -16.1552 -16.1484 -16.1441 -16.1403 -16.1373 -16.1332 -16.1295
   -16.1231 -16.1197 -16.1165 -16.1138 -16.1090 -16.1054 -16.1010 -16.0894
   -16.0715 -16.0669 -16.0626 -16.0593  -9.9101  -8.9775  -7.9110  -7.8245
    -7.7381  -7.1326  -6.9690  -6.5397  -6.2293  -6.1411  -6.0809  -5.7525
    -2.6249  -1.9793  -1.5416  -1.3028  -1.2648  -1.1263  -0.8064  -0.6149
    -0.2692   0.1170   0.2904   0.7831   0.9213   1.3916   1.7523   2.1707
     2.4591   2.7207   2.7568   3.1159   3.3820   3.4154

          k = 0.0482-0.0278 0.0000 ( 26980 PWs)   bands (ev):

   -16.4527 -16.4194 -16.4148 -16.4101 -16.3973 -16.3925 -16.3796 -16.3749
   -16.3707 -16.3649 -16.3608 -16.3448 -16.3434 -16.3372 -16.3359 -16.3311
   -16.3266 -16.3228 -16.3164 -16.3111 -16.3078 -16.3045 -16.2985 -16.2964
   -16.2900 -16.2864 -16.2803 -16.2732 -16.2698 -16.2600 -16.2558 -16.2488
   -16.2389 -16.2303 -16.2247 -16.2176 -16.2139 -16.2076 -16.1999 -16.1943
   -16.1798 -16.1667 -16.1571 -16.1550 -16.1523 -16.1477 -16.1442 -16.1378
   -16.1294 -16.1217 -16.1208 -16.1188 -16.1131 -16.1116 -16.1041 -16.1005
   -16.0949 -16.0855 -16.0525 -16.0513  -9.7886  -8.8643  -8.3758  -7.7292
    -7.4781  -7.1871  -7.1101  -6.7054  -6.4421  -6.3554  -5.8468  -5.7963
    -2.2208  -1.5959  -1.5688  -1.2589  -0.9070  -0.7653  -0.5959  -0.3861
    -0.3330  -0.1727   0.5729   0.9777   1.1965   1.2255   1.6749   2.0377
     2.2006   2.4259   2.5431   2.7547   2.9556   3.2018

          k = 0.0482 0.0000 0.0000 ( 26981 PWs)   bands (ev):

   -16.4475 -16.4466 -16.4201 -16.4147 -16.4074 -16.3972 -16.3794 -16.3749
   -16.3710 -16.3679 -16.3614 -16.3597 -16.3523 -16.3497 -16.3431 -16.3344
   -16.3249 -16.3229 -16.3172 -16.3158 -16.3137 -16.3077 -16.3044 -16.3029
   -16.2984 -16.2932 -16.2870 -16.2824 -16.2716 -16.2639 -16.2468 -16.2424
   -16.2378 -16.2327 -16.2251 -16.2175 -16.2090 -16.2044 -16.1986 -16.1899
   -16.1775 -16.1521 -16.1461 -16.1434 -16.1411 -16.1386 -16.1345 -16.1331
   -16.1245 -16.1187 -16.1168 -16.1130 -16.1084 -16.1032 -16.1003 -16.0942
   -16.0716 -16.0686 -16.0642 -16.0599  -9.9087  -8.9720  -7.8909  -7.8261
    -7.7331  -7.1067  -7.0248  -6.5487  -6.2933  -6.1533  -6.0448  -5.8027
    -2.2115  -2.0106  -1.4192  -1.3526  -1.2004  -1.0968  -1.0356  -0.7108
    -0.2930   0.0545   0.2683   0.8062   0.8853   1.3447   1.7631   2.1072
     2.4716   2.6252   2.7170   3.1699   3.3390   3.4501

          k = 0.0482 0.0278 0.0000 ( 26980 PWs)   bands (ev):

   -16.4527 -16.4194 -16.4148 -16.4101 -16.3973 -16.3925 -16.3796 -16.3749
   -16.3707 -16.3649 -16.3608 -16.3448 -16.3434 -16.3372 -16.3359 -16.3311
   -16.3265 -16.3228 -16.3164 -16.3112 -16.3078 -16.3045 -16.2985 -16.2964
   -16.2900 -16.2864 -16.2804 -16.2732 -16.2698 -16.2599 -16.2558 -16.2488
   -16.2389 -16.2304 -16.2247 -16.2176 -16.2138 -16.2076 -16.1999 -16.1943
   -16.1798 -16.1667 -16.1571 -16.1550 -16.1523 -16.1478 -16.1442 -16.1378
   -16.1294 -16.1217 -16.1208 -16.1188 -16.1130 -16.1116 -16.1041 -16.1005
   -16.0949 -16.0854 -16.0525 -16.0513  -9.7886  -8.8644  -8.3757  -7.7292
    -7.4777  -7.1871  -7.1101  -6.7054  -6.4424  -6.3554  -5.8468  -5.7963
    -2.2206  -1.5959  -1.5688  -1.2591  -0.9071  -0.7651  -0.5959  -0.3863
    -0.3330  -0.1724   0.5730   0.9777   1.1965   1.2254   1.6749   2.0377
     2.2008   2.4258   2.5430   2.7547   2.9556   3.2018

          k = 0.0482-0.1113 0.0000 ( 26956 PWs)   bands (ev):

   -16.4242 -16.4036 -16.3977 -16.3943 -16.3864 -16.3765 -16.3709 -16.3587
   -16.3549 -16.3500 -16.3473 -16.3436 -16.3377 -16.3341 -16.3324 -16.3219
   -16.3189 -16.3116 -16.3099 -16.3077 -16.3019 -16.3006 -16.2900 -16.2865
   -16.2807 -16.2777 -16.2714 -16.2633 -16.2610 -16.2580 -16.2498 -16.2430
   -16.2368 -16.2318 -16.2301 -16.2248 -16.2170 -16.2145 -16.2087 -16.1955
   -16.1917 -16.1867 -16.1785 -16.1774 -16.1711 -16.1649 -16.1616 -16.1547
   -16.1510 -16.1445 -16.1401 -16.1288 -16.1234 -16.1183 -16.1119 -16.1048
   -16.0967 -16.0916 -16.0689 -16.0636  -9.4310  -8.7297  -8.5328  -8.0712
    -7.8282  -7.4410  -7.1361  -6.7415  -6.4324  -6.2528  -6.0023  -5.6996
    -2.1863  -1.4009  -1.0339  -0.7828  -0.5055  -0.4384  -0.2597  -0.0452
     0.2682   0.3563   0.5756   0.8288   1.0677   1.2581   1.5080   1.7354
     2.0236   2.4407   2.5680   2.6796   2.7941   3.0668

          k = 0.0482-0.0835 0.0000 ( 26934 PWs)   bands (ev):

   -16.3908 -16.3866 -16.3845 -16.3792 -16.3767 -16.3668 -16.3655 -16.3629
   -16.3564 -16.3529 -16.3505 -16.3439 -16.3405 -16.3364 -16.3302 -16.3212
   -16.3209 -16.3131 -16.3069 -16.2968 -16.2960 -16.2862 -16.2793 -16.2774
   -16.2706 -16.2702 -16.2674 -16.2629 -16.2568 -16.2509 -16.2503 -16.2464
   -16.2398 -16.2339 -16.2316 -16.2270 -16.2262 -16.2216 -16.2146 -16.2109
   -16.2008 -16.1918 -16.1880 -16.1810 -16.1798 -16.1769 -16.1732 -16.1685
   -16.1529 -16.1414 -16.1399 -16.1310 -16.1196 -16.1171 -16.1132 -16.1090
   -16.1006 -16.0976 -16.0923 -16.0815  -8.8996  -8.8419  -8.7807  -8.1804
    -7.9153  -7.8152  -6.9423  -6.8063  -6.7107  -5.9441  -5.8794  -5.8305
    -2.1478  -1.0118  -0.7713  -0.6934  -0.6130  -0.5421  -0.2229   0.3165
     0.5689   0.5980   0.7416   0.8575   1.1412   1.5056   1.6399   1.8312
     1.9682   2.1001   2.2778   2.4092   2.4508   3.1953

          k = 0.0482-0.0556 0.0000 ( 26956 PWs)   bands (ev):

   -16.4242 -16.4036 -16.3977 -16.3943 -16.3864 -16.3765 -16.3710 -16.3588
   -16.3549 -16.3500 -16.3473 -16.3436 -16.3377 -16.3341 -16.3324 -16.3219
   -16.3189 -16.3116 -16.3099 -16.3077 -16.3019 -16.3007 -16.2900 -16.2865
   -16.2807 -16.2777 -16.2714 -16.2633 -16.2610 -16.2581 -16.2498 -16.2429
   -16.2368 -16.2318 -16.2301 -16.2248 -16.2169 -16.2145 -16.2087 -16.1955
   -16.1918 -16.1867 -16.1785 -16.1774 -16.1711 -16.1649 -16.1616 -16.1548
   -16.1510 -16.1445 -16.1401 -16.1288 -16.1234 -16.1183 -16.1119 -16.1048
   -16.0967 -16.0916 -16.0689 -16.0636  -9.4310  -8.7295  -8.5328  -8.0714
    -7.8284  -7.4409  -7.1361  -6.7415  -6.4324  -6.2527  -6.0023  -5.6996
    -2.1863  -1.4009  -1.0338  -0.7829  -0.5055  -0.4384  -0.2598  -0.0452
     0.2682   0.3563   0.5755   0.8289   1.0673   1.2581   1.5079   1.7353
     2.0238   2.4409   2.5680   2.6797   2.7941   3.0667

          k =-0.0723 0.0417 0.0000 ( 26962 PWs)   bands (ev):

   -16.4303 -16.4182 -16.3995 -16.3925 -16.3761 -16.3664 -16.3621 -16.3605
   -16.3559 -16.3517 -16.3490 -16.3370 -16.3324 -16.3298 -16.3264 -16.3200
   -16.3166 -16.3122 -16.3083 -16.3049 -16.3019 -16.2961 -16.2917 -16.2904
   -16.2790 -16.2751 -16.2700 -16.2636 -16.2618 -16.2557 -16.2545 -16.2413
   -16.2346 -16.2325 -16.2274 -16.2183 -16.2132 -16.2120 -16.2065 -16.2050
   -16.2029 -16.1955 -16.1789 -16.1720 -16.1681 -16.1647 -16.1615 -16.1589
   -16.1568 -16.1542 -16.1509 -16.1474 -16.1270 -16.1215 -16.1159 -16.1057
   -16.0985 -16.0908 -16.0528 -16.0519  -9.2018  -9.1811  -8.4111  -8.1697
    -7.3692  -7.1919  -7.1505  -7.0750  -6.6283  -6.4066  -5.8375  -5.7865
    -1.9304  -1.0036  -0.8445  -0.8313  -0.7626  -0.6728  -0.4407  -0.1256
     0.0493   0.6393   0.6620   0.9320   1.2138   1.6917   1.8047   1.8663
     1.9578   2.2094   2.2911   2.4199   2.4624   2.4954

          k =-0.0723 0.0696 0.0000 ( 26956 PWs)   bands (ev):

   -16.4241 -16.3987 -16.3957 -16.3916 -16.3824 -16.3741 -16.3650 -16.3587
   -16.3553 -16.3520 -16.3478 -16.3445 -16.3423 -16.3353 -16.3268 -16.3232
   -16.3176 -16.3141 -16.3108 -16.3062 -16.3017 -16.2935 -16.2878 -16.2830
   -16.2794 -16.2757 -16.2718 -16.2678 -16.2603 -16.2589 -16.2545 -16.2472
   -16.2388 -16.2336 -16.2310 -16.2234 -16.2203 -16.2164 -16.2102 -16.2081
   -16.1884 -16.1862 -16.1796 -16.1738 -16.1725 -16.1644 -16.1615 -16.1565
   -16.1501 -16.1423 -16.1387 -16.1317 -16.1234 -16.1169 -16.1103 -16.1058
   -16.1006 -16.0915 -16.0687 -16.0638  -9.4281  -8.7339  -8.5277  -8.0456
    -7.8581  -7.3982  -7.2003  -6.7209  -6.4383  -6.2372  -6.0412  -5.7144
    -1.9383  -1.4275  -0.9752  -0.7725  -0.5841  -0.4939  -0.3531  -0.0886
     0.2540   0.3318   0.6812   0.8603   1.0676   1.1953   1.5841   1.6454
     1.9400   2.4764   2.5427   2.7141   2.8170   2.9719

          k =-0.0723 0.0974 0.0000 ( 26956 PWs)   bands (ev):

   -16.4241 -16.3987 -16.3957 -16.3916 -16.3823 -16.3740 -16.3650 -16.3587
   -16.3553 -16.3520 -16.3478 -16.3445 -16.3423 -16.3353 -16.3267 -16.3232
   -16.3176 -16.3141 -16.3108 -16.3062 -16.3017 -16.2935 -16.2877 -16.2831
   -16.2794 -16.2757 -16.2717 -16.2678 -16.2603 -16.2589 -16.2545 -16.2472
   -16.2388 -16.2336 -16.2310 -16.2234 -16.2203 -16.2164 -16.2102 -16.2081
   -16.1884 -16.1862 -16.1796 -16.1738 -16.1726 -16.1644 -16.1615 -16.1565
   -16.1501 -16.1423 -16.1387 -16.1317 -16.1234 -16.1169 -16.1103 -16.1058
   -16.1006 -16.0915 -16.0687 -16.0638  -9.4281  -8.7341  -8.5276  -8.0457
    -7.8579  -7.3980  -7.2006  -6.7208  -6.4383  -6.2372  -6.0412  -5.7144
    -1.9383  -1.4275  -0.9751  -0.7725  -0.5841  -0.4941  -0.3531  -0.0886
     0.2540   0.3319   0.6813   0.8603   1.0679   1.1951   1.5841   1.6455
     1.9398   2.4763   2.5428   2.7139   2.8171   2.9722

          k =-0.0723-0.0417 0.0000 ( 26962 PWs)   bands (ev):

   -16.4303 -16.4182 -16.3996 -16.3924 -16.3762 -16.3664 -16.3621 -16.3605
   -16.3559 -16.3517 -16.3490 -16.3370 -16.3325 -16.3298 -16.3264 -16.3201
   -16.3167 -16.3121 -16.3084 -16.3049 -16.3019 -16.2961 -16.2917 -16.2904
   -16.2790 -16.2752 -16.2700 -16.2636 -16.2618 -16.2557 -16.2544 -16.2414
   -16.2347 -16.2325 -16.2273 -16.2183 -16.2132 -16.2121 -16.2065 -16.2050
   -16.2028 -16.1955 -16.1789 -16.1720 -16.1681 -16.1647 -16.1615 -16.1589
   -16.1568 -16.1542 -16.1509 -16.1474 -16.1270 -16.1215 -16.1159 -16.1057
   -16.0985 -16.0908 -16.0528 -16.0519  -9.2021  -9.1809  -8.4116  -8.1689
    -7.3691  -7.1919  -7.1505  -7.0748  -6.6285  -6.4067  -5.8376  -5.7865
    -1.9303  -1.0034  -0.8446  -0.8314  -0.7629  -0.6728  -0.4407  -0.1256
     0.0495   0.6393   0.6620   0.9321   1.2139   1.6918   1.8047   1.8662
     1.9580   2.2088   2.2910   2.4200   2.4625   2.4956

     the Fermi energy is     1.1284 ev

!    total energy              =   -1993.36333603 Ry
     Harris-Foulkes estimate   =   -1993.36336637 Ry
     estimated scf accuracy    <       0.00000485 Ry

     The total energy is the sum of the following terms:

     one-electron contribution =   -9044.10266695 Ry
     hartree contribution      =    4591.59581221 Ry
     xc contribution           =    -784.43199777 Ry
     ewald contribution        =    3243.61453063 Ry
     electric field correction =       0.00003109 Ry
     smearing contrib. (-TS)   =      -0.03904523 Ry

     convergence has been achieved in   9 iterations
 
 BEEF-vdW xc energy contributions
           1 :   -699.304223330429     
           2 :    649.544311161719     
           3 :   -561.935027372239     
           4 :    455.706624562315     
           5 :   -350.692371099098     
           6 :    261.350477408829     
           7 :   -193.622596875802     
           8 :    145.391049742073     
           9 :   -109.813715302326     
          10 :    79.7061349971200     
          11 :   -50.9269003648617     
          12 :    23.4523387628014     
          13 :  -0.109674869934793     
          14 :   -15.9399349617826     
          15 :    23.4432797593043     
          16 :   -23.8947420614809     
          17 :    20.7427077059375     
          18 :   -17.6163741915182     
          19 :    16.6473274037613     
          20 :   -17.7766765260359     
          21 :    19.3051712608188     
          22 :   -19.2462595128839     
          23 :    16.6487165993708     
          24 :   -12.1595513789014     
          25 :    7.58945581319142     
          26 :   -4.82377684698542     
          27 :    4.75360863030483     
          28 :   -6.83159619595369     
          29 :    9.45761160360576     
          30 :   -10.9232751610516     
          31 :   -55.8786901245318     
          32 :   -40.9407014922764     

     Forces acting on atoms (Ry/au):


     negative rho (up, down):  2.130E-01 0.000E+00
     atom    1 type  1   force =     0.00000846   -0.00361658   -0.01046786
     atom    2 type  1   force =     0.00000476   -0.00001648   -0.00788429
     atom    3 type  1   force =     0.00086545    0.00117764   -0.00865471
     atom    4 type  1   force =    -0.00087632    0.00121449   -0.00870481
     atom    5 type  1   force =     0.00080359   -0.00204181    0.00839207
     atom    6 type  1   force =    -0.00080960   -0.00204997    0.00838926
     atom    7 type  1   force =     0.00000012   -0.00011489    0.00868355
     atom    8 type  1   force =     0.00000001    0.00487385    0.01091818
     atom    9 type  1   force =    -0.00086578    0.00008933   -0.00006731
     atom   10 type  1   force =     0.00085505    0.00012929   -0.00007078
     atom   11 type  1   force =     0.00004388   -0.00045473   -0.00037868
     atom   12 type  1   force =    -0.00003751    0.00096522   -0.00003077
     atom   13 type  2   force =     0.00000791   -0.00015536   -0.00012385

     Total force =     0.026675     Total SCF correction =     0.014387
     SCF correction compared to forces is large: reduce conv_thr to get better values


     entering subroutine stress ...


     negative rho (up, down):  2.130E-01 0.000E+00
          total   stress  (Ry/bohr**3)                   (kbar)     P=    6.86
   0.00006239  -0.00000001   0.00000000          9.18     -0.00      0.00
  -0.00000001   0.00006049   0.00000148         -0.00      8.90      0.22
   0.00000000   0.00000148   0.00001704          0.00      0.22      2.51

 !ASE

     Writing output data file calc.save
 
     init_run     :     14.58s CPU     20.94s WALL (       1 calls)
     electrons    :    410.04s CPU    605.63s WALL (       1 calls)
     forces       :      6.35s CPU      7.52s WALL (       1 calls)
     stress       :     16.47s CPU     18.63s WALL (       1 calls)

     Called by init_run:
     wfcinit      :     11.07s CPU     16.35s WALL (       1 calls)
     potinit      :      1.96s CPU      2.88s WALL (       1 calls)

     Called by electrons:
     c_bands      :    283.77s CPU    417.54s WALL (      10 calls)
     sum_band     :     48.97s CPU     74.16s WALL (      10 calls)
     v_of_rho     :     16.71s CPU     25.27s WALL (      10 calls)
     newd         :      6.34s CPU      6.80s WALL (      10 calls)
     mix_rho      :      0.54s CPU      0.81s WALL (      10 calls)
     vdW_energy   :      3.34s CPU      3.71s WALL (      46 calls)
     vdW_ffts     :     46.62s CPU     73.99s WALL (      94 calls)
     vdW_v        :      9.02s CPU     12.90s WALL (      46 calls)

     Called by c_bands:
     init_us_2    :      0.69s CPU      0.72s WALL (     460 calls)
     cegterg      :    278.06s CPU    411.41s WALL (     200 calls)

     Called by *egterg:
     h_psi        :    211.90s CPU    343.18s WALL (     939 calls)
     s_psi        :      7.99s CPU      8.01s WALL (     939 calls)
     g_psi        :      0.51s CPU      0.52s WALL (     719 calls)
     cdiaghg      :     31.78s CPU     32.78s WALL (     899 calls)

     Called by h_psi:
     add_vuspsi   :      8.17s CPU      8.22s WALL (     939 calls)

     General routines
     calbec       :     16.10s CPU     18.78s WALL (    1179 calls)
     fft          :     71.14s CPU    110.97s WALL (    2767 calls)
     ffts         :      0.13s CPU      0.19s WALL (      20 calls)
     fftw         :    215.07s CPU    366.06s WALL (  119334 calls)
     interpolate  :      0.65s CPU      0.99s WALL (      20 calls)
     davcio       :      0.00s CPU      0.04s WALL (      20 calls)
 
     Parallel routines
     fft_scatter  :    254.52s CPU    441.84s WALL (  122121 calls)
 
     PWSCF        :  7m28.37s CPU    10m54.14s WALL

 
   This run was terminated on:  17:31:31  16Jan2018            

=------------------------------------------------------------------------------=
   JOB DONE.
=------------------------------------------------------------------------------=
Job  /afs/slac/g/suncat/bin/suncat-tsmpirun -x LD_LIBRARY_PATH -wdir /scratch/qe842467_XjzXC pw.x -in pw.inp

TID   HOST_NAME   COMMAND_LINE            STATUS            TERMINATION_TIME
===== ========== ================  =======================  ===================
00000 suncat0100 pw.x -in pw.inp   Done                     01/16/2018 17:31:31
00001 suncat0100 pw.x -in pw.inp   Done                     01/16/2018 17:31:31
00002 suncat0100 pw.x -in pw.inp   Done                     01/16/2018 17:31:31
00003 suncat0100 pw.x -in pw.inp   Done                     01/16/2018 17:31:31
00004 suncat0100 pw.x -in pw.inp   Done                     01/16/2018 17:31:31
00005 suncat0100 pw.x -in pw.inp   Done                     01/16/2018 17:31:31
00006 suncat0100 pw.x -in pw.inp   Done                     01/16/2018 17:31:31
00007 suncat0100 pw.x -in pw.inp   Done                     01/16/2018 17:31:31
00008 suncat0283 pw.x -in pw.inp   Done                     01/16/2018 17:31:31
00009 suncat0283 pw.x -in pw.inp   Done                     01/16/2018 17:31:31
00010 suncat0283 pw.x -in pw.inp   Done                     01/16/2018 17:31:31
00011 suncat0283 pw.x -in pw.inp   Done                     01/16/2018 17:31:31
00012 suncat0283 pw.x -in pw.inp   Done                     01/16/2018 17:31:31
00013 suncat0283 pw.x -in pw.inp   Done                     01/16/2018 17:31:31
00014 suncat0283 pw.x -in pw.inp   Done                     01/16/2018 17:31:31
00015 suncat0283 pw.x -in pw.inp   Done                     01/16/2018 17:31:31
00016 suncat0282 pw.x -in pw.inp   Done                     01/16/2018 17:31:31
00017 suncat0282 pw.x -in pw.inp   Done                     01/16/2018 17:31:31
00018 suncat0282 pw.x -in pw.inp   Done                     01/16/2018 17:31:31
00019 suncat0282 pw.x -in pw.inp   Done                     01/16/2018 17:31:31
00020 suncat0282 pw.x -in pw.inp   Done                     01/16/2018 17:31:31
00021 suncat0282 pw.x -in pw.inp   Done                     01/16/2018 17:31:31
00022 suncat0282 pw.x -in pw.inp   Done                     01/16/2018 17:31:31
00023 suncat0282 pw.x -in pw.inp   Done                     01/16/2018 17:31:31
00024 suncat0214 pw.x -in pw.inp   Done                     01/16/2018 17:31:31
00025 suncat0214 pw.x -in pw.inp   Done                     01/16/2018 17:31:31
00026 suncat0214 pw.x -in pw.inp   Done                     01/16/2018 17:31:31
00027 suncat0214 pw.x -in pw.inp   Done                     01/16/2018 17:31:31
00028 suncat0214 pw.x -in pw.inp   Done                     01/16/2018 17:31:31
00029 suncat0214 pw.x -in pw.inp   Done                     01/16/2018 17:31:31
00030 suncat0214 pw.x -in pw.inp   Done                     01/16/2018 17:31:31
00031 suncat0214 pw.x -in pw.inp   Done                     01/16/2018 17:31:31
