  python dir          : /home/mamunm/src/espresso
  espresso dir        : /home/vossj/suncat/esdld/espresso-dynpy-beef/bin
  pseudo dir          : /home/mamunm/src/pseudo/gbrv1.5pbe
  ase-espresso py git : GITVERSION



     Program PWSCF v.5.1rc2 (svn rev. ) starts on 18Apr2018 at  1:34:51 

     This program is part of the open-source Quantum ESPRESSO suite
     for quantum simulation of materials; please cite
         "P. Giannozzi et al., J. Phys.:Condens. Matter 21 395502 (2009);
          URL http://www.quantum-espresso.org", 
     in publications or presentations arising from this work. More details at
     http://www.quantum-espresso.org/quote

     Parallel version (MPI), running on    16 processors
     R & G space division:  proc/nbgrp/npool/nimage =      16
     Reading input from pw.inp
     Message from routine read_cards :
     DEPRECATED: no units specified in CELL_PARAMETERS card

     Current dimensions of program PWSCF are:
     Max number of different atomic species (ntypx) = 10
     Max number of k-points (npk) =  40000
     Max angular momentum in pseudopotentials (lmaxx) =  3
     Presently stress not available with electric field


     **************************************************************************
     Initializing libbeef V0.1.1 with the BEEF-vdW functional.
     Citation: Wellendorff et al., PRB 85, 235149 (2012).
     **************************************************************************


     IMPORTANT: XC functional enforced from input :
     Exchange-correlation      = BEEF-VDW ( 1  4 27 13 2)
     Any further DFT definition will be discarded
     Please, verify this is what you really want


     Subspace diagonalization in iterative solution of the eigenvalue problem:
     a serial algorithm will be used

 
     Parallelization info
     --------------------
     sticks:   dense  smooth     PW     G-vecs:    dense   smooth      PW
     Min         229      92     27                44757    11310    1747
     Max         230      93     28                44782    11361    1763
     Sum        3679    1483    433               716469   181389   28035
 


     bravais-lattice index     =            0
     lattice parameter (alat)  =       1.8897  a.u.
     unit-cell volume          =    6024.3322 (a.u.)^3
     number of atoms/cell      =           14
     number of atomic types    =            3
     number of electrons       =       151.00
     number of Kohn-Sham states=           85
     kinetic-energy cutoff     =      36.7493  Ry
     charge density cutoff     =     367.4932  Ry
     convergence threshold     =      1.0E-05
     mixing beta               =       0.3000
     number of iterations used =           10  plain     mixing
     Exchange-correlation      = BEEF-VDW ( 1  4 27 13 2)
     nstep                     =           50


     celldm(1)=   1.889726  celldm(2)=   0.000000  celldm(3)=   0.000000
     celldm(4)=   0.000000  celldm(5)=   0.000000  celldm(6)=   0.000000

     crystal axes: (cart. coord. in units of alat)
               a(1) = (   6.393197   0.000000   0.000000 )  
               a(2) = (   3.196599   5.536671   0.000000 )  
               a(3) = (   0.000000   0.000000  25.220024 )  

     reciprocal axes: (cart. coord. in units 2 pi/alat)
               b(1) = (  0.156416 -0.090307  0.000000 )  
               b(2) = (  0.000000  0.180614  0.000000 )  
               b(3) = (  0.000000  0.000000  0.039651 )  


     PseudoPot. # 1 for Hf read from file:
     /home/mamunm/src/pseudo/gbrv1.5pbe/Hf.UPF
     MD5 check sum: 8ee9378dfe14276e333edf04c5e4aa26
     Pseudo is Ultrasoft + core correction, Zval = 12.0
     Generated by new atomic code, or converted to UPF format
     Using radial grid of  921 points,  8 beta functions with: 
                l(1) =   0
                l(2) =   0
                l(3) =   0
                l(4) =   1
                l(5) =   1
                l(6) =   2
                l(7) =   2
                l(8) =   3
     Q(r) pseudized with  6 coefficients,  rinner =    1.200   1.200   1.200
                                                       1.200   1.200   1.200
                                                       1.200

     PseudoPot. # 2 for O  read from file:
     /home/mamunm/src/pseudo/gbrv1.5pbe/O.UPF
     MD5 check sum: 734c27235a0248c51dbae37a1fbe46ec
     Pseudo is Ultrasoft + core correction, Zval =  6.0
     Generated by new atomic code, or converted to UPF format
     Using radial grid of  737 points,  5 beta functions with: 
                l(1) =   0
                l(2) =   0
                l(3) =   1
                l(4) =   1
                l(5) =   2
     Q(r) pseudized with  8 coefficients,  rinner =    0.900   0.900   0.900
                                                       0.900   0.900

     PseudoPot. # 3 for H  read from file:
     /home/mamunm/src/pseudo/gbrv1.5pbe/H.UPF
     MD5 check sum: 761ae9a214b05c3daf00ab9f6b793d6f
     Pseudo is Ultrasoft, Zval =  1.0
     Generated by new atomic code, or converted to UPF format
     Using radial grid of  615 points,  2 beta functions with: 
                l(1) =   0
                l(2) =   0
     Q(r) pseudized with  8 coefficients,  rinner =    0.700

     vdW kernel table read from file vdW_kernel_table
     MD5 check sum: 095c7af220d748ca6e76c0b4c6cfb241

     atomic species   valence    mass     pseudopotential
        Hf1           12.00   178.49000     Hf( 1.00)
        O1             6.00    15.99900     O ( 1.00)
        H1             1.00     1.00800     H ( 1.00)

     No symmetry found



   Cartesian axes

     site n.     atom                  positions (alat units)
         1           Hf1 tau(   1) = (   1.5982993   0.9227785  10.0000000  )
         2           Hf1 tau(   2) = (   4.7948978   0.9227785  10.0000000  )
         3           Hf1 tau(   3) = (   3.1965986   3.6911141  10.0000000  )
         4           Hf1 tau(   4) = (   6.3931971   3.6911141  10.0000000  )
         5           Hf1 tau(   5) = (   6.3931971   1.8455570  12.6100118  )
         6           Hf1 tau(   6) = (   3.1965986   1.8455570  12.6100118  )
         7           Hf1 tau(   7) = (   7.9914964   4.6138926  12.6100118  )
         8           Hf1 tau(   8) = (   4.7948978   4.6138926  12.6100118  )
         9           Hf1 tau(   9) = (   0.0000000   0.0000000  15.2200236  )
        10           Hf1 tau(  10) = (   3.1965986   0.0000000  15.2200236  )
        11           Hf1 tau(  11) = (   1.5982993   2.7683356  15.2200236  )
        12           Hf1 tau(  12) = (   4.7948978   2.7683356  15.2200236  )
        13           O1  tau(  13) = (   0.0000000   0.0000000  17.2685236  )
        14           H1  tau(  14) = (   0.0000000   0.0000000  18.2185236  )

     number of k points=    20  Fermi-Dirac smearing, width (Ry)=  0.0110
                       cart. coord. in units 2pi/alat
        k(    1) = (   0.0000000   0.0000000   0.0000000), wk =   0.0555556
        k(    2) = (   0.0000000   0.0301023   0.0000000), wk =   0.1111111
        k(    3) = (   0.0000000   0.0602046   0.0000000), wk =   0.1111111
        k(    4) = (   0.0000000  -0.0903070   0.0000000), wk =   0.0555556
        k(    5) = (   0.0260694  -0.0150512   0.0000000), wk =   0.1111111
        k(    6) = (   0.0260694   0.0150512   0.0000000), wk =   0.1111111
        k(    7) = (   0.0260694   0.0451535   0.0000000), wk =   0.1111111
        k(    8) = (   0.0260694  -0.1053581   0.0000000), wk =   0.1111111
        k(    9) = (   0.0260694  -0.0752558   0.0000000), wk =   0.1111111
        k(   10) = (   0.0260694  -0.0451535   0.0000000), wk =   0.1111111
        k(   11) = (   0.0521388  -0.0301023   0.0000000), wk =   0.1111111
        k(   12) = (   0.0521388   0.0000000   0.0000000), wk =   0.1111111
        k(   13) = (   0.0521388   0.0301023   0.0000000), wk =   0.1111111
        k(   14) = (   0.0521388  -0.1204093   0.0000000), wk =   0.1111111
        k(   15) = (   0.0521388  -0.0903070   0.0000000), wk =   0.1111111
        k(   16) = (   0.0521388  -0.0602046   0.0000000), wk =   0.1111111
        k(   17) = (  -0.0782081   0.0451535   0.0000000), wk =   0.0555556
        k(   18) = (  -0.0782081   0.0752558   0.0000000), wk =   0.1111111
        k(   19) = (  -0.0782081   0.1053581   0.0000000), wk =   0.1111111
        k(   20) = (  -0.0782081  -0.0451535   0.0000000), wk =   0.0555556

     Dense  grid:   716469 G-vectors     FFT dimensions: (  75,  75, 300)

     Smooth grid:   181389 G-vectors     FFT dimensions: (  48,  48, 192)

     Largest allocated arrays     est. size (Mb)     dimensions
        Kohn-Sham Wavefunctions         1.89 Mb     (    1455,   85)
        NL pseudopotentials             7.26 Mb     (    1455,  327)
        Each V/rho on FFT grid          1.63 Mb     (  106875)
        Each G-vector array             0.34 Mb     (   44782)
        G-vector shells                 0.13 Mb     (   17151)
     Largest temporary arrays     est. size (Mb)     dimensions
        Auxiliary wavefunctions         7.55 Mb     (    1455,  340)
        Each subspace H/S matrix        1.76 Mb     (     340,  340)
        Each <psi_i|beta_j> matrix      0.42 Mb     (     327,   85)
        Arrays for rho mixing          16.31 Mb     (  106875,   10)

     Check: negative/imaginary core charge=   -0.000003    0.000000

     Initial potential from superposition of free atoms
     Check: negative starting charge=   -1.301555

     starting charge  126.99997, renormalised to  151.00000

     negative rho (up, down):  1.548E+00 0.000E+00


     ************************************************************************
     *
     * You are using vdW-DF for exchange-correlation in this calculation.
     * Please cite the following three references that made this development
     * possible:
     *
     *   M. Dion, H. Rydberg, E. Schroder, D. C. Langreth, and
     *   B. I. Lundqvist, Phys. Rev. Lett. 92, 246401 (2004).
     *
     *   T. Thonhauser, V. R. Cooper, S. Li, A. Puzder, P. Hyldgaard, and
     *   D. C. Langreth, Phys. Rev. B 76, 125112 (2007).
     *
     *   G. Roman-Perez and J. M. Soler, Phys. Rev. Lett. 103, 096102 (2009).
     *
     *
     * If you are using vdW-DF2, please also cite:
     *
     *   K. Lee, E. D. Murray, L. Kong, B. I. Lundqvist, and
     *   D. C. Langreth, Phys. Rev. B 82, 081101(R) (2010).
     *
     *
     * If you are calculating the stress with vdW-DF, please also cite:
     *
     *   R. Sabatini, E. Kucukbenli, B. Kolb, T. Thonhauser, and
     *   S. de Gironcoli, J. Phys.: Condens. Matter 24, 424209 (2012).
     *
     ************************************************************************

     Carrying out vdW-DF run using the following parameters:

     Nqs =      20    Nr_points =    1024   r_max =   100.000
     q_mesh =
               0.00001000     0.04494208     0.09755937     0.15916263
               0.23128650     0.31572767     0.41458969     0.53033537
               0.66584808     0.82450364     1.01025438     1.22772762
               1.48234092     1.78043706     2.12944203     2.53805004
               3.01644009     3.57652955     4.23227104     5.00000000

     Gradients computed in reciprocal space

     ************************************************************************


 
     Adding external electric field

     Computed dipole along edir(3) : 
        Dipole              -11.9845 Ry au,        -30.4615 Debye
        Dipole field         -0.0250 Ry au
 
        Potential amp.        2.3233 Ry
        Total length         46.4675 bohr
 
     Starting wfc are  161 randomized atomic wfcs

     total cpu time spent up to now is       12.3 secs

     Self-consistent Calculation

     iteration #  1     ecut=    36.75 Ry     beta=0.30
     Davidson diagonalization with overlap
     ethr =  1.00E-02,  avg # of iterations =  9.7

     negative rho (up, down):  1.434E+00 0.000E+00
 
     Adding external electric field

     Computed dipole along edir(3) : 
        Dipole              159.9169 Ry au,        406.4683 Debye
        Dipole field          0.3336 Ry au
 
        Potential amp.      -31.0009 Ry
        Total length         46.4675 bohr
 

     total cpu time spent up to now is       46.8 secs

     total energy              =   -1246.01654902 Ry
     Harris-Foulkes estimate   =   -1957.68914453 Ry
     estimated scf accuracy    <    1523.94449428 Ry

     iteration #  2     ecut=    36.75 Ry     beta=0.30
     Davidson diagonalization with overlap
     ethr =  1.00E-02,  avg # of iterations = 21.9

     negative rho (up, down):  1.377E+00 0.000E+00
 
     Adding external electric field

     Computed dipole along edir(3) : 
        Dipole               44.5027 Ry au,        113.1147 Debye
        Dipole field          0.0928 Ry au
 
        Potential amp.       -8.6271 Ry
        Total length         46.4675 bohr
 

     total cpu time spent up to now is      147.7 secs

     total energy              =   -1395.67620361 Ry
     Harris-Foulkes estimate   =   -3172.62218656 Ry
     estimated scf accuracy    <   16102.86390798 Ry

     iteration #  3     ecut=    36.75 Ry     beta=0.30
     Davidson diagonalization with overlap
     ethr =  1.00E-02,  avg # of iterations = 17.1

     negative rho (up, down):  1.327E+00 0.000E+00
 
     Adding external electric field

     Computed dipole along edir(3) : 
        Dipole               36.9977 Ry au,         94.0388 Debye
        Dipole field          0.0772 Ry au
 
        Potential amp.       -7.1722 Ry
        Total length         46.4675 bohr
 

     total cpu time spent up to now is      215.0 secs

     total energy              =   -1908.27427513 Ry
     Harris-Foulkes estimate   =   -2295.47472687 Ry
     estimated scf accuracy    <    2325.09799224 Ry

     iteration #  4     ecut=    36.75 Ry     beta=0.30
     Davidson diagonalization with overlap
     ethr =  1.00E-02,  avg # of iterations = 12.9

     negative rho (up, down):  1.321E+00 0.000E+00
 
     Adding external electric field

     Computed dipole along edir(3) : 
        Dipole               29.6147 Ry au,         75.2731 Debye
        Dipole field          0.0618 Ry au
 
        Potential amp.       -5.7410 Ry
        Total length         46.4675 bohr
 

     total cpu time spent up to now is      265.2 secs

     total energy              =   -1986.63329825 Ry
     Harris-Foulkes estimate   =   -2038.94445850 Ry
     estimated scf accuracy    <     225.94811377 Ry

     iteration #  5     ecut=    36.75 Ry     beta=0.30
     Davidson diagonalization with overlap
     ethr =  1.00E-02,  avg # of iterations = 10.8

     negative rho (up, down):  1.345E+00 0.000E+00
 
     Adding external electric field

     Computed dipole along edir(3) : 
        Dipole               25.8007 Ry au,         65.5787 Debye
        Dipole field          0.0538 Ry au
 
        Potential amp.       -5.0016 Ry
        Total length         46.4675 bohr
 

     total cpu time spent up to now is      298.1 secs

     total energy              =   -1972.68769123 Ry
     Harris-Foulkes estimate   =   -2013.66397443 Ry
     estimated scf accuracy    <     436.23010500 Ry

     iteration #  6     ecut=    36.75 Ry     beta=0.30
     Davidson diagonalization with overlap
     ethr =  1.00E-02,  avg # of iterations =  7.3

     negative rho (up, down):  1.359E+00 0.000E+00
 
     Adding external electric field

     Computed dipole along edir(3) : 
        Dipole               21.3238 Ry au,         54.1998 Debye
        Dipole field          0.0445 Ry au
 
        Potential amp.       -4.1338 Ry
        Total length         46.4675 bohr
 

     total cpu time spent up to now is      324.2 secs

     total energy              =   -1974.31600210 Ry
     Harris-Foulkes estimate   =   -1985.70331171 Ry
     estimated scf accuracy    <      68.25196752 Ry

     iteration #  7     ecut=    36.75 Ry     beta=0.30
     Davidson diagonalization with overlap
     ethr =  1.00E-02,  avg # of iterations =  2.8

     negative rho (up, down):  1.375E+00 0.000E+00
 
     Adding external electric field

     Computed dipole along edir(3) : 
        Dipole               13.8988 Ry au,         35.3272 Debye
        Dipole field          0.0290 Ry au
 
        Potential amp.       -2.6944 Ry
        Total length         46.4675 bohr
 

     total cpu time spent up to now is      341.8 secs

     total energy              =   -1965.45844861 Ry
     Harris-Foulkes estimate   =   -1975.67110341 Ry
     estimated scf accuracy    <      39.91053842 Ry

     iteration #  8     ecut=    36.75 Ry     beta=0.30
     Davidson diagonalization with overlap
     ethr =  1.00E-02,  avg # of iterations =  2.5

     negative rho (up, down):  1.406E+00 0.000E+00
 
     Adding external electric field

     Computed dipole along edir(3) : 
        Dipole                3.1730 Ry au,          8.0649 Debye
        Dipole field          0.0066 Ry au
 
        Potential amp.       -0.6151 Ry
        Total length         46.4675 bohr
 

     total cpu time spent up to now is      359.4 secs

     total energy              =   -1955.73476379 Ry
     Harris-Foulkes estimate   =   -1966.58397276 Ry
     estimated scf accuracy    <      27.56285158 Ry

     iteration #  9     ecut=    36.75 Ry     beta=0.30
     Davidson diagonalization with overlap
     ethr =  1.00E-02,  avg # of iterations =  5.0

     negative rho (up, down):  1.410E+00 0.000E+00
 
     Adding external electric field

     Computed dipole along edir(3) : 
        Dipole                2.3053 Ry au,          5.8594 Debye
        Dipole field          0.0048 Ry au
 
        Potential amp.       -0.4469 Ry
        Total length         46.4675 bohr
 

     total cpu time spent up to now is      384.4 secs

     total energy              =   -1973.66150809 Ry
     Harris-Foulkes estimate   =   -1970.27871413 Ry
     estimated scf accuracy    <     355.51618444 Ry

     iteration # 10     ecut=    36.75 Ry     beta=0.30
     Davidson diagonalization with overlap
     ethr =  1.00E-02,  avg # of iterations =  3.1

     negative rho (up, down):  1.410E+00 0.000E+00
 
     Adding external electric field

     Computed dipole along edir(3) : 
        Dipole                2.2588 Ry au,          5.7414 Debye
        Dipole field          0.0047 Ry au
 
        Potential amp.       -0.4379 Ry
        Total length         46.4675 bohr
 

     total cpu time spent up to now is      402.2 secs

     total energy              =   -1973.66034605 Ry
     Harris-Foulkes estimate   =   -1973.98918174 Ry
     estimated scf accuracy    <     463.64698109 Ry

     iteration # 11     ecut=    36.75 Ry     beta=0.30
     Davidson diagonalization with overlap
     ethr =  1.00E-02,  avg # of iterations =  1.0

     negative rho (up, down):  1.405E+00 0.000E+00
 
     Adding external electric field

     Computed dipole along edir(3) : 
        Dipole                3.5421 Ry au,          9.0031 Debye
        Dipole field          0.0074 Ry au
 
        Potential amp.       -0.6867 Ry
        Total length         46.4675 bohr
 

     total cpu time spent up to now is      419.2 secs

     total energy              =   -1970.84070285 Ry
     Harris-Foulkes estimate   =   -1973.66901296 Ry
     estimated scf accuracy    <     461.00287646 Ry

     iteration # 12     ecut=    36.75 Ry     beta=0.30
     Davidson diagonalization with overlap
     ethr =  1.00E-02,  avg # of iterations =  1.0

     negative rho (up, down):  3.564E+00 0.000E+00
 
     Adding external electric field

     Computed dipole along edir(3) : 
        Dipole               -7.5791 Ry au,        -19.2642 Debye
        Dipole field         -0.0158 Ry au
 
        Potential amp.        1.4693 Ry
        Total length         46.4675 bohr
 

     total cpu time spent up to now is      435.6 secs

     total energy              =   -1982.62478463 Ry
     Harris-Foulkes estimate   =   -1971.09912616 Ry
     estimated scf accuracy    <     374.04040623 Ry

     iteration # 13     ecut=    36.75 Ry     beta=0.30
     Davidson diagonalization with overlap
     ethr =  1.00E-02,  avg # of iterations =  8.7

     negative rho (up, down):  2.375E+00 0.000E+00
 
     Adding external electric field

     Computed dipole along edir(3) : 
        Dipole                1.3122 Ry au,          3.3354 Debye
        Dipole field          0.0027 Ry au
 
        Potential amp.       -0.2544 Ry
        Total length         46.4675 bohr
 

     total cpu time spent up to now is      467.8 secs

     total energy              =   -1930.78683936 Ry
     Harris-Foulkes estimate   =   -2047.07510675 Ry
     estimated scf accuracy    <    2793.56664741 Ry

     iteration # 14     ecut=    36.75 Ry     beta=0.30
     Davidson diagonalization with overlap
     ethr =  1.00E-02,  avg # of iterations = 10.4

     negative rho (up, down):  2.425E+00 0.000E+00
 
     Adding external electric field

     Computed dipole along edir(3) : 
        Dipole                2.5481 Ry au,          6.4767 Debye
        Dipole field          0.0053 Ry au
 
        Potential amp.       -0.4940 Ry
        Total length         46.4675 bohr
 

     total cpu time spent up to now is      501.7 secs

     total energy              =   -1960.75212439 Ry
     Harris-Foulkes estimate   =   -1965.51337073 Ry
     estimated scf accuracy    <     185.64424394 Ry

     iteration # 15     ecut=    36.75 Ry     beta=0.30
     Davidson diagonalization with overlap
     ethr =  1.00E-02,  avg # of iterations =  4.8

     negative rho (up, down):  2.283E+00 0.000E+00
 
     Adding external electric field

     Computed dipole along edir(3) : 
        Dipole                3.2291 Ry au,          8.2075 Debye
        Dipole field          0.0067 Ry au
 
        Potential amp.       -0.6260 Ry
        Total length         46.4675 bohr
 

     total cpu time spent up to now is      521.9 secs

     total energy              =   -1961.73984920 Ry
     Harris-Foulkes estimate   =   -1962.32923330 Ry
     estimated scf accuracy    <      22.62186050 Ry

     iteration # 16     ecut=    36.75 Ry     beta=0.30
     Davidson diagonalization with overlap
     ethr =  1.00E-02,  avg # of iterations =  1.1

     negative rho (up, down):  2.427E+00 0.000E+00
 
     Adding external electric field

     Computed dipole along edir(3) : 
        Dipole                3.9253 Ry au,          9.9771 Debye
        Dipole field          0.0082 Ry au
 
        Potential amp.       -0.7609 Ry
        Total length         46.4675 bohr
 

     total cpu time spent up to now is      538.5 secs

     total energy              =   -1961.34244704 Ry
     Harris-Foulkes estimate   =   -1961.89310221 Ry
     estimated scf accuracy    <      18.21774178 Ry

     iteration # 17     ecut=    36.75 Ry     beta=0.30
     Davidson diagonalization with overlap
     ethr =  1.00E-02,  avg # of iterations =  1.0

     negative rho (up, down):  3.122E+00 0.000E+00
 
     Adding external electric field

     Computed dipole along edir(3) : 
        Dipole                2.7687 Ry au,          7.0374 Debye
        Dipole field          0.0058 Ry au
 
        Potential amp.       -0.5367 Ry
        Total length         46.4675 bohr
 

     total cpu time spent up to now is      555.0 secs

     total energy              =   -1961.45486354 Ry
     Harris-Foulkes estimate   =   -1961.48644093 Ry
     estimated scf accuracy    <      16.92412940 Ry

     iteration # 18     ecut=    36.75 Ry     beta=0.30
     Davidson diagonalization with overlap
     ethr =  1.00E-02,  avg # of iterations =  2.7

     negative rho (up, down):  3.057E+00 0.000E+00
 
     Adding external electric field

     Computed dipole along edir(3) : 
        Dipole                3.2273 Ry au,          8.2031 Debye
        Dipole field          0.0067 Ry au
 
        Potential amp.       -0.6256 Ry
        Total length         46.4675 bohr
 

     total cpu time spent up to now is      573.2 secs

     total energy              =   -1961.43449604 Ry
     Harris-Foulkes estimate   =   -1962.20798623 Ry
     estimated scf accuracy    <      19.44429920 Ry

     iteration # 19     ecut=    36.75 Ry     beta=0.30
     Davidson diagonalization with overlap
     ethr =  1.00E-02,  avg # of iterations =  2.5

     negative rho (up, down):  2.448E+00 0.000E+00
 
     Adding external electric field

     Computed dipole along edir(3) : 
        Dipole                4.5895 Ry au,         11.6653 Debye
        Dipole field          0.0096 Ry au
 
        Potential amp.       -0.8897 Ry
        Total length         46.4675 bohr
 

     total cpu time spent up to now is      590.5 secs

     total energy              =   -1960.36495550 Ry
     Harris-Foulkes estimate   =   -1961.68820422 Ry
     estimated scf accuracy    <       7.04946753 Ry

     iteration # 20     ecut=    36.75 Ry     beta=0.30
     Davidson diagonalization with overlap
     ethr =  4.67E-03,  avg # of iterations =  5.0

     negative rho (up, down):  2.254E+00 0.000E+00
 
     Adding external electric field

     Computed dipole along edir(3) : 
        Dipole                5.0621 Ry au,         12.8666 Debye
        Dipole field          0.0106 Ry au
 
        Potential amp.       -0.9813 Ry
        Total length         46.4675 bohr
 

     total cpu time spent up to now is      610.2 secs

     total energy              =   -1960.87113698 Ry
     Harris-Foulkes estimate   =   -1960.97173874 Ry
     estimated scf accuracy    <       1.05463677 Ry

     iteration # 21     ecut=    36.75 Ry     beta=0.30
     Davidson diagonalization with overlap
     ethr =  6.98E-04,  avg # of iterations =  6.0

     negative rho (up, down):  2.168E+00 0.000E+00
 
     Adding external electric field

     Computed dipole along edir(3) : 
        Dipole                5.0191 Ry au,         12.7572 Debye
        Dipole field          0.0105 Ry au
 
        Potential amp.       -0.9730 Ry
        Total length         46.4675 bohr
 

     total cpu time spent up to now is      632.9 secs

     total energy              =   -1960.96697965 Ry
     Harris-Foulkes estimate   =   -1961.11512142 Ry
     estimated scf accuracy    <      12.77552972 Ry

     iteration # 22     ecut=    36.75 Ry     beta=0.30
     Davidson diagonalization with overlap
     ethr =  6.98E-04,  avg # of iterations =  1.1

     negative rho (up, down):  2.031E+00 0.000E+00
 
     Adding external electric field

     Computed dipole along edir(3) : 
        Dipole                5.2340 Ry au,         13.3035 Debye
        Dipole field          0.0109 Ry au
 
        Potential amp.       -1.0146 Ry
        Total length         46.4675 bohr
 

     total cpu time spent up to now is      649.4 secs

     total energy              =   -1960.83375344 Ry
     Harris-Foulkes estimate   =   -1960.98037711 Ry
     estimated scf accuracy    <       7.09406674 Ry

     iteration # 23     ecut=    36.75 Ry     beta=0.30
     Davidson diagonalization with overlap
     ethr =  6.98E-04,  avg # of iterations =  2.6

     negative rho (up, down):  1.874E+00 0.000E+00
 
     Adding external electric field

     Computed dipole along edir(3) : 
        Dipole                5.6062 Ry au,         14.2496 Debye
        Dipole field          0.0117 Ry au
 
        Potential amp.       -1.0868 Ry
        Total length         46.4675 bohr
 

     total cpu time spent up to now is      667.0 secs

     total energy              =   -1960.80561630 Ry
     Harris-Foulkes estimate   =   -1960.86677781 Ry
     estimated scf accuracy    <       1.46103431 Ry

     iteration # 24     ecut=    36.75 Ry     beta=0.30
     Davidson diagonalization with overlap
     ethr =  6.98E-04,  avg # of iterations =  3.0

     negative rho (up, down):  1.410E+00 0.000E+00
 
     Adding external electric field

     Computed dipole along edir(3) : 
        Dipole                5.6336 Ry au,         14.3193 Debye
        Dipole field          0.0118 Ry au
 
        Potential amp.       -1.0921 Ry
        Total length         46.4675 bohr
 

     total cpu time spent up to now is      684.6 secs

     total energy              =   -1960.73060330 Ry
     Harris-Foulkes estimate   =   -1960.83955474 Ry
     estimated scf accuracy    <       0.51150100 Ry

     iteration # 25     ecut=    36.75 Ry     beta=0.30
     Davidson diagonalization with overlap
     ethr =  3.39E-04,  avg # of iterations =  4.1

     negative rho (up, down):  1.426E+00 0.000E+00
 
     Adding external electric field

     Computed dipole along edir(3) : 
        Dipole                4.3049 Ry au,         10.9420 Debye
        Dipole field          0.0090 Ry au
 
        Potential amp.       -0.8345 Ry
        Total length         46.4675 bohr
 

     total cpu time spent up to now is      704.4 secs

     total energy              =   -1960.61309296 Ry
     Harris-Foulkes estimate   =   -1960.84295039 Ry
     estimated scf accuracy    <       2.09479836 Ry

     iteration # 26     ecut=    36.75 Ry     beta=0.30
     Davidson diagonalization with overlap
     ethr =  3.39E-04,  avg # of iterations =  4.6

     negative rho (up, down):  1.423E+00 0.000E+00
 
     Adding external electric field

     Computed dipole along edir(3) : 
        Dipole                3.0405 Ry au,          7.7281 Debye
        Dipole field          0.0063 Ry au
 
        Potential amp.       -0.5894 Ry
        Total length         46.4675 bohr
 

     total cpu time spent up to now is      723.9 secs

     total energy              =   -1960.57464017 Ry
     Harris-Foulkes estimate   =   -1960.69754268 Ry
     estimated scf accuracy    <       0.76927780 Ry

     iteration # 27     ecut=    36.75 Ry     beta=0.30
     Davidson diagonalization with overlap
     ethr =  3.39E-04,  avg # of iterations =  4.2

     negative rho (up, down):  1.416E+00 0.000E+00
 
     Adding external electric field

     Computed dipole along edir(3) : 
        Dipole                2.5449 Ry au,          6.4685 Debye
        Dipole field          0.0053 Ry au
 
        Potential amp.       -0.4933 Ry
        Total length         46.4675 bohr
 

     total cpu time spent up to now is      743.0 secs

     total energy              =   -1960.53893875 Ry
     Harris-Foulkes estimate   =   -1960.62230613 Ry
     estimated scf accuracy    <       2.34027237 Ry

     iteration # 28     ecut=    36.75 Ry     beta=0.30
     Davidson diagonalization with overlap
     ethr =  3.39E-04,  avg # of iterations =  1.1

     negative rho (up, down):  1.404E+00 0.000E+00
 
     Adding external electric field

     Computed dipole along edir(3) : 
        Dipole                1.6581 Ry au,          4.2144 Debye
        Dipole field          0.0035 Ry au
 
        Potential amp.       -0.3214 Ry
        Total length         46.4675 bohr
 

     total cpu time spent up to now is      759.4 secs

     total energy              =   -1960.47419091 Ry
     Harris-Foulkes estimate   =   -1960.55897013 Ry
     estimated scf accuracy    <       0.79740813 Ry

     iteration # 29     ecut=    36.75 Ry     beta=0.30
     Davidson diagonalization with overlap
     ethr =  3.39E-04,  avg # of iterations =  3.6

     negative rho (up, down):  1.404E+00 0.000E+00
 
     Adding external electric field

     Computed dipole along edir(3) : 
        Dipole                1.4615 Ry au,          3.7148 Debye
        Dipole field          0.0030 Ry au
 
        Potential amp.       -0.2833 Ry
        Total length         46.4675 bohr
 

     total cpu time spent up to now is      778.2 secs

     total energy              =   -1960.49084710 Ry
     Harris-Foulkes estimate   =   -1960.50209624 Ry
     estimated scf accuracy    <       0.10677876 Ry

     iteration # 30     ecut=    36.75 Ry     beta=0.30
     Davidson diagonalization with overlap
     ethr =  7.07E-05,  avg # of iterations =  3.4

     negative rho (up, down):  1.393E+00 0.000E+00
 
     Adding external electric field

     Computed dipole along edir(3) : 
        Dipole                0.6046 Ry au,          1.5366 Debye
        Dipole field          0.0013 Ry au
 
        Potential amp.       -0.1172 Ry
        Total length         46.4675 bohr
 

     total cpu time spent up to now is      796.1 secs

     total energy              =   -1960.47711816 Ry
     Harris-Foulkes estimate   =   -1960.49748033 Ry
     estimated scf accuracy    <       0.06900573 Ry

     iteration # 31     ecut=    36.75 Ry     beta=0.30
     Davidson diagonalization with overlap
     ethr =  4.57E-05,  avg # of iterations =  5.9

     negative rho (up, down):  1.383E+00 0.000E+00
 
     Adding external electric field

     Computed dipole along edir(3) : 
        Dipole                0.4970 Ry au,          1.2633 Debye
        Dipole field          0.0010 Ry au
 
        Potential amp.       -0.0963 Ry
        Total length         46.4675 bohr
 

     total cpu time spent up to now is      818.0 secs

     total energy              =   -1960.48289922 Ry
     Harris-Foulkes estimate   =   -1960.49025999 Ry
     estimated scf accuracy    <       0.11731211 Ry

     iteration # 32     ecut=    36.75 Ry     beta=0.30
     Davidson diagonalization with overlap
     ethr =  4.57E-05,  avg # of iterations =  2.6

     negative rho (up, down):  1.382E+00 0.000E+00
 
     Adding external electric field

     Computed dipole along edir(3) : 
        Dipole                0.3751 Ry au,          0.9534 Debye
        Dipole field          0.0008 Ry au
 
        Potential amp.       -0.0727 Ry
        Total length         46.4675 bohr
 

     total cpu time spent up to now is      835.6 secs

     total energy              =   -1960.48638081 Ry
     Harris-Foulkes estimate   =   -1960.48746514 Ry
     estimated scf accuracy    <       0.01588156 Ry

     iteration # 33     ecut=    36.75 Ry     beta=0.30
     Davidson diagonalization with overlap
     ethr =  1.05E-05,  avg # of iterations =  4.5

     negative rho (up, down):  1.380E+00 0.000E+00
 
     Adding external electric field

     Computed dipole along edir(3) : 
        Dipole                0.3658 Ry au,          0.9297 Debye
        Dipole field          0.0008 Ry au
 
        Potential amp.       -0.0709 Ry
        Total length         46.4675 bohr
 

     total cpu time spent up to now is      854.2 secs

     total energy              =   -1960.48727724 Ry
     Harris-Foulkes estimate   =   -1960.48739900 Ry
     estimated scf accuracy    <       0.00762093 Ry

     iteration # 34     ecut=    36.75 Ry     beta=0.30
     Davidson diagonalization with overlap
     ethr =  5.05E-06,  avg # of iterations =  3.1

     negative rho (up, down):  1.380E+00 0.000E+00
 
     Adding external electric field

     Computed dipole along edir(3) : 
        Dipole                0.3647 Ry au,          0.9269 Debye
        Dipole field          0.0008 Ry au
 
        Potential amp.       -0.0707 Ry
        Total length         46.4675 bohr
 

     total cpu time spent up to now is      872.1 secs

     total energy              =   -1960.48745265 Ry
     Harris-Foulkes estimate   =   -1960.48744647 Ry
     estimated scf accuracy    <       0.00085433 Ry

     iteration # 35     ecut=    36.75 Ry     beta=0.30
     Davidson diagonalization with overlap
     ethr =  5.66E-07,  avg # of iterations =  9.2

     negative rho (up, down):  1.379E+00 0.000E+00
 
     Adding external electric field

     Computed dipole along edir(3) : 
        Dipole                0.3659 Ry au,          0.9301 Debye
        Dipole field          0.0008 Ry au
 
        Potential amp.       -0.0709 Ry
        Total length         46.4675 bohr
 

     total cpu time spent up to now is      897.6 secs

     total energy              =   -1960.48755478 Ry
     Harris-Foulkes estimate   =   -1960.48758798 Ry
     estimated scf accuracy    <       0.00062207 Ry

     iteration # 36     ecut=    36.75 Ry     beta=0.30
     Davidson diagonalization with overlap
     ethr =  4.12E-07,  avg # of iterations =  1.4

     negative rho (up, down):  1.379E+00 0.000E+00
 
     Adding external electric field

     Computed dipole along edir(3) : 
        Dipole                0.3629 Ry au,          0.9224 Debye
        Dipole field          0.0008 Ry au
 
        Potential amp.       -0.0704 Ry
        Total length         46.4675 bohr
 

     total cpu time spent up to now is      914.2 secs

     total energy              =   -1960.48754462 Ry
     Harris-Foulkes estimate   =   -1960.48757220 Ry
     estimated scf accuracy    <       0.00017835 Ry

     iteration # 37     ecut=    36.75 Ry     beta=0.30
     Davidson diagonalization with overlap
     ethr =  1.18E-07,  avg # of iterations =  4.3

     negative rho (up, down):  1.379E+00 0.000E+00
 
     Adding external electric field

     Computed dipole along edir(3) : 
        Dipole                0.3658 Ry au,          0.9299 Debye
        Dipole field          0.0008 Ry au
 
        Potential amp.       -0.0709 Ry
        Total length         46.4675 bohr
 

     total cpu time spent up to now is      935.5 secs

     total energy              =   -1960.48756817 Ry
     Harris-Foulkes estimate   =   -1960.48757227 Ry
     estimated scf accuracy    <       0.00029490 Ry

     iteration # 38     ecut=    36.75 Ry     beta=0.30
     Davidson diagonalization with overlap
     ethr =  1.18E-07,  avg # of iterations =  1.4

     negative rho (up, down):  1.379E+00 0.000E+00
 
     Adding external electric field

     Computed dipole along edir(3) : 
        Dipole                0.3669 Ry au,          0.9325 Debye
        Dipole field          0.0008 Ry au
 
        Potential amp.       -0.0711 Ry
        Total length         46.4675 bohr
 

     total cpu time spent up to now is      952.2 secs

     total energy              =   -1960.48756658 Ry
     Harris-Foulkes estimate   =   -1960.48756918 Ry
     estimated scf accuracy    <       0.00009924 Ry

     iteration # 39     ecut=    36.75 Ry     beta=0.30
     Davidson diagonalization with overlap
     ethr =  6.57E-08,  avg # of iterations =  2.6

     negative rho (up, down):  1.379E+00 0.000E+00
 
     Adding external electric field

     Computed dipole along edir(3) : 
        Dipole                0.3681 Ry au,          0.9355 Debye
        Dipole field          0.0008 Ry au
 
        Potential amp.       -0.0714 Ry
        Total length         46.4675 bohr
 

     total cpu time spent up to now is      969.6 secs

     total energy              =   -1960.48756883 Ry
     Harris-Foulkes estimate   =   -1960.48756733 Ry
     estimated scf accuracy    <       0.00001801 Ry

     iteration # 40     ecut=    36.75 Ry     beta=0.30
     Davidson diagonalization with overlap
     ethr =  1.19E-08,  avg # of iterations =  5.4

     negative rho (up, down):  1.379E+00 0.000E+00

     negative rho (up, down):  1.379E+00 0.000E+00

     negative rho (up, down):  1.379E+00 0.000E+00

     negative rho (up, down):  1.379E+00 0.000E+00

     negative rho (up, down):  1.379E+00 0.000E+00

     negative rho (up, down):  1.379E+00 0.000E+00

     negative rho (up, down):  1.379E+00 0.000E+00

     negative rho (up, down):  1.379E+00 0.000E+00

     negative rho (up, down):  1.379E+00 0.000E+00

     negative rho (up, down):  1.379E+00 0.000E+00

     negative rho (up, down):  1.379E+00 0.000E+00

     negative rho (up, down):  1.379E+00 0.000E+00

     negative rho (up, down):  1.379E+00 0.000E+00

     negative rho (up, down):  1.379E+00 0.000E+00

     negative rho (up, down):  1.379E+00 0.000E+00

     negative rho (up, down):  1.379E+00 0.000E+00

     negative rho (up, down):  1.379E+00 0.000E+00

     negative rho (up, down):  1.379E+00 0.000E+00

     negative rho (up, down):  1.379E+00 0.000E+00

     negative rho (up, down):  1.379E+00 0.000E+00

     negative rho (up, down):  1.379E+00 0.000E+00

     negative rho (up, down):  1.379E+00 0.000E+00

     negative rho (up, down):  1.379E+00 0.000E+00

     negative rho (up, down):  1.379E+00 0.000E+00

     negative rho (up, down):  1.379E+00 0.000E+00

     negative rho (up, down):  1.379E+00 0.000E+00

     negative rho (up, down):  1.379E+00 0.000E+00

     negative rho (up, down):  1.379E+00 0.000E+00

     negative rho (up, down):  1.379E+00 0.000E+00

     negative rho (up, down):  1.379E+00 0.000E+00

     negative rho (up, down):  1.379E+00 0.000E+00

     negative rho (up, down):  1.379E+00 0.000E+00

     negative rho (up, down):  1.379E+00 0.000E+00

     negative rho (up, down):  1.379E+00 0.000E+00

     negative rho (up, down):  1.379E+00 0.000E+00
 
     Adding external electric field

     Computed dipole along edir(3) : 
        Dipole                0.3746 Ry au,          0.9521 Debye
        Dipole field          0.0008 Ry au
 
        Potential amp.       -0.0726 Ry
        Total length         46.4675 bohr
 

     total cpu time spent up to now is     1012.2 secs

     End of self-consistent calculation

          k = 0.0000 0.0000 0.0000 ( 22729 PWs)   bands (ev):

   -60.9080 -60.8793 -60.8785 -60.8415 -60.8332 -60.8034 -60.7949 -60.7937
   -60.4213 -60.3920 -60.3835 -60.3826 -29.6727 -29.6723 -29.6160 -29.5893
   -29.5806 -29.5800 -29.5733 -29.4955 -29.4896 -29.4890 -29.4484 -29.3772
   -29.3648 -29.3639 -29.2831 -29.2221 -29.2220 -29.1715 -29.1711 -29.1684
   -29.1249 -29.1237 -29.1232 -29.1066 -29.1063 -29.0425 -29.0424 -28.8838
   -28.8736 -28.8697 -28.8690 -28.7821 -28.7818 -28.7745 -28.6574 -28.6573
   -18.3614  -6.5485  -4.6752  -3.4027  -2.2176  -2.2176  -2.1343  -1.2366
    -1.2365  -1.2087  -0.9602  -0.9602  -0.9576  -0.6099  -0.6099  -0.5500
     0.0915   0.1035   0.1035   0.8169   0.9559   0.9561   1.7832   1.8962
     2.0985   2.1233   2.2233   2.2234   2.3859   2.3860   2.4118   2.6717
     2.8704   2.9685   2.9687   3.0366   3.0368

          k = 0.0000 0.0301 0.0000 ( 22708 PWs)   bands (ev):

   -60.9060 -60.8802 -60.8792 -60.8420 -60.8311 -60.8043 -60.7950 -60.7948
   -60.4192 -60.3927 -60.3849 -60.3826 -29.6530 -29.6451 -29.5916 -29.5803
   -29.5611 -29.5575 -29.5441 -29.4934 -29.4869 -29.4856 -29.4438 -29.3803
   -29.3671 -29.3651 -29.2967 -29.2434 -29.2214 -29.1930 -29.1914 -29.1618
   -29.1443 -29.1155 -29.1097 -29.1088 -29.0998 -29.0814 -29.0509 -28.8788
   -28.8718 -28.8685 -28.8674 -28.8017 -28.7964 -28.7710 -28.6925 -28.6654
   -18.3614  -6.5435  -4.4784  -3.2088  -2.2264  -2.2162  -1.9034  -1.4909
    -1.1471  -1.1303  -1.0294  -0.8491  -0.8313  -0.4329  -0.3648  -0.3397
     0.1987   0.2123   0.2166   0.8623   0.9878   0.9894   1.7643   1.8474
     1.9181   2.0053   2.0900   2.1594   2.2923   2.3939   2.4506   2.6309
     2.6827   2.7399   2.7441   2.8245   2.9138

          k = 0.0000 0.0602 0.0000 ( 22648 PWs)   bands (ev):

   -60.9007 -60.8845 -60.8792 -60.8429 -60.8254 -60.8078 -60.7971 -60.7949
   -60.4137 -60.3957 -60.3873 -60.3826 -29.6054 -29.5830 -29.5575 -29.5227
   -29.5149 -29.5101 -29.4955 -29.4798 -29.4775 -29.4499 -29.4323 -29.3901
   -29.3710 -29.3686 -29.3375 -29.2958 -29.2451 -29.2426 -29.2421 -29.2071
   -29.1832 -29.1388 -29.1357 -29.0745 -29.0737 -29.0727 -29.0257 -28.8728
   -28.8684 -28.8662 -28.8658 -28.8488 -28.8405 -28.7871 -28.7490 -28.6878
   -18.3613  -6.5345  -3.9181  -2.6965  -2.2178  -2.2136  -2.1626  -1.3140
    -1.2591  -0.9579  -0.9299  -0.5108  -0.4819  -0.2567   0.2220   0.2353
     0.4925   0.5245   0.5273   0.9508   1.0454   1.1158   1.4589   1.5942
     1.6836   1.7003   1.7771   1.8810   1.9181   2.0807   2.1075   2.2487
     2.3062   2.3566   2.4328   2.4844   2.5632

          k = 0.0000-0.0903 0.0000 ( 22668 PWs)   bands (ev):

   -60.8963 -60.8885 -60.8792 -60.8433 -60.8205 -60.8120 -60.7978 -60.7949
   -60.4091 -60.3995 -60.3881 -60.3826 -29.5727 -29.5462 -29.5299 -29.5269
   -29.4839 -29.4801 -29.4756 -29.4732 -29.4247 -29.4204 -29.3891 -29.3846
   -29.3745 -29.3662 -29.3543 -29.3192 -29.3167 -29.3134 -29.2789 -29.2765
   -29.1913 -29.1537 -29.1086 -29.1046 -29.0483 -29.0456 -28.9167 -28.9069
   -28.8835 -28.8789 -28.8686 -28.8659 -28.8641 -28.8572 -28.7206 -28.7165
   -18.3612  -6.5305  -3.1252  -3.0647  -2.3493  -2.2123  -1.8605  -1.7810
    -0.8497  -0.8252  -0.6166  -0.5394  -0.2617  -0.2214   0.6850   0.6902
     0.7876   0.7990   0.9186   0.9643   1.0894   1.2329   1.2756   1.2834
     1.3937   1.4219   1.4932   1.6736   1.7231   1.7393   1.7741   1.9122
     1.9538   2.0082   2.1358   2.1836   2.6713

          k = 0.0261-0.0151 0.0000 ( 22708 PWs)   bands (ev):

   -60.9059 -60.8808 -60.8786 -60.8420 -60.8311 -60.8041 -60.7961 -60.7939
   -60.4191 -60.3928 -60.3841 -60.3834 -29.6534 -29.6447 -29.5916 -29.5803
   -29.5615 -29.5570 -29.5442 -29.4932 -29.4876 -29.4850 -29.4439 -29.3801
   -29.3680 -29.3644 -29.2966 -29.2435 -29.2214 -29.1934 -29.1910 -29.1619
   -29.1445 -29.1153 -29.1101 -29.1084 -29.0998 -29.0814 -29.0509 -28.8787
   -28.8720 -28.8681 -28.8676 -28.8014 -28.7968 -28.7709 -28.6925 -28.6654
   -18.3614  -6.5435  -4.4784  -3.2088  -2.2263  -2.2162  -1.9034  -1.4909
    -1.1472  -1.1302  -1.0294  -0.8491  -0.8313  -0.4329  -0.3648  -0.3397
     0.1987   0.2123   0.2166   0.8623   0.9879   0.9892   1.7643   1.8474
     1.9180   2.0052   2.0901   2.1595   2.2923   2.3939   2.4505   2.6310
     2.6827   2.7398   2.7442   2.8245   2.9139

          k = 0.0261 0.0151 0.0000 ( 22708 PWs)   bands (ev):

   -60.9060 -60.8805 -60.8788 -60.8420 -60.8311 -60.8041 -60.7962 -60.7939
   -60.4191 -60.3928 -60.3845 -60.3830 -29.6532 -29.6449 -29.5916 -29.5803
   -29.5616 -29.5570 -29.5442 -29.4933 -29.4872 -29.4853 -29.4439 -29.3801
   -29.3680 -29.3644 -29.2967 -29.2435 -29.2214 -29.1934 -29.1909 -29.1619
   -29.1444 -29.1154 -29.1100 -29.1085 -29.0998 -29.0814 -29.0509 -28.8787
   -28.8719 -28.8683 -28.8675 -28.8016 -28.7966 -28.7710 -28.6925 -28.6654
   -18.3614  -6.5435  -4.4784  -3.2088  -2.2264  -2.2162  -1.9034  -1.4909
    -1.1471  -1.1303  -1.0294  -0.8491  -0.8313  -0.4329  -0.3648  -0.3397
     0.1987   0.2123   0.2166   0.8623   0.9879   0.9892   1.7643   1.8474
     1.9180   2.0053   2.0901   2.1595   2.2923   2.3939   2.4505   2.6309
     2.6827   2.7397   2.7442   2.8245   2.9140

          k = 0.0261 0.0452 0.0000 ( 22675 PWs)   bands (ev):

   -60.9023 -60.8829 -60.8795 -60.8427 -60.8272 -60.8059 -60.7984 -60.7937
   -60.4153 -60.3942 -60.3877 -60.3822 -29.6197 -29.5943 -29.5646 -29.5465
   -29.5338 -29.5053 -29.4998 -29.4885 -29.4844 -29.4767 -29.4359 -29.3857
   -29.3747 -29.3647 -29.3372 -29.2583 -29.2559 -29.2265 -29.2095 -29.1743
   -29.1731 -29.1495 -29.1318 -29.0910 -29.0693 -29.0639 -29.0626 -28.8737
   -28.8691 -28.8674 -28.8653 -28.8585 -28.7829 -28.7793 -28.7554 -28.6828
   -18.3613  -6.5367  -4.0986  -2.8501  -2.2216  -2.2025  -1.6713  -1.6483
    -1.4871  -0.9826  -0.9415  -0.6301  -0.4505  -0.1443  -0.1113   0.0723
     0.3994   0.4071   0.4437   0.9396   1.0411   1.0512   1.6309   1.6845
     1.7073   1.8115   1.8177   1.9655   2.0064   2.1669   2.2921   2.3917
     2.4308   2.4646   2.4877   2.5866   2.6885

          k = 0.0261-0.1054 0.0000 ( 22643 PWs)   bands (ev):

   -60.8967 -60.8874 -60.8799 -60.8433 -60.8213 -60.8096 -60.8012 -60.7930
   -60.4097 -60.3973 -60.3908 -60.3815 -29.5676 -29.5394 -29.5322 -29.5119
   -29.4899 -29.4864 -29.4673 -29.4556 -29.4478 -29.4245 -29.4132 -29.4033
   -29.3844 -29.3779 -29.3556 -29.3326 -29.3237 -29.2714 -29.2619 -29.2121
   -29.2043 -29.1590 -29.1408 -29.1023 -29.0527 -29.0216 -28.9738 -28.9272
   -28.8708 -28.8668 -28.8651 -28.8635 -28.8580 -28.8081 -28.7502 -28.7140
   -18.3612  -6.5305  -3.3980  -2.5232  -2.3591  -2.2284  -2.0038  -1.6954
    -1.3722  -0.7894  -0.7605  -0.2013  -0.1455   0.0150   0.4499   0.5720
     0.7260   0.7537   0.7611   0.9910   1.1085   1.1818   1.2360   1.3700
     1.4475   1.4978   1.5273   1.5941   1.6664   1.7728   1.8369   1.9971
     2.0116   2.0369   2.1759   2.2685   2.3706

          k = 0.0261-0.0753 0.0000 ( 22643 PWs)   bands (ev):

   -60.8967 -60.8876 -60.8798 -60.8433 -60.8213 -60.8097 -60.8012 -60.7930
   -60.4097 -60.3974 -60.3907 -60.3816 -29.5677 -29.5395 -29.5321 -29.5120
   -29.4899 -29.4864 -29.4673 -29.4556 -29.4477 -29.4245 -29.4131 -29.4033
   -29.3845 -29.3778 -29.3556 -29.3327 -29.3238 -29.2714 -29.2619 -29.2121
   -29.2043 -29.1590 -29.1408 -29.1023 -29.0527 -29.0216 -28.9738 -28.9272
   -28.8708 -28.8669 -28.8651 -28.8635 -28.8580 -28.8081 -28.7502 -28.7140
   -18.3612  -6.5305  -3.3980  -2.5232  -2.3591  -2.2284  -2.0038  -1.6954
    -1.3722  -0.7894  -0.7605  -0.2013  -0.1455   0.0150   0.4499   0.5720
     0.7260   0.7537   0.7611   0.9911   1.1085   1.1818   1.2360   1.3700
     1.4475   1.4978   1.5273   1.5941   1.6664   1.7729   1.8368   1.9971
     2.0116   2.0369   2.1759   2.2685   2.3706

          k = 0.0261-0.0452 0.0000 ( 22675 PWs)   bands (ev):

   -60.9023 -60.8832 -60.8791 -60.8427 -60.8272 -60.8060 -60.7983 -60.7937
   -60.4153 -60.3943 -60.3874 -60.3824 -29.6199 -29.5942 -29.5646 -29.5465
   -29.5338 -29.5052 -29.4999 -29.4884 -29.4846 -29.4766 -29.4359 -29.3858
   -29.3746 -29.3647 -29.3371 -29.2583 -29.2560 -29.2265 -29.2096 -29.1743
   -29.1730 -29.1495 -29.1317 -29.0910 -29.0693 -29.0638 -29.0627 -28.8737
   -28.8692 -28.8672 -28.8654 -28.8585 -28.7830 -28.7792 -28.7554 -28.6828
   -18.3613  -6.5367  -4.0986  -2.8501  -2.2216  -2.2025  -1.6713  -1.6483
    -1.4871  -0.9826  -0.9414  -0.6301  -0.4505  -0.1443  -0.1113   0.0723
     0.3994   0.4071   0.4437   0.9396   1.0411   1.0512   1.6310   1.6844
     1.7073   1.8116   1.8177   1.9655   2.0064   2.1669   2.2921   2.3917
     2.4307   2.4646   2.4877   2.5866   2.6884

          k = 0.0521-0.0301 0.0000 ( 22648 PWs)   bands (ev):

   -60.9006 -60.8852 -60.8786 -60.8429 -60.8255 -60.8073 -60.7984 -60.7940
   -60.4136 -60.3962 -60.3861 -60.3834 -29.6059 -29.5825 -29.5575 -29.5226
   -29.5155 -29.5096 -29.4954 -29.4805 -29.4770 -29.4499 -29.4324 -29.3897
   -29.3720 -29.3680 -29.3371 -29.2959 -29.2456 -29.2425 -29.2421 -29.2073
   -29.1833 -29.1388 -29.1354 -29.0745 -29.0732 -29.0732 -29.0257 -28.8727
   -28.8688 -28.8667 -28.8649 -28.8484 -28.8410 -28.7870 -28.7490 -28.6878
   -18.3613  -6.5345  -3.9180  -2.6965  -2.2179  -2.2136  -2.1626  -1.3140
    -1.2590  -0.9580  -0.9298  -0.5107  -0.4820  -0.2567   0.2221   0.2353
     0.4925   0.5246   0.5273   0.9510   1.0452   1.1158   1.4589   1.5941
     1.6836   1.7003   1.7771   1.8811   1.9182   2.0808   2.1074   2.2488
     2.3062   2.3566   2.4327   2.4844   2.5632

          k = 0.0521 0.0000 0.0000 ( 22675 PWs)   bands (ev):

   -60.9022 -60.8835 -60.8789 -60.8427 -60.8272 -60.8055 -60.7992 -60.7933
   -60.4153 -60.3946 -60.3869 -60.3826 -29.6200 -29.5941 -29.5646 -29.5464
   -29.5339 -29.5050 -29.5000 -29.4882 -29.4849 -29.4765 -29.4359 -29.3853
   -29.3753 -29.3644 -29.3370 -29.2583 -29.2561 -29.2265 -29.2097 -29.1741
   -29.1733 -29.1494 -29.1316 -29.0910 -29.0693 -29.0636 -29.0629 -28.8737
   -28.8693 -28.8669 -28.8657 -28.8584 -28.7831 -28.7791 -28.7554 -28.6828
   -18.3613  -6.5367  -4.0986  -2.8501  -2.2216  -2.2025  -1.6713  -1.6484
    -1.4871  -0.9826  -0.9414  -0.6301  -0.4505  -0.1443  -0.1114   0.0723
     0.3994   0.4071   0.4437   0.9397   1.0412   1.0511   1.6310   1.6844
     1.7072   1.8117   1.8175   1.9655   2.0065   2.1669   2.2921   2.3916
     2.4308   2.4646   2.4879   2.5865   2.6884

          k = 0.0521 0.0301 0.0000 ( 22648 PWs)   bands (ev):

   -60.9007 -60.8848 -60.8789 -60.8429 -60.8255 -60.8073 -60.7985 -60.7939
   -60.4136 -60.3960 -60.3866 -60.3831 -29.6056 -29.5828 -29.5575 -29.5226
   -29.5155 -29.5095 -29.4954 -29.4802 -29.4773 -29.4500 -29.4324 -29.3897
   -29.3721 -29.3680 -29.3373 -29.2958 -29.2457 -29.2423 -29.2420 -29.2072
   -29.1833 -29.1388 -29.1356 -29.0745 -29.0734 -29.0730 -29.0257 -28.8728
   -28.8687 -28.8664 -28.8653 -28.8486 -28.8408 -28.7870 -28.7490 -28.6878
   -18.3613  -6.5345  -3.9181  -2.6965  -2.2179  -2.2136  -2.1626  -1.3140
    -1.2591  -0.9580  -0.9298  -0.5108  -0.4819  -0.2567   0.2221   0.2353
     0.4925   0.5246   0.5273   0.9510   1.0452   1.1158   1.4589   1.5941
     1.6835   1.7003   1.7771   1.8812   1.9181   2.0807   2.1075   2.2487
     2.3062   2.3566   2.4327   2.4844   2.5633

          k = 0.0521-0.1204 0.0000 ( 22643 PWs)   bands (ev):

   -60.8966 -60.8877 -60.8797 -60.8433 -60.8214 -60.8091 -60.8019 -60.7928
   -60.4097 -60.3976 -60.3904 -60.3817 -29.5678 -29.5394 -29.5320 -29.5119
   -29.4900 -29.4864 -29.4672 -29.4556 -29.4476 -29.4246 -29.4132 -29.4030
   -29.3846 -29.3780 -29.3555 -29.3327 -29.3236 -29.2715 -29.2618 -29.2122
   -29.2043 -29.1589 -29.1409 -29.1022 -29.0527 -29.0216 -28.9738 -28.9271
   -28.8708 -28.8668 -28.8652 -28.8636 -28.8579 -28.8081 -28.7502 -28.7140
   -18.3612  -6.5305  -3.3980  -2.5232  -2.3591  -2.2284  -2.0038  -1.6954
    -1.3722  -0.7894  -0.7604  -0.2012  -0.1455   0.0150   0.4499   0.5720
     0.7260   0.7537   0.7611   0.9911   1.1084   1.1817   1.2361   1.3699
     1.4475   1.4978   1.5273   1.5941   1.6663   1.7728   1.8369   1.9972
     2.0116   2.0369   2.1758   2.2685   2.3706

          k = 0.0521-0.0903 0.0000 ( 22614 PWs)   bands (ev):

   -60.8921 -60.8913 -60.8804 -60.8435 -60.8189 -60.8077 -60.8066 -60.7920
   -60.4071 -60.3962 -60.3953 -60.3808 -29.5211 -29.5145 -29.5132 -29.5060
   -29.4939 -29.4716 -29.4631 -29.4259 -29.4253 -29.4160 -29.4131 -29.3988
   -29.3940 -29.3865 -29.3558 -29.3553 -29.3548 -29.3515 -29.2351 -29.2348
   -29.1823 -29.1530 -29.1524 -29.1487 -29.0049 -28.9984 -28.9481 -28.9476
   -28.9400 -28.8692 -28.8646 -28.8638 -28.8630 -28.7600 -28.7595 -28.7587
   -18.3612  -6.5287  -2.6404  -2.6402  -2.5610  -2.2563  -2.2491  -1.4063
    -1.3940  -1.3567  -0.0524  -0.0012   0.0009   0.2383   0.4318   0.4549
     0.8855   0.8925   0.9980   1.0063   1.0107   1.2000   1.2040   1.2362
     1.2399   1.2477   1.3488   1.6171   1.6590   1.6614   1.6976   1.8212
     1.8227   1.9460   1.9949   2.1675   2.2233

          k = 0.0521-0.0602 0.0000 ( 22643 PWs)   bands (ev):

   -60.8964 -60.8882 -60.8794 -60.8433 -60.8214 -60.8092 -60.8017 -60.7929
   -60.4096 -60.3979 -60.3901 -60.3818 -29.5680 -29.5395 -29.5318 -29.5119
   -29.4901 -29.4864 -29.4672 -29.4556 -29.4476 -29.4245 -29.4130 -29.4031
   -29.3846 -29.3779 -29.3555 -29.3327 -29.3237 -29.2716 -29.2618 -29.2124
   -29.2043 -29.1587 -29.1409 -29.1022 -29.0527 -29.0216 -28.9738 -28.9271
   -28.8707 -28.8669 -28.8651 -28.8638 -28.8578 -28.8081 -28.7502 -28.7140
   -18.3612  -6.5305  -3.3980  -2.5232  -2.3591  -2.2284  -2.0038  -1.6954
    -1.3722  -0.7894  -0.7604  -0.2012  -0.1455   0.0150   0.4500   0.5720
     0.7260   0.7538   0.7611   0.9911   1.1084   1.1817   1.2360   1.3700
     1.4475   1.4978   1.5273   1.5941   1.6664   1.7728   1.8369   1.9972
     2.0116   2.0369   2.1758   2.2685   2.3706

          k =-0.0782 0.0452 0.0000 ( 22668 PWs)   bands (ev):

   -60.8956 -60.8897 -60.8786 -60.8434 -60.8208 -60.8113 -60.7991 -60.7940
   -60.4089 -60.4003 -60.3868 -60.3834 -29.5733 -29.5456 -29.5303 -29.5263
   -29.4845 -29.4797 -29.4760 -29.4727 -29.4250 -29.4199 -29.3885 -29.3841
   -29.3754 -29.3664 -29.3537 -29.3197 -29.3170 -29.3134 -29.2797 -29.2758
   -29.1918 -29.1531 -29.1094 -29.1039 -29.0476 -29.0463 -28.9162 -28.9076
   -28.8828 -28.8796 -28.8683 -28.8666 -28.8629 -28.8578 -28.7198 -28.7172
   -18.3612  -6.5305  -3.1250  -3.0648  -2.3492  -2.2124  -1.8605  -1.7810
    -0.8498  -0.8250  -0.6168  -0.5393  -0.2615  -0.2216   0.6849   0.6903
     0.7874   0.7992   0.9187   0.9642   1.0895   1.2327   1.2754   1.2836
     1.3936   1.4220   1.4933   1.6736   1.7231   1.7390   1.7744   1.9121
     1.9538   2.0081   2.1358   2.1835   2.6714

          k =-0.0782 0.0753 0.0000 ( 22643 PWs)   bands (ev):

   -60.8963 -60.8883 -60.8793 -60.8433 -60.8215 -60.8089 -60.8021 -60.7928
   -60.4095 -60.3981 -60.3899 -60.3818 -29.5681 -29.5395 -29.5318 -29.5119
   -29.4900 -29.4864 -29.4672 -29.4557 -29.4476 -29.4245 -29.4130 -29.4030
   -29.3843 -29.3784 -29.3553 -29.3326 -29.3239 -29.2716 -29.2619 -29.2124
   -29.2043 -29.1586 -29.1409 -29.1022 -29.0527 -29.0216 -28.9738 -28.9272
   -28.8707 -28.8671 -28.8649 -28.8638 -28.8578 -28.8081 -28.7502 -28.7140
   -18.3612  -6.5305  -3.3980  -2.5232  -2.3591  -2.2284  -2.0038  -1.6954
    -1.3722  -0.7894  -0.7605  -0.2012  -0.1455   0.0150   0.4499   0.5720
     0.7260   0.7538   0.7610   0.9911   1.1085   1.1817   1.2360   1.3700
     1.4475   1.4979   1.5272   1.5941   1.6663   1.7729   1.8369   1.9972
     2.0116   2.0368   2.1758   2.2685   2.3706

          k =-0.0782 0.1054 0.0000 ( 22643 PWs)   bands (ev):

   -60.8965 -60.8880 -60.8795 -60.8433 -60.8215 -60.8088 -60.8022 -60.7927
   -60.4096 -60.3979 -60.3901 -60.3817 -29.5679 -29.5395 -29.5319 -29.5120
   -29.4899 -29.4864 -29.4673 -29.4557 -29.4476 -29.4245 -29.4130 -29.4030
   -29.3843 -29.3784 -29.3553 -29.3326 -29.3240 -29.2715 -29.2619 -29.2123
   -29.2043 -29.1588 -29.1409 -29.1022 -29.0527 -29.0216 -28.9738 -28.9272
   -28.8707 -28.8671 -28.8650 -28.8637 -28.8578 -28.8081 -28.7502 -28.7140
   -18.3612  -6.5305  -3.3980  -2.5232  -2.3591  -2.2284  -2.0038  -1.6954
    -1.3722  -0.7894  -0.7605  -0.2013  -0.1455   0.0150   0.4499   0.5720
     0.7260   0.7538   0.7610   0.9911   1.1085   1.1817   1.2360   1.3700
     1.4475   1.4979   1.5272   1.5941   1.6663   1.7729   1.8368   1.9972
     2.0116   2.0369   2.1757   2.2686   2.3706

          k =-0.0782-0.0452 0.0000 ( 22668 PWs)   bands (ev):

   -60.8960 -60.8891 -60.8789 -60.8434 -60.8209 -60.8111 -60.7993 -60.7939
   -60.4090 -60.4000 -60.3874 -60.3831 -29.5730 -29.5459 -29.5301 -29.5266
   -29.4846 -29.4795 -29.4757 -29.4730 -29.4251 -29.4200 -29.3886 -29.3843
   -29.3755 -29.3663 -29.3537 -29.3198 -29.3167 -29.3132 -29.2798 -29.2757
   -29.1915 -29.1534 -29.1095 -29.1037 -29.0479 -29.0460 -28.9164 -28.9073
   -28.8831 -28.8793 -28.8684 -28.8663 -28.8634 -28.8575 -28.7201 -28.7170
   -18.3612  -6.5305  -3.1251  -3.0647  -2.3493  -2.2123  -1.8604  -1.7810
    -0.8498  -0.8251  -0.6167  -0.5394  -0.2616  -0.2215   0.6849   0.6903
     0.7875   0.7992   0.9187   0.9642   1.0895   1.2327   1.2754   1.2836
     1.3936   1.4220   1.4933   1.6736   1.7232   1.7391   1.7743   1.9121
     1.9538   2.0082   2.1359   2.1835   2.6715

     the Fermi energy is     1.8015 ev

!    total energy              =   -1960.48756776 Ry
     Harris-Foulkes estimate   =   -1960.48756046 Ry
     estimated scf accuracy    <       0.00000399 Ry

     The total energy is the sum of the following terms:

     one-electron contribution =   -8558.51806426 Ry
     hartree contribution      =    4266.86589186 Ry
     xc contribution           =    -936.09335304 Ry
     ewald contribution        =    3267.37585191 Ry
     electric field correction =       0.00029268 Ry
     smearing contrib. (-TS)   =      -0.11818691 Ry

     convergence has been achieved in  40 iterations
 
 BEEF-vdW xc energy contributions
           1 :   -846.130978732503     
           2 :    786.027310977414     
           3 :   -679.688203959396     
           4 :    549.262369297846     
           5 :   -417.503649730743     
           6 :    301.420583817466     
           7 :   -209.567523957550     
           8 :    143.018620363122     
           9 :   -98.4584255107102     
          10 :    71.1819172033571     
          11 :   -56.6666226711028     
          12 :    50.6579448451675     
          13 :   -48.7406615571590     
          14 :    46.3915595290033     
          15 :   -39.8840930873871     
          16 :    27.5354431526141     
          17 :   -10.4304891351645     
          18 :   -7.99442721307082     
          19 :    23.4073860514368     
          20 :   -32.3866116239392     
          21 :    33.6865700101594     
          22 :   -28.4394647129511     
          23 :    19.3629666834029     
          24 :   -9.55625930691212     
          25 :    1.52980317194238     
          26 :    3.18331452877374     
          27 :   -3.94623184924023     
          28 :   0.816415623341072     
          29 :    5.50643581573991     
          30 :   -13.6140860915593     
          31 :   -61.0091833992485     
          32 :   -43.8068009532053     

     Forces acting on atoms (Ry/au):


     negative rho (up, down):  1.379E+00 0.000E+00
     atom    1 type  1   force =     0.00050538    0.00042564    0.02567121
     atom    2 type  1   force =    -0.00050890    0.00037774    0.02569115
     atom    3 type  1   force =    -0.00003775   -0.00069105    0.02555525
     atom    4 type  1   force =     0.00003826   -0.00010287    0.02702666
     atom    5 type  1   force =     0.00006171    0.00585552   -0.00901211
     atom    6 type  1   force =    -0.00006154   -0.00004284    0.00071045
     atom    7 type  1   force =    -0.00510943   -0.00294423   -0.00894165
     atom    8 type  1   force =     0.00511245   -0.00287408   -0.00898431
     atom    9 type  1   force =    -0.00001700    0.00009595    0.07933889
     atom   10 type  1   force =     0.00001842    0.00048454   -0.03467147
     atom   11 type  1   force =     0.00033723   -0.00027940   -0.03478589
     atom   12 type  1   force =    -0.00033845   -0.00030303   -0.03475083
     atom   13 type  2   force =    -0.00000014   -0.00000306   -0.08922444
     atom   14 type  3   force =    -0.00000025    0.00000118    0.03637711

     Total force =     0.138562     Total SCF correction =     0.005231


     entering subroutine stress ...


     negative rho (up, down):  1.379E+00 0.000E+00
          total   stress  (Ry/bohr**3)                   (kbar)     P=  -23.31
  -0.00014208  -0.00000000  -0.00000000        -20.90     -0.00     -0.00
  -0.00000000  -0.00014209   0.00000000         -0.00    -20.90      0.00
  -0.00000000   0.00000000  -0.00019121         -0.00      0.00    -28.13


     BFGS Geometry Optimization

     number of scf cycles    =   1
     number of bfgs steps    =   0

     energy   new            =   -1960.4875677638 Ry

     new trust radius        =       0.0892244416 bohr
     new conv_thr            =       0.0000099958 Ry


ATOMIC_POSITIONS (crystal)
Hf1      0.166666667   0.166666667   0.396510335    0   0   0
Hf1      0.666666667   0.166666667   0.396510335    0   0   0
Hf1      0.166666667   0.666666667   0.396510335    0   0   0
Hf1      0.666666667   0.666666667   0.396510335    0   0   0
Hf1      0.833333333   0.333333333   0.500000000    0   0   0
Hf1      0.333333333   0.333333333   0.500000000    0   0   0
Hf1      0.833333333   0.833333333   0.500000000    0   0   0
Hf1      0.333333333   0.833333333   0.500000000    0   0   0
Hf1     -0.000005992   0.000009170   0.605154387
Hf1      0.499978369   0.000046310   0.602762174
Hf1      0.000041266   0.499973296   0.602759773
Hf1      0.499986467   0.499971038   0.602760509
O1       0.000000135  -0.000000293   0.682842662
H1      -0.000000077   0.000000113   0.723146569



     Writing output data file calc.save
     Check: negative starting charge=   -1.301555
     NEW-OLD atomic charge density approx. for the potential

     Check: negative/imaginary core charge=   -0.000003    0.000000
     Check: negative starting charge=   -1.300786

     negative rho (up, down):  1.378E+00 0.000E+00
 
     Adding external electric field

     Computed dipole along edir(3) : 
        Dipole                0.3248 Ry au,          0.8257 Debye
        Dipole field          0.0007 Ry au
 
        Potential amp.       -0.0630 Ry
        Total length         46.4675 bohr
 

     total cpu time spent up to now is     1053.4 secs

     Self-consistent Calculation

     iteration #  1     ecut=    36.75 Ry     beta=0.30
     Davidson diagonalization with overlap
     c_bands:  1 eigenvalues not converged
     c_bands:  1 eigenvalues not converged
     c_bands:  1 eigenvalues not converged
     ethr =  1.00E-06,  avg # of iterations = 14.5

     negative rho (up, down):  1.378E+00 0.000E+00
 
     Adding external electric field

     Computed dipole along edir(3) : 
        Dipole                1.5669 Ry au,          3.9827 Debye
        Dipole field          0.0033 Ry au
 
        Potential amp.       -0.3038 Ry
        Total length         46.4675 bohr
 

     total cpu time spent up to now is     1089.6 secs

     total energy              =   -1960.43997865 Ry
     Harris-Foulkes estimate   =   -1960.49357474 Ry
     estimated scf accuracy    <       0.11798314 Ry

     iteration #  2     ecut=    36.75 Ry     beta=0.30
     Davidson diagonalization with overlap
     ethr =  7.81E-05,  avg # of iterations =  8.7

     negative rho (up, down):  1.378E+00 0.000E+00
 
     Adding external electric field

     Computed dipole along edir(3) : 
        Dipole                0.4740 Ry au,          1.2047 Debye
        Dipole field          0.0010 Ry au
 
        Potential amp.       -0.0919 Ry
        Total length         46.4675 bohr
 

     total cpu time spent up to now is     1117.9 secs

     total energy              =   -1959.86058532 Ry
     Harris-Foulkes estimate   =   -1961.28043239 Ry
     estimated scf accuracy    <      59.22296717 Ry

     iteration #  3     ecut=    36.75 Ry     beta=0.30
     Davidson diagonalization with overlap
     ethr =  7.81E-05,  avg # of iterations =  7.5

     negative rho (up, down):  1.378E+00 0.000E+00
 
     Adding external electric field

     Computed dipole along edir(3) : 
        Dipole                0.4432 Ry au,          1.1266 Debye
        Dipole field          0.0009 Ry au
 
        Potential amp.       -0.0859 Ry
        Total length         46.4675 bohr
 

     total cpu time spent up to now is     1144.9 secs

     total energy              =   -1960.49260017 Ry
     Harris-Foulkes estimate   =   -1960.49531298 Ry
     estimated scf accuracy    <       0.01093550 Ry

     iteration #  4     ecut=    36.75 Ry     beta=0.30
     Davidson diagonalization with overlap
     ethr =  7.24E-06,  avg # of iterations =  5.2

     negative rho (up, down):  1.378E+00 0.000E+00
 
     Adding external electric field

     Computed dipole along edir(3) : 
        Dipole                0.4241 Ry au,          1.0780 Debye
        Dipole field          0.0009 Ry au
 
        Potential amp.       -0.0822 Ry
        Total length         46.4675 bohr
 

     total cpu time spent up to now is     1167.0 secs

     total energy              =   -1960.49291268 Ry
     Harris-Foulkes estimate   =   -1960.49550615 Ry
     estimated scf accuracy    <       0.03515872 Ry

     iteration #  5     ecut=    36.75 Ry     beta=0.30
     Davidson diagonalization with overlap
     ethr =  7.24E-06,  avg # of iterations =  3.0

     negative rho (up, down):  1.378E+00 0.000E+00
 
     Adding external electric field

     Computed dipole along edir(3) : 
        Dipole                0.4365 Ry au,          1.1095 Debye
        Dipole field          0.0009 Ry au
 
        Potential amp.       -0.0846 Ry
        Total length         46.4675 bohr
 

     total cpu time spent up to now is     1185.8 secs

     total energy              =   -1960.49409095 Ry
     Harris-Foulkes estimate   =   -1960.49427100 Ry
     estimated scf accuracy    <       0.00092979 Ry

     iteration #  6     ecut=    36.75 Ry     beta=0.30
     Davidson diagonalization with overlap
     ethr =  6.16E-07,  avg # of iterations =  6.0

     negative rho (up, down):  1.378E+00 0.000E+00
 
     Adding external electric field

     Computed dipole along edir(3) : 
        Dipole                0.4363 Ry au,          1.1089 Debye
        Dipole field          0.0009 Ry au
 
        Potential amp.       -0.0846 Ry
        Total length         46.4675 bohr
 

     total cpu time spent up to now is     1207.9 secs

     total energy              =   -1960.49416246 Ry
     Harris-Foulkes estimate   =   -1960.49421659 Ry
     estimated scf accuracy    <       0.00049127 Ry

     iteration #  7     ecut=    36.75 Ry     beta=0.30
     Davidson diagonalization with overlap
     ethr =  3.25E-07,  avg # of iterations =  2.6

     negative rho (up, down):  1.378E+00 0.000E+00
 
     Adding external electric field

     Computed dipole along edir(3) : 
        Dipole                0.4334 Ry au,          1.1016 Debye
        Dipole field          0.0009 Ry au
 
        Potential amp.       -0.0840 Ry
        Total length         46.4675 bohr
 

     total cpu time spent up to now is     1225.8 secs

     total energy              =   -1960.49418372 Ry
     Harris-Foulkes estimate   =   -1960.49420035 Ry
     estimated scf accuracy    <       0.00017310 Ry

     iteration #  8     ecut=    36.75 Ry     beta=0.30
     Davidson diagonalization with overlap
     ethr =  1.15E-07,  avg # of iterations =  3.3

     negative rho (up, down):  1.378E+00 0.000E+00
 
     Adding external electric field

     Computed dipole along edir(3) : 
        Dipole                0.4317 Ry au,          1.0972 Debye
        Dipole field          0.0009 Ry au
 
        Potential amp.       -0.0837 Ry
        Total length         46.4675 bohr
 

     total cpu time spent up to now is     1244.0 secs

     total energy              =   -1960.49419729 Ry
     Harris-Foulkes estimate   =   -1960.49419670 Ry
     estimated scf accuracy    <       0.00001088 Ry

     iteration #  9     ecut=    36.75 Ry     beta=0.30
     Davidson diagonalization with overlap
     ethr =  7.21E-09,  avg # of iterations =  5.8

     negative rho (up, down):  1.379E+00 0.000E+00
 
     Adding external electric field

     Computed dipole along edir(3) : 
        Dipole                0.4310 Ry au,          1.0955 Debye
        Dipole field          0.0009 Ry au
 
        Potential amp.       -0.0836 Ry
        Total length         46.4675 bohr
 

     total cpu time spent up to now is     1267.8 secs

     total energy              =   -1960.49419952 Ry
     Harris-Foulkes estimate   =   -1960.49420188 Ry
     estimated scf accuracy    <       0.00002520 Ry

     iteration # 10     ecut=    36.75 Ry     beta=0.30
     Davidson diagonalization with overlap
     ethr =  7.21E-09,  avg # of iterations =  3.4

     negative rho (up, down):  1.379E+00 0.000E+00

     negative rho (up, down):  1.379E+00 0.000E+00

     negative rho (up, down):  1.379E+00 0.000E+00

     negative rho (up, down):  1.379E+00 0.000E+00

     negative rho (up, down):  1.379E+00 0.000E+00

     negative rho (up, down):  1.379E+00 0.000E+00

     negative rho (up, down):  1.379E+00 0.000E+00

     negative rho (up, down):  1.379E+00 0.000E+00

     negative rho (up, down):  1.379E+00 0.000E+00

     negative rho (up, down):  1.379E+00 0.000E+00

     negative rho (up, down):  1.379E+00 0.000E+00

     negative rho (up, down):  1.379E+00 0.000E+00

     negative rho (up, down):  1.379E+00 0.000E+00

     negative rho (up, down):  1.379E+00 0.000E+00

     negative rho (up, down):  1.379E+00 0.000E+00

     negative rho (up, down):  1.379E+00 0.000E+00

     negative rho (up, down):  1.379E+00 0.000E+00

     negative rho (up, down):  1.379E+00 0.000E+00

     negative rho (up, down):  1.379E+00 0.000E+00

     negative rho (up, down):  1.379E+00 0.000E+00

     negative rho (up, down):  1.379E+00 0.000E+00

     negative rho (up, down):  1.379E+00 0.000E+00

     negative rho (up, down):  1.379E+00 0.000E+00

     negative rho (up, down):  1.379E+00 0.000E+00

     negative rho (up, down):  1.379E+00 0.000E+00

     negative rho (up, down):  1.379E+00 0.000E+00

     negative rho (up, down):  1.379E+00 0.000E+00

     negative rho (up, down):  1.379E+00 0.000E+00

     negative rho (up, down):  1.379E+00 0.000E+00

     negative rho (up, down):  1.379E+00 0.000E+00

     negative rho (up, down):  1.379E+00 0.000E+00

     negative rho (up, down):  1.379E+00 0.000E+00

     negative rho (up, down):  1.379E+00 0.000E+00

     negative rho (up, down):  1.379E+00 0.000E+00

     negative rho (up, down):  1.379E+00 0.000E+00
 
     Adding external electric field

     Computed dipole along edir(3) : 
        Dipole                0.4383 Ry au,          1.1139 Debye
        Dipole field          0.0009 Ry au
 
        Potential amp.       -0.0850 Ry
        Total length         46.4675 bohr
 

     total cpu time spent up to now is     1308.4 secs

     End of self-consistent calculation

          k = 0.0000 0.0000 0.0000 ( 22729 PWs)   bands (ev):

   -60.8227 -60.7948 -60.7942 -60.7782 -60.7484 -60.7395 -60.7389 -60.7328
   -60.3579 -60.3254 -60.3253 -60.3216 -29.5861 -29.5858 -29.5431 -29.5345
   -29.5245 -29.5242 -29.5126 -29.4515 -29.4133 -29.4130 -29.3912 -29.3246
   -29.3034 -29.3030 -29.2013 -29.1327 -29.1325 -29.1154 -29.1152 -29.1138
   -29.0731 -29.0569 -29.0569 -29.0225 -29.0224 -28.9873 -28.9872 -28.8229
   -28.8111 -28.8110 -28.8024 -28.7191 -28.7190 -28.7148 -28.5955 -28.5955
   -18.2272  -6.6381  -4.6218  -3.3478  -2.5221  -2.5221  -2.0751  -1.1789
    -1.1789  -1.1511  -0.9074  -0.8986  -0.8986  -0.5474  -0.5474  -0.4908
     0.1596   0.1599   0.1600   0.8795   1.0279   1.0279   1.8320   1.9325
     2.1529   2.1836   2.2792   2.2792   2.4654   2.4654   2.4776   2.7317
     2.9336   3.0199   3.0200   3.1020   3.1020

          k = 0.0000 0.0301 0.0000 ( 22708 PWs)   bands (ev):

   -60.8207 -60.7961 -60.7944 -60.7760 -60.7492 -60.7404 -60.7393 -60.7331
   -60.3556 -60.3271 -60.3254 -60.3221 -29.5664 -29.5595 -29.5265 -29.5186
   -29.5053 -29.4993 -29.4850 -29.4484 -29.4104 -29.4082 -29.3866 -29.3265
   -29.3080 -29.3046 -29.2149 -29.1532 -29.1376 -29.1363 -29.1316 -29.1064
   -29.0607 -29.0562 -29.0429 -29.0354 -29.0305 -29.0261 -28.9957 -28.8181
   -28.8099 -28.8094 -28.8002 -28.7385 -28.7357 -28.7095 -28.6307 -28.6035
   -18.2272  -6.6343  -4.4242  -3.1562  -2.5209  -2.5170  -1.8548  -1.4331
    -1.0900  -1.0729  -0.9693  -0.7880  -0.7759  -0.3736  -0.3016  -0.2828
     0.2594   0.2734   0.2755   0.9233   1.0567   1.0611   1.8142   1.9015
     1.9756   2.0478   2.1473   2.2145   2.3580   2.4649   2.5193   2.6879
     2.7465   2.7952   2.7959   2.8890   2.9700

          k = 0.0000 0.0602 0.0000 ( 22648 PWs)   bands (ev):

   -60.8158 -60.8002 -60.7945 -60.7704 -60.7525 -60.7426 -60.7393 -60.7339
   -60.3495 -60.3328 -60.3254 -60.3225 -29.5179 -29.5131 -29.4975 -29.4592
   -29.4561 -29.4493 -29.4322 -29.4080 -29.3980 -29.3913 -29.3754 -29.3341
   -29.3145 -29.3087 -29.2575 -29.2029 -29.1899 -29.1871 -29.1612 -29.1275
   -29.1175 -29.0833 -29.0527 -29.0191 -29.0175 -29.0062 -28.9633 -28.8122
   -28.8087 -28.8071 -28.7970 -28.7844 -28.7803 -28.7250 -28.6874 -28.6259
   -18.2270  -6.6275  -3.8624  -2.7093  -2.5186  -2.4137  -2.1296  -1.2622
    -1.2077  -0.9012  -0.8695  -0.4526  -0.4230  -0.2007   0.2734   0.2998
     0.5502   0.5836   0.5895   1.0084   1.1154   1.1740   1.5176   1.6548
     1.7386   1.7554   1.8260   1.9387   1.9690   2.1081   2.1701   2.3018
     2.3720   2.4250   2.5008   2.5427   2.6205

          k = 0.0000-0.0903 0.0000 ( 22668 PWs)   bands (ev):

   -60.8116 -60.8041 -60.7945 -60.7657 -60.7565 -60.7434 -60.7393 -60.7342
   -60.3422 -60.3401 -60.3254 -60.3226 -29.4999 -29.4840 -29.4651 -29.4477
   -29.4281 -29.4218 -29.4124 -29.3925 -29.3668 -29.3576 -29.3183 -29.3169
   -29.3143 -29.2846 -29.2761 -29.2639 -29.2576 -29.2323 -29.2230 -29.2206
   -29.0986 -29.0739 -29.0541 -29.0486 -28.9910 -28.9795 -28.8535 -28.8478
   -28.8223 -28.8169 -28.8090 -28.8047 -28.7973 -28.7934 -28.6602 -28.6533
   -18.2270  -6.6244  -3.0763  -3.0040  -2.5784  -2.5175  -1.8022  -1.7873
    -0.7931  -0.7629  -0.5658  -0.4867  -0.2060  -0.1586   0.7353   0.7506
     0.8471   0.8572   0.9707   1.0275   1.1381   1.2914   1.3339   1.3430
     1.4336   1.4905   1.5474   1.7086   1.7783   1.7943   1.8501   2.0056
     2.0079   2.0687   2.1957   2.2479   2.7097

          k = 0.0261-0.0151 0.0000 ( 22708 PWs)   bands (ev):

   -60.8207 -60.7958 -60.7947 -60.7760 -60.7491 -60.7409 -60.7389 -60.7331
   -60.3556 -60.3272 -60.3253 -60.3221 -29.5663 -29.5596 -29.5265 -29.5185
   -29.5055 -29.4990 -29.4851 -29.4485 -29.4103 -29.4083 -29.3866 -29.3264
   -29.3084 -29.3043 -29.2149 -29.1531 -29.1377 -29.1361 -29.1317 -29.1065
   -29.0606 -29.0562 -29.0429 -29.0354 -29.0306 -29.0261 -28.9957 -28.8181
   -28.8099 -28.8094 -28.8002 -28.7385 -28.7357 -28.7095 -28.6306 -28.6036
   -18.2272  -6.6343  -4.4242  -3.1562  -2.5209  -2.5170  -1.8548  -1.4331
    -1.0900  -1.0729  -0.9693  -0.7880  -0.7759  -0.3736  -0.3017  -0.2827
     0.2594   0.2734   0.2755   0.9233   1.0567   1.0611   1.8142   1.9015
     1.9756   2.0478   2.1473   2.2146   2.3580   2.4649   2.5193   2.6879
     2.7464   2.7953   2.7959   2.8890   2.9700

          k = 0.0261 0.0151 0.0000 ( 22708 PWs)   bands (ev):

   -60.8207 -60.7963 -60.7942 -60.7760 -60.7492 -60.7405 -60.7392 -60.7331
   -60.3556 -60.3271 -60.3254 -60.3221 -29.5666 -29.5593 -29.5265 -29.5186
   -29.5053 -29.4992 -29.4850 -29.4484 -29.4106 -29.4080 -29.3866 -29.3264
   -29.3081 -29.3045 -29.2148 -29.1532 -29.1376 -29.1363 -29.1316 -29.1064
   -29.0607 -29.0562 -29.0428 -29.0354 -29.0305 -29.0261 -28.9957 -28.8181
   -28.8098 -28.8095 -28.8002 -28.7385 -28.7357 -28.7095 -28.6307 -28.6035
   -18.2272  -6.6343  -4.4242  -3.1562  -2.5210  -2.5169  -1.8548  -1.4332
    -1.0900  -1.0729  -0.9693  -0.7880  -0.7759  -0.3736  -0.3017  -0.2827
     0.2594   0.2735   0.2755   0.9233   1.0567   1.0611   1.8142   1.9015
     1.9756   2.0478   2.1473   2.2146   2.3579   2.4649   2.5193   2.6879
     2.7465   2.7952   2.7959   2.8890   2.9700

          k = 0.0261 0.0452 0.0000 ( 22675 PWs)   bands (ev):

   -60.8172 -60.7990 -60.7944 -60.7721 -60.7509 -60.7432 -60.7387 -60.7337
   -60.3515 -60.3295 -60.3277 -60.3215 -29.5337 -29.5188 -29.5043 -29.4803
   -29.4693 -29.4499 -29.4392 -29.4376 -29.4078 -29.3997 -29.3788 -29.3307
   -29.3169 -29.3050 -29.2552 -29.2030 -29.1654 -29.1370 -29.1281 -29.1185
   -29.1181 -29.0938 -29.0480 -29.0313 -29.0140 -29.0039 -28.9973 -28.8135
   -28.8089 -28.8074 -28.7972 -28.7958 -28.7208 -28.7180 -28.6934 -28.6209
   -18.2271  -6.6292  -4.0433  -2.8210  -2.5235  -2.4699  -1.6155  -1.5879
    -1.4381  -0.9257  -0.8842  -0.5712  -0.3933  -0.0853  -0.0545   0.1319
     0.4570   0.4698   0.5033   0.9980   1.1048   1.1216   1.6928   1.7307
     1.7682   1.8617   1.8705   2.0241   2.0642   2.1940   2.3518   2.4365
     2.4957   2.5328   2.5586   2.6415   2.7576

          k = 0.0261-0.1054 0.0000 ( 22643 PWs)   bands (ev):

   -60.8119 -60.8034 -60.7948 -60.7663 -60.7543 -60.7464 -60.7379 -60.7342
   -60.3443 -60.3358 -60.3294 -60.3206 -29.5004 -29.4813 -29.4509 -29.4411
   -29.4298 -29.4192 -29.3953 -29.3897 -29.3754 -29.3665 -29.3429 -29.3316
   -29.3290 -29.3216 -29.2966 -29.2771 -29.2387 -29.2059 -29.1852 -29.1489
   -29.1217 -29.0857 -29.0772 -29.0470 -28.9921 -28.9591 -28.9118 -28.8657
   -28.8107 -28.8061 -28.8054 -28.7959 -28.7943 -28.7463 -28.6886 -28.6520
   -18.2270  -6.6245  -3.3425  -2.6016  -2.5345  -2.4233  -2.0274  -1.6380
    -1.3246  -0.7380  -0.7055  -0.1437  -0.0908   0.0738   0.5039   0.6314
     0.7807   0.8115   0.8237   1.0450   1.1658   1.2319   1.3025   1.4223
     1.5057   1.5527   1.5885   1.6407   1.7236   1.8255   1.8932   2.0561
     2.0760   2.0985   2.2435   2.3357   2.4429

          k = 0.0261-0.0753 0.0000 ( 22643 PWs)   bands (ev):

   -60.8120 -60.8032 -60.7950 -60.7664 -60.7542 -60.7465 -60.7378 -60.7342
   -60.3443 -60.3358 -60.3294 -60.3206 -29.5004 -29.4812 -29.4510 -29.4411
   -29.4298 -29.4192 -29.3953 -29.3897 -29.3755 -29.3665 -29.3428 -29.3318
   -29.3288 -29.3218 -29.2966 -29.2770 -29.2386 -29.2059 -29.1852 -29.1489
   -29.1217 -29.0857 -29.0773 -29.0470 -28.9921 -28.9591 -28.9118 -28.8657
   -28.8107 -28.8061 -28.8054 -28.7959 -28.7943 -28.7463 -28.6886 -28.6520
   -18.2270  -6.6245  -3.3425  -2.6016  -2.5345  -2.4233  -2.0274  -1.6380
    -1.3246  -0.7380  -0.7055  -0.1437  -0.0908   0.0738   0.5039   0.6314
     0.7807   0.8115   0.8237   1.0450   1.1658   1.2319   1.3025   1.4223
[...]
   -60.3834 -60.3606 -60.3591 -60.1986 -29.6502 -29.6093 -29.6033 -29.5893
   -29.5702 -29.5585 -29.5269 -29.4771 -29.4436 -29.4375 -29.4359 -29.3791
   -29.3338 -29.3303 -29.2333 -29.2316 -29.2234 -29.2050 -29.2009 -29.1221
   -29.1094 -29.0990 -29.0914 -29.0181 -29.0024 -28.9816 -28.9658 -28.8342
   -28.8242 -28.8238 -28.7537 -28.7464 -28.7235 -28.6721 -28.5975 -28.5749
   -18.4314  -6.7620  -4.5398  -3.1941  -2.4267  -2.4232  -1.8886  -1.5361
    -1.1982  -1.1926  -1.0649  -0.9126  -0.8727  -0.4380  -0.3776  -0.3349
     0.1504   0.1656   0.2033   0.8680   1.0205   1.0334   1.6596   1.8393
     1.8946   1.9890   2.0361   2.1258   2.3459   2.4069   2.4557   2.6484
     2.6551   2.7199   2.7352   2.8217   2.8689

          k = 0.0261 0.0452 0.0000 ( 22675 PWs)   bands (ev):

   -60.9365 -60.8691 -60.8478 -60.8422 -60.8371 -60.6897 -60.6710 -60.6666
   -60.3804 -60.3633 -60.3592 -60.1989 -29.6500 -29.5811 -29.5497 -29.5476
   -29.5396 -29.5185 -29.5085 -29.4423 -29.4374 -29.4270 -29.4228 -29.3813
   -29.3441 -29.3352 -29.2945 -29.2580 -29.2152 -29.2109 -29.1921 -29.1875
   -29.1273 -29.1095 -29.0791 -29.0606 -28.9971 -28.9689 -28.9621 -28.8351
   -28.8245 -28.8175 -28.7996 -28.7468 -28.7339 -28.6679 -28.6404 -28.5896
   -18.4314  -6.7582  -4.1551  -2.8267  -2.4224  -2.4215  -1.7213  -1.6868
    -1.4884  -1.0112  -0.9823  -0.6889  -0.5291  -0.1701  -0.1504   0.0510
     0.3418   0.3744   0.4115   0.9082   1.0409   1.0714   1.5263   1.5776
     1.7158   1.7339   1.7618   1.8832   1.9734   2.0744   2.2636   2.3110
     2.3639   2.4267   2.4755   2.5956   2.6811

          k = 0.0261-0.1054 0.0000 ( 22643 PWs)   bands (ev):

   -60.9364 -60.8627 -60.8522 -60.8450 -60.8363 -60.6859 -60.6750 -60.6666
   -60.3759 -60.3675 -60.3592 -60.1991 -29.6491 -29.5324 -29.5140 -29.4965
   -29.4845 -29.4710 -29.4575 -29.4309 -29.4246 -29.4098 -29.3925 -29.3788
   -29.3713 -29.3516 -29.3311 -29.2988 -29.2812 -29.2408 -29.2079 -29.1805
   -29.1571 -29.1418 -29.1158 -29.0318 -29.0121 -28.9377 -28.9162 -28.8727
   -28.8305 -28.8228 -28.8099 -28.7929 -28.7330 -28.6758 -28.6626 -28.6099
   -18.4313  -6.7546  -3.4477  -2.5575  -2.4512  -2.4232  -2.1232  -1.7392
    -1.4062  -0.8291  -0.7877  -0.2824  -0.1939  -0.0523   0.3591   0.5019
     0.6075   0.6861   0.7589   0.9004   1.0053   1.0844   1.2050   1.2745
     1.3950   1.4495   1.5095   1.5543   1.6505   1.7222   1.8370   1.9468
     2.0195   2.0552   2.1358   2.2533   2.3632

          k = 0.0261-0.0753 0.0000 ( 22643 PWs)   bands (ev):

   -60.9364 -60.8627 -60.8522 -60.8450 -60.8363 -60.6859 -60.6750 -60.6666
   -60.3759 -60.3675 -60.3592 -60.1991 -29.6491 -29.5324 -29.5140 -29.4965
   -29.4845 -29.4710 -29.4575 -29.4309 -29.4246 -29.4098 -29.3925 -29.3788
   -29.3713 -29.3516 -29.3311 -29.2988 -29.2812 -29.2408 -29.2079 -29.1805
   -29.1571 -29.1418 -29.1158 -29.0318 -29.0121 -28.9377 -28.9162 -28.8726
   -28.8305 -28.8228 -28.8099 -28.7929 -28.7330 -28.6758 -28.6626 -28.6099
   -18.4313  -6.7546  -3.4477  -2.5575  -2.4512  -2.4232  -2.1232  -1.7392
    -1.4062  -0.8291  -0.7877  -0.2824  -0.1939  -0.0523   0.3591   0.5019
     0.6075   0.6862   0.7589   0.9004   1.0053   1.0844   1.2050   1.2745
     1.3950   1.4495   1.5095   1.5543   1.6505   1.7222   1.8370   1.9468
     2.0195   2.0552   2.1359   2.2533   2.3632

          k = 0.0261-0.0452 0.0000 ( 22675 PWs)   bands (ev):

   -60.9365 -60.8691 -60.8478 -60.8422 -60.8371 -60.6897 -60.6710 -60.6666
   -60.3804 -60.3633 -60.3592 -60.1989 -29.6500 -29.5811 -29.5497 -29.5476
   -29.5396 -29.5185 -29.5085 -29.4423 -29.4374 -29.4270 -29.4228 -29.3813
   -29.3441 -29.3352 -29.2945 -29.2580 -29.2152 -29.2109 -29.1921 -29.1875
   -29.1273 -29.1095 -29.0791 -29.0606 -28.9971 -28.9689 -28.9621 -28.8351
   -28.8245 -28.8175 -28.7996 -28.7468 -28.7339 -28.6679 -28.6404 -28.5896
   -18.4314  -6.7582  -4.1551  -2.8267  -2.4224  -2.4215  -1.7213  -1.6868
    -1.4884  -1.0112  -0.9823  -0.6889  -0.5291  -0.1701  -0.1504   0.0510
     0.3418   0.3744   0.4115   0.9082   1.0409   1.0714   1.5263   1.5776
     1.7158   1.7339   1.7618   1.8831   1.9734   2.0744   2.2636   2.3110
     2.3639   2.4267   2.4755   2.5956   2.6811

          k = 0.0521-0.0301 0.0000 ( 22648 PWs)   bands (ev):

   -60.9365 -60.8673 -60.8499 -60.8411 -60.8379 -60.6887 -60.6721 -60.6666
   -60.3792 -60.3645 -60.3591 -60.1990 -29.6497 -29.5639 -29.5541 -29.5382
   -29.5065 -29.5042 -29.4919 -29.4430 -29.4283 -29.4199 -29.4179 -29.3812
   -29.3455 -29.3397 -29.2815 -29.2790 -29.2592 -29.2205 -29.2000 -29.1792
   -29.1253 -29.1147 -29.1026 -29.0616 -28.9938 -28.9541 -28.9536 -28.8359
   -28.8268 -28.8188 -28.7947 -28.7925 -28.7109 -28.6710 -28.6613 -28.5899
   -18.4314  -6.7569  -3.9726  -2.6686  -2.4200  -2.4147  -2.2263  -1.3297
    -1.2807  -1.0072  -0.9841  -0.5501  -0.5496  -0.2896   0.1269   0.2270
     0.4179   0.4874   0.5061   0.9083   1.0653   1.0752   1.3785   1.5455
     1.5767   1.6187   1.7019   1.8220   1.9159   1.9682   2.0373   2.2124
     2.2199   2.3151   2.4504   2.5348   2.5693

          k = 0.0521 0.0000 0.0000 ( 22675 PWs)   bands (ev):

   -60.9365 -60.8691 -60.8478 -60.8422 -60.8371 -60.6897 -60.6710 -60.6666
   -60.3804 -60.3633 -60.3592 -60.1989 -29.6500 -29.5811 -29.5497 -29.5476
   -29.5396 -29.5185 -29.5085 -29.4423 -29.4374 -29.4270 -29.4228 -29.3813
   -29.3441 -29.3352 -29.2945 -29.2580 -29.2152 -29.2109 -29.1921 -29.1875
   -29.1273 -29.1095 -29.0791 -29.0606 -28.9971 -28.9689 -28.9621 -28.8351
   -28.8245 -28.8175 -28.7996 -28.7468 -28.7339 -28.6679 -28.6404 -28.5896
   -18.4314  -6.7582  -4.1551  -2.8267  -2.4224  -2.4215  -1.7213  -1.6868
    -1.4884  -1.0112  -0.9823  -0.6889  -0.5291  -0.1701  -0.1504   0.0510
     0.3418   0.3744   0.4115   0.9082   1.0409   1.0714   1.5262   1.5775
     1.7158   1.7339   1.7618   1.8831   1.9734   2.0743   2.2636   2.3110
     2.3639   2.4267   2.4755   2.5956   2.6811

          k = 0.0521 0.0301 0.0000 ( 22648 PWs)   bands (ev):

   -60.9365 -60.8673 -60.8499 -60.8411 -60.8379 -60.6887 -60.6720 -60.6667
   -60.3792 -60.3645 -60.3591 -60.1990 -29.6497 -29.5639 -29.5540 -29.5382
   -29.5065 -29.5042 -29.4919 -29.4430 -29.4283 -29.4198 -29.4179 -29.3812
   -29.3455 -29.3397 -29.2815 -29.2790 -29.2592 -29.2205 -29.2000 -29.1792
   -29.1253 -29.1147 -29.1026 -29.0616 -28.9938 -28.9541 -28.9536 -28.8359
   -28.8267 -28.8188 -28.7947 -28.7925 -28.7109 -28.6710 -28.6613 -28.5899
   -18.4314  -6.7569  -3.9726  -2.6686  -2.4199  -2.4147  -2.2263  -1.3296
    -1.2807  -1.0072  -0.9841  -0.5501  -0.5496  -0.2896   0.1269   0.2270
     0.4178   0.4874   0.5061   0.9083   1.0653   1.0752   1.3785   1.5454
     1.5767   1.6187   1.7019   1.8220   1.9159   1.9682   2.0373   2.2124
     2.2200   2.3151   2.4504   2.5348   2.5693

          k = 0.0521-0.1204 0.0000 ( 22643 PWs)   bands (ev):

   -60.9364 -60.8627 -60.8522 -60.8450 -60.8363 -60.6859 -60.6750 -60.6666
   -60.3759 -60.3675 -60.3592 -60.1991 -29.6491 -29.5324 -29.5140 -29.4965
   -29.4845 -29.4709 -29.4576 -29.4309 -29.4246 -29.4098 -29.3925 -29.3788
   -29.3713 -29.3516 -29.3311 -29.2988 -29.2812 -29.2408 -29.2079 -29.1805
   -29.1571 -29.1418 -29.1158 -29.0318 -29.0121 -28.9377 -28.9162 -28.8726
   -28.8305 -28.8228 -28.8099 -28.7929 -28.7330 -28.6758 -28.6626 -28.6099
   -18.4313  -6.7546  -3.4477  -2.5575  -2.4512  -2.4232  -2.1232  -1.7392
    -1.4062  -0.8291  -0.7877  -0.2824  -0.1939  -0.0523   0.3591   0.5019
     0.6075   0.6861   0.7589   0.9004   1.0053   1.0844   1.2050   1.2745
     1.3950   1.4495   1.5095   1.5543   1.6505   1.7222   1.8370   1.9468
     2.0195   2.0552   2.1358   2.2534   2.3632

          k = 0.0521-0.0903 0.0000 ( 22614 PWs)   bands (ev):

   -60.9363 -60.8595 -60.8507 -60.8507 -60.8353 -60.6837 -60.6774 -60.6665
   -60.3719 -60.3712 -60.3594 -60.1992 -29.6488 -29.4851 -29.4802 -29.4696
   -29.4635 -29.4580 -29.4565 -29.4538 -29.4096 -29.4041 -29.3982 -29.3963
   -29.3685 -29.3588 -29.3320 -29.3313 -29.2796 -29.2775 -29.1941 -29.1920
   -29.1828 -29.1367 -29.1108 -29.0489 -28.9775 -28.9723 -28.8885 -28.8650
   -28.8471 -28.8263 -28.8202 -28.7971 -28.7489 -28.6615 -28.6485 -28.6453
   -18.4313  -6.7536  -2.6965  -2.6838  -2.5747  -2.4346  -2.4313  -1.4737
    -1.4672  -1.3453  -0.1716  -0.0742  -0.0629   0.1635   0.3450   0.4202
     0.7125   0.8304   0.8462   0.9706   0.9945   1.0272   1.0717   1.1179
     1.2870   1.2875   1.3902   1.5642   1.6125   1.6459   1.7145   1.8379
     1.8684   1.9444   2.0109   2.0512   2.1537

          k = 0.0521-0.0602 0.0000 ( 22643 PWs)   bands (ev):

   -60.9364 -60.8627 -60.8522 -60.8450 -60.8363 -60.6859 -60.6750 -60.6666
   -60.3759 -60.3675 -60.3592 -60.1991 -29.6491 -29.5324 -29.5140 -29.4965
   -29.4845 -29.4709 -29.4576 -29.4309 -29.4246 -29.4098 -29.3925 -29.3788
   -29.3713 -29.3516 -29.3311 -29.2988 -29.2812 -29.2408 -29.2079 -29.1805
   -29.1571 -29.1418 -29.1158 -29.0318 -29.0121 -28.9377 -28.9162 -28.8726
   -28.8305 -28.8228 -28.8099 -28.7929 -28.7330 -28.6758 -28.6626 -28.6099
   -18.4313  -6.7546  -3.4477  -2.5575  -2.4512  -2.4232  -2.1232  -1.7392
    -1.4062  -0.8291  -0.7877  -0.2824  -0.1939  -0.0523   0.3591   0.5019
     0.6076   0.6861   0.7589   0.9004   1.0053   1.0844   1.2050   1.2745
     1.3950   1.4495   1.5095   1.5543   1.6505   1.7222   1.8370   1.9468
     2.0195   2.0552   2.1358   2.2534   2.3632

          k =-0.0782 0.0452 0.0000 ( 22668 PWs)   bands (ev):

   -60.9364 -60.8617 -60.8550 -60.8416 -60.8379 -60.6860 -60.6749 -60.6666
   -60.3757 -60.3678 -60.3591 -60.1991 -29.6490 -29.5357 -29.5211 -29.5171
   -29.4788 -29.4703 -29.4484 -29.4210 -29.4105 -29.4101 -29.3883 -29.3689
   -29.3530 -29.3464 -29.3415 -29.3097 -29.3033 -29.2515 -29.2020 -29.1790
   -29.1514 -29.1435 -29.1358 -29.0336 -28.9982 -28.9241 -28.9002 -28.8700
   -28.8538 -28.8293 -28.8076 -28.8027 -28.7083 -28.7030 -28.6631 -28.5988
   -18.4313  -6.7546  -3.1887  -3.0917  -2.4568  -2.4186  -1.9167  -1.8451
    -0.8990  -0.8733  -0.6559  -0.5781  -0.3178  -0.2491   0.5114   0.6058
     0.6591   0.8060   0.8224   0.9128   0.9895   1.1539   1.2127   1.2371
     1.2894   1.3968   1.4622   1.5860   1.6576   1.7286   1.8177   1.8209
     1.9378   2.0761   2.1510   2.2744   2.5237

          k =-0.0782 0.0753 0.0000 ( 22643 PWs)   bands (ev):

   -60.9364 -60.8627 -60.8522 -60.8450 -60.8363 -60.6859 -60.6750 -60.6666
   -60.3759 -60.3675 -60.3592 -60.1991 -29.6491 -29.5324 -29.5140 -29.4965
   -29.4845 -29.4709 -29.4576 -29.4309 -29.4246 -29.4098 -29.3925 -29.3788
   -29.3713 -29.3516 -29.3311 -29.2988 -29.2812 -29.2408 -29.2078 -29.1805
   -29.1571 -29.1418 -29.1158 -29.0318 -29.0121 -28.9377 -28.9162 -28.8727
   -28.8305 -28.8228 -28.8099 -28.7929 -28.7330 -28.6758 -28.6626 -28.6099
   -18.4313  -6.7546  -3.4477  -2.5575  -2.4512  -2.4232  -2.1232  -1.7392
    -1.4062  -0.8291  -0.7877  -0.2824  -0.1939  -0.0523   0.3591   0.5018
     0.6076   0.6862   0.7589   0.9004   1.0053   1.0844   1.2050   1.2745
     1.3950   1.4495   1.5095   1.5543   1.6505   1.7222   1.8370   1.9468
     2.0195   2.0552   2.1359   2.2534   2.3632

          k =-0.0782 0.1054 0.0000 ( 22643 PWs)   bands (ev):

   -60.9364 -60.8627 -60.8522 -60.8450 -60.8363 -60.6859 -60.6750 -60.6666
   -60.3759 -60.3675 -60.3592 -60.1991 -29.6491 -29.5324 -29.5140 -29.4965
   -29.4845 -29.4709 -29.4576 -29.4309 -29.4246 -29.4098 -29.3925 -29.3788
   -29.3713 -29.3516 -29.3311 -29.2988 -29.2812 -29.2408 -29.2079 -29.1805
   -29.1571 -29.1418 -29.1158 -29.0318 -29.0121 -28.9377 -28.9162 -28.8726
   -28.8305 -28.8228 -28.8099 -28.7929 -28.7330 -28.6758 -28.6626 -28.6099
   -18.4313  -6.7546  -3.4477  -2.5575  -2.4512  -2.4232  -2.1232  -1.7392
    -1.4062  -0.8291  -0.7877  -0.2824  -0.1939  -0.0523   0.3591   0.5019
     0.6075   0.6862   0.7589   0.9004   1.0053   1.0844   1.2050   1.2745
     1.3950   1.4495   1.5095   1.5543   1.6505   1.7222   1.8370   1.9468
     2.0195   2.0552   2.1359   2.2533   2.3632

          k =-0.0782-0.0452 0.0000 ( 22668 PWs)   bands (ev):

   -60.9364 -60.8617 -60.8550 -60.8416 -60.8379 -60.6860 -60.6749 -60.6667
   -60.3757 -60.3678 -60.3591 -60.1991 -29.6490 -29.5357 -29.5211 -29.5171
   -29.4788 -29.4703 -29.4484 -29.4210 -29.4105 -29.4101 -29.3883 -29.3689
   -29.3530 -29.3463 -29.3415 -29.3097 -29.3033 -29.2515 -29.2020 -29.1790
   -29.1514 -29.1435 -29.1358 -29.0336 -28.9982 -28.9241 -28.9002 -28.8700
   -28.8538 -28.8293 -28.8076 -28.8027 -28.7083 -28.7030 -28.6631 -28.5988
   -18.4313  -6.7546  -3.1887  -3.0917  -2.4568  -2.4186  -1.9167  -1.8451
    -0.8990  -0.8733  -0.6558  -0.5781  -0.3178  -0.2491   0.5115   0.6058
     0.6591   0.8060   0.8224   0.9129   0.9895   1.1539   1.2127   1.2371
     1.2894   1.3967   1.4622   1.5860   1.6576   1.7286   1.8177   1.8209
     1.9378   2.0761   2.1510   2.2743   2.5237

     the Fermi energy is     1.7619 ev

!    total energy              =   -1960.52477524 Ry
     Harris-Foulkes estimate   =   -1960.52477548 Ry
     estimated scf accuracy    <       0.00000009 Ry

     The total energy is the sum of the following terms:

     one-electron contribution =   -8625.27725707 Ry
     hartree contribution      =    4300.37585988 Ry
     xc contribution           =    -936.31068615 Ry
     ewald contribution        =    3300.80113172 Ry
     electric field correction =       0.00027699 Ry
     smearing contrib. (-TS)   =      -0.11410060 Ry

     convergence has been achieved in  10 iterations
 
 BEEF-vdW xc energy contributions
           1 :   -846.354813891607     
           2 :    786.316954314372     
           3 :   -680.037151390623     
           4 :    549.569711000021     
           5 :   -417.639680141408     
           6 :    301.330861865871     
           7 :   -209.315849262712     
           8 :    142.739666536605     
           9 :   -98.2654406051568     
          10 :    71.1042237070942     
          11 :   -56.6518933735506     
          12 :    50.6238465083056     
          13 :   -48.6294524098112     
          14 :    46.1984639200341     
          15 :   -39.6522340913912     
          16 :    27.3242706006827     
          17 :   -10.2736931088068     
          18 :   -8.11526813500222     
          19 :    23.5532285649617     
          20 :   -32.6158916349033     
          21 :    34.0041477438785     
          22 :   -28.7792458150506     
          23 :    19.6246525610059     
          24 :   -9.67268446225808     
          25 :    1.51606590726783     
          26 :    3.23817134315129     
          27 :   -3.94250020301683     
          28 :   0.713922750736856     
          29 :    5.66588679399979     
          30 :   -13.7479029551013     
          31 :   -61.0241251603561     
          32 :   -43.8303171786764     

     Forces acting on atoms (Ry/au):


     negative rho (up, down):  1.374E+00 0.000E+00
     atom    1 type  1   force =    -0.00030773   -0.00017980    0.01950846
     atom    2 type  1   force =     0.00030766   -0.00017788    0.01950322
     atom    3 type  1   force =     0.00000166    0.00035634    0.01950851
     atom    4 type  1   force =    -0.00000128    0.00000096    0.02755600
     atom    5 type  1   force =     0.00000187    0.00176082   -0.01693239
     atom    6 type  1   force =    -0.00000365    0.00000302   -0.03608848
     atom    7 type  1   force =    -0.00152524   -0.00088137   -0.01693094
     atom    8 type  1   force =     0.00152497   -0.00087913   -0.01693598
     atom    9 type  1   force =    -0.00000332    0.00000724    0.00012371
     atom   10 type  1   force =     0.00000037    0.00010314    0.00022673
     atom   11 type  1   force =     0.00009093   -0.00005826    0.00022630
     atom   12 type  1   force =    -0.00008636   -0.00005584    0.00022952
     atom   13 type  2   force =    -0.00000042    0.00000169   -0.00003117
     atom   14 type  3   force =     0.00000055   -0.00000091    0.00003651

     Total force =     0.000454     Total SCF correction =     0.000852
     SCF correction compared to forces is large: reduce conv_thr to get better values


     entering subroutine stress ...


     negative rho (up, down):  1.374E+00 0.000E+00
          total   stress  (Ry/bohr**3)                   (kbar)     P=  -17.46
  -0.00013039   0.00000000  -0.00000000        -19.18      0.00     -0.00
   0.00000000  -0.00013039   0.00000000          0.00    -19.18      0.00
  -0.00000000   0.00000000  -0.00009520         -0.00      0.00    -14.00


     bfgs converged in  21 scf cycles and  20 bfgs steps
     (criteria: energy <  1.0E+00, force <  1.9E-03)

     End of BFGS Geometry Optimization

     Final energy   =   -1960.5247752386 Ry
Begin final coordinates

ATOMIC_POSITIONS (crystal)
Hf1      0.166666667   0.166666667   0.396510335    0   0   0
Hf1      0.666666667   0.166666667   0.396510335    0   0   0
Hf1      0.166666667   0.666666667   0.396510335    0   0   0
Hf1      0.666666667   0.666666667   0.396510335    0   0   0
Hf1      0.833333333   0.333333333   0.500000000    0   0   0
Hf1      0.333333333   0.333333333   0.500000000    0   0   0
Hf1      0.833333333   0.833333333   0.500000000    0   0   0
Hf1      0.333333333   0.833333333   0.500000000    0   0   0
Hf1      0.000011976  -0.000010017   0.614134348
Hf1      0.496945084   0.006107003   0.595038536
Hf1      0.006104125   0.496948325   0.595039289
Hf1      0.496946399   0.496949816   0.595037967
O1       0.000021714  -0.000040113   0.690760671
H1      -0.000002195   0.000005014   0.728988617
End final coordinates



     Writing output data file calc.save
 
     init_run     :      9.13s CPU     12.11s WALL (       1 calls)
     electrons    :   5514.32s CPU   7132.51s WALL (      21 calls)
     update_pot   :     31.82s CPU     36.57s WALL (      20 calls)
     forces       :    181.94s CPU    192.72s WALL (      21 calls)
     stress       :    542.77s CPU    574.69s WALL (      21 calls)

     Called by init_run:
     wfcinit      :      5.77s CPU      8.22s WALL (       1 calls)
     potinit      :      0.84s CPU      1.08s WALL (       1 calls)

     Called by electrons:
     c_bands      :   3634.81s CPU   4776.58s WALL (     307 calls)
     sum_band     :    890.27s CPU   1101.18s WALL (     307 calls)
     v_of_rho     :    165.48s CPU    222.06s WALL (     327 calls)
     newd         :    534.93s CPU    627.37s WALL (     327 calls)
     mix_rho      :      5.47s CPU      7.55s WALL (     307 calls)
     vdW_energy   :    110.93s CPU    143.22s WALL (    1083 calls)
     vdW_ffts     :    170.58s CPU    238.11s WALL (    2208 calls)
     vdW_v        :     71.01s CPU     84.95s WALL (    1083 calls)

     Called by c_bands:
     init_us_2    :     39.96s CPU     47.15s WALL (   13140 calls)
     cegterg      :   3298.04s CPU   4425.56s WALL (    6160 calls)

     Called by *egterg:
     h_psi        :   1958.14s CPU   2902.77s WALL (   34237 calls)
     s_psi        :    219.91s CPU    230.86s WALL (   34237 calls)
     g_psi        :     16.50s CPU     16.74s WALL (   28057 calls)
     cdiaghg      :    601.29s CPU    615.97s WALL (   33797 calls)

     Called by h_psi:
     add_vuspsi   :    224.09s CPU    234.62s WALL (   34237 calls)

     General routines
     calbec       :    291.34s CPU    298.94s WALL (   41217 calls)
     fft          :    261.79s CPU    363.11s WALL (   65769 calls)
     ffts         :      0.50s CPU      0.78s WALL (     634 calls)
     fftw         :   1440.36s CPU   2524.08s WALL ( 3298604 calls)
     interpolate  :      3.01s CPU      5.35s WALL (     634 calls)
     davcio       :      0.02s CPU      0.39s WALL (      20 calls)
 
     Parallel routines
     fft_scatter  :    987.48s CPU   1642.88s WALL ( 3365007 calls)
 
     PWSCF        :     1h45m CPU        2h13m WALL

 
   This run was terminated on:   3:48:14  18Apr2018            

=------------------------------------------------------------------------------=
   JOB DONE.
=------------------------------------------------------------------------------=
