  python dir          : /home/mamunm/src/espresso
  espresso dir        : /home/vossj/suncat/esdld/espresso-dynpy-beef/bin
  pseudo dir          : /home/mamunm/src/pseudo/gbrv1.5pbe
  ase-espresso py git : GITVERSION



     Program PWSCF v.5.1rc2 (svn rev. ) starts on 17Apr2018 at  8:41:11 

     This program is part of the open-source Quantum ESPRESSO suite
     for quantum simulation of materials; please cite
         "P. Giannozzi et al., J. Phys.:Condens. Matter 21 395502 (2009);
          URL http://www.quantum-espresso.org", 
     in publications or presentations arising from this work. More details at
     http://www.quantum-espresso.org/quote

     Parallel version (MPI), running on    16 processors
     R & G space division:  proc/nbgrp/npool/nimage =      16
     Reading input from pw.inp
     Message from routine read_cards :
     DEPRECATED: no units specified in CELL_PARAMETERS card

     Current dimensions of program PWSCF are:
     Max number of different atomic species (ntypx) = 10
     Max number of k-points (npk) =  40000
     Max angular momentum in pseudopotentials (lmaxx) =  3
     Presently stress not available with electric field


     **************************************************************************
     Initializing libbeef V0.1.1 with the BEEF-vdW functional.
     Citation: Wellendorff et al., PRB 85, 235149 (2012).
     **************************************************************************


     IMPORTANT: XC functional enforced from input :
     Exchange-correlation      = BEEF-VDW ( 1  4 27 13 2)
     Any further DFT definition will be discarded
     Please, verify this is what you really want


     Subspace diagonalization in iterative solution of the eigenvalue problem:
     a serial algorithm will be used

 
     Parallelization info
     --------------------
     sticks:   dense  smooth     PW     G-vecs:    dense   smooth      PW
     Min         151      60     18                28279     7123    1152
     Max         152      61     19                28301     7170    1159
     Sum        2419     967    295               452661   114411   18499
 


     bravais-lattice index     =            0
     lattice parameter (alat)  =       1.8897  a.u.
     unit-cell volume          =    3807.2308 (a.u.)^3
     number of atoms/cell      =           16
     number of atomic types    =            3
     number of electrons       =       235.00
     number of Kohn-Sham states=          127
     kinetic-energy cutoff     =      36.7493  Ry
     charge density cutoff     =     367.4932  Ry
     convergence threshold     =      1.0E-05
     mixing beta               =       0.3000
     number of iterations used =           10  plain     mixing
     Exchange-correlation      = BEEF-VDW ( 1  4 27 13 2)
     nstep                     =           50


     celldm(1)=   1.889726  celldm(2)=   0.000000  celldm(3)=   0.000000
     celldm(4)=   0.000000  celldm(5)=   0.000000  celldm(6)=   0.000000

     crystal axes: (cart. coord. in units of alat)
               a(1) = (   5.184823   0.000000   0.000000 )  
               a(2) = (   2.592411   4.490188   0.000000 )  
               a(3) = (   0.000000   0.000000  24.233390 )  

     reciprocal axes: (cart. coord. in units 2 pi/alat)
               b(1) = (  0.192871 -0.111354  0.000000 )  
               b(2) = (  0.000000  0.222708  0.000000 )  
               b(3) = (  0.000000  0.000000  0.041265 )  


     PseudoPot. # 1 for Cu read from file:
     /home/mamunm/src/pseudo/gbrv1.5pbe/Cu.UPF
     MD5 check sum: 6e991ff952a84172a2a52a1c1e996048
     Pseudo is Ultrasoft + core correction, Zval = 19.0
     Generated by new atomic code, or converted to UPF format
     Using radial grid of  867 points,  6 beta functions with: 
                l(1) =   0
                l(2) =   0
                l(3) =   1
                l(4) =   1
                l(5) =   2
                l(6) =   2
     Q(r) pseudized with  8 coefficients,  rinner =    1.150   1.150   1.150
                                                       1.150   1.150

     PseudoPot. # 2 for C  read from file:
     /home/mamunm/src/pseudo/gbrv1.5pbe/C.UPF
     MD5 check sum: d1aef80898a10debaa0f26306b886e00
     Pseudo is Ultrasoft + core correction, Zval =  4.0
     Generated by new atomic code, or converted to UPF format
     Using radial grid of  721 points,  4 beta functions with: 
                l(1) =   0
                l(2) =   0
                l(3) =   1
                l(4) =   1
     Q(r) pseudized with  8 coefficients,  rinner =    1.100   1.100   1.100


     PseudoPot. # 3 for H  read from file:
     /home/mamunm/src/pseudo/gbrv1.5pbe/H.UPF
     MD5 check sum: 761ae9a214b05c3daf00ab9f6b793d6f
     Pseudo is Ultrasoft, Zval =  1.0
     Generated by new atomic code, or converted to UPF format
     Using radial grid of  615 points,  2 beta functions with: 
                l(1) =   0
                l(2) =   0
     Q(r) pseudized with  8 coefficients,  rinner =    0.700

     vdW kernel table read from file vdW_kernel_table
     MD5 check sum: 095c7af220d748ca6e76c0b4c6cfb241

     atomic species   valence    mass     pseudopotential
        Cu1           19.00    63.54600     Cu( 1.00)
        C1             4.00    12.01100     C ( 1.00)
        H1             1.00     1.00800     H ( 1.00)

     No symmetry found



   Cartesian axes

     site n.     atom                  positions (alat units)
         1           Cu1 tau(   1) = (   1.2962057   0.7483647  10.0000000  )
         2           Cu1 tau(   2) = (   3.8886170   0.7483647  10.0000000  )
         3           Cu1 tau(   3) = (   2.5924113   2.9934587  10.0000000  )
         4           Cu1 tau(   4) = (   5.1848226   2.9934587  10.0000000  )
         5           Cu1 tau(   5) = (   5.1848226   1.4967294  12.1166950  )
         6           Cu1 tau(   6) = (   2.5924113   1.4967294  12.1166950  )
         7           Cu1 tau(   7) = (   6.4810283   3.7418234  12.1166950  )
         8           Cu1 tau(   8) = (   3.8886170   3.7418234  12.1166950  )
         9           Cu1 tau(   9) = (   0.0000000   0.0000000  14.2333899  )
        10           Cu1 tau(  10) = (   2.5924113   0.0000000  14.2333899  )
        11           Cu1 tau(  11) = (   1.2962057   2.2450940  14.2333899  )
        12           Cu1 tau(  12) = (   3.8886170   2.2450940  14.2333899  )
        13           C1  tau(  13) = (   1.2962057   0.0000000  15.7933899  )
        14           H1  tau(  14) = (   2.3862057   0.0000000  16.4233899  )
        15           H1  tau(  15) = (   0.8462057   0.8895000  16.4233899  )
        16           H1  tau(  16) = (   3.4386170   3.6006881  16.4233899  )

     number of k points=    20  Fermi-Dirac smearing, width (Ry)=  0.0110
                       cart. coord. in units 2pi/alat
        k(    1) = (   0.0000000   0.0000000   0.0000000), wk =   0.0555556
        k(    2) = (   0.0000000   0.0371180   0.0000000), wk =   0.1111111
        k(    3) = (   0.0000000   0.0742359   0.0000000), wk =   0.1111111
        k(    4) = (   0.0000000  -0.1113539   0.0000000), wk =   0.0555556
        k(    5) = (   0.0321451  -0.0185590   0.0000000), wk =   0.1111111
        k(    6) = (   0.0321451   0.0185590   0.0000000), wk =   0.1111111
        k(    7) = (   0.0321451   0.0556770   0.0000000), wk =   0.1111111
        k(    8) = (   0.0321451  -0.1299129   0.0000000), wk =   0.1111111
        k(    9) = (   0.0321451  -0.0927949   0.0000000), wk =   0.1111111
        k(   10) = (   0.0321451  -0.0556770   0.0000000), wk =   0.1111111
        k(   11) = (   0.0642902  -0.0371180   0.0000000), wk =   0.1111111
        k(   12) = (   0.0642902  -0.0000000   0.0000000), wk =   0.1111111
        k(   13) = (   0.0642902   0.0371180   0.0000000), wk =   0.1111111
        k(   14) = (   0.0642902  -0.1484719   0.0000000), wk =   0.1111111
        k(   15) = (   0.0642902  -0.1113539   0.0000000), wk =   0.1111111
        k(   16) = (   0.0642902  -0.0742359   0.0000000), wk =   0.1111111
        k(   17) = (  -0.0964353   0.0556770   0.0000000), wk =   0.0555556
        k(   18) = (  -0.0964353   0.0927949   0.0000000), wk =   0.1111111
        k(   19) = (  -0.0964353   0.1299129   0.0000000), wk =   0.1111111
        k(   20) = (  -0.0964353  -0.0556770   0.0000000), wk =   0.0555556

     Dense  grid:   452661 G-vectors     FFT dimensions: (  60,  60, 288)

     Smooth grid:   114411 G-vectors     FFT dimensions: (  40,  40, 180)

     Largest allocated arrays     est. size (Mb)     dimensions
        Kohn-Sham Wavefunctions         1.78 Mb     (     920,  127)
        NL pseudopotentials             3.23 Mb     (     920,  230)
        Each V/rho on FFT grid          0.99 Mb     (   64800)
        Each G-vector array             0.22 Mb     (   28299)
        G-vector shells                 0.09 Mb     (   11246)
     Largest temporary arrays     est. size (Mb)     dimensions
        Auxiliary wavefunctions         7.13 Mb     (     920,  508)
        Each subspace H/S matrix        3.94 Mb     (     508,  508)
        Each <psi_i|beta_j> matrix      0.45 Mb     (     230,  127)
        Arrays for rho mixing           9.89 Mb     (   64800,   10)

     Initial potential from superposition of free atoms
     Check: negative starting charge=   -0.000132

     starting charge  222.99991, renormalised to  235.00000

     negative rho (up, down):  1.394E-04 0.000E+00


     ************************************************************************
     *
     * You are using vdW-DF for exchange-correlation in this calculation.
     * Please cite the following three references that made this development
     * possible:
     *
     *   M. Dion, H. Rydberg, E. Schroder, D. C. Langreth, and
     *   B. I. Lundqvist, Phys. Rev. Lett. 92, 246401 (2004).
     *
     *   T. Thonhauser, V. R. Cooper, S. Li, A. Puzder, P. Hyldgaard, and
     *   D. C. Langreth, Phys. Rev. B 76, 125112 (2007).
     *
     *   G. Roman-Perez and J. M. Soler, Phys. Rev. Lett. 103, 096102 (2009).
     *
     *
     * If you are using vdW-DF2, please also cite:
     *
     *   K. Lee, E. D. Murray, L. Kong, B. I. Lundqvist, and
     *   D. C. Langreth, Phys. Rev. B 82, 081101(R) (2010).
     *
     *
     * If you are calculating the stress with vdW-DF, please also cite:
     *
     *   R. Sabatini, E. Kucukbenli, B. Kolb, T. Thonhauser, and
     *   S. de Gironcoli, J. Phys.: Condens. Matter 24, 424209 (2012).
     *
     ************************************************************************

     Carrying out vdW-DF run using the following parameters:

     Nqs =      20    Nr_points =    1024   r_max =   100.000
     q_mesh =
               0.00001000     0.04494208     0.09755937     0.15916263
               0.23128650     0.31572767     0.41458969     0.53033537
               0.66584808     0.82450364     1.01025438     1.22772762
               1.48234092     1.78043706     2.12944203     2.53805004
               3.01644009     3.57652955     4.23227104     5.00000000

     Gradients computed in reciprocal space

     ************************************************************************


 
     Adding external electric field

     Computed dipole along edir(3) : 
        Dipole               -2.8089 Ry au,         -7.1394 Debye
        Dipole field         -0.0093 Ry au
 
        Potential amp.        0.8279 Ry
        Total length         44.6496 bohr
 
     Starting wfc are  163 randomized atomic wfcs

     total cpu time spent up to now is        7.5 secs

     Self-consistent Calculation

     iteration #  1     ecut=    36.75 Ry     beta=0.30
     Davidson diagonalization with overlap
     ethr =  1.00E-02,  avg # of iterations =  8.0

     negative rho (up, down):  4.480E-05 0.000E+00
 
     Adding external electric field

     Computed dipole along edir(3) : 
        Dipole               81.0644 Ry au,        206.0451 Debye
        Dipole field          0.2676 Ry au
 
        Potential amp.      -23.8934 Ry
        Total length         44.6496 bohr
 

     total cpu time spent up to now is       44.0 secs

     total energy              =   -4473.15062284 Ry
     Harris-Foulkes estimate   =   -4869.04260966 Ry
     estimated scf accuracy    <     833.77924933 Ry

     iteration #  2     ecut=    36.75 Ry     beta=0.30
     Davidson diagonalization with overlap
     ethr =  1.00E-02,  avg # of iterations = 23.4
 
     Adding external electric field

     Computed dipole along edir(3) : 
        Dipole               18.5332 Ry au,         47.1068 Debye
        Dipole field          0.0612 Ry au
 
        Potential amp.       -5.4626 Ry
        Total length         44.6496 bohr
 

     total cpu time spent up to now is      119.1 secs

     total energy              =   -4218.18431837 Ry
     Harris-Foulkes estimate   =   -6124.00925130 Ry
     estimated scf accuracy    <   33525.01222429 Ry

     iteration #  3     ecut=    36.75 Ry     beta=0.30
     Davidson diagonalization with overlap
     ethr =  1.00E-02,  avg # of iterations =  9.0
 
     Adding external electric field

     Computed dipole along edir(3) : 
        Dipole               20.1431 Ry au,         51.1987 Debye
        Dipole field          0.0665 Ry au
 
        Potential amp.       -5.9371 Ry
        Total length         44.6496 bohr
 

     total cpu time spent up to now is      157.3 secs

     total energy              =   -4841.18918491 Ry
     Harris-Foulkes estimate   =   -5144.14841581 Ry
     estimated scf accuracy    <    2448.58100425 Ry

     iteration #  4     ecut=    36.75 Ry     beta=0.30
     Davidson diagonalization with overlap
     ethr =  1.00E-02,  avg # of iterations = 10.1
 
     Adding external electric field

     Computed dipole along edir(3) : 
        Dipole               16.6056 Ry au,         42.2073 Debye
        Dipole field          0.0548 Ry au
 
        Potential amp.       -4.8944 Ry
        Total length         44.6496 bohr
 

     total cpu time spent up to now is      186.6 secs

     total energy              =   -4886.68480199 Ry
     Harris-Foulkes estimate   =   -4907.43616342 Ry
     estimated scf accuracy    <      86.61653453 Ry

     iteration #  5     ecut=    36.75 Ry     beta=0.30
     Davidson diagonalization with overlap
     ethr =  1.00E-02,  avg # of iterations =  3.0
 
     Adding external electric field

     Computed dipole along edir(3) : 
        Dipole               14.2535 Ry au,         36.2289 Debye
        Dipole field          0.0470 Ry au
 
        Potential amp.       -4.2012 Ry
        Total length         44.6496 bohr
 

     total cpu time spent up to now is      199.0 secs

     total energy              =   -4881.93537307 Ry
     Harris-Foulkes estimate   =   -4891.52143969 Ry
     estimated scf accuracy    <     138.20292273 Ry

     iteration #  6     ecut=    36.75 Ry     beta=0.30
     Davidson diagonalization with overlap
     ethr =  1.00E-02,  avg # of iterations =  1.2
 
     Adding external electric field

     Computed dipole along edir(3) : 
        Dipole               11.6707 Ry au,         29.6640 Debye
        Dipole field          0.0385 Ry au
 
        Potential amp.       -3.4399 Ry
        Total length         44.6496 bohr
 

     total cpu time spent up to now is      208.7 secs

     total energy              =   -4880.15110851 Ry
     Harris-Foulkes estimate   =   -4884.28358413 Ry
     estimated scf accuracy    <      29.97420025 Ry

     iteration #  7     ecut=    36.75 Ry     beta=0.30
     Davidson diagonalization with overlap
     ethr =  1.00E-02,  avg # of iterations =  1.0
 
     Adding external electric field

     Computed dipole along edir(3) : 
        Dipole                9.3948 Ry au,         23.8791 Debye
        Dipole field          0.0310 Ry au
 
        Potential amp.       -2.7691 Ry
        Total length         44.6496 bohr
 

     total cpu time spent up to now is      217.9 secs

     total energy              =   -4877.83004486 Ry
     Harris-Foulkes estimate   =   -4880.69242225 Ry
     estimated scf accuracy    <      31.91657306 Ry

     iteration #  8     ecut=    36.75 Ry     beta=0.30
     Davidson diagonalization with overlap
     ethr =  1.00E-02,  avg # of iterations =  1.0
 
     Adding external electric field

     Computed dipole along edir(3) : 
        Dipole                7.1587 Ry au,         18.1956 Debye
        Dipole field          0.0236 Ry au
 
        Potential amp.       -2.1100 Ry
        Total length         44.6496 bohr
 

     total cpu time spent up to now is      227.1 secs

     total energy              =   -4875.97119218 Ry
     Harris-Foulkes estimate   =   -4878.23373613 Ry
     estimated scf accuracy    <      18.96724929 Ry

     iteration #  9     ecut=    36.75 Ry     beta=0.30
     Davidson diagonalization with overlap
     ethr =  8.07E-03,  avg # of iterations =  1.6
 
     Adding external electric field

     Computed dipole along edir(3) : 
        Dipole                5.4159 Ry au,         13.7659 Debye
        Dipole field          0.0179 Ry au
 
        Potential amp.       -1.5963 Ry
        Total length         44.6496 bohr
 

     total cpu time spent up to now is      237.0 secs

     total energy              =   -4875.17301369 Ry
     Harris-Foulkes estimate   =   -4876.32082964 Ry
     estimated scf accuracy    <       8.73226699 Ry

     iteration # 10     ecut=    36.75 Ry     beta=0.30
     Davidson diagonalization with overlap
     ethr =  3.72E-03,  avg # of iterations =  3.5
 
     Adding external electric field

     Computed dipole along edir(3) : 
        Dipole                5.7364 Ry au,         14.5805 Debye
        Dipole field          0.0189 Ry au
 
        Potential amp.       -1.6908 Ry
        Total length         44.6496 bohr
 

     total cpu time spent up to now is      248.8 secs

     total energy              =   -4875.70198394 Ry
     Harris-Foulkes estimate   =   -4875.36058209 Ry
     estimated scf accuracy    <       3.63375332 Ry

     iteration # 11     ecut=    36.75 Ry     beta=0.30
     Davidson diagonalization with overlap
     ethr =  1.55E-03,  avg # of iterations =  2.1
 
     Adding external electric field

     Computed dipole along edir(3) : 
        Dipole                3.4695 Ry au,          8.8186 Debye
        Dipole field          0.0115 Ry au
 
        Potential amp.       -1.0226 Ry
        Total length         44.6496 bohr
 

     total cpu time spent up to now is      259.2 secs

     total energy              =   -4874.78448901 Ry
     Harris-Foulkes estimate   =   -4875.84086892 Ry
     estimated scf accuracy    <       6.04487525 Ry

     iteration # 12     ecut=    36.75 Ry     beta=0.30
     Davidson diagonalization with overlap
     ethr =  1.55E-03,  avg # of iterations =  1.8

     negative rho (up, down):  1.561E-07 0.000E+00
 
     Adding external electric field

     Computed dipole along edir(3) : 
        Dipole               -0.9924 Ry au,         -2.5225 Debye
        Dipole field         -0.0033 Ry au
 
        Potential amp.        0.2925 Ry
        Total length         44.6496 bohr
 

     total cpu time spent up to now is      269.2 secs

     total energy              =   -4873.93244153 Ry
     Harris-Foulkes estimate   =   -4874.89089012 Ry
     estimated scf accuracy    <       2.71427969 Ry

     iteration # 13     ecut=    36.75 Ry     beta=0.30
     Davidson diagonalization with overlap
     ethr =  1.16E-03,  avg # of iterations =  8.2

     negative rho (up, down):  8.611E-08 0.000E+00
 
     Adding external electric field

     Computed dipole along edir(3) : 
        Dipole               -0.8879 Ry au,         -2.2567 Debye
        Dipole field         -0.0029 Ry au
 
        Potential amp.        0.2617 Ry
        Total length         44.6496 bohr
 

     total cpu time spent up to now is      292.7 secs

     total energy              =   -4874.92542226 Ry
     Harris-Foulkes estimate   =   -4874.94101100 Ry
     estimated scf accuracy    <      10.91808988 Ry

     iteration # 14     ecut=    36.75 Ry     beta=0.30
     Davidson diagonalization with overlap
     ethr =  1.16E-03,  avg # of iterations =  1.0
 
     Adding external electric field

     Computed dipole along edir(3) : 
        Dipole               -0.5546 Ry au,         -1.4097 Debye
        Dipole field         -0.0018 Ry au
 
        Potential amp.        0.1635 Ry
        Total length         44.6496 bohr
 

     total cpu time spent up to now is      302.2 secs

     total energy              =   -4874.85091915 Ry
     Harris-Foulkes estimate   =   -4874.92843270 Ry
     estimated scf accuracy    <      10.13311334 Ry

     iteration # 15     ecut=    36.75 Ry     beta=0.30
     Davidson diagonalization with overlap
     ethr =  1.16E-03,  avg # of iterations =  2.5

     negative rho (up, down):  1.311E-08 0.000E+00
 
     Adding external electric field

     Computed dipole along edir(3) : 
        Dipole               -0.2129 Ry au,         -0.5412 Debye
        Dipole field         -0.0007 Ry au
 
        Potential amp.        0.0628 Ry
        Total length         44.6496 bohr
 

     total cpu time spent up to now is      313.0 secs

     total energy              =   -4874.78464610 Ry
     Harris-Foulkes estimate   =   -4874.89494677 Ry
     estimated scf accuracy    <       6.32008009 Ry

     iteration # 16     ecut=    36.75 Ry     beta=0.30
     Davidson diagonalization with overlap
     ethr =  1.16E-03,  avg # of iterations =  3.3

     negative rho (up, down):  5.918E-05 0.000E+00
 
     Adding external electric field

     Computed dipole along edir(3) : 
        Dipole                1.0237 Ry au,          2.6020 Debye
        Dipole field          0.0034 Ry au
 
        Potential amp.       -0.3017 Ry
        Total length         44.6496 bohr
 

     total cpu time spent up to now is      324.5 secs

     total energy              =   -4874.20638175 Ry
     Harris-Foulkes estimate   =   -4874.79698135 Ry
     estimated scf accuracy    <       4.74801210 Ry

     iteration # 17     ecut=    36.75 Ry     beta=0.30
     Davidson diagonalization with overlap
     ethr =  1.16E-03,  avg # of iterations =  7.9

     negative rho (up, down):  1.254E-03 0.000E+00
 
     Adding external electric field

     Computed dipole along edir(3) : 
        Dipole                1.4496 Ry au,          3.6844 Debye
        Dipole field          0.0048 Ry au
 
        Potential amp.       -0.4273 Ry
        Total length         44.6496 bohr
 

     total cpu time spent up to now is      341.2 secs

     total energy              =   -4874.37503553 Ry
     Harris-Foulkes estimate   =   -4874.42211576 Ry
     estimated scf accuracy    <       0.42444908 Ry

     iteration # 18     ecut=    36.75 Ry     beta=0.30
     Davidson diagonalization with overlap
     ethr =  1.81E-04,  avg # of iterations =  5.0

     negative rho (up, down):  2.761E-03 0.000E+00
 
     Adding external electric field

     Computed dipole along edir(3) : 
        Dipole                2.1570 Ry au,          5.4826 Debye
        Dipole field          0.0071 Ry au
 
        Potential amp.       -0.6358 Ry
        Total length         44.6496 bohr
 

     total cpu time spent up to now is      355.9 secs

     total energy              =   -4874.42789893 Ry
     Harris-Foulkes estimate   =   -4874.40449680 Ry
     estimated scf accuracy    <       0.06929505 Ry

     iteration # 19     ecut=    36.75 Ry     beta=0.30
     Davidson diagonalization with overlap
     ethr =  2.95E-05,  avg # of iterations =  5.0

     negative rho (up, down):  2.696E-03 0.000E+00
 
     Adding external electric field

     Computed dipole along edir(3) : 
        Dipole                2.2713 Ry au,          5.7732 Debye
        Dipole field          0.0075 Ry au
 
        Potential amp.       -0.6695 Ry
        Total length         44.6496 bohr
 

     total cpu time spent up to now is      370.7 secs

     total energy              =   -4874.45574201 Ry
     Harris-Foulkes estimate   =   -4874.44351979 Ry
     estimated scf accuracy    <       0.19100199 Ry

     iteration # 20     ecut=    36.75 Ry     beta=0.30
     Davidson diagonalization with overlap
     ethr =  2.95E-05,  avg # of iterations =  1.3

     negative rho (up, down):  2.756E-03 0.000E+00
 
     Adding external electric field

     Computed dipole along edir(3) : 
        Dipole                2.2897 Ry au,          5.8200 Debye
        Dipole field          0.0076 Ry au
 
        Potential amp.       -0.6749 Ry
        Total length         44.6496 bohr
 

     total cpu time spent up to now is      380.4 secs

     total energy              =   -4874.46122827 Ry
     Harris-Foulkes estimate   =   -4874.45623920 Ry
     estimated scf accuracy    <       0.17831474 Ry

     iteration # 21     ecut=    36.75 Ry     beta=0.30
     Davidson diagonalization with overlap
     ethr =  2.95E-05,  avg # of iterations =  1.1

     negative rho (up, down):  2.897E-03 0.000E+00
 
     Adding external electric field

     Computed dipole along edir(3) : 
        Dipole                2.2540 Ry au,          5.7291 Debye
        Dipole field          0.0074 Ry au
 
        Potential amp.       -0.6644 Ry
        Total length         44.6496 bohr
 

     total cpu time spent up to now is      389.8 secs

     total energy              =   -4874.45928841 Ry
     Harris-Foulkes estimate   =   -4874.46239671 Ry
     estimated scf accuracy    <       0.22386030 Ry

     iteration # 22     ecut=    36.75 Ry     beta=0.30
     Davidson diagonalization with overlap
     ethr =  2.95E-05,  avg # of iterations =  1.0

     negative rho (up, down):  3.040E-03 0.000E+00
 
     Adding external electric field

     Computed dipole along edir(3) : 
        Dipole                1.9940 Ry au,          5.0682 Debye
        Dipole field          0.0066 Ry au
 
        Potential amp.       -0.5877 Ry
        Total length         44.6496 bohr
 

     total cpu time spent up to now is      399.2 secs

     total energy              =   -4874.44052816 Ry
     Harris-Foulkes estimate   =   -4874.46306601 Ry
     estimated scf accuracy    <       0.20016668 Ry

     iteration # 23     ecut=    36.75 Ry     beta=0.30
     Davidson diagonalization with overlap
     ethr =  2.95E-05,  avg # of iterations =  1.1

     negative rho (up, down):  3.183E-03 0.000E+00
 
     Adding external electric field

     Computed dipole along edir(3) : 
        Dipole                1.7832 Ry au,          4.5324 Debye
        Dipole field          0.0059 Ry au
 
        Potential amp.       -0.5256 Ry
        Total length         44.6496 bohr
 

     total cpu time spent up to now is      408.5 secs

     total energy              =   -4874.42731818 Ry
     Harris-Foulkes estimate   =   -4874.44364962 Ry
     estimated scf accuracy    <       0.14016441 Ry

     iteration # 24     ecut=    36.75 Ry     beta=0.30
     Davidson diagonalization with overlap
     ethr =  2.95E-05,  avg # of iterations =  1.2

     negative rho (up, down):  2.175E-03 0.000E+00
 
     Adding external electric field

     Computed dipole along edir(3) : 
        Dipole                1.6696 Ry au,          4.2437 Debye
        Dipole field          0.0055 Ry au
 
        Potential amp.       -0.4921 Ry
        Total length         44.6496 bohr
 

     total cpu time spent up to now is      418.1 secs

     total energy              =   -4874.42044661 Ry
     Harris-Foulkes estimate   =   -4874.42892439 Ry
     estimated scf accuracy    <       0.10648334 Ry

     iteration # 25     ecut=    36.75 Ry     beta=0.30
     Davidson diagonalization with overlap
     ethr =  2.95E-05,  avg # of iterations =  1.0

     negative rho (up, down):  3.483E-03 0.000E+00
 
     Adding external electric field

     Computed dipole along edir(3) : 
        Dipole                0.5195 Ry au,          1.3206 Debye
        Dipole field          0.0017 Ry au
 
        Potential amp.       -0.1531 Ry
        Total length         44.6496 bohr
 

     total cpu time spent up to now is      427.4 secs

     total energy              =   -4874.37782260 Ry
     Harris-Foulkes estimate   =   -4874.42887114 Ry
     estimated scf accuracy    <       0.08739268 Ry

     iteration # 26     ecut=    36.75 Ry     beta=0.30
     Davidson diagonalization with overlap
     ethr =  2.95E-05,  avg # of iterations =  4.8

     negative rho (up, down):  5.190E-03 0.000E+00
 
     Adding external electric field

     Computed dipole along edir(3) : 
        Dipole                0.3194 Ry au,          0.8119 Debye
        Dipole field          0.0011 Ry au
 
        Potential amp.       -0.0941 Ry
        Total length         44.6496 bohr
 

     total cpu time spent up to now is      441.4 secs

     total energy              =   -4874.38362306 Ry
     Harris-Foulkes estimate   =   -4874.38648785 Ry
     estimated scf accuracy    <       0.00488810 Ry

     iteration # 27     ecut=    36.75 Ry     beta=0.30
     Davidson diagonalization with overlap
     ethr =  2.08E-06,  avg # of iterations =  6.1

     negative rho (up, down):  3.710E-03 0.000E+00
 
     Adding external electric field

     Computed dipole along edir(3) : 
        Dipole                0.3237 Ry au,          0.8227 Debye
        Dipole field          0.0011 Ry au
 
        Potential amp.       -0.0954 Ry
        Total length         44.6496 bohr
 

     total cpu time spent up to now is      457.1 secs

     total energy              =   -4874.38398074 Ry
     Harris-Foulkes estimate   =   -4874.38414553 Ry
     estimated scf accuracy    <       0.00107262 Ry

     iteration # 28     ecut=    36.75 Ry     beta=0.30
     Davidson diagonalization with overlap
     ethr =  4.56E-07,  avg # of iterations =  4.7

     negative rho (up, down):  1.477E-03 0.000E+00
 
     Adding external electric field

     Computed dipole along edir(3) : 
        Dipole                0.2545 Ry au,          0.6468 Debye
        Dipole field          0.0008 Ry au
 
        Potential amp.       -0.0750 Ry
        Total length         44.6496 bohr
 

     total cpu time spent up to now is      471.7 secs

     total energy              =   -4874.38400145 Ry
     Harris-Foulkes estimate   =   -4874.38429188 Ry
     estimated scf accuracy    <       0.00087772 Ry

     iteration # 29     ecut=    36.75 Ry     beta=0.30
     Davidson diagonalization with overlap
     ethr =  3.73E-07,  avg # of iterations =  7.4

     negative rho (up, down):  1.354E-03 0.000E+00
 
     Adding external electric field

     Computed dipole along edir(3) : 
        Dipole                0.2486 Ry au,          0.6319 Debye
        Dipole field          0.0008 Ry au
 
        Potential amp.       -0.0733 Ry
        Total length         44.6496 bohr
 

     total cpu time spent up to now is      487.9 secs

     total energy              =   -4874.38407529 Ry
     Harris-Foulkes estimate   =   -4874.38409820 Ry
     estimated scf accuracy    <       0.00007269 Ry

     iteration # 30     ecut=    36.75 Ry     beta=0.30
     Davidson diagonalization with overlap
     ethr =  3.09E-08,  avg # of iterations =  3.7

     negative rho (up, down):  9.279E-04 0.000E+00
 
     Adding external electric field

     Computed dipole along edir(3) : 
        Dipole                0.2507 Ry au,          0.6372 Debye
        Dipole field          0.0008 Ry au
 
        Potential amp.       -0.0739 Ry
        Total length         44.6496 bohr
 

     total cpu time spent up to now is      502.4 secs

     total energy              =   -4874.38410988 Ry
     Harris-Foulkes estimate   =   -4874.38409487 Ry
     estimated scf accuracy    <       0.00008740 Ry

     iteration # 31     ecut=    36.75 Ry     beta=0.30
     Davidson diagonalization with overlap
     ethr =  3.09E-08,  avg # of iterations =  4.5

     negative rho (up, down):  8.751E-04 0.000E+00
 
     Adding external electric field

     Computed dipole along edir(3) : 
        Dipole                0.2421 Ry au,          0.6152 Debye
        Dipole field          0.0008 Ry au
 
        Potential amp.       -0.0713 Ry
        Total length         44.6496 bohr
 

     total cpu time spent up to now is      515.4 secs

     total energy              =   -4874.38412057 Ry
     Harris-Foulkes estimate   =   -4874.38413292 Ry
     estimated scf accuracy    <       0.00002019 Ry

     iteration # 32     ecut=    36.75 Ry     beta=0.30
     Davidson diagonalization with overlap
     ethr =  8.59E-09,  avg # of iterations =  2.3

     negative rho (up, down):  9.952E-04 0.000E+00

     negative rho (up, down):  9.952E-04 0.000E+00

     negative rho (up, down):  9.952E-04 0.000E+00

     negative rho (up, down):  9.952E-04 0.000E+00

     negative rho (up, down):  9.952E-04 0.000E+00

     negative rho (up, down):  9.952E-04 0.000E+00

     negative rho (up, down):  9.952E-04 0.000E+00

     negative rho (up, down):  9.952E-04 0.000E+00

     negative rho (up, down):  9.952E-04 0.000E+00

     negative rho (up, down):  9.952E-04 0.000E+00

     negative rho (up, down):  9.952E-04 0.000E+00

     negative rho (up, down):  9.952E-04 0.000E+00

     negative rho (up, down):  9.952E-04 0.000E+00

     negative rho (up, down):  9.952E-04 0.000E+00

     negative rho (up, down):  9.952E-04 0.000E+00

     negative rho (up, down):  9.952E-04 0.000E+00

     negative rho (up, down):  9.952E-04 0.000E+00

     negative rho (up, down):  9.952E-04 0.000E+00

     negative rho (up, down):  9.952E-04 0.000E+00

     negative rho (up, down):  9.952E-04 0.000E+00

     negative rho (up, down):  9.952E-04 0.000E+00

     negative rho (up, down):  9.952E-04 0.000E+00

     negative rho (up, down):  9.952E-04 0.000E+00

     negative rho (up, down):  9.952E-04 0.000E+00

     negative rho (up, down):  9.952E-04 0.000E+00

     negative rho (up, down):  9.952E-04 0.000E+00

     negative rho (up, down):  9.952E-04 0.000E+00

     negative rho (up, down):  9.952E-04 0.000E+00

     negative rho (up, down):  9.952E-04 0.000E+00

     negative rho (up, down):  9.952E-04 0.000E+00

     negative rho (up, down):  9.952E-04 0.000E+00

     negative rho (up, down):  9.952E-04 0.000E+00

     negative rho (up, down):  9.952E-04 0.000E+00

     negative rho (up, down):  9.952E-04 0.000E+00

     negative rho (up, down):  9.952E-04 0.000E+00
 
     Adding external electric field

     Computed dipole along edir(3) : 
        Dipole                0.2666 Ry au,          0.6776 Debye
        Dipole field          0.0009 Ry au
 
        Potential amp.       -0.0786 Ry
        Total length         44.6496 bohr
 

     total cpu time spent up to now is      538.5 secs

     End of self-consistent calculation

          k = 0.0000 0.0000 0.0000 ( 14321 PWs)   bands (ev):

  -111.7760-111.7231-111.6452-111.5766-111.5724-111.4979-111.3444-111.3201
  -111.3146-111.3129-111.3069-111.3020 -69.2216 -69.1696 -69.1664 -69.1270
   -69.1143 -69.0757 -69.0497 -69.0481 -69.0386 -69.0027 -68.9754 -68.9711
   -68.9688 -68.9644 -68.9453 -68.8983 -68.8919 -68.8834 -68.7801 -68.7743
   -68.7642 -68.7632 -68.7484 -68.7232 -68.7213 -68.7189 -68.7182 -68.7146
   -68.7144 -68.6970 -68.6966 -68.6843 -68.6791 -68.6746 -68.6705 -68.6546
   -12.0570  -7.2865  -5.5912  -4.9239  -4.8488  -4.3274  -3.8097  -3.5569
    -3.5117  -3.4807  -3.3453  -3.3037  -3.2093  -3.0703  -3.0482  -2.9693
    -2.9453  -2.9211  -2.7711  -2.3838  -2.2978  -2.1235  -2.0835  -2.0361
    -2.0117  -1.9378  -1.9087  -1.8932  -1.8565  -1.8275  -1.7712  -1.7439
    -1.7395  -1.6798  -1.6252  -1.6159  -1.5286  -1.4694  -1.4330  -1.2596
    -1.2358  -1.1700  -1.1137  -1.0992  -1.0940  -1.0448  -0.9242  -0.9205
    -0.8596  -0.7524  -0.7323  -0.7111  -0.7001  -0.6707  -0.6596  -0.6568
    -0.6405  -0.6246  -0.6035  -0.5988  -0.5810  -0.5407  -0.4789  -0.3777
    -0.3740  -0.3729   0.0603   1.0406   1.0614   1.1671   1.5777   2.0707
     2.2250   2.4453   2.5459   2.6261   3.0436   4.1300   4.8675

          k = 0.0000 0.0371 0.0000 ( 14383 PWs)   bands (ev):

  -111.7760-111.7231-111.6452-111.5766-111.5724-111.4979-111.3444-111.3198
  -111.3146-111.3132-111.3069-111.3021 -69.2215 -69.1691 -69.1663 -69.1269
   -69.1137 -69.0755 -69.0487 -69.0463 -69.0379 -69.0012 -68.9755 -68.9712
   -68.9688 -68.9663 -68.9456 -68.9007 -68.8926 -68.8834 -68.7804 -68.7712
   -68.7615 -68.7597 -68.7489 -68.7232 -68.7214 -68.7208 -68.7202 -68.7149
   -68.7149 -68.7010 -68.6980 -68.6843 -68.6789 -68.6746 -68.6707 -68.6546
   -12.0423  -7.0833  -5.4558  -4.9767  -4.8619  -4.2498  -3.7674  -3.6145
    -3.4594  -3.4508  -3.2966  -3.2379  -3.1820  -3.0180  -2.9908  -2.9365
    -2.8829  -2.8237  -2.7119  -2.3611  -2.3012  -2.1466  -2.0944  -2.0172
    -2.0078  -1.9659  -1.9312  -1.8674  -1.8495  -1.8333  -1.7909  -1.7832
    -1.7386  -1.7212  -1.6491  -1.6073  -1.5661  -1.5593  -1.4852  -1.3355
    -1.2830  -1.2454  -1.1573  -1.1477  -1.1333  -1.1154  -1.0586  -0.9272
    -0.9126  -0.8703  -0.8406  -0.8185  -0.7984  -0.7640  -0.7531  -0.6929
    -0.6851  -0.6793  -0.6673  -0.6576  -0.6090  -0.6022  -0.5182  -0.5126
    -0.4580  -0.4545  -0.0270   0.3359   0.9633   1.0538   1.2711   1.6729
     2.0644   2.7125   3.2821   3.3184   3.5415   4.6318   5.0814

          k = 0.0000 0.0742 0.0000 ( 14316 PWs)   bands (ev):

  -111.7760-111.7230-111.6451-111.5766-111.5724-111.4979-111.3444-111.3189
  -111.3146-111.3140-111.3069-111.3022 -69.2212 -69.1681 -69.1661 -69.1267
   -69.1126 -69.0752 -69.0467 -69.0433 -69.0350 -68.9985 -68.9757 -68.9715
   -68.9699 -68.9688 -68.9460 -68.9058 -68.8941 -68.8835 -68.7811 -68.7640
   -68.7547 -68.7502 -68.7492 -68.7272 -68.7262 -68.7232 -68.7216 -68.7158
   -68.7131 -68.7121 -68.7006 -68.6842 -68.6784 -68.6746 -68.6712 -68.6547
   -12.0125  -6.4974  -5.2506  -5.0117  -4.8828  -4.3720  -3.9235  -3.4026
    -3.3772  -3.3162  -3.1674  -3.0870  -3.0756  -2.9037  -2.8348  -2.8266
    -2.6979  -2.5744  -2.5548  -2.3290  -2.3078  -2.2803  -2.2061  -2.1223
    -2.0565  -2.0382  -2.0203  -1.9560  -1.9391  -1.8495  -1.8156  -1.7450
    -1.7276  -1.7017  -1.6852  -1.6546  -1.6253  -1.6010  -1.5928  -1.4480
    -1.4182  -1.3633  -1.3552  -1.3191  -1.2936  -1.2851  -1.2389  -1.2279
    -1.1631  -1.1439  -1.0220  -0.9925  -0.9729  -0.9585  -0.9142  -0.8842
    -0.8456  -0.8351  -0.8269  -0.7267  -0.7117  -0.6622  -0.6490  -0.6105
    -0.5731  -0.5400  -0.4063   0.1689   0.7598   0.9200   1.3237   2.0679
     2.2076   2.6056   3.3287   4.1994   4.3920   4.8536   5.5540

          k = 0.0000-0.1114 0.0000 ( 14294 PWs)   bands (ev):

  -111.7760-111.7230-111.6451-111.5767-111.5724-111.4980-111.3444-111.3183
  -111.3146-111.3145-111.3069-111.3023 -69.2211 -69.1676 -69.1660 -69.1266
   -69.1120 -69.0751 -69.0457 -69.0423 -69.0324 -68.9976 -68.9759 -68.9720
   -68.9711 -68.9688 -68.9462 -68.9086 -68.8949 -68.8835 -68.7814 -68.7597
   -68.7506 -68.7497 -68.7382 -68.7339 -68.7312 -68.7234 -68.7217 -68.7210
   -68.7163 -68.7114 -68.7024 -68.6842 -68.6781 -68.6746 -68.6714 -68.6548
   -11.9975  -5.6705  -5.6446  -5.0875  -4.8995  -4.6079  -3.7447  -3.4391
    -3.2571  -3.2150  -3.0180  -2.9750  -2.9523  -2.8833  -2.6717  -2.6574
    -2.6045  -2.5106  -2.4853  -2.4154  -2.3063  -2.2958  -2.2328  -2.2186
    -2.1739  -2.1658  -2.0343  -1.9953  -1.9773  -1.8931  -1.8594  -1.8111
    -1.7823  -1.7002  -1.6907  -1.6638  -1.6491  -1.6437  -1.6308  -1.5804
    -1.5772  -1.5736  -1.5027  -1.4293  -1.3639  -1.3405  -1.3277  -1.2642
    -1.2370  -1.1785  -1.1564  -1.0962  -1.0875  -1.0353  -0.9995  -0.9942
    -0.9392  -0.8858  -0.8730  -0.8325  -0.7058  -0.6750  -0.6543  -0.6251
    -0.5754  -0.5593  -0.5311   0.1551   0.9170   1.0038   1.4480   1.6875
     2.1888   3.0058   3.7990   4.0155   4.7531   4.8549   5.1203

          k = 0.0321-0.0186 0.0000 ( 14383 PWs)   bands (ev):

  -111.7760-111.7231-111.6452-111.5764-111.5726-111.4979-111.3444-111.3197
  -111.3148-111.3130-111.3069-111.3021 -69.2204 -69.1693 -69.1667 -69.1268
   -69.1140 -69.0765 -69.0491 -69.0462 -69.0383 -68.9996 -68.9753 -68.9716
   -68.9693 -68.9647 -68.9482 -68.8994 -68.8931 -68.8834 -68.7779 -68.7714
   -68.7607 -68.7603 -68.7486 -68.7238 -68.7231 -68.7212 -68.7192 -68.7154
   -68.7147 -68.7014 -68.6976 -68.6843 -68.6788 -68.6749 -68.6705 -68.6546
   -12.0419  -7.0829  -5.4449  -4.9603  -4.8903  -4.2189  -3.7266  -3.6496
    -3.4877  -3.4271  -3.3283  -3.2535  -3.1532  -3.0278  -3.0007  -2.9218
    -2.8768  -2.8312  -2.7096  -2.3748  -2.2938  -2.1817  -2.0956  -2.0271
    -2.0041  -1.9733  -1.9435  -1.9066  -1.8333  -1.8209  -1.8020  -1.7761
    -1.7293  -1.7021  -1.6590  -1.6044  -1.5581  -1.5470  -1.5240  -1.3521
    -1.2722  -1.2103  -1.1746  -1.1661  -1.1144  -1.0933  -1.0659  -0.9376
    -0.9154  -0.8810  -0.8454  -0.7995  -0.7832  -0.7576  -0.7487  -0.7331
    -0.6909  -0.6750  -0.6596  -0.6470  -0.6262  -0.6010  -0.5323  -0.5059
    -0.4666  -0.4567  -0.0739   0.4464   0.9639   1.0360   1.3218   1.7558
     2.1436   2.6122   3.2722   3.3859   3.5083   4.4564   5.0659

          k = 0.0321 0.0186 0.0000 ( 14383 PWs)   bands (ev):

  -111.7760-111.7231-111.6452-111.5764-111.5726-111.4979-111.3444-111.3197
  -111.3148-111.3130-111.3069-111.3021 -69.2204 -69.1693 -69.1667 -69.1268
   -69.1140 -69.0765 -69.0481 -69.0473 -69.0382 -68.9995 -68.9752 -68.9720
   -68.9694 -68.9643 -68.9483 -68.8996 -68.8930 -68.8834 -68.7779 -68.7713
   -68.7614 -68.7597 -68.7486 -68.7239 -68.7231 -68.7213 -68.7195 -68.7150
   -68.7147 -68.7011 -68.6979 -68.6843 -68.6788 -68.6749 -68.6705 -68.6546
   -12.0419  -7.0829  -5.4448  -4.9602  -4.8905  -4.2188  -3.7230  -3.6560
    -3.4835  -3.4278  -3.3256  -3.2575  -3.1510  -3.0277  -3.0007  -2.9273
    -2.8766  -2.8279  -2.7089  -2.3742  -2.2973  -2.1782  -2.0959  -2.0252
    -2.0041  -1.9774  -1.9388  -1.9085  -1.8350  -1.8206  -1.8041  -1.7761
    -1.7273  -1.7002  -1.6605  -1.6059  -1.5591  -1.5384  -1.5344  -1.3450
    -1.2693  -1.2150  -1.1744  -1.1685  -1.1187  -1.0939  -1.0595  -0.9383
    -0.9126  -0.8835  -0.8460  -0.8032  -0.7833  -0.7636  -0.7482  -0.7240
    -0.6926  -0.6753  -0.6612  -0.6486  -0.6279  -0.5969  -0.5311  -0.5058
    -0.4684  -0.4569  -0.0658   0.4414   0.9625   1.0450   1.3151   1.7562
     2.1440   2.6120   3.2813   3.3855   3.5011   4.4232   5.0763

          k = 0.0321 0.0557 0.0000 ( 14335 PWs)   bands (ev):

  -111.7760-111.7231-111.6451-111.5764-111.5726-111.4979-111.3444-111.3190
  -111.3150-111.3134-111.3070-111.3022 -69.2202 -69.1685 -69.1665 -69.1267
   -69.1132 -69.0763 -69.0466 -69.0448 -69.0365 -68.9970 -68.9752 -68.9732
   -68.9696 -68.9662 -68.9487 -68.9035 -68.8939 -68.8834 -68.7783 -68.7659
   -68.7560 -68.7535 -68.7494 -68.7283 -68.7241 -68.7231 -68.7194 -68.7160
   -68.7154 -68.7080 -68.7003 -68.6842 -68.6784 -68.6749 -68.6708 -68.6547
   -12.0196  -6.6875  -5.2613  -4.9809  -4.9165  -4.1185  -3.8439  -3.7837
    -3.4274  -3.2768  -3.2374  -3.1129  -3.0737  -2.9296  -2.9056  -2.8517
    -2.7483  -2.6571  -2.5953  -2.3443  -2.3215  -2.2260  -2.1967  -2.0686
    -2.0497  -2.0144  -1.9730  -1.9543  -1.8930  -1.8408  -1.8155  -1.7857
    -1.7195  -1.7126  -1.6882  -1.6713  -1.6307  -1.5853  -1.4982  -1.4585
    -1.4086  -1.3202  -1.2599  -1.2334  -1.2145  -1.2040  -1.1883  -1.1690
    -1.1366  -1.0831  -1.0576  -0.9681  -0.9241  -0.9024  -0.8681  -0.8361
    -0.7865  -0.7671  -0.7201  -0.6988  -0.6838  -0.6610  -0.6168  -0.6020
    -0.5849  -0.3641  -0.1902  -0.0586   0.5918   0.6624   1.4369   2.2613
     2.5735   3.0712   3.1669   3.5263   3.8681   4.9451   5.3212

          k = 0.0321-0.1299 0.0000 ( 14299 PWs)   bands (ev):

  -111.7760-111.7231-111.6451-111.5764-111.5726-111.4979-111.3444-111.3182
  -111.3152-111.3139-111.3070-111.3023 -69.2199 -69.1678 -69.1664 -69.1265
   -69.1123 -69.0761 -69.0451 -69.0428 -69.0336 -68.9948 -68.9755 -68.9734
   -68.9700 -68.9689 -68.9489 -68.9071 -68.8953 -68.8835 -68.7788 -68.7587
   -68.7503 -68.7479 -68.7437 -68.7366 -68.7259 -68.7241 -68.7231 -68.7194
   -68.7161 -68.7116 -68.7037 -68.6842 -68.6779 -68.6750 -68.6712 -68.6548
   -11.9972  -5.9594  -5.2707  -5.0160  -4.8965  -4.4937  -3.9068  -3.7351
    -3.3183  -3.1580  -3.0239  -2.9248  -2.8835  -2.8126  -2.7207  -2.6921
    -2.5808  -2.5219  -2.4516  -2.3865  -2.3496  -2.3188  -2.2833  -2.2511
    -2.1877  -2.1175  -2.0733  -2.0225  -1.9455  -1.9059  -1.8738  -1.8248
    -1.8020  -1.7787  -1.7536  -1.7278  -1.6796  -1.6400  -1.6035  -1.5620
    -1.5494  -1.5184  -1.4736  -1.4402  -1.3381  -1.3118  -1.2702  -1.2302
    -1.2016  -1.1539  -1.1314  -1.0739  -1.0642  -1.0127  -0.9719  -0.9234
    -0.8646  -0.8199  -0.7928  -0.7474  -0.7150  -0.6898  -0.6726  -0.6594
    -0.6386  -0.6013  -0.3983  -0.1560   0.2394   0.8537   1.5700   2.3113
     2.7479   3.2868   3.6139   4.2415   4.6765   4.9051   5.2189

          k = 0.0321-0.0928 0.0000 ( 14299 PWs)   bands (ev):

  -111.7760-111.7231-111.6451-111.5764-111.5726-111.4979-111.3444-111.3182
  -111.3151-111.3140-111.3070-111.3023 -69.2200 -69.1678 -69.1664 -69.1265
   -69.1123 -69.0761 -69.0457 -69.0422 -69.0335 -68.9949 -68.9758 -68.9723
   -68.9707 -68.9692 -68.9489 -68.9070 -68.8954 -68.8835 -68.7789 -68.7588
   -68.7503 -68.7480 -68.7436 -68.7359 -68.7266 -68.7241 -68.7231 -68.7194
   -68.7161 -68.7116 -68.7036 -68.6842 -68.6779 -68.6750 -68.6712 -68.6548
   -11.9972  -5.9595  -5.2705  -5.0165  -4.8960  -4.4939  -3.9069  -3.7347
    -3.3210  -3.1570  -3.0231  -2.9263  -2.8822  -2.8114  -2.7199  -2.6921
    -2.5797  -2.5247  -2.4516  -2.3834  -2.3497  -2.3221  -2.2836  -2.2500
    -2.1876  -2.1180  -2.0708  -2.0223  -1.9418  -1.8952  -1.8793  -1.8277
    -1.8099  -1.7782  -1.7510  -1.7317  -1.6818  -1.6421  -1.6137  -1.5576
    -1.5382  -1.5136  -1.4778  -1.4429  -1.3464  -1.3114  -1.2727  -1.2206
    -1.1978  -1.1560  -1.1256  -1.0873  -1.0602  -1.0066  -0.9694  -0.9263
    -0.8679  -0.8220  -0.7878  -0.7403  -0.7162  -0.6915  -0.6772  -0.6589
    -0.6343  -0.6012  -0.4031  -0.1569   0.2382   0.8544   1.5692   2.3105
     2.7497   3.2849   3.6154   4.2432   4.6923   4.9195   5.1637

          k = 0.0321-0.0557 0.0000 ( 14335 PWs)   bands (ev):

  -111.7760-111.7231-111.6451-111.5764-111.5726-111.4979-111.3444-111.3191
  -111.3149-111.3135-111.3070-111.3022 -69.2202 -69.1686 -69.1665 -69.1266
   -69.1131 -69.0763 -69.0478 -69.0434 -69.0366 -68.9971 -68.9756 -68.9722
   -68.9696 -68.9671 -68.9485 -68.9033 -68.8941 -68.8834 -68.7784 -68.7661
   -68.7553 -68.7540 -68.7494 -68.7279 -68.7239 -68.7231 -68.7195 -68.7165
   -68.7155 -68.7081 -68.7000 -68.6842 -68.6784 -68.6749 -68.6709 -68.6547
   -12.0196  -6.6875  -5.2617  -4.9806  -4.9163  -4.1187  -3.8411  -3.7875
    -3.4264  -3.2826  -3.2344  -3.1072  -3.0794  -2.9290  -2.9039  -2.8487
    -2.7486  -2.6566  -2.6006  -2.3480  -2.3122  -2.2341  -2.1877  -2.0722
    -2.0572  -2.0065  -1.9732  -1.9535  -1.8963  -1.8347  -1.8079  -1.7835
    -1.7220  -1.7167  -1.6909  -1.6715  -1.6352  -1.5892  -1.4894  -1.4622
    -1.4115  -1.3186  -1.2639  -1.2317  -1.2173  -1.2015  -1.1905  -1.1708
    -1.1372  -1.0785  -1.0597  -0.9601  -0.9236  -0.9015  -0.8630  -0.8353
    -0.7874  -0.7664  -0.7211  -0.7038  -0.6848  -0.6678  -0.6162  -0.6002
    -0.5812  -0.3634  -0.1909  -0.0612   0.5930   0.6597   1.4357   2.2608
     2.5733   3.0686   3.1694   3.5437   3.8544   5.0122   5.2283

          k = 0.0643-0.0371 0.0000 ( 14316 PWs)   bands (ev):

  -111.7759-111.7231-111.6451-111.5759-111.5731-111.4979-111.3443-111.3186
  -111.3156-111.3131-111.3070-111.3023 -69.2178 -69.1688 -69.1674 -69.1264
   -69.1134 -69.0783 -69.0478 -69.0426 -69.0369 -68.9913 -68.9754 -68.9735
   -68.9704 -68.9652 -68.9547 -68.9022 -68.8951 -68.8834 -68.7728 -68.7646
   -68.7541 -68.7496 -68.7490 -68.7294 -68.7273 -68.7251 -68.7231 -68.7153
   -68.7139 -68.7128 -68.7001 -68.6843 -68.6779 -68.6756 -68.6706 -68.6547
   -12.0114  -6.4962  -5.2358  -4.9449  -4.9277  -4.2909  -3.9545  -3.3930
    -3.3811  -3.3395  -3.2611  -3.0975  -3.0360  -2.9416  -2.8401  -2.8104
    -2.6924  -2.6061  -2.5515  -2.3682  -2.3168  -2.2671  -2.2523  -2.1349
    -2.1134  -2.0635  -2.0242  -1.9504  -1.9008  -1.8584  -1.8186  -1.7746
    -1.7450  -1.6855  -1.6675  -1.6500  -1.6341  -1.6101  -1.5367  -1.4679
    -1.4105  -1.3802  -1.3555  -1.3131  -1.2971  -1.2523  -1.2313  -1.2045
    -1.1774  -1.1562  -1.0548  -0.9772  -0.9632  -0.9424  -0.9223  -0.9044
    -0.8692  -0.8415  -0.8243  -0.7349  -0.7223  -0.6653  -0.6547  -0.6225
    -0.5686  -0.5434  -0.3506   0.3124   0.8225   0.9609   1.3477   2.1260
     2.1973   2.7252   3.1962   4.1654   4.4321   5.0172   5.4359

          k = 0.0643-0.0000 0.0000 ( 14335 PWs)   bands (ev):

  -111.7759-111.7231-111.6451-111.5759-111.5731-111.4979-111.3443-111.3189
  -111.3155-111.3130-111.3070-111.3022 -69.2178 -69.1690 -69.1674 -69.1265
   -69.1138 -69.0783 -69.0469 -69.0449 -69.0377 -68.9924 -68.9748 -68.9737
   -68.9703 -68.9631 -68.9557 -68.9004 -68.8953 -68.8834 -68.7725 -68.7663
   -68.7549 -68.7542 -68.7488 -68.7294 -68.7280 -68.7231 -68.7190 -68.7162
   -68.7150 -68.7089 -68.6999 -68.6843 -68.6781 -68.6755 -68.6705 -68.6547
   -12.0189  -6.6858  -5.2177  -4.9973  -4.9384  -4.0158  -3.8547  -3.8112
    -3.4365  -3.2820  -3.2477  -3.1994  -3.0223  -2.9373  -2.9160  -2.8425
    -2.7205  -2.6919  -2.6028  -2.3755  -2.3086  -2.2744  -2.2002  -2.0784
    -2.0726  -2.0285  -1.9989  -1.9523  -1.8901  -1.8203  -1.8089  -1.7942
    -1.7400  -1.7054  -1.6879  -1.6599  -1.6382  -1.6122  -1.4780  -1.4373
    -1.4044  -1.3059  -1.2693  -1.2427  -1.2268  -1.1906  -1.1565  -1.1483
    -1.1291  -1.1022  -1.0653  -0.9545  -0.9148  -0.8880  -0.8778  -0.8324
    -0.8171  -0.8094  -0.7068  -0.6941  -0.6743  -0.6514  -0.6341  -0.5990
    -0.5894  -0.3541  -0.2195  -0.0104   0.6048   0.6172   1.6860   2.3477
     2.6399   2.9460   3.2308   3.5743   3.6993   4.7239   5.4537

          k = 0.0643 0.0371 0.0000 ( 14316 PWs)   bands (ev):

  -111.7759-111.7231-111.6451-111.5759-111.5732-111.4979-111.3443-111.3186
  -111.3157-111.3131-111.3070-111.3023 -69.2177 -69.1687 -69.1674 -69.1264
   -69.1135 -69.0782 -69.0460 -69.0448 -69.0368 -68.9912 -68.9751 -68.9745
   -68.9704 -68.9637 -68.9555 -68.9027 -68.8947 -68.8834 -68.7726 -68.7642
   -68.7548 -68.7495 -68.7489 -68.7295 -68.7275 -68.7254 -68.7231 -68.7152
   -68.7134 -68.7123 -68.7006 -68.6843 -68.6779 -68.6756 -68.6706 -68.6548
   -12.0114  -6.4962  -5.2354  -4.9437  -4.9297  -4.2895  -3.9544  -3.4003
    -3.3756  -3.3387  -3.2613  -3.0994  -3.0324  -2.9448  -2.8381  -2.8150
    -2.6885  -2.6059  -2.5492  -2.3636  -2.3314  -2.2704  -2.2414  -2.1365
    -2.1147  -2.0583  -2.0276  -1.9538  -1.9045  -1.8539  -1.8150  -1.7777
    -1.7440  -1.6776  -1.6693  -1.6499  -1.6337  -1.6085  -1.5278  -1.4728
    -1.4137  -1.3831  -1.3581  -1.3095  -1.3032  -1.2590  -1.2296  -1.2050
    -1.1746  -1.1531  -1.0596  -0.9785  -0.9637  -0.9398  -0.9216  -0.9051
    -0.8710  -0.8424  -0.8255  -0.7300  -0.7196  -0.6634  -0.6551  -0.6217
    -0.5706  -0.5428  -0.3516   0.3147   0.8186   0.9633   1.3513   2.1219
     2.2026   2.7252   3.1955   4.1595   4.4201   5.0558   5.3893

          k = 0.0643-0.1485 0.0000 ( 14299 PWs)   bands (ev):

  -111.7759-111.7231-111.6451-111.5759-111.5732-111.4979-111.3443-111.3178
  -111.3161-111.3134-111.3070-111.3023 -69.2176 -69.1682 -69.1673 -69.1263
   -69.1130 -69.0781 -69.0446 -69.0438 -69.0352 -68.9885 -68.9764 -68.9746
   -68.9704 -68.9664 -68.9552 -68.9050 -68.8956 -68.8834 -68.7730 -68.7588
   -68.7497 -68.7480 -68.7438 -68.7361 -68.7296 -68.7255 -68.7231 -68.7200
   -68.7157 -68.7115 -68.7037 -68.6842 -68.6775 -68.6758 -68.6709 -68.6548
   -11.9964  -5.9617  -5.2552  -5.0409  -4.8085  -4.5054  -3.9520  -3.6713
    -3.4082  -3.1459  -3.0236  -2.9412  -2.8885  -2.8416  -2.7207  -2.6941
    -2.5668  -2.5486  -2.4706  -2.3945  -2.3452  -2.3162  -2.2949  -2.2493
    -2.2090  -2.1405  -2.0820  -2.0152  -1.9414  -1.9109  -1.8889  -1.8290
    -1.7874  -1.7591  -1.7299  -1.7106  -1.6835  -1.6547  -1.6262  -1.5576
    -1.5323  -1.5142  -1.4902  -1.4463  -1.3513  -1.3014  -1.2556  -1.2254
    -1.1934  -1.1464  -1.1289  -1.0841  -1.0751  -1.0112  -0.9569  -0.9420
    -0.8779  -0.8342  -0.7958  -0.7371  -0.7294  -0.6980  -0.6709  -0.6546
    -0.6264  -0.6072  -0.3614  -0.1350   0.3356   0.8405   1.6577   2.3010
     2.7070   3.3255   3.6417   4.3059   4.7169   4.9560   5.0124

          k = 0.0643-0.1114 0.0000 ( 14310 PWs)   bands (ev):

  -111.7759-111.7231-111.6451-111.5759-111.5731-111.4979-111.3444-111.3174
  -111.3163-111.3136-111.3070-111.3024 -69.2175 -69.1680 -69.1672 -69.1263
   -69.1126 -69.0781 -69.0446 -69.0423 -69.0345 -68.9870 -68.9757 -68.9747
   -68.9705 -68.9692 -68.9551 -68.9054 -68.8967 -68.8834 -68.7732 -68.7508
   -68.7503 -68.7498 -68.7375 -68.7363 -68.7357 -68.7295 -68.7231 -68.7200
   -68.7160 -68.7091 -68.7081 -68.6842 -68.6772 -68.6759 -68.6710 -68.6548
   -11.9890  -5.3400  -5.3193  -5.1773  -4.7702  -4.6509  -4.3484  -3.4406
    -3.4182  -3.2488  -2.7824  -2.7764  -2.7315  -2.7021  -2.6775  -2.6609
    -2.5324  -2.5154  -2.4948  -2.4833  -2.4748  -2.3268  -2.3041  -2.2865
    -2.2354  -2.1567  -2.1189  -2.0399  -2.0274  -2.0115  -1.9664  -1.9633
    -1.9507  -1.9045  -1.7923  -1.7052  -1.6865  -1.6530  -1.6468  -1.5985
    -1.5757  -1.5572  -1.5455  -1.4032  -1.3462  -1.3095  -1.2124  -1.1997
    -1.1515  -1.1441  -1.0924  -1.0726  -1.0448  -1.0216  -0.9039  -0.8768
    -0.8474  -0.8123  -0.7627  -0.7498  -0.7349  -0.7149  -0.6956  -0.6824
    -0.6748  -0.6644  -0.5638  -0.2639  -0.2048   0.8133   1.9177   2.0298
     3.2008   4.3408   4.3951   4.6559   4.7506   4.9675   5.1733

          k = 0.0643-0.0742 0.0000 ( 14299 PWs)   bands (ev):

  -111.7759-111.7231-111.6451-111.5759-111.5731-111.4979-111.3443-111.3179
  -111.3159-111.3134-111.3070-111.3023 -69.2176 -69.1683 -69.1673 -69.1263
   -69.1129 -69.0782 -69.0465 -69.0416 -69.0351 -68.9887 -68.9763 -68.9739
   -68.9704 -68.9677 -68.9546 -68.9046 -68.8959 -68.8834 -68.7731 -68.7593
   -68.7497 -68.7474 -68.7438 -68.7355 -68.7294 -68.7260 -68.7231 -68.7202
   -68.7158 -68.7122 -68.7031 -68.6842 -68.6775 -68.6757 -68.6709 -68.6548
   -11.9964  -5.9618  -5.2553  -5.0404  -4.8088  -4.5059  -3.9526  -3.6706
    -3.4087  -3.1471  -3.0219  -2.9408  -2.8877  -2.8387  -2.7209  -2.6921
    -2.5670  -2.5524  -2.4737  -2.3913  -2.3444  -2.3206  -2.2941  -2.2500
    -2.2046  -2.1442  -2.0750  -2.0166  -1.9273  -1.9190  -1.8887  -1.8318
    -1.7948  -1.7583  -1.7372  -1.7087  -1.6982  -1.6510  -1.6252  -1.5530
    -1.5316  -1.5127  -1.4869  -1.4458  -1.3509  -1.2980  -1.2562  -1.2205
    -1.1946  -1.1497  -1.1219  -1.0896  -1.0743  -1.0092  -0.9577  -0.9356
    -0.8820  -0.8346  -0.7932  -0.7384  -0.7325  -0.6994  -0.6722  -0.6556
    -0.6249  -0.6056  -0.3607  -0.1345   0.3299   0.8407   1.6575   2.3015
     2.7016   3.3309   3.6451   4.3102   4.7335   4.8362   5.1450

          k =-0.0964 0.0557 0.0000 ( 14294 PWs)   bands (ev):

  -111.7759-111.7231-111.6451-111.5756-111.5735-111.4979-111.3443-111.3176
  -111.3165-111.3132-111.3070-111.3024 -69.2164 -69.1685 -69.1678 -69.1262
   -69.1132 -69.0792 -69.0472 -69.0412 -69.0355 -68.9847 -68.9768 -68.9743
   -68.9709 -68.9671 -68.9578 -68.9039 -68.8959 -68.8834 -68.7697 -68.7605
   -68.7497 -68.7488 -68.7383 -68.7328 -68.7328 -68.7298 -68.7237 -68.7225
   -68.7155 -68.7122 -68.7018 -68.6842 -68.6770 -68.6764 -68.6707 -68.6548
   -11.9959  -5.7270  -5.5815  -5.0020  -4.9148  -4.5639  -3.6941  -3.5679
    -3.2553  -3.2332  -3.0284  -2.9980  -2.9728  -2.9368  -2.6952  -2.6604
    -2.5722  -2.5451  -2.4903  -2.4506  -2.3100  -2.2793  -2.2672  -2.2432
    -2.2134  -2.1993  -2.0545  -1.9954  -1.9271  -1.8979  -1.8547  -1.8247
    -1.7676  -1.7606  -1.6781  -1.6494  -1.6411  -1.6315  -1.6083  -1.5876
    -1.5744  -1.5663  -1.5530  -1.3772  -1.3628  -1.3325  -1.3022  -1.2323
    -1.1927  -1.1797  -1.1737  -1.1367  -1.1031  -1.0417  -1.0362  -0.9748
    -0.9395  -0.9110  -0.8657  -0.8225  -0.7149  -0.6771  -0.6626  -0.6421
    -0.5778  -0.5404  -0.5054   0.3939   0.9556   0.9679   1.5862   1.6778
     2.2021   2.9470   3.8637   4.2443   4.5949   4.7653   5.1390

          k =-0.0964 0.0928 0.0000 ( 14299 PWs)   bands (ev):

  -111.7759-111.7231-111.6451-111.5756-111.5735-111.4979-111.3443-111.3177
  -111.3164-111.3132-111.3070-111.3024 -69.2164 -69.1685 -69.1678 -69.1262
   -69.1132 -69.0792 -69.0462 -69.0420 -69.0361 -68.9835 -68.9780 -68.9742
   -68.9710 -68.9657 -68.9592 -68.9029 -68.8967 -68.8834 -68.7696 -68.7594
   -68.7494 -68.7475 -68.7434 -68.7362 -68.7328 -68.7253 -68.7231 -68.7200
   -68.7155 -68.7128 -68.7030 -68.6843 -68.6770 -68.6763 -68.6707 -68.6548
   -11.9960  -5.9559  -5.2626  -5.0288  -4.8154  -4.4890  -3.8972  -3.7369
    -3.3852  -3.1502  -3.0555  -2.9636  -2.8714  -2.8369  -2.7222  -2.6968
    -2.5659  -2.5433  -2.4970  -2.3788  -2.3476  -2.3350  -2.3025  -2.2644
    -2.1984  -2.1370  -2.1056  -2.0329  -1.9612  -1.9001  -1.8880  -1.8205
    -1.8073  -1.7885  -1.7332  -1.7034  -1.6821  -1.6032  -1.5734  -1.5567
    -1.5424  -1.5185  -1.4834  -1.4394  -1.3483  -1.2958  -1.2668  -1.2346
    -1.2033  -1.1539  -1.1181  -1.0806  -1.0579  -1.0049  -0.9697  -0.9294
    -0.8836  -0.8565  -0.7912  -0.7385  -0.7287  -0.7035  -0.6728  -0.6519
    -0.6219  -0.6067  -0.3475  -0.1527   0.3161   0.8906   1.6941   2.3307
     2.7018   3.4147   3.7297   4.0616   4.6905   4.8589   5.2754

          k =-0.0964 0.1299 0.0000 ( 14299 PWs)   bands (ev):

  -111.7759-111.7231-111.6451-111.5755-111.5735-111.4979-111.3443-111.3176
  -111.3165-111.3132-111.3070-111.3024 -69.2164 -69.1685 -69.1677 -69.1262
   -69.1132 -69.0792 -69.0445 -69.0438 -69.0361 -68.9832 -68.9787 -68.9740
   -68.9711 -68.9641 -68.9603 -68.9033 -68.8964 -68.8834 -68.7695 -68.7590
   -68.7494 -68.7480 -68.7436 -68.7358 -68.7329 -68.7259 -68.7231 -68.7196
   -68.7155 -68.7122 -68.7034 -68.6843 -68.6770 -68.6764 -68.6707 -68.6548
   -11.9960  -5.9558  -5.2625  -5.0291  -4.8151  -4.4881  -3.8980  -3.7368
    -3.3868  -3.1461  -3.0586  -2.9637  -2.8727  -2.8373  -2.7192  -2.7000
    -2.5660  -2.5423  -2.4958  -2.3795  -2.3476  -2.3349  -2.3027  -2.2633
    -2.1988  -2.1355  -2.1055  -2.0315  -1.9678  -1.9050  -1.8819  -1.8175
    -1.8055  -1.7830  -1.7372  -1.7023  -1.6810  -1.6005  -1.5796  -1.5529
    -1.5419  -1.5192  -1.4817  -1.4394  -1.3572  -1.2975  -1.2686  -1.2331
    -1.2001  -1.1549  -1.1199  -1.0853  -1.0554  -1.0055  -0.9668  -0.9329
    -0.8777  -0.8564  -0.7956  -0.7377  -0.7283  -0.6996  -0.6719  -0.6488
    -0.6268  -0.6059  -0.3493  -0.1529   0.3192   0.8911   1.6938   2.3295
     2.7058   3.4094   3.7318   4.0632   4.6763   4.8995   5.2219

          k =-0.0964-0.0557 0.0000 ( 14294 PWs)   bands (ev):

  -111.7759-111.7231-111.6451-111.5755-111.5736-111.4979-111.3443-111.3173
  -111.3168-111.3131-111.3070-111.3024 -69.2164 -69.1684 -69.1678 -69.1262
   -69.1133 -69.0791 -69.0453 -69.0434 -69.0356 -68.9843 -68.9779 -68.9740
   -68.9711 -68.9648 -68.9592 -68.9045 -68.8954 -68.8834 -68.7694 -68.7598
   -68.7502 -68.7491 -68.7388 -68.7330 -68.7326 -68.7300 -68.7234 -68.7222
   -68.7155 -68.7113 -68.7025 -68.6843 -68.6769 -68.6765 -68.6707 -68.6548
   -11.9960  -5.7267  -5.5819  -5.0017  -4.9144  -4.5638  -3.6933  -3.5678
    -3.2616  -3.2291  -3.0260  -2.9992  -2.9770  -2.9380  -2.6896  -2.6675
    -2.5734  -2.5404  -2.4885  -2.4480  -2.3118  -2.2829  -2.2674  -2.2402
    -2.2083  -2.2016  -2.0619  -1.9843  -1.9473  -1.8926  -1.8390  -1.8304
    -1.7689  -1.7526  -1.6773  -1.6491  -1.6396  -1.6335  -1.6108  -1.5823
    -1.5720  -1.5624  -1.5466  -1.3961  -1.3676  -1.3374  -1.3067  -1.2309
    -1.2043  -1.1804  -1.1662  -1.1371  -1.0890  -1.0440  -1.0359  -0.9828
    -0.9377  -0.9137  -0.8620  -0.8256  -0.7094  -0.6731  -0.6641  -0.6400
    -0.5745  -0.5423  -0.5078   0.3954   0.9500   0.9731   1.5869   1.6840
     2.1998   2.9464   3.8603   4.2441   4.5926   4.7634   5.1343

     the Fermi energy is     0.9957 ev

!    total energy              =   -4874.38411702 Ry
     Harris-Foulkes estimate   =   -4874.38408198 Ry
     estimated scf accuracy    <       0.00000952 Ry

     The total energy is the sum of the following terms:

     one-electron contribution =  -37865.72544107 Ry
     hartree contribution      =   18953.20101271 Ry
     xc contribution           =    -486.00469147 Ry
     ewald contribution        =   14524.17038319 Ry
     electric field correction =       0.00023456 Ry
     smearing contrib. (-TS)   =      -0.02561495 Ry

     convergence has been achieved in  32 iterations
 
 BEEF-vdW xc energy contributions
           1 :   -430.489822705913     
           2 :    390.173838020008     
           3 :   -321.927049510373     
           4 :    244.556683553703     
           5 :   -175.133357818102     
           6 :    122.913872202805     
           7 :   -87.9094542523527     
           8 :    64.0290129127934     
           9 :   -44.3744987174274     
          10 :    25.4309767119814     
          11 :   -8.04733221703327     
          12 :   -4.67087744857270     
          13 :    10.5776075558629     
          14 :   -10.4783537449945     
          15 :    7.73419438313852     
          16 :   -6.07120765572643     
          17 :    7.30493352485462     
          18 :   -10.5442206693406     
          19 :    13.2649210059250     
          20 :   -13.3440740837226     
          21 :    10.5837593746326     
          22 :   -6.73948258948394     
          23 :    4.17191198810212     
          24 :   -4.17403598344890     
          25 :    6.15738017015627     
          26 :   -8.19851316139261     
          27 :    8.47370434195807     
          28 :   -6.53134890097624     
          29 :    3.52902446509080     
          30 :   -1.33219145571047     
          31 :   -34.5502736104527     
          32 :   -23.6203111724945     

     Forces acting on atoms (Ry/au):


     negative rho (up, down):  9.952E-04 0.000E+00
     atom    1 type  1   force =    -0.00008768   -0.00230081    0.01061501
     atom    2 type  1   force =     0.00012907    0.00023249    0.00488689
     atom    3 type  1   force =     0.00182778    0.00123255    0.00528687
     atom    4 type  1   force =    -0.00187832    0.00111148    0.00637031
     atom    5 type  1   force =    -0.00127671    0.00051116    0.00172636
     atom    6 type  1   force =     0.00103121   -0.00009452    0.00256690
     atom    7 type  1   force =    -0.00038970    0.00096922    0.01122548
     atom    8 type  1   force =     0.00053345   -0.00080399   -0.00622853
     atom    9 type  1   force =    -0.00676715   -0.00134199   -0.02119500
     atom   10 type  1   force =     0.01014158   -0.00141139   -0.01255779
     atom   11 type  1   force =    -0.00101364    0.00415795   -0.01873437
     atom   12 type  1   force =    -0.00083962   -0.00226892   -0.02014543
     atom   13 type  2   force =     0.03282112    0.00021822    0.21534786
     atom   14 type  3   force =    -0.07777009   -0.00008810   -0.07406244
     atom   15 type  3   force =     0.02178770   -0.04416516   -0.05263135
     atom   16 type  3   force =     0.02175101    0.04404182   -0.05247076

     Total force =     0.266246     Total SCF correction =     0.005779


     entering subroutine stress ...


     negative rho (up, down):  9.952E-04 0.000E+00
          total   stress  (Ry/bohr**3)                   (kbar)     P=  -33.37
  -0.00025369  -0.00000001  -0.00001167        -37.32     -0.00     -1.72
  -0.00000001  -0.00024081  -0.00000126         -0.00    -35.42     -0.19
  -0.00001167  -0.00000126  -0.00018600         -1.72     -0.19    -27.36


     BFGS Geometry Optimization

     number of scf cycles    =   1
     number of bfgs steps    =   0

     energy   new            =   -4874.3841170243 Ry

     new trust radius        =       0.2178347358 bohr
     new conv_thr            =       0.0000099958 Ry


ATOMIC_POSITIONS (crystal)
Cu1      0.166666667   0.166666667   0.412653782    0   0   0
Cu1      0.666666667   0.166666667   0.412653782    0   0   0
Cu1      0.166666667   0.666666667   0.412653782    0   0   0
Cu1      0.666666667   0.666666667   0.412653782    0   0   0
Cu1      0.833333333   0.333333333   0.500000000    0   0   0
Cu1      0.333333333   0.333333333   0.500000000    0   0   0
Cu1      0.833333333   0.833333333   0.500000000    0   0   0
Cu1      0.333333333   0.833333333   0.500000000    0   0   0
Cu1     -0.000611595  -0.000158157   0.586883389
Cu1      0.501118246  -0.000166336   0.587071997
Cu1     -0.000348466   0.500490022   0.586937121
Cu1      0.500048004   0.499732604   0.586906309
C1       0.253336955   0.000025717   0.656422694
H1       0.452296749  -0.000010383   0.676100117
H1       0.068985100   0.192893658   0.676568102
H1       0.261882281   0.807091807   0.676571608



     Writing output data file calc.save
     Check: negative starting charge=   -0.000132
     NEW-OLD atomic charge density approx. for the potential
     Check: negative starting charge=   -0.000135

     negative rho (up, down):  9.827E-04 0.000E+00
 
     Adding external electric field

     Computed dipole along edir(3) : 
        Dipole                0.1940 Ry au,          0.4930 Debye
        Dipole field          0.0006 Ry au
 
        Potential amp.       -0.0572 Ry
        Total length         44.6496 bohr
 

     total cpu time spent up to now is      553.7 secs

     Self-consistent Calculation

     iteration #  1     ecut=    36.75 Ry     beta=0.30
     Davidson diagonalization with overlap
     c_bands:  1 eigenvalues not converged
     c_bands:  1 eigenvalues not converged
     c_bands:  1 eigenvalues not converged
     c_bands:  1 eigenvalues not converged
     c_bands:  1 eigenvalues not converged
     ethr =  1.00E-06,  avg # of iterations = 13.0

     negative rho (up, down):  9.800E-04 0.000E+00
 
     Adding external electric field

     Computed dipole along edir(3) : 
        Dipole                0.2838 Ry au,          0.7213 Debye
        Dipole field          0.0009 Ry au
 
        Potential amp.       -0.0836 Ry
        Total length         44.6496 bohr
 

     total cpu time spent up to now is      586.8 secs

     total energy              =   -4874.42734856 Ry
     Harris-Foulkes estimate   =   -4874.43704928 Ry
     estimated scf accuracy    <       0.02567593 Ry

     iteration #  2     ecut=    36.75 Ry     beta=0.30
     Davidson diagonalization with overlap
     ethr =  1.09E-05,  avg # of iterations =  6.4

     negative rho (up, down):  9.915E-04 0.000E+00
 
     Adding external electric field

     Computed dipole along edir(3) : 
        Dipole                0.1025 Ry au,          0.2604 Debye
        Dipole field          0.0003 Ry au
 
        Potential amp.       -0.0302 Ry
        Total length         44.6496 bohr
 

     total cpu time spent up to now is      602.5 secs

     total energy              =   -4874.42241900 Ry
     Harris-Foulkes estimate   =   -4874.43378340 Ry
     estimated scf accuracy    <       0.06933854 Ry

     iteration #  3     ecut=    36.75 Ry     beta=0.30
     Davidson diagonalization with overlap
     ethr =  1.09E-05,  avg # of iterations =  6.2

     negative rho (up, down):  9.903E-04 0.000E+00
 
     Adding external electric field

     Computed dipole along edir(3) : 
        Dipole                0.2233 Ry au,          0.5676 Debye
        Dipole field          0.0007 Ry au
 
        Potential amp.       -0.0658 Ry
        Total length         44.6496 bohr
 

     total cpu time spent up to now is      617.5 secs

     total energy              =   -4874.42477059 Ry
     Harris-Foulkes estimate   =   -4874.43425067 Ry
     estimated scf accuracy    <       0.11180166 Ry

     iteration #  4     ecut=    36.75 Ry     beta=0.30
     Davidson diagonalization with overlap
     ethr =  1.09E-05,  avg # of iterations =  5.6

     negative rho (up, down):  9.864E-04 0.000E+00
 
     Adding external electric field

     Computed dipole along edir(3) : 
        Dipole                0.2149 Ry au,          0.5462 Debye
        Dipole field          0.0007 Ry au
 
        Potential amp.       -0.0633 Ry
        Total length         44.6496 bohr
 

     total cpu time spent up to now is      631.6 secs

     total energy              =   -4874.42886467 Ry
     Harris-Foulkes estimate   =   -4874.43055775 Ry
     estimated scf accuracy    <       0.00844345 Ry

     iteration #  5     ecut=    36.75 Ry     beta=0.30
     Davidson diagonalization with overlap
     ethr =  3.59E-06,  avg # of iterations =  3.8

     negative rho (up, down):  9.836E-04 0.000E+00
 
     Adding external electric field

     Computed dipole along edir(3) : 
        Dipole                0.2150 Ry au,          0.5466 Debye
        Dipole field          0.0007 Ry au
 
        Potential amp.       -0.0634 Ry
        Total length         44.6496 bohr
 

     total cpu time spent up to now is      643.6 secs

     total energy              =   -4874.42959807 Ry
     Harris-Foulkes estimate   =   -4874.42969973 Ry
     estimated scf accuracy    <       0.00046617 Ry

     iteration #  6     ecut=    36.75 Ry     beta=0.30
     Davidson diagonalization with overlap
     ethr =  1.98E-07,  avg # of iterations =  3.0

     negative rho (up, down):  9.843E-04 0.000E+00
 
     Adding external electric field

     Computed dipole along edir(3) : 
        Dipole                0.2159 Ry au,          0.5487 Debye
        Dipole field          0.0007 Ry au
 
        Potential amp.       -0.0636 Ry
        Total length         44.6496 bohr
 

     total cpu time spent up to now is      657.0 secs

     total energy              =   -4874.42967642 Ry
     Harris-Foulkes estimate   =   -4874.42971742 Ry
     estimated scf accuracy    <       0.00027386 Ry

     iteration #  7     ecut=    36.75 Ry     beta=0.30
     Davidson diagonalization with overlap
     ethr =  1.17E-07,  avg # of iterations =  2.3

     negative rho (up, down):  9.854E-04 0.000E+00
 
     Adding external electric field

     Computed dipole along edir(3) : 
        Dipole                0.2192 Ry au,          0.5571 Debye
        Dipole field          0.0007 Ry au
 
        Potential amp.       -0.0646 Ry
        Total length         44.6496 bohr
 

     total cpu time spent up to now is      667.7 secs

     total energy              =   -4874.42970544 Ry
     Harris-Foulkes estimate   =   -4874.42969817 Ry
     estimated scf accuracy    <       0.00003136 Ry

     iteration #  8     ecut=    36.75 Ry     beta=0.30
     Davidson diagonalization with overlap
     ethr =  1.33E-08,  avg # of iterations =  2.2

     negative rho (up, down):  9.862E-04 0.000E+00
 
     Adding external electric field

     Computed dipole along edir(3) : 
        Dipole                0.2186 Ry au,          0.5557 Debye
        Dipole field          0.0007 Ry au
 
        Potential amp.       -0.0644 Ry
        Total length         44.6496 bohr
 

     total cpu time spent up to now is      680.0 secs

     total energy              =   -4874.42971193 Ry
     Harris-Foulkes estimate   =   -4874.42971226 Ry
     estimated scf accuracy    <       0.00001041 Ry

     iteration #  9     ecut=    36.75 Ry     beta=0.30
     Davidson diagonalization with overlap
     ethr =  4.43E-09,  avg # of iterations =  2.0

     negative rho (up, down):  9.870E-04 0.000E+00

     negative rho (up, down):  9.870E-04 0.000E+00

     negative rho (up, down):  9.870E-04 0.000E+00

     negative rho (up, down):  9.870E-04 0.000E+00

     negative rho (up, down):  9.870E-04 0.000E+00

     negative rho (up, down):  9.870E-04 0.000E+00

     negative rho (up, down):  9.870E-04 0.000E+00

     negative rho (up, down):  9.870E-04 0.000E+00

     negative rho (up, down):  9.870E-04 0.000E+00

     negative rho (up, down):  9.870E-04 0.000E+00

     negative rho (up, down):  9.870E-04 0.000E+00

     negative rho (up, down):  9.870E-04 0.000E+00

     negative rho (up, down):  9.870E-04 0.000E+00

     negative rho (up, down):  9.870E-04 0.000E+00

     negative rho (up, down):  9.870E-04 0.000E+00

     negative rho (up, down):  9.870E-04 0.000E+00

     negative rho (up, down):  9.870E-04 0.000E+00

     negative rho (up, down):  9.870E-04 0.000E+00

     negative rho (up, down):  9.870E-04 0.000E+00

     negative rho (up, down):  9.870E-04 0.000E+00

     negative rho (up, down):  9.870E-04 0.000E+00

     negative rho (up, down):  9.870E-04 0.000E+00

     negative rho (up, down):  9.870E-04 0.000E+00

     negative rho (up, down):  9.870E-04 0.000E+00

     negative rho (up, down):  9.870E-04 0.000E+00

     negative rho (up, down):  9.870E-04 0.000E+00

     negative rho (up, down):  9.870E-04 0.000E+00

     negative rho (up, down):  9.870E-04 0.000E+00

     negative rho (up, down):  9.870E-04 0.000E+00

     negative rho (up, down):  9.870E-04 0.000E+00

     negative rho (up, down):  9.870E-04 0.000E+00

     negative rho (up, down):  9.870E-04 0.000E+00

     negative rho (up, down):  9.870E-04 0.000E+00

     negative rho (up, down):  9.870E-04 0.000E+00

     negative rho (up, down):  9.870E-04 0.000E+00
 
     Adding external electric field

     Computed dipole along edir(3) : 
        Dipole                0.2188 Ry au,          0.5560 Debye
        Dipole field          0.0007 Ry au
 
        Potential amp.       -0.0645 Ry
        Total length         44.6496 bohr
 

     total cpu time spent up to now is      702.5 secs

     End of self-consistent calculation

          k = 0.0000 0.0000 0.0000 ( 14321 PWs)   bands (ev):

  -111.7374-111.6972-111.6796-111.6329-111.6291-111.5517-111.3793-111.3707
  -111.3657-111.3615-111.3491-111.3438 -69.1675 -69.1406 -69.1154 -69.1044
   -69.0977 -69.0938 -69.0863 -69.0796 -69.0588 -69.0438 -69.0303 -69.0256
   -69.0242 -69.0199 -69.0018 -68.9527 -68.9454 -68.9362 -68.8243 -68.8149
   -68.8125 -68.8121 -68.7812 -68.7688 -68.7666 -68.7640 -68.7585 -68.7574
   -68.7494 -68.7449 -68.7448 -68.7309 -68.7266 -68.7215 -68.7195 -68.7024
   -12.3916  -7.3375  -5.5453  -5.2598  -5.2388  -4.1718  -3.7331  -3.6054
    -3.5718  -3.5184  -3.4067  -3.3679  -3.2227  -3.0995  -3.0803  -3.0170
    -2.9983  -2.9717  -2.7558  -2.4132  -2.3582  -2.1473  -2.0985  -2.0753
    -2.0402  -1.9777  -1.9523  -1.9462  -1.8635  -1.8533  -1.8107  -1.7807
    -1.7737  -1.7144  -1.6687  -1.6564  -1.5645  -1.5248  -1.4693  -1.2692
    -1.2512  -1.2023  -1.1589  -1.1421  -1.1322  -1.1013  -0.9546  -0.9519
    -0.9083  -0.7943  -0.7670  -0.7530  -0.7223  -0.7070  -0.7017  -0.7006
    -0.6844  -0.6755  -0.6503  -0.6489  -0.6149  -0.5575  -0.4992  -0.4272
    -0.4227  -0.4208   0.0778   0.9900   1.0240   1.1113   1.5602   2.0432
     2.1714   2.4022   2.5113   2.5838   3.1205   4.2231   4.9360

          k = 0.0000 0.0371 0.0000 ( 14383 PWs)   bands (ev):

  -111.7374-111.6972-111.6796-111.6329-111.6291-111.5517-111.3793-111.3704
  -111.3657-111.3618-111.3491-111.3438 -69.1673 -69.1400 -69.1148 -69.1030
   -69.0968 -69.0926 -69.0860 -69.0793 -69.0573 -69.0438 -69.0304 -69.0257
   -69.0243 -69.0219 -69.0020 -68.9551 -68.9461 -68.9362 -68.8213 -68.8152
   -68.8096 -68.8088 -68.7819 -68.7701 -68.7691 -68.7646 -68.7585 -68.7575
   -68.7500 -68.7491 -68.7458 -68.7307 -68.7266 -68.7215 -68.7197 -68.7025
   -12.3794  -7.1315  -5.4747  -5.2527  -5.2041  -4.0717  -3.8046  -3.6138
    -3.5184  -3.4932  -3.3479  -3.3003  -3.1890  -3.0493  -3.0279  -2.9757
    -2.9211  -2.8686  -2.7139  -2.3942  -2.3531  -2.1664  -2.1064  -2.0582
    -2.0424  -2.0070  -1.9743  -1.8982  -1.8893  -1.8749  -1.8352  -1.8012
    -1.7655  -1.7611  -1.6886  -1.6469  -1.6116  -1.6046  -1.5235  -1.3531
    -1.2839  -1.2736  -1.2041  -1.1864  -1.1774  -1.1623  -1.1118  -0.9596
    -0.9533  -0.8948  -0.8782  -0.8517  -0.8352  -0.8021  -0.7973  -0.7414
    -0.7290  -0.7207  -0.7034  -0.6961  -0.6490  -0.6272  -0.5661  -0.5493
    -0.5064  -0.4930  -0.0825   0.3342   0.9246   0.9990   1.2081   1.6463
     2.0223   2.6945   3.2575   3.2803   3.6563   4.6531   5.1649

          k = 0.0000 0.0742 0.0000 ( 14316 PWs)   bands (ev):

  -111.7374-111.6971-111.6796-111.6329-111.6291-111.5518-111.3793-111.3698
  -111.3657-111.3623-111.3492-111.3438 -69.1669 -69.1388 -69.1136 -69.1011
   -69.0951 -69.0885 -69.0854 -69.0784 -69.0547 -69.0439 -69.0305 -69.0265
   -69.0257 -69.0242 -69.0025 -68.9601 -68.9475 -68.9362 -68.8160 -68.8146
   -68.8025 -68.7985 -68.7832 -68.7763 -68.7756 -68.7632 -68.7600 -68.7584
   -68.7576 -68.7511 -68.7480 -68.7303 -68.7266 -68.7214 -68.7202 -68.7025
   -12.3549  -6.5377  -5.5076  -5.2791  -4.8407  -4.4520  -3.7945  -3.4484
    -3.4174  -3.3757  -3.1919  -3.1359  -3.0974  -2.9241  -2.8760  -2.8722
    -2.7233  -2.6166  -2.5807  -2.3675  -2.3467  -2.3146  -2.2410  -2.1595
    -2.1111  -2.0818  -2.0497  -1.9921  -1.9565  -1.8880  -1.8491  -1.7805
    -1.7600  -1.7336  -1.7240  -1.6817  -1.6634  -1.6394  -1.6048  -1.4869
    -1.4412  -1.4197  -1.3896  -1.3632  -1.3273  -1.3042  -1.2746  -1.2619
    -1.2102  -1.1876  -1.0619  -1.0300  -1.0122  -1.0043  -0.9587  -0.9208
    -0.8926  -0.8805  -0.8642  -0.7732  -0.7428  -0.7042  -0.6922  -0.6534
    -0.6177  -0.5824  -0.4508   0.1114   0.7303   0.8778   1.2817   2.0482
     2.1444   2.5157   3.3627   4.3034   4.3921   4.8955   5.6232

          k = 0.0000-0.1114 0.0000 ( 14294 PWs)   bands (ev):

  -111.7374-111.6971-111.6796-111.6329-111.6291-111.5518-111.3793-111.3694
  -111.3657-111.3626-111.3493-111.3438 -69.1667 -69.1382 -69.1131 -69.1004
   -69.0943 -69.0856 -69.0850 -69.0779 -69.0538 -69.0440 -69.0306 -69.0281
   -69.0260 -69.0244 -69.0027 -68.9627 -68.9482 -68.9363 -68.8164 -68.8105
   -68.7968 -68.7861 -68.7845 -68.7837 -68.7819 -68.7678 -68.7620 -68.7585
   -68.7578 -68.7516 -68.7494 -68.7300 -68.7266 -68.7213 -68.7204 -68.7026
   -12.3425  -5.8008  -5.6187  -5.2957  -5.2863  -4.3581  -3.8293  -3.3798
    -3.2780  -3.2673  -3.0617  -3.0315  -3.0083  -2.8822  -2.7175  -2.7154
    -2.6276  -2.5586  -2.5165  -2.4542  -2.3474  -2.3341  -2.2809  -2.2751
    -2.2118  -2.2021  -2.0500  -2.0106  -1.9833  -1.9208  -1.8604  -1.8481
    -1.8204  -1.7409  -1.7295  -1.6966  -1.6925  -1.6820  -1.6738  -1.6273
    -1.6248  -1.6199  -1.5634  -1.4428  -1.3982  -1.3906  -1.3430  -1.2808
    -1.2782  -1.2249  -1.1827  -1.1384  -1.1268  -1.0743  -1.0405  -1.0398
    -0.9810  -0.9347  -0.9163  -0.8784  -0.7405  -0.7156  -0.6973  -0.6681
    -0.6419  -0.6168  -0.5788   0.1496   0.8777   0.9533   1.3579   1.6808
     2.1367   2.9188   3.8751   3.9327   4.7227   5.0839   5.2783

          k = 0.0321-0.0186 0.0000 ( 14383 PWs)   bands (ev):

  -111.7374-111.6972-111.6796-111.6327-111.6294-111.5517-111.3793-111.3703
  -111.3659-111.3616-111.3491-111.3438 -69.1663 -69.1403 -69.1146 -69.1033
   -69.0963 -69.0934 -69.0865 -69.0798 -69.0557 -69.0445 -69.0301 -69.0264
   -69.0247 -69.0202 -69.0047 -68.9538 -68.9466 -68.9361 -68.8213 -68.8127
   -68.8097 -68.8088 -68.7816 -68.7711 -68.7680 -68.7645 -68.7599 -68.7584
   -68.7497 -68.7492 -68.7459 -68.7306 -68.7268 -68.7215 -68.7196 -68.7025
   -12.3792  -7.1315  -5.4633  -5.2667  -5.2035  -4.0413  -3.7626  -3.6353
    -3.5398  -3.4606  -3.3895  -3.3137  -3.1656  -3.0680  -3.0343  -2.9664
    -2.9152  -2.8795  -2.7068  -2.4051  -2.3515  -2.1969  -2.1065  -2.0628
    -2.0414  -2.0103  -1.9780  -1.9367  -1.8801  -1.8689  -1.8386  -1.8024
    -1.7584  -1.7450  -1.6959  -1.6399  -1.6006  -1.5965  -1.5697  -1.3543
    -1.2937  -1.2466  -1.2164  -1.2045  -1.1596  -1.1417  -1.1138  -0.9638
    -0.9476  -0.9074  -0.8802  -0.8372  -0.8222  -0.8007  -0.7918  -0.7723
    -0.7340  -0.7163  -0.7012  -0.6889  -0.6666  -0.6275  -0.5692  -0.5491
    -0.5074  -0.4961  -0.1284   0.4298   0.9256   0.9850   1.2515   1.7300
     2.0951   2.6045   3.2440   3.3406   3.6023   4.5033   5.1548

          k = 0.0321 0.0186 0.0000 ( 14383 PWs)   bands (ev):

  -111.7374-111.6972-111.6796-111.6327-111.6294-111.5517-111.3793-111.3703
  -111.3659-111.3616-111.3491-111.3438 -69.1663 -69.1403 -69.1143 -69.1033
[...]

  -111.7934-111.7699-111.7600-111.7252-111.7018-111.6710-111.5141-111.4868
  -111.4823-111.4815-111.4754-111.4672 -69.2024 -69.1948 -69.1911 -69.1820
   -69.1730 -69.1638 -69.1594 -69.1531 -69.1445 -69.1385 -69.1262 -69.1179
   -69.1067 -69.0896 -69.0790 -69.0740 -69.0634 -69.0506 -68.9380 -68.9323
   -68.9184 -68.9160 -68.9120 -68.8951 -68.8941 -68.8932 -68.8915 -68.8814
   -68.8784 -68.8782 -68.8638 -68.8536 -68.8477 -68.8430 -68.8420 -68.8221
   -12.1171  -6.6346  -5.5074  -5.1901  -4.8062  -4.5298  -3.6998  -3.5620
    -3.5196  -3.5021  -3.3344  -3.2703  -3.1155  -3.0617  -2.9939  -2.9437
    -2.8155  -2.7356  -2.6601  -2.4903  -2.4648  -2.4072  -2.3667  -2.2895
    -2.2436  -2.2326  -2.1467  -2.0905  -2.0393  -1.9817  -1.9433  -1.8937
    -1.8584  -1.8343  -1.8316  -1.8084  -1.7937  -1.7376  -1.6403  -1.6158
    -1.5548  -1.5158  -1.4993  -1.4579  -1.4448  -1.4018  -1.3591  -1.3450
    -1.3202  -1.3025  -1.2035  -1.1248  -1.1103  -1.0798  -1.0730  -1.0549
    -1.0007  -0.9871  -0.9582  -0.8838  -0.8686  -0.8197  -0.8056  -0.7678
    -0.7122  -0.6990  -0.5127   0.0939   0.7249   0.7916   1.1785   1.9670
     2.0539   2.4663   3.1429   4.2546   4.3806   4.8937   5.5313

          k = 0.0643-0.0000 0.0000 ( 14335 PWs)   bands (ev):

  -111.7934-111.7698-111.7600-111.7252-111.7018-111.6710-111.5141-111.4869
  -111.4829-111.4808-111.4754-111.4672 -69.2038 -69.1974 -69.1917 -69.1824
   -69.1729 -69.1636 -69.1578 -69.1490 -69.1450 -69.1411 -69.1268 -69.1178
   -69.1069 -69.0895 -69.0779 -69.0739 -69.0631 -69.0506 -68.9378 -68.9335
   -68.9212 -68.9193 -68.9117 -68.8950 -68.8940 -68.8938 -68.8860 -68.8830
   -68.8781 -68.8738 -68.8642 -68.8536 -68.8477 -68.8436 -68.8414 -68.8221
   -12.1228  -6.8322  -5.4903  -5.1790  -4.9479  -4.0732  -3.9991  -3.7670
    -3.4737  -3.4429  -3.3777  -3.3335  -3.1072  -3.0918  -3.0653  -2.9681
    -2.8495  -2.8256  -2.7001  -2.4919  -2.4653  -2.3748  -2.3374  -2.2301
    -2.1945  -2.1499  -2.1346  -2.1046  -2.0125  -1.9848  -1.9314  -1.9175
    -1.8813  -1.8526  -1.8367  -1.8178  -1.7724  -1.7586  -1.5822  -1.5547
    -1.5121  -1.4824  -1.4146  -1.3782  -1.3624  -1.3470  -1.3246  -1.2940
    -1.2733  -1.2448  -1.2178  -1.1059  -1.0728  -1.0379  -1.0048  -0.9840
    -0.9583  -0.9486  -0.8747  -0.8415  -0.8235  -0.7955  -0.7778  -0.7502
    -0.7297  -0.4556  -0.3706  -0.1901   0.4305   0.4739   1.4058   2.1981
     2.5706   2.8724   3.0302   3.5178   3.7150   4.7471   5.4310

          k = 0.0643 0.0371 0.0000 ( 14316 PWs)   bands (ev):

  -111.7934-111.7698-111.7601-111.7252-111.7018-111.6710-111.5141-111.4865
  -111.4836-111.4805-111.4754-111.4672 -69.2039 -69.1944 -69.1913 -69.1809
   -69.1728 -69.1641 -69.1590 -69.1484 -69.1452 -69.1431 -69.1265 -69.1171
   -69.1068 -69.0895 -69.0799 -69.0735 -69.0629 -69.0506 -68.9382 -68.9310
   -68.9211 -68.9152 -68.9120 -68.8950 -68.8945 -68.8939 -68.8915 -68.8791
   -68.8786 -68.8769 -68.8657 -68.8536 -68.8474 -68.8442 -68.8411 -68.8222
   -12.1171  -6.6347  -5.5068  -5.1907  -4.8080  -4.5289  -3.6999  -3.5674
    -3.5211  -3.5041  -3.3279  -3.2686  -3.1085  -3.0720  -2.9925  -2.9538
    -2.8125  -2.7372  -2.6586  -2.4836  -2.4731  -2.4076  -2.3609  -2.2911
    -2.2383  -2.2255  -2.1298  -2.0934  -2.0351  -1.9780  -1.9443  -1.8843
    -1.8678  -1.8405  -1.8347  -1.8125  -1.7897  -1.7406  -1.6464  -1.6045
    -1.5579  -1.5175  -1.4985  -1.4585  -1.4486  -1.4046  -1.3602  -1.3473
    -1.3142  -1.3052  -1.2170  -1.1223  -1.1089  -1.0844  -1.0749  -1.0545
    -1.0028  -0.9846  -0.9596  -0.8835  -0.8604  -0.8134  -0.8017  -0.7690
    -0.7243  -0.6938  -0.4989   0.0868   0.7218   0.7954   1.1762   1.9677
     2.0504   2.4644   3.1428   4.2382   4.3803   4.9003   5.4719

          k = 0.0643-0.1485 0.0000 ( 14299 PWs)   bands (ev):

  -111.7934-111.7698-111.7601-111.7252-111.7017-111.6710-111.5141-111.4857
  -111.4841-111.4807-111.4755-111.4673 -69.2002 -69.1923 -69.1896 -69.1789
   -69.1727 -69.1650 -69.1599 -69.1535 -69.1451 -69.1426 -69.1255 -69.1164
   -69.1066 -69.0897 -69.0818 -69.0740 -69.0632 -69.0507 -68.9389 -68.9253
   -68.9145 -68.9129 -68.9106 -68.9031 -68.8950 -68.8940 -68.8904 -68.8854
   -68.8793 -68.8767 -68.8691 -68.8536 -68.8469 -68.8444 -68.8413 -68.8222
   -12.1057  -6.0730  -5.5133  -5.2522  -4.9270  -4.3250  -4.1447  -3.6696
    -3.4292  -3.2796  -3.1374  -3.0682  -3.0237  -2.9741  -2.8753  -2.8578
    -2.7122  -2.6758  -2.5989  -2.5267  -2.5178  -2.4722  -2.4205  -2.3925
    -2.3137  -2.2676  -2.1898  -2.1455  -2.0693  -2.0435  -2.0126  -1.9552
    -1.9258  -1.9043  -1.8738  -1.8663  -1.8358  -1.7683  -1.7483  -1.7091
    -1.6816  -1.6719  -1.6301  -1.5952  -1.5108  -1.4310  -1.3822  -1.3666
    -1.3415  -1.2932  -1.2640  -1.2276  -1.2217  -1.1556  -1.1076  -1.1029
    -0.9904  -0.9728  -0.9420  -0.8850  -0.8672  -0.8451  -0.8256  -0.8144
    -0.7766  -0.7513  -0.5348  -0.2815   0.1666   0.6269   1.4300   2.2054
     2.4905   3.0708   3.5732   4.2184   4.7682   4.9040   5.1833

          k = 0.0643-0.1114 0.0000 ( 14310 PWs)   bands (ev):

  -111.7933-111.7699-111.7601-111.7252-111.7017-111.6710-111.5141-111.4856
  -111.4837-111.4812-111.4755-111.4673 -69.1947 -69.1931 -69.1898 -69.1787
   -69.1729 -69.1645 -69.1605 -69.1572 -69.1449 -69.1416 -69.1249 -69.1164
   -69.1064 -69.0898 -69.0820 -69.0747 -69.0636 -69.0507 -68.9391 -68.9183
   -68.9166 -68.9135 -68.9035 -68.9028 -68.8999 -68.8950 -68.8941 -68.8871
   -68.8796 -68.8749 -68.8719 -68.8536 -68.8470 -68.8439 -68.8418 -68.8222
   -12.1000  -5.5804  -5.4216  -5.1415  -5.0419  -4.9652  -3.9063  -3.6645
    -3.6015  -3.1288  -2.9266  -2.9203  -2.8910  -2.8593  -2.8374  -2.7824
    -2.7297  -2.6843  -2.6700  -2.6513  -2.6148  -2.4352  -2.4214  -2.4131
    -2.3149  -2.2726  -2.2470  -2.1618  -2.1494  -2.1307  -2.1188  -2.1038
    -2.0977  -2.0635  -1.9300  -1.8522  -1.8189  -1.7833  -1.7655  -1.7486
    -1.7222  -1.6983  -1.6962  -1.5646  -1.4772  -1.4560  -1.3808  -1.3321
    -1.3141  -1.2787  -1.2333  -1.2179  -1.1995  -1.1921  -1.0001  -0.9897
    -0.9636  -0.9454  -0.9237  -0.9020  -0.8888  -0.8697  -0.8432  -0.8280
    -0.8097  -0.8044  -0.6980  -0.4507  -0.4110   0.6032   1.6938   1.8226
     2.9021   4.3729   4.4500   4.4976   4.5925   4.8056   5.3343

          k = 0.0643-0.0742 0.0000 ( 14299 PWs)   bands (ev):

  -111.7933-111.7700-111.7600-111.7252-111.7017-111.6710-111.5141-111.4863
  -111.4826-111.4816-111.4755-111.4673 -69.1988 -69.1923 -69.1888 -69.1801
   -69.1731 -69.1656 -69.1621 -69.1547 -69.1443 -69.1394 -69.1252 -69.1172
   -69.1065 -69.0898 -69.0810 -69.0744 -69.0636 -69.0506 -68.9387 -68.9270
   -68.9132 -68.9117 -68.9099 -68.9018 -68.8952 -68.8942 -68.8921 -68.8868
   -68.8791 -68.8786 -68.8668 -68.8536 -68.8474 -68.8430 -68.8423 -68.8222
   -12.1057  -6.0729  -5.5134  -5.2515  -4.9266  -4.3237  -4.1450  -3.6698
    -3.4287  -3.2797  -3.1330  -3.0674  -3.0330  -2.9608  -2.8748  -2.8485
    -2.7126  -2.6745  -2.6024  -2.5296  -2.5207  -2.4716  -2.4272  -2.3972
    -2.3184  -2.2698  -2.1953  -2.1521  -2.0676  -2.0364  -2.0084  -1.9581
    -1.9314  -1.9060  -1.8843  -1.8642  -1.8358  -1.7625  -1.7524  -1.7110
    -1.6845  -1.6724  -1.6256  -1.5897  -1.5090  -1.4301  -1.3807  -1.3704
    -1.3309  -1.2901  -1.2650  -1.2381  -1.2151  -1.1436  -1.1084  -1.0977
    -0.9968  -0.9682  -0.9413  -0.8931  -0.8722  -0.8459  -0.8303  -0.8127
    -0.7696  -0.7521  -0.5406  -0.2798   0.1691   0.6280   1.4299   2.2052
     2.4880   3.0744   3.5772   4.2209   4.7340   4.9687   5.2057

          k =-0.0964 0.0557 0.0000 ( 14294 PWs)   bands (ev):

  -111.7933-111.7699-111.7601-111.7252-111.7018-111.6710-111.5141-111.4863
  -111.4822-111.4820-111.4755-111.4673 -69.2006 -69.1921 -69.1884 -69.1776
   -69.1714 -69.1655 -69.1616 -69.1592 -69.1427 -69.1387 -69.1254 -69.1180
   -69.1061 -69.0909 -69.0802 -69.0754 -69.0646 -69.0505 -68.9352 -68.9285
   -68.9132 -68.9121 -68.9043 -68.8999 -68.8979 -68.8969 -68.8946 -68.8873
   -68.8803 -68.8787 -68.8651 -68.8536 -68.8474 -68.8427 -68.8426 -68.8222
   -12.1052  -5.8483  -5.6801  -5.3353  -5.1955  -4.1958  -3.9340  -3.4495
    -3.4034  -3.3027  -3.1744  -3.1585  -3.1363  -2.9900  -2.8478  -2.8400
    -2.7140  -2.6845  -2.6212  -2.5796  -2.4699  -2.4467  -2.4121  -2.3767
    -2.3571  -2.2958  -2.1530  -2.1099  -2.0314  -1.9990  -1.9702  -1.9478
    -1.9047  -1.8934  -1.8333  -1.8183  -1.8090  -1.7934  -1.7694  -1.7439
    -1.7358  -1.7302  -1.6682  -1.5372  -1.5337  -1.4824  -1.4304  -1.3662
    -1.3361  -1.2948  -1.2698  -1.2684  -1.2301  -1.1922  -1.1792  -1.1369
    -1.0881  -1.0526  -1.0166  -0.9760  -0.8577  -0.8336  -0.8088  -0.7883
    -0.7357  -0.6982  -0.6954   0.2389   0.7798   0.8355   1.3301   1.6469
     1.9936   2.6075   3.8349   3.9928   4.5394   5.1748   5.2493

          k =-0.0964 0.0928 0.0000 ( 14299 PWs)   bands (ev):

  -111.7934-111.7698-111.7601-111.7252-111.7018-111.6710-111.5141-111.4862
  -111.4829-111.4814-111.4755-111.4673 -69.1992 -69.1932 -69.1905 -69.1765
   -69.1711 -69.1662 -69.1599 -69.1575 -69.1436 -69.1402 -69.1256 -69.1177
   -69.1062 -69.0907 -69.0798 -69.0757 -69.0646 -69.0505 -68.9353 -68.9270
   -68.9128 -68.9122 -68.9092 -68.9022 -68.8978 -68.8946 -68.8918 -68.8865
   -68.8792 -68.8788 -68.8666 -68.8536 -68.8473 -68.8435 -68.8419 -68.8222
   -12.1052  -6.0808  -5.5084  -5.2521  -4.9248  -4.3357  -4.1034  -3.6810
    -3.3962  -3.2880  -3.1268  -3.0969  -3.0305  -2.9552  -2.8832  -2.8549
    -2.7118  -2.6562  -2.6358  -2.5450  -2.5074  -2.4719  -2.4664  -2.3834
    -2.3075  -2.2630  -2.2077  -2.1612  -2.0554  -2.0249  -1.9881  -1.9769
    -1.9397  -1.9130  -1.8916  -1.8580  -1.8362  -1.7843  -1.7276  -1.7064
    -1.6854  -1.6652  -1.6292  -1.5974  -1.4877  -1.4260  -1.4044  -1.3711
    -1.3426  -1.2940  -1.2696  -1.2350  -1.2043  -1.1398  -1.1266  -1.0750
    -1.0083  -0.9843  -0.9425  -0.8940  -0.8700  -0.8527  -0.8262  -0.7974
    -0.7688  -0.7563  -0.5292  -0.2932   0.1579   0.6729   1.4658   2.2039
     2.4890   3.1727   3.6558   3.9987   4.7233   4.9376   5.2744

          k =-0.0964 0.1299 0.0000 ( 14299 PWs)   bands (ev):

  -111.7934-111.7697-111.7602-111.7252-111.7018-111.6710-111.5141-111.4858
  -111.4839-111.4808-111.4755-111.4673 -69.2003 -69.1930 -69.1907 -69.1751
   -69.1704 -69.1679 -69.1608 -69.1521 -69.1467 -69.1414 -69.1258 -69.1171
   -69.1064 -69.0905 -69.0807 -69.0752 -69.0642 -69.0505 -68.9355 -68.9258
   -68.9147 -68.9125 -68.9100 -68.9004 -68.8975 -68.8946 -68.8933 -68.8851
   -68.8789 -68.8774 -68.8682 -68.8536 -68.8470 -68.8443 -68.8413 -68.8222
   -12.1052  -6.0808  -5.5081  -5.2528  -4.9255  -4.3351  -4.1043  -3.6822
    -3.3944  -3.2868  -3.1257  -3.1010  -3.0279  -2.9675  -2.8811  -2.8618
    -2.7090  -2.6574  -2.6323  -2.5417  -2.5078  -2.4709  -2.4604  -2.3828
    -2.3064  -2.2660  -2.1914  -2.1525  -2.0741  -2.0304  -1.9858  -1.9720
    -1.9307  -1.9090  -1.8941  -1.8595  -1.8402  -1.7735  -1.7343  -1.6998
    -1.6849  -1.6706  -1.6299  -1.6036  -1.4961  -1.4249  -1.3987  -1.3682
    -1.3510  -1.2965  -1.2690  -1.2341  -1.2051  -1.1345  -1.1310  -1.0792
    -1.0113  -0.9798  -0.9439  -0.8900  -0.8712  -0.8467  -0.8197  -0.7961
    -0.7799  -0.7525  -0.5275  -0.2934   0.1518   0.6747   1.4632   2.2029
     2.4914   3.1693   3.6568   3.9966   4.7437   4.9136   5.2551

          k =-0.0964-0.0557 0.0000 ( 14294 PWs)   bands (ev):

  -111.7934-111.7697-111.7602-111.7252-111.7018-111.6710-111.5141-111.4854
  -111.4846-111.4806-111.4755-111.4673 -69.2023 -69.1920 -69.1891 -69.1745
   -69.1705 -69.1685 -69.1613 -69.1523 -69.1462 -69.1416 -69.1258 -69.1169
   -69.1064 -69.0905 -69.0817 -69.0746 -69.0640 -69.0506 -68.9356 -68.9263
   -68.9161 -68.9124 -68.9065 -68.8997 -68.8975 -68.8955 -68.8946 -68.8859
   -68.8790 -68.8775 -68.8675 -68.8536 -68.8468 -68.8448 -68.8411 -68.8222
   -12.1052  -5.8474  -5.6819  -5.3349  -5.1960  -4.1983  -3.9329  -3.4541
    -3.4042  -3.2936  -3.1740  -3.1601  -3.1431  -3.0021  -2.8550  -2.8442
    -2.7127  -2.6823  -2.6182  -2.5667  -2.4730  -2.4400  -2.4070  -2.3776
    -2.3577  -2.2922  -2.1203  -2.1168  -2.0451  -1.9994  -1.9597  -1.9364
    -1.9226  -1.8748  -1.8319  -1.8216  -1.8049  -1.7964  -1.7757  -1.7417
    -1.7364  -1.7298  -1.6614  -1.5640  -1.5343  -1.4879  -1.4277  -1.3730
    -1.3385  -1.3010  -1.2744  -1.2510  -1.2214  -1.1986  -1.1786  -1.1456
    -1.0898  -1.0532  -1.0183  -0.9713  -0.8466  -0.8270  -0.8034  -0.7916
    -0.7329  -0.7109  -0.6916   0.2301   0.7784   0.8368   1.3295   1.6507
     1.9895   2.6055   3.8333   3.9872   4.5374   5.1730   5.2350

     the Fermi energy is     0.8271 ev

!    total energy              =   -4874.44199655 Ry
     Harris-Foulkes estimate   =   -4874.44199646 Ry
     estimated scf accuracy    <       0.00000002 Ry

     The total energy is the sum of the following terms:

     one-electron contribution =  -37807.13285728 Ry
     hartree contribution      =   18923.11405465 Ry
     xc contribution           =    -486.12835289 Ry
     ewald contribution        =   14495.73135915 Ry
     electric field correction =       0.00007420 Ry
     smearing contrib. (-TS)   =      -0.02627437 Ry

     convergence has been achieved in   9 iterations
 
 BEEF-vdW xc energy contributions
           1 :   -430.581541874857     
           2 :    390.185601143685     
           3 :   -321.855402814005     
           4 :    244.460828260054     
           5 :   -175.076153183143     
           6 :    122.925735214937     
           7 :   -87.9833255577737     
           8 :    64.1346465544025     
           9 :   -44.4807052534804     
          10 :    25.5222564625219     
          11 :   -8.12657569684870     
          12 :   -4.59228253241190     
          13 :    10.4931747117329     
          14 :   -10.3945898046616     
          15 :    7.66799845174489     
          16 :   -6.03728525113740     
          17 :    7.30449763549132     
          18 :   -10.5655043777484     
          19 :    13.2930495415505     
          20 :   -13.3711645668344     
          21 :    10.6117139590270     
          22 :   -6.77408358727234     
          23 :    4.21439130129590     
          24 :   -4.21729464367900     
          25 :    6.18953770232156     
          26 :   -8.21152322047101     
          27 :    8.46976818648164     
          28 :   -6.52104872257792     
          29 :    3.52284112722339     
          30 :   -1.33270473588038     
          31 :   -34.5546120203519     
          32 :   -23.6074865025086     

     Forces acting on atoms (Ry/au):


     negative rho (up, down):  1.019E-03 0.000E+00
     atom    1 type  1   force =    -0.00031135   -0.00226508    0.00501534
     atom    2 type  1   force =     0.00028549    0.00013993    0.00154809
     atom    3 type  1   force =     0.00179349    0.00129193    0.00334213
     atom    4 type  1   force =    -0.00184144    0.00096364    0.00284356
     atom    5 type  1   force =     0.00072779   -0.00545335   -0.00574329
     atom    6 type  1   force =     0.00018613   -0.00462914   -0.00657050
     atom    7 type  1   force =     0.00122694    0.00736065    0.00829707
     atom    8 type  1   force =    -0.00014903    0.00255537   -0.00725228
     atom    9 type  1   force =    -0.00109641    0.00008154   -0.00012926
     atom   10 type  1   force =     0.00128238    0.00008799   -0.00088919
     atom   11 type  1   force =    -0.00003876   -0.00059088   -0.00028746
     atom   12 type  1   force =    -0.00000132    0.00062369   -0.00041099
     atom   13 type  2   force =    -0.00187862   -0.00001993   -0.00067217
     atom   14 type  3   force =    -0.00011525   -0.00005684    0.00039848
     atom   15 type  3   force =    -0.00001652   -0.00045101    0.00028436
     atom   16 type  3   force =    -0.00005352    0.00036151    0.00022611

     Total force =     0.003047     Total SCF correction =     0.000731
     SCF correction compared to forces is large: reduce conv_thr to get better values


     entering subroutine stress ...


     negative rho (up, down):  1.019E-03 0.000E+00
          total   stress  (Ry/bohr**3)                   (kbar)     P=  -20.90
  -0.00016925  -0.00000097  -0.00000392        -24.90     -0.14     -0.58
  -0.00000097  -0.00015313  -0.00000025         -0.14    -22.53     -0.04
  -0.00000392  -0.00000025  -0.00010379         -0.58     -0.04    -15.27


     bfgs converged in  20 scf cycles and  19 bfgs steps
     (criteria: energy <  1.0E+00, force <  1.9E-03)

     End of BFGS Geometry Optimization

     Final energy   =   -4874.4419965506 Ry
Begin final coordinates

ATOMIC_POSITIONS (crystal)
Cu1      0.166666667   0.166666667   0.412653782    0   0   0
Cu1      0.666666667   0.166666667   0.412653782    0   0   0
Cu1      0.166666667   0.666666667   0.412653782    0   0   0
Cu1      0.666666667   0.666666667   0.412653782    0   0   0
Cu1      0.833333333   0.333333333   0.500000000    0   0   0
Cu1      0.333333333   0.333333333   0.500000000    0   0   0
Cu1      0.833333333   0.833333333   0.500000000    0   0   0
Cu1      0.333333333   0.833333333   0.500000000    0   0   0
Cu1      0.015545427  -0.000423966   0.590478587
Cu1      0.497008663  -0.000740842   0.588704705
Cu1     -0.001494543   0.508101931   0.583731966
Cu1      0.506620897   0.491588483   0.583526695
C1       0.245457926  -0.000520926   0.665421605
H1       0.450474296  -0.000667395   0.677156724
H1       0.060324103   0.198535058   0.683788979
H1       0.258835729   0.800827975   0.683871067
End final coordinates



     Writing output data file calc.save
 
     init_run     :      4.96s CPU      7.08s WALL (       1 calls)
     electrons    :   3128.82s CPU   3436.00s WALL (      20 calls)
     update_pot   :     18.62s CPU     21.17s WALL (      19 calls)
     forces       :     52.41s CPU     56.15s WALL (      20 calls)
     stress       :    189.35s CPU    200.78s WALL (      20 calls)

     Called by init_run:
     wfcinit      :      3.44s CPU      5.28s WALL (       1 calls)
     potinit      :      0.50s CPU      0.60s WALL (       1 calls)

     Called by electrons:
     c_bands      :   2454.87s CPU   2656.19s WALL (     222 calls)
     sum_band     :    331.46s CPU    343.50s WALL (     222 calls)
     v_of_rho     :     69.10s CPU     93.13s WALL (     241 calls)
     newd         :    109.46s CPU    114.12s WALL (     241 calls)
     mix_rho      :      2.27s CPU      2.40s WALL (     222 calls)
     vdW_energy   :     60.17s CPU     77.62s WALL (     961 calls)
     vdW_ffts     :     79.68s CPU    114.04s WALL (    1962 calls)
     vdW_v        :     34.71s CPU     42.18s WALL (     961 calls)

     Called by c_bands:
     init_us_2    :     11.63s CPU     11.85s WALL (    9700 calls)
     cegterg      :   2368.43s CPU   2567.50s WALL (    4460 calls)

     Called by *egterg:
     h_psi        :   1048.16s CPU   1092.44s WALL (   19846 calls)
     s_psi        :     82.04s CPU     83.98s WALL (   19846 calls)
     g_psi        :     10.30s CPU     10.55s WALL (   15366 calls)
     cdiaghg      :    796.69s CPU    814.71s WALL (   19426 calls)

     Called by h_psi:
     add_vuspsi   :     80.75s CPU     83.08s WALL (   19846 calls)

     General routines
     calbec       :    142.24s CPU    146.17s WALL (   25086 calls)
     fft          :    127.59s CPU    178.57s WALL (   57989 calls)
     ffts         :      0.28s CPU      0.29s WALL (     463 calls)
     fftw         :    883.93s CPU    923.28s WALL ( 3405480 calls)
     interpolate  :      1.40s CPU      1.69s WALL (     463 calls)
     davcio       :      0.01s CPU      0.36s WALL (      20 calls)
 
     Parallel routines
     fft_scatter  :    568.84s CPU    609.81s WALL ( 3463932 calls)
 
     PWSCF        :     0h56m CPU        1h 2m WALL

 
   This run was terminated on:   9:43:36  17Apr2018            

=------------------------------------------------------------------------------=
   JOB DONE.
=------------------------------------------------------------------------------=
