  python dir          : /u/if/mamunm/src/espresso
  espresso dir        : /nfs/slac/g/suncatfs/sw/espv18/espresso-dynpy-beef/bin
  pseudo dir          : /u/if/mamunm/psp/gbrv1.5pbe
  ase-espresso py git : GITVERSION



     Program PWSCF v.5.1rc2 (svn rev. 11289) starts on  3May2018 at 16: 7:15 

     This program is part of the open-source Quantum ESPRESSO suite
     for quantum simulation of materials; please cite
         "P. Giannozzi et al., J. Phys.:Condens. Matter 21 395502 (2009);
          URL http://www.quantum-espresso.org", 
     in publications or presentations arising from this work. More details at
     http://www.quantum-espresso.org/quote

     Parallel version (MPI), running on    32 processors
     K-points division:     npool     =       4
     R & G space division:  proc/nbgrp/npool/nimage =       8
     Reading input from pw.inp
     Message from routine read_cards :
     DEPRECATED: no units specified in CELL_PARAMETERS card

     Current dimensions of program PWSCF are:
     Max number of different atomic species (ntypx) = 10
     Max number of k-points (npk) =  40000
     Max angular momentum in pseudopotentials (lmaxx) =  3
     Presently stress not available with electric field


     **************************************************************************
     Initializing libbeef V0.1.1 with the BEEF-vdW functional.
     Citation: Wellendorff et al., PRB 85, 235149 (2012).
     **************************************************************************


     IMPORTANT: XC functional enforced from input :
     Exchange-correlation      = BEEF-VDW ( 1  4 27 13 2)
     Any further DFT definition will be discarded
     Please, verify this is what you really want


     Subspace diagonalization in iterative solution of the eigenvalue problem:
     a serial algorithm will be used

 
     Parallelization info
     --------------------
     sticks:   dense  smooth     PW     G-vecs:    dense   smooth      PW
     Min         459     185     53                89541    22651    3500
     Max         460     186     56                89564    22694    3507
     Sum        3679    1483    433               716469   181389   28035
 


     bravais-lattice index     =            0
     lattice parameter (alat)  =       1.8897  a.u.
     unit-cell volume          =    6024.3322 (a.u.)^3
     number of atoms/cell      =           13
     number of atomic types    =            2
     number of electrons       =       150.00
     number of Kohn-Sham states=           85
     kinetic-energy cutoff     =      36.7493  Ry
     charge density cutoff     =     367.4932  Ry
     convergence threshold     =      1.0E-05
     mixing beta               =       0.3000
     number of iterations used =           10  plain     mixing
     Exchange-correlation      = BEEF-VDW ( 1  4 27 13 2)
     nstep                     =           50


     celldm(1)=   1.889726  celldm(2)=   0.000000  celldm(3)=   0.000000
     celldm(4)=   0.000000  celldm(5)=   0.000000  celldm(6)=   0.000000

     crystal axes: (cart. coord. in units of alat)
               a(1) = (   6.393197   0.000000   0.000000 )  
               a(2) = (   3.196599   5.536671   0.000000 )  
               a(3) = (   0.000000   0.000000  25.220024 )  

     reciprocal axes: (cart. coord. in units 2 pi/alat)
               b(1) = (  0.156416 -0.090307  0.000000 )  
               b(2) = (  0.000000  0.180614  0.000000 )  
               b(3) = (  0.000000  0.000000  0.039651 )  


     PseudoPot. # 1 for Hf read from file:
     /u/if/mamunm/psp/gbrv1.5pbe/Hf.UPF
     MD5 check sum: 8ee9378dfe14276e333edf04c5e4aa26
     Pseudo is Ultrasoft + core correction, Zval = 12.0
     Generated by new atomic code, or converted to UPF format
     Using radial grid of  921 points,  8 beta functions with: 
                l(1) =   0
                l(2) =   0
                l(3) =   0
                l(4) =   1
                l(5) =   1
                l(6) =   2
                l(7) =   2
                l(8) =   3
     Q(r) pseudized with  6 coefficients,  rinner =    1.200   1.200   1.200
                                                       1.200   1.200   1.200
                                                       1.200

     PseudoPot. # 2 for O  read from file:
     /u/if/mamunm/psp/gbrv1.5pbe/O.UPF
     MD5 check sum: 734c27235a0248c51dbae37a1fbe46ec
     Pseudo is Ultrasoft + core correction, Zval =  6.0
     Generated by new atomic code, or converted to UPF format
     Using radial grid of  737 points,  5 beta functions with: 
                l(1) =   0
                l(2) =   0
                l(3) =   1
                l(4) =   1
                l(5) =   2
     Q(r) pseudized with  8 coefficients,  rinner =    0.900   0.900   0.900
                                                       0.900   0.900

     vdW kernel table read from file vdW_kernel_table
     MD5 check sum: 095c7af220d748ca6e76c0b4c6cfb241

     atomic species   valence    mass     pseudopotential
        Hf1           12.00   178.49000     Hf( 1.00)
        O1             6.00    15.99900     O ( 1.00)

     No symmetry found



   Cartesian axes

     site n.     atom                  positions (alat units)
         1           Hf1 tau(   1) = (   1.5982993   0.9227785  10.0000000  )
         2           Hf1 tau(   2) = (   4.7948978   0.9227785  10.0000000  )
         3           Hf1 tau(   3) = (   3.1965986   3.6911141  10.0000000  )
         4           Hf1 tau(   4) = (   6.3931971   3.6911141  10.0000000  )
         5           Hf1 tau(   5) = (   6.3931971   1.8455570  12.6100118  )
         6           Hf1 tau(   6) = (   3.1965986   1.8455570  12.6100118  )
         7           Hf1 tau(   7) = (   7.9914964   4.6138926  12.6100118  )
         8           Hf1 tau(   8) = (   4.7948978   4.6138926  12.6100118  )
         9           Hf1 tau(   9) = (   0.0000000   0.0000000  15.2200236  )
        10           Hf1 tau(  10) = (   3.1965986   0.0000000  15.2200236  )
        11           Hf1 tau(  11) = (   1.5982993   2.7683356  15.2200236  )
        12           Hf1 tau(  12) = (   4.7948978   2.7683356  15.2200236  )
        13           O1  tau(  13) = (   1.5982993   0.9227785  16.7865236  )

     number of k points=    20  Fermi-Dirac smearing, width (Ry)=  0.0110
                       cart. coord. in units 2pi/alat
        k(    1) = (   0.0000000   0.0000000   0.0000000), wk =   0.0555556
        k(    2) = (   0.0000000   0.0301023   0.0000000), wk =   0.1111111
        k(    3) = (   0.0000000   0.0602046   0.0000000), wk =   0.1111111
        k(    4) = (   0.0000000  -0.0903070   0.0000000), wk =   0.0555556
        k(    5) = (   0.0260694  -0.0150512   0.0000000), wk =   0.1111111
        k(    6) = (   0.0260694   0.0150512   0.0000000), wk =   0.1111111
        k(    7) = (   0.0260694   0.0451535   0.0000000), wk =   0.1111111
        k(    8) = (   0.0260694  -0.1053581   0.0000000), wk =   0.1111111
        k(    9) = (   0.0260694  -0.0752558   0.0000000), wk =   0.1111111
        k(   10) = (   0.0260694  -0.0451535   0.0000000), wk =   0.1111111
        k(   11) = (   0.0521388  -0.0301023   0.0000000), wk =   0.1111111
        k(   12) = (   0.0521388   0.0000000   0.0000000), wk =   0.1111111
        k(   13) = (   0.0521388   0.0301023   0.0000000), wk =   0.1111111
        k(   14) = (   0.0521388  -0.1204093   0.0000000), wk =   0.1111111
        k(   15) = (   0.0521388  -0.0903070   0.0000000), wk =   0.1111111
        k(   16) = (   0.0521388  -0.0602046   0.0000000), wk =   0.1111111
        k(   17) = (  -0.0782081   0.0451535   0.0000000), wk =   0.0555556
        k(   18) = (  -0.0782081   0.0752558   0.0000000), wk =   0.1111111
        k(   19) = (  -0.0782081   0.1053581   0.0000000), wk =   0.1111111
        k(   20) = (  -0.0782081  -0.0451535   0.0000000), wk =   0.0555556

     Dense  grid:   716469 G-vectors     FFT dimensions: (  75,  75, 300)

     Smooth grid:   181389 G-vectors     FFT dimensions: (  48,  48, 192)

     Largest allocated arrays     est. size (Mb)     dimensions
        Kohn-Sham Wavefunctions         3.74 Mb     (    2881,   85)
        NL pseudopotentials            14.29 Mb     (    2881,  325)
        Each V/rho on FFT grid          3.26 Mb     (  213750)
        Each G-vector array             0.68 Mb     (   89541)
        G-vector shells                 0.18 Mb     (   23330)
     Largest temporary arrays     est. size (Mb)     dimensions
        Auxiliary wavefunctions        14.95 Mb     (    2881,  340)
        Each subspace H/S matrix        1.76 Mb     (     340,  340)
        Each <psi_i|beta_j> matrix      0.42 Mb     (     325,   85)
        Arrays for rho mixing          32.62 Mb     (  213750,   10)

     Check: negative/imaginary core charge=   -0.000003    0.000000

     Initial potential from superposition of free atoms
     Check: negative starting charge=   -1.301681

     starting charge  125.99997, renormalised to  150.00000

     negative rho (up, down):  1.550E+00 0.000E+00


     ************************************************************************
     *
     * You are using vdW-DF for exchange-correlation in this calculation.
     * Please cite the following three references that made this development
     * possible:
     *
     *   M. Dion, H. Rydberg, E. Schroder, D. C. Langreth, and
     *   B. I. Lundqvist, Phys. Rev. Lett. 92, 246401 (2004).
     *
     *   T. Thonhauser, V. R. Cooper, S. Li, A. Puzder, P. Hyldgaard, and
     *   D. C. Langreth, Phys. Rev. B 76, 125112 (2007).
     *
     *   G. Roman-Perez and J. M. Soler, Phys. Rev. Lett. 103, 096102 (2009).
     *
     *
     * If you are using vdW-DF2, please also cite:
     *
     *   K. Lee, E. D. Murray, L. Kong, B. I. Lundqvist, and
     *   D. C. Langreth, Phys. Rev. B 82, 081101(R) (2010).
     *
     *
     * If you are calculating the stress with vdW-DF, please also cite:
     *
     *   R. Sabatini, E. Kucukbenli, B. Kolb, T. Thonhauser, and
     *   S. de Gironcoli, J. Phys.: Condens. Matter 24, 424209 (2012).
     *
     ************************************************************************

     Carrying out vdW-DF run using the following parameters:

     Nqs =      20    Nr_points =    1024   r_max =   100.000
     q_mesh =
               0.00001000     0.04494208     0.09755937     0.15916263
               0.23128650     0.31572767     0.41458969     0.53033537
               0.66584808     0.82450364     1.01025438     1.22772762
               1.48234092     1.78043706     2.12944203     2.53805004
               3.01644009     3.57652955     4.23227104     5.00000000

     Gradients computed in reciprocal space

     ************************************************************************


 
     Adding external electric field

     Computed dipole along edir(3) : 
        Dipole               -9.0200 Ry au,        -22.9264 Debye
        Dipole field         -0.0188 Ry au
 
        Potential amp.        1.7486 Ry
        Total length         46.4675 bohr
 
     Starting wfc are  160 randomized atomic wfcs

     total cpu time spent up to now is       21.1 secs

     per-process dynamical memory:   103.0 Mb

     Self-consistent Calculation

     iteration #  1     ecut=    36.75 Ry     beta=0.30
     Davidson diagonalization with overlap
     ethr =  1.00E-02,  avg # of iterations =  9.6

     negative rho (up, down):  1.436E+00 0.000E+00
 
     Adding external electric field

     Computed dipole along edir(3) : 
        Dipole              161.2879 Ry au,        409.9528 Debye
        Dipole field          0.3364 Ry au
 
        Potential amp.      -31.2667 Ry
        Total length         46.4675 bohr
 

     total cpu time spent up to now is       64.8 secs

     total energy              =   -1261.75020335 Ry
     Harris-Foulkes estimate   =   -1948.03091349 Ry
     estimated scf accuracy    <    1475.40141057 Ry

     iteration #  2     ecut=    36.75 Ry     beta=0.30
     Davidson diagonalization with overlap
     ethr =  1.00E-02,  avg # of iterations = 21.8

     negative rho (up, down):  1.378E+00 0.000E+00
 
     Adding external electric field

     Computed dipole along edir(3) : 
        Dipole               50.8863 Ry au,        129.3401 Debye
        Dipole field          0.1061 Ry au
 
        Potential amp.       -9.8646 Ry
        Total length         46.4675 bohr
 

     total cpu time spent up to now is      165.1 secs

     total energy              =   -1446.47359955 Ry
     Harris-Foulkes estimate   =   -3081.70829232 Ry
     estimated scf accuracy    <   14341.39756591 Ry

     iteration #  3     ecut=    36.75 Ry     beta=0.30
     Davidson diagonalization with overlap
     ethr =  1.00E-02,  avg # of iterations = 16.6

     negative rho (up, down):  1.326E+00 0.000E+00
 
     Adding external electric field

     Computed dipole along edir(3) : 
        Dipole               43.0143 Ry au,        109.3314 Debye
        Dipole field          0.0897 Ry au
 
        Potential amp.       -8.3386 Ry
        Total length         46.4675 bohr
 

     total cpu time spent up to now is      239.0 secs

     total energy              =   -1904.38208511 Ry
     Harris-Foulkes estimate   =   -2257.49312024 Ry
     estimated scf accuracy    <    2100.36801660 Ry

     iteration #  4     ecut=    36.75 Ry     beta=0.30
     Davidson diagonalization with overlap
     ethr =  1.00E-02,  avg # of iterations = 12.2

     negative rho (up, down):  1.325E+00 0.000E+00
 
     Adding external electric field

     Computed dipole along edir(3) : 
        Dipole               34.9564 Ry au,         88.8503 Debye
        Dipole field          0.0729 Ry au
 
        Potential amp.       -6.7765 Ry
        Total length         46.4675 bohr
 

     total cpu time spent up to now is      297.1 secs

     total energy              =   -1983.97696408 Ry
     Harris-Foulkes estimate   =   -2031.00388015 Ry
     estimated scf accuracy    <     196.08238662 Ry

     iteration #  5     ecut=    36.75 Ry     beta=0.30
     Davidson diagonalization with overlap
     ethr =  1.00E-02,  avg # of iterations =  9.8

     negative rho (up, down):  1.349E+00 0.000E+00
 
     Adding external electric field

     Computed dipole along edir(3) : 
        Dipole               30.9750 Ry au,         78.7306 Debye
        Dipole field          0.0646 Ry au
 
        Potential amp.       -6.0047 Ry
        Total length         46.4675 bohr
 

     total cpu time spent up to now is      340.1 secs

     total energy              =   -1970.90842016 Ry
     Harris-Foulkes estimate   =   -2010.24701463 Ry
     estimated scf accuracy    <     441.06739075 Ry

     iteration #  6     ecut=    36.75 Ry     beta=0.30
     Davidson diagonalization with overlap
     ethr =  1.00E-02,  avg # of iterations =  7.3

     negative rho (up, down):  1.363E+00 0.000E+00
 
     Adding external electric field

     Computed dipole along edir(3) : 
        Dipole               25.9596 Ry au,         65.9826 Debye
        Dipole field          0.0541 Ry au
 
        Potential amp.       -5.0324 Ry
        Total length         46.4675 bohr
 

     total cpu time spent up to now is      377.8 secs

     total energy              =   -1973.44377385 Ry
     Harris-Foulkes estimate   =   -1984.31242605 Ry
     estimated scf accuracy    <      61.68372835 Ry

     iteration #  7     ecut=    36.75 Ry     beta=0.30
     Davidson diagonalization with overlap
     ethr =  1.00E-02,  avg # of iterations =  3.0

     negative rho (up, down):  1.376E+00 0.000E+00
 
     Adding external electric field

     Computed dipole along edir(3) : 
        Dipole               17.6112 Ry au,         44.7633 Debye
        Dipole field          0.0367 Ry au
 
        Potential amp.       -3.4140 Ry
        Total length         46.4675 bohr
 

     total cpu time spent up to now is      408.6 secs

     total energy              =   -1964.77433336 Ry
     Harris-Foulkes estimate   =   -1974.97560224 Ry
     estimated scf accuracy    <      35.64103358 Ry

     iteration #  8     ecut=    36.75 Ry     beta=0.30
     Davidson diagonalization with overlap
     ethr =  1.00E-02,  avg # of iterations =  2.1

     negative rho (up, down):  1.586E+00 0.000E+00
 
     Adding external electric field

     Computed dipole along edir(3) : 
        Dipole                5.2898 Ry au,         13.4452 Debye
        Dipole field          0.0110 Ry au
 
        Potential amp.       -1.0255 Ry
        Total length         46.4675 bohr
 

     total cpu time spent up to now is      439.2 secs

     total energy              =   -1953.74343275 Ry
     Harris-Foulkes estimate   =   -1966.11798517 Ry
     estimated scf accuracy    <      34.85918240 Ry

     iteration #  9     ecut=    36.75 Ry     beta=0.30
     Davidson diagonalization with overlap
     ethr =  1.00E-02,  avg # of iterations =  6.3

     negative rho (up, down):  1.531E+00 0.000E+00
 
     Adding external electric field

     Computed dipole along edir(3) : 
        Dipole                6.0079 Ry au,         15.2707 Debye
        Dipole field          0.0125 Ry au
 
        Potential amp.       -1.1647 Ry
        Total length         46.4675 bohr
 

     total cpu time spent up to now is      478.0 secs

     total energy              =   -1969.36032244 Ry
     Harris-Foulkes estimate   =   -1972.31364725 Ry
     estimated scf accuracy    <     430.08136800 Ry

     iteration # 10     ecut=    36.75 Ry     beta=0.30
     Davidson diagonalization with overlap
     ethr =  1.00E-02,  avg # of iterations =  1.0

     negative rho (up, down):  1.480E+00 0.000E+00
 
     Adding external electric field

     Computed dipole along edir(3) : 
        Dipole                5.8489 Ry au,         14.8663 Debye
        Dipole field          0.0122 Ry au
 
        Potential amp.       -1.1338 Ry
        Total length         46.4675 bohr
 

     total cpu time spent up to now is      507.9 secs

     total energy              =   -1964.14825244 Ry
     Harris-Foulkes estimate   =   -1969.52465716 Ry
     estimated scf accuracy    <     378.64707470 Ry

     iteration # 11     ecut=    36.75 Ry     beta=0.30
     Davidson diagonalization with overlap
     ethr =  1.00E-02,  avg # of iterations =  1.4

     negative rho (up, down):  1.600E+00 0.000E+00
 
     Adding external electric field

     Computed dipole along edir(3) : 
        Dipole                3.8247 Ry au,          9.7215 Debye
        Dipole field          0.0080 Ry au
 
        Potential amp.       -0.7415 Ry
        Total length         46.4675 bohr
 

     total cpu time spent up to now is      538.0 secs

     total energy              =   -1966.52884857 Ry
     Harris-Foulkes estimate   =   -1964.76677289 Ry
     estimated scf accuracy    <     216.69241649 Ry

     iteration # 12     ecut=    36.75 Ry     beta=0.30
     Davidson diagonalization with overlap
     ethr =  1.00E-02,  avg # of iterations =  2.0

     negative rho (up, down):  1.852E+00 0.000E+00
 
     Adding external electric field

     Computed dipole along edir(3) : 
        Dipole               -1.0127 Ry au,         -2.5741 Debye
        Dipole field         -0.0021 Ry au
 
        Potential amp.        0.1963 Ry
        Total length         46.4675 bohr
 

     total cpu time spent up to now is      568.7 secs

     total energy              =   -1962.54956752 Ry
     Harris-Foulkes estimate   =   -1966.96341979 Ry
     estimated scf accuracy    <     302.66392650 Ry

     iteration # 13     ecut=    36.75 Ry     beta=0.30
     Davidson diagonalization with overlap
     ethr =  1.00E-02,  avg # of iterations =  7.0

     negative rho (up, down):  1.383E+00 0.000E+00
 
     Adding external electric field

     Computed dipole along edir(3) : 
        Dipole                9.5191 Ry au,         24.1952 Debye
        Dipole field          0.0199 Ry au
 
        Potential amp.       -1.8453 Ry
        Total length         46.4675 bohr
 

     total cpu time spent up to now is      606.1 secs

     total energy              =   -1911.75178174 Ry
     Harris-Foulkes estimate   =   -1968.39023081 Ry
     estimated scf accuracy    <     538.94146311 Ry

     iteration # 14     ecut=    36.75 Ry     beta=0.30
     Davidson diagonalization with overlap
     ethr =  1.00E-02,  avg # of iterations = 10.0

     negative rho (up, down):  1.379E+00 0.000E+00
 
     Adding external electric field

     Computed dipole along edir(3) : 
        Dipole               10.5339 Ry au,         26.7745 Debye
        Dipole field          0.0220 Ry au
 
        Potential amp.       -2.0421 Ry
        Total length         46.4675 bohr
 

     total cpu time spent up to now is      647.4 secs

     total energy              =   -1963.37080119 Ry
     Harris-Foulkes estimate   =   -1963.58925590 Ry
     estimated scf accuracy    <      91.91862480 Ry

     iteration # 15     ecut=    36.75 Ry     beta=0.30
     Davidson diagonalization with overlap
     ethr =  1.00E-02,  avg # of iterations =  1.0

     negative rho (up, down):  1.401E+00 0.000E+00
 
     Adding external electric field

     Computed dipole along edir(3) : 
        Dipole                8.1645 Ry au,         20.7521 Debye
        Dipole field          0.0170 Ry au
 
        Potential amp.       -1.5827 Ry
        Total length         46.4675 bohr
 

     total cpu time spent up to now is      677.6 secs

     total energy              =   -1961.95075354 Ry
     Harris-Foulkes estimate   =   -1963.61529653 Ry
     estimated scf accuracy    <      69.04179455 Ry

     iteration # 16     ecut=    36.75 Ry     beta=0.30
     Davidson diagonalization with overlap
     ethr =  1.00E-02,  avg # of iterations =  1.0

     negative rho (up, down):  1.435E+00 0.000E+00
 
     Adding external electric field

     Computed dipole along edir(3) : 
        Dipole                6.4972 Ry au,         16.5142 Debye
        Dipole field          0.0136 Ry au
 
        Potential amp.       -1.2595 Ry
        Total length         46.4675 bohr
 

     total cpu time spent up to now is      707.9 secs

     total energy              =   -1960.20552832 Ry
     Harris-Foulkes estimate   =   -1962.06197881 Ry
     estimated scf accuracy    <      53.35390527 Ry

     iteration # 17     ecut=    36.75 Ry     beta=0.30
     Davidson diagonalization with overlap
     ethr =  1.00E-02,  avg # of iterations =  1.0

     negative rho (up, down):  1.418E+00 0.000E+00
 
     Adding external electric field

     Computed dipole along edir(3) : 
        Dipole                6.6425 Ry au,         16.8836 Debye
        Dipole field          0.0139 Ry au
 
        Potential amp.       -1.2877 Ry
        Total length         46.4675 bohr
 

     total cpu time spent up to now is      738.1 secs

     total energy              =   -1960.37521920 Ry
     Harris-Foulkes estimate   =   -1960.41132325 Ry
     estimated scf accuracy    <      28.24291852 Ry

     iteration # 18     ecut=    36.75 Ry     beta=0.30
     Davidson diagonalization with overlap
     ethr =  1.00E-02,  avg # of iterations =  1.1

     negative rho (up, down):  1.386E+00 0.000E+00
 
     Adding external electric field

     Computed dipole along edir(3) : 
        Dipole                6.7794 Ry au,         17.2314 Debye
        Dipole field          0.0141 Ry au
 
        Potential amp.       -1.3142 Ry
        Total length         46.4675 bohr
 

     total cpu time spent up to now is      768.3 secs

     total energy              =   -1960.14329146 Ry
     Harris-Foulkes estimate   =   -1960.40316694 Ry
     estimated scf accuracy    <      23.93619275 Ry

     iteration # 19     ecut=    36.75 Ry     beta=0.30
     Davidson diagonalization with overlap
     ethr =  1.00E-02,  avg # of iterations =  1.0

     negative rho (up, down):  1.378E+00 0.000E+00
 
     Adding external electric field

     Computed dipole along edir(3) : 
        Dipole                6.7773 Ry au,         17.2262 Debye
        Dipole field          0.0141 Ry au
 
        Potential amp.       -1.3138 Ry
        Total length         46.4675 bohr
 

     total cpu time spent up to now is      798.3 secs

     total energy              =   -1959.97918155 Ry
     Harris-Foulkes estimate   =   -1960.20092444 Ry
     estimated scf accuracy    <      16.18054488 Ry

     iteration # 20     ecut=    36.75 Ry     beta=0.30
     Davidson diagonalization with overlap
     ethr =  1.00E-02,  avg # of iterations =  1.0

     negative rho (up, down):  1.377E+00 0.000E+00
 
     Adding external electric field

     Computed dipole along edir(3) : 
        Dipole                6.4077 Ry au,         16.2868 Debye
        Dipole field          0.0134 Ry au
 
        Potential amp.       -1.2422 Ry
        Total length         46.4675 bohr
 

     total cpu time spent up to now is      828.5 secs

     total energy              =   -1959.64416518 Ry
     Harris-Foulkes estimate   =   -1960.05802770 Ry
     estimated scf accuracy    <       9.33953557 Ry

     iteration # 21     ecut=    36.75 Ry     beta=0.30
     Davidson diagonalization with overlap
     ethr =  6.23E-03,  avg # of iterations =  4.8

     negative rho (up, down):  1.380E+00 0.000E+00
 
     Adding external electric field

     Computed dipole along edir(3) : 
        Dipole                6.1530 Ry au,         15.6393 Debye
        Dipole field          0.0128 Ry au
 
        Potential amp.       -1.1928 Ry
        Total length         46.4675 bohr
 

     total cpu time spent up to now is      863.5 secs

     total energy              =   -1959.85844238 Ry
     Harris-Foulkes estimate   =   -1960.34344831 Ry
     estimated scf accuracy    <       7.25771797 Ry

     iteration # 22     ecut=    36.75 Ry     beta=0.30
     Davidson diagonalization with overlap
     ethr =  4.84E-03,  avg # of iterations =  1.4

     negative rho (up, down):  1.380E+00 0.000E+00
 
     Adding external electric field

     Computed dipole along edir(3) : 
        Dipole                6.0914 Ry au,         15.4828 Debye
        Dipole field          0.0127 Ry au
 
        Potential amp.       -1.1809 Ry
        Total length         46.4675 bohr
 

     total cpu time spent up to now is      895.2 secs

     total energy              =   -1960.06604913 Ry
     Harris-Foulkes estimate   =   -1960.04854170 Ry
     estimated scf accuracy    <       1.41321902 Ry

     iteration # 23     ecut=    36.75 Ry     beta=0.30
     Davidson diagonalization with overlap
     ethr =  9.42E-04,  avg # of iterations =  5.0

     negative rho (up, down):  1.381E+00 0.000E+00
 
     Adding external electric field

     Computed dipole along edir(3) : 
        Dipole                5.7766 Ry au,         14.6827 Debye
        Dipole field          0.0120 Ry au
 
        Potential amp.       -1.1198 Ry
        Total length         46.4675 bohr
 

     total cpu time spent up to now is      929.3 secs

     total energy              =   -1960.04621692 Ry
     Harris-Foulkes estimate   =   -1960.12796738 Ry
     estimated scf accuracy    <       3.20437642 Ry

     iteration # 24     ecut=    36.75 Ry     beta=0.30
     Davidson diagonalization with overlap
     ethr =  9.42E-04,  avg # of iterations =  2.2

     negative rho (up, down):  1.507E+00 0.000E+00
 
     Adding external electric field

     Computed dipole along edir(3) : 
        Dipole               -1.1730 Ry au,         -2.9816 Debye
        Dipole field         -0.0024 Ry au
 
        Potential amp.        0.2274 Ry
        Total length         46.4675 bohr
 

     total cpu time spent up to now is      961.5 secs

     total energy              =   -1958.91392721 Ry
     Harris-Foulkes estimate   =   -1960.13316738 Ry
     estimated scf accuracy    <       1.50101187 Ry

     iteration # 25     ecut=    36.75 Ry     beta=0.30
     Davidson diagonalization with overlap
     ethr =  9.42E-04,  avg # of iterations =  9.7

     negative rho (up, down):  1.403E+00 0.000E+00
 
     Adding external electric field

     Computed dipole along edir(3) : 
        Dipole                2.8973 Ry au,          7.3641 Debye
        Dipole field          0.0060 Ry au
 
        Potential amp.       -0.5617 Ry
        Total length         46.4675 bohr
 

     total cpu time spent up to now is     1005.4 secs

     total energy              =   -1956.10784830 Ry
     Harris-Foulkes estimate   =   -1961.09946832 Ry
     estimated scf accuracy    <      97.05914920 Ry

     iteration # 26     ecut=    36.75 Ry     beta=0.30
     Davidson diagonalization with overlap
     ethr =  9.42E-04,  avg # of iterations =  8.2

     negative rho (up, down):  1.388E+00 0.000E+00
 
     Adding external electric field

     Computed dipole along edir(3) : 
        Dipole                4.0732 Ry au,         10.3530 Debye
        Dipole field          0.0085 Ry au
 
        Potential amp.       -0.7896 Ry
        Total length         46.4675 bohr
 

     total cpu time spent up to now is     1043.9 secs

     total energy              =   -1959.70545987 Ry
     Harris-Foulkes estimate   =   -1959.83259139 Ry
     estimated scf accuracy    <      22.38563820 Ry

     iteration # 27     ecut=    36.75 Ry     beta=0.30
     Davidson diagonalization with overlap
     ethr =  9.42E-04,  avg # of iterations =  1.2

     negative rho (up, down):  1.383E+00 0.000E+00
 
     Adding external electric field

     Computed dipole along edir(3) : 
        Dipole                5.1805 Ry au,         13.1674 Debye
        Dipole field          0.0108 Ry au
 
        Potential amp.       -1.0043 Ry
        Total length         46.4675 bohr
 

     total cpu time spent up to now is     1075.3 secs

     total energy              =   -1959.73391471 Ry
     Harris-Foulkes estimate   =   -1959.75404600 Ry
     estimated scf accuracy    <       7.77271959 Ry

     iteration # 28     ecut=    36.75 Ry     beta=0.30
     Davidson diagonalization with overlap
     ethr =  9.42E-04,  avg # of iterations =  4.8

     negative rho (up, down):  1.382E+00 0.000E+00
 
     Adding external electric field

     Computed dipole along edir(3) : 
        Dipole                5.0754 Ry au,         12.9003 Debye
        Dipole field          0.0106 Ry au
 
        Potential amp.       -0.9839 Ry
        Total length         46.4675 bohr
 

     total cpu time spent up to now is     1108.9 secs

     total energy              =   -1959.82506985 Ry
     Harris-Foulkes estimate   =   -1959.87883754 Ry
     estimated scf accuracy    <       0.91950153 Ry

     iteration # 29     ecut=    36.75 Ry     beta=0.30
     Davidson diagonalization with overlap
     ethr =  6.13E-04,  avg # of iterations =  1.2

     negative rho (up, down):  1.381E+00 0.000E+00
 
     Adding external electric field

     Computed dipole along edir(3) : 
        Dipole                5.4320 Ry au,         13.8067 Debye
        Dipole field          0.0113 Ry au
 
        Potential amp.       -1.0530 Ry
        Total length         46.4675 bohr
 

     total cpu time spent up to now is     1140.2 secs

     total energy              =   -1959.80748521 Ry
     Harris-Foulkes estimate   =   -1959.85417817 Ry
     estimated scf accuracy    <       2.48172237 Ry

     iteration # 30     ecut=    36.75 Ry     beta=0.30
     Davidson diagonalization with overlap
     ethr =  6.13E-04,  avg # of iterations =  1.0

     negative rho (up, down):  1.381E+00 0.000E+00
 
     Adding external electric field

     Computed dipole along edir(3) : 
        Dipole                5.1257 Ry au,         13.0282 Debye
        Dipole field          0.0107 Ry au
 
        Potential amp.       -0.9936 Ry
        Total length         46.4675 bohr
 

     total cpu time spent up to now is     1170.3 secs

     total energy              =   -1959.77580717 Ry
     Harris-Foulkes estimate   =   -1959.84311983 Ry
     estimated scf accuracy    <       0.80501381 Ry

     iteration # 31     ecut=    36.75 Ry     beta=0.30
     Davidson diagonalization with overlap
     ethr =  5.37E-04,  avg # of iterations =  1.0

     negative rho (up, down):  1.382E+00 0.000E+00
 
     Adding external electric field

     Computed dipole along edir(3) : 
        Dipole                4.8270 Ry au,         12.2691 Debye
        Dipole field          0.0101 Ry au
 
        Potential amp.       -0.9358 Ry
        Total length         46.4675 bohr
 

     total cpu time spent up to now is     1200.3 secs

     total energy              =   -1959.73255390 Ry
     Harris-Foulkes estimate   =   -1959.78534349 Ry
     estimated scf accuracy    <       0.75260615 Ry

     iteration # 32     ecut=    36.75 Ry     beta=0.30
     Davidson diagonalization with overlap
     ethr =  5.02E-04,  avg # of iterations =  1.0

     negative rho (up, down):  1.384E+00 0.000E+00
 
     Adding external electric field

     Computed dipole along edir(3) : 
        Dipole                4.4742 Ry au,         11.3723 Debye
        Dipole field          0.0093 Ry au
 
        Potential amp.       -0.8673 Ry
        Total length         46.4675 bohr
 

     total cpu time spent up to now is     1230.4 secs

     total energy              =   -1959.67252475 Ry
     Harris-Foulkes estimate   =   -1959.74234676 Ry
     estimated scf accuracy    <       0.97614550 Ry

     iteration # 33     ecut=    36.75 Ry     beta=0.30
     Davidson diagonalization with overlap
     ethr =  5.02E-04,  avg # of iterations =  1.0

     negative rho (up, down):  1.386E+00 0.000E+00
 
     Adding external electric field

     Computed dipole along edir(3) : 
        Dipole                3.7400 Ry au,          9.5062 Debye
        Dipole field          0.0078 Ry au
 
        Potential amp.       -0.7250 Ry
        Total length         46.4675 bohr
 

     total cpu time spent up to now is     1260.9 secs

     total energy              =   -1959.57516057 Ry
     Harris-Foulkes estimate   =   -1959.68694028 Ry
     estimated scf accuracy    <       0.65842666 Ry

     iteration # 34     ecut=    36.75 Ry     beta=0.30
     Davidson diagonalization with overlap
     ethr =  4.39E-04,  avg # of iterations =  1.0

     negative rho (up, down):  1.385E+00 0.000E+00
 
     Adding external electric field

     Computed dipole along edir(3) : 
        Dipole                2.9704 Ry au,          7.5501 Debye
        Dipole field          0.0062 Ry au
 
        Potential amp.       -0.5758 Ry
        Total length         46.4675 bohr
 

     total cpu time spent up to now is     1291.2 secs

     total energy              =   -1959.49494634 Ry
     Harris-Foulkes estimate   =   -1959.58803010 Ry
     estimated scf accuracy    <       0.43805917 Ry

     iteration # 35     ecut=    36.75 Ry     beta=0.30
     Davidson diagonalization with overlap
     ethr =  2.92E-04,  avg # of iterations =  1.9

     negative rho (up, down):  1.386E+00 0.000E+00
 
     Adding external electric field

     Computed dipole along edir(3) : 
        Dipole                2.2186 Ry au,          5.6391 Debye
        Dipole field          0.0046 Ry au
 
        Potential amp.       -0.4301 Ry
        Total length         46.4675 bohr
 

     total cpu time spent up to now is     1322.1 secs

     total energy              =   -1959.42683345 Ry
     Harris-Foulkes estimate   =   -1959.50651937 Ry
     estimated scf accuracy    <       0.28491755 Ry

     iteration # 36     ecut=    36.75 Ry     beta=0.30
     Davidson diagonalization with overlap
     ethr =  1.90E-04,  avg # of iterations =  2.1

     negative rho (up, down):  1.398E+00 0.000E+00
 
     Adding external electric field

     Computed dipole along edir(3) : 
        Dipole               -0.3433 Ry au,         -0.8725 Debye
        Dipole field         -0.0007 Ry au
 
        Potential amp.        0.0665 Ry
        Total length         46.4675 bohr
 

     total cpu time spent up to now is     1353.0 secs

     total energy              =   -1959.30798806 Ry
     Harris-Foulkes estimate   =   -1959.44045393 Ry
     estimated scf accuracy    <       0.15886285 Ry

     iteration # 37     ecut=    36.75 Ry     beta=0.30
     Davidson diagonalization with overlap
     ethr =  1.06E-04,  avg # of iterations =  5.9

     negative rho (up, down):  1.400E+00 0.000E+00
 
     Adding external electric field

     Computed dipole along edir(3) : 
        Dipole               -0.2945 Ry au,         -0.7487 Debye
        Dipole field         -0.0006 Ry au
 
        Potential amp.        0.0571 Ry
        Total length         46.4675 bohr
 

     total cpu time spent up to now is     1388.2 secs

     total energy              =   -1959.35653967 Ry
     Harris-Foulkes estimate   =   -1959.35810686 Ry
     estimated scf accuracy    <       0.17416549 Ry

     iteration # 38     ecut=    36.75 Ry     beta=0.30
     Davidson diagonalization with overlap
     ethr =  1.06E-04,  avg # of iterations =  1.4

     negative rho (up, down):  1.400E+00 0.000E+00
 
     Adding external electric field

     Computed dipole along edir(3) : 
        Dipole               -0.3186 Ry au,         -0.8098 Debye
        Dipole field         -0.0007 Ry au
 
        Potential amp.        0.0618 Ry
        Total length         46.4675 bohr
 

     total cpu time spent up to now is     1419.4 secs

     total energy              =   -1959.35749578 Ry
     Harris-Foulkes estimate   =   -1959.35667296 Ry
     estimated scf accuracy    <       0.16709908 Ry

     iteration # 39     ecut=    36.75 Ry     beta=0.30
     Davidson diagonalization with overlap
     ethr =  1.06E-04,  avg # of iterations =  1.0

     negative rho (up, down):  1.393E+00 0.000E+00
 
     Adding external electric field

     Computed dipole along edir(3) : 
        Dipole               -0.2999 Ry au,         -0.7623 Debye
        Dipole field         -0.0006 Ry au
 
        Potential amp.        0.0581 Ry
        Total length         46.4675 bohr
 

     total cpu time spent up to now is     1449.4 secs

     total energy              =   -1959.35490398 Ry
     Harris-Foulkes estimate   =   -1959.35756862 Ry
     estimated scf accuracy    <       0.17322354 Ry

     iteration # 40     ecut=    36.75 Ry     beta=0.30
     Davidson diagonalization with overlap
     ethr =  1.06E-04,  avg # of iterations =  1.0

     negative rho (up, down):  1.391E+00 0.000E+00
 
     Adding external electric field

     Computed dipole along edir(3) : 
        Dipole               -0.0953 Ry au,         -0.2423 Debye
        Dipole field         -0.0002 Ry au
 
        Potential amp.        0.0185 Ry
        Total length         46.4675 bohr
 

     total cpu time spent up to now is     1479.3 secs

     total energy              =   -1959.34421787 Ry
     Harris-Foulkes estimate   =   -1959.35525796 Ry
     estimated scf accuracy    <       0.13655180 Ry

     iteration # 41     ecut=    36.75 Ry     beta=0.30
     Davidson diagonalization with overlap
     ethr =  9.10E-05,  avg # of iterations =  1.9

     negative rho (up, down):  1.386E+00 0.000E+00
 
     Adding external electric field

     Computed dipole along edir(3) : 
        Dipole               -0.0211 Ry au,         -0.0537 Debye
        Dipole field         -0.0000 Ry au
 
        Potential amp.        0.0041 Ry
        Total length         46.4675 bohr
 

     total cpu time spent up to now is     1509.8 secs

     total energy              =   -1959.34055514 Ry
     Harris-Foulkes estimate   =   -1959.34653105 Ry
     estimated scf accuracy    <       0.03618119 Ry

     iteration # 42     ecut=    36.75 Ry     beta=0.30
     Davidson diagonalization with overlap
     ethr =  2.41E-05,  avg # of iterations =  4.1

     negative rho (up, down):  1.388E+00 0.000E+00
 
     Adding external electric field

     Computed dipole along edir(3) : 
        Dipole               -0.0790 Ry au,         -0.2007 Debye
        Dipole field         -0.0002 Ry au
 
        Potential amp.        0.0153 Ry
        Total length         46.4675 bohr
 

     total cpu time spent up to now is     1542.4 secs

     total energy              =   -1959.34573181 Ry
     Harris-Foulkes estimate   =   -1959.34633820 Ry
     estimated scf accuracy    <       0.01011503 Ry

     iteration # 43     ecut=    36.75 Ry     beta=0.30
     Davidson diagonalization with overlap
     c_bands:  1 eigenvalues not converged
     ethr =  6.74E-06,  avg # of iterations =  2.6

     negative rho (up, down):  1.386E+00 0.000E+00
 
     Adding external electric field

     Computed dipole along edir(3) : 
        Dipole               -0.1731 Ry au,         -0.4401 Debye
        Dipole field         -0.0004 Ry au
 
        Potential amp.        0.0336 Ry
        Total length         46.4675 bohr
 

     total cpu time spent up to now is     1574.1 secs

     total energy              =   -1959.34505080 Ry
     Harris-Foulkes estimate   =   -1959.34586212 Ry
     estimated scf accuracy    <       0.00658599 Ry

     iteration # 44     ecut=    36.75 Ry     beta=0.30
     Davidson diagonalization with overlap
     ethr =  4.39E-06,  avg # of iterations =  3.1

     negative rho (up, down):  1.381E+00 0.000E+00
 
     Adding external electric field

     Computed dipole along edir(3) : 
        Dipole               -0.1658 Ry au,         -0.4214 Debye
        Dipole field         -0.0003 Ry au
 
        Potential amp.        0.0321 Ry
        Total length         46.4675 bohr
 

     total cpu time spent up to now is     1605.6 secs

     total energy              =   -1959.34546610 Ry
     Harris-Foulkes estimate   =   -1959.34546208 Ry
     estimated scf accuracy    <       0.00017169 Ry

     iteration # 45     ecut=    36.75 Ry     beta=0.30
     Davidson diagonalization with overlap
     ethr =  1.14E-07,  avg # of iterations =  6.3

     negative rho (up, down):  1.381E+00 0.000E+00
 
     Adding external electric field

     Computed dipole along edir(3) : 
        Dipole               -0.1915 Ry au,         -0.4867 Debye
        Dipole field         -0.0004 Ry au
 
        Potential amp.        0.0371 Ry
        Total length         46.4675 bohr
 

     total cpu time spent up to now is     1640.7 secs

     total energy              =   -1959.34546530 Ry
     Harris-Foulkes estimate   =   -1959.34548547 Ry
     estimated scf accuracy    <       0.00036846 Ry

     iteration # 46     ecut=    36.75 Ry     beta=0.30
     Davidson diagonalization with overlap
     ethr =  1.14E-07,  avg # of iterations =  3.3

     negative rho (up, down):  1.381E+00 0.000E+00
 
     Adding external electric field

     Computed dipole along edir(3) : 
        Dipole               -0.1999 Ry au,         -0.5080 Debye
        Dipole field         -0.0004 Ry au
 
        Potential amp.        0.0387 Ry
        Total length         46.4675 bohr
 

     total cpu time spent up to now is     1672.3 secs

     total energy              =   -1959.34548422 Ry
     Harris-Foulkes estimate   =   -1959.34547569 Ry
     estimated scf accuracy    <       0.00001490 Ry

     iteration # 47     ecut=    36.75 Ry     beta=0.30
     Davidson diagonalization with overlap
     ethr =  9.94E-09,  avg # of iterations =  4.8

     negative rho (up, down):  1.380E+00 0.000E+00
 
     Adding external electric field

     Computed dipole along edir(3) : 
        Dipole               -0.1964 Ry au,         -0.4992 Debye
        Dipole field         -0.0004 Ry au
 
        Potential amp.        0.0381 Ry
        Total length         46.4675 bohr
 

     total cpu time spent up to now is     1706.2 secs

     total energy              =   -1959.34548614 Ry
     Harris-Foulkes estimate   =   -1959.34548971 Ry
     estimated scf accuracy    <       0.00004487 Ry

     iteration # 48     ecut=    36.75 Ry     beta=0.30
     Davidson diagonalization with overlap
     ethr =  9.94E-09,  avg # of iterations =  4.1

     negative rho (up, down):  1.380E+00 0.000E+00
 
     Adding external electric field

     Computed dipole along edir(3) : 
        Dipole               -0.1986 Ry au,         -0.5048 Debye
        Dipole field         -0.0004 Ry au
 
        Potential amp.        0.0385 Ry
        Total length         46.4675 bohr
 

     total cpu time spent up to now is     1738.0 secs

     total energy              =   -1959.34548774 Ry
     Harris-Foulkes estimate   =   -1959.34548654 Ry
     estimated scf accuracy    <       0.00003355 Ry

     iteration # 49     ecut=    36.75 Ry     beta=0.30
     Davidson diagonalization with overlap
     ethr =  9.94E-09,  avg # of iterations =  1.6

     negative rho (up, down):  1.380E+00 0.000E+00

     negative rho (up, down):  1.380E+00 0.000E+00

     negative rho (up, down):  1.380E+00 0.000E+00

     negative rho (up, down):  1.380E+00 0.000E+00

     negative rho (up, down):  1.380E+00 0.000E+00

     negative rho (up, down):  1.380E+00 0.000E+00

     negative rho (up, down):  1.380E+00 0.000E+00

     negative rho (up, down):  1.380E+00 0.000E+00

     negative rho (up, down):  1.380E+00 0.000E+00

     negative rho (up, down):  1.380E+00 0.000E+00

     negative rho (up, down):  1.380E+00 0.000E+00

     negative rho (up, down):  1.380E+00 0.000E+00

     negative rho (up, down):  1.380E+00 0.000E+00

     negative rho (up, down):  1.380E+00 0.000E+00

     negative rho (up, down):  1.380E+00 0.000E+00

     negative rho (up, down):  1.380E+00 0.000E+00

     negative rho (up, down):  1.380E+00 0.000E+00

     negative rho (up, down):  1.380E+00 0.000E+00

     negative rho (up, down):  1.380E+00 0.000E+00

     negative rho (up, down):  1.380E+00 0.000E+00

     negative rho (up, down):  1.380E+00 0.000E+00

     negative rho (up, down):  1.380E+00 0.000E+00

     negative rho (up, down):  1.380E+00 0.000E+00

     negative rho (up, down):  1.380E+00 0.000E+00

     negative rho (up, down):  1.380E+00 0.000E+00

     negative rho (up, down):  1.380E+00 0.000E+00

     negative rho (up, down):  1.380E+00 0.000E+00

     negative rho (up, down):  1.380E+00 0.000E+00

     negative rho (up, down):  1.380E+00 0.000E+00

     negative rho (up, down):  1.380E+00 0.000E+00

     negative rho (up, down):  1.380E+00 0.000E+00

     negative rho (up, down):  1.380E+00 0.000E+00

     negative rho (up, down):  1.380E+00 0.000E+00

     negative rho (up, down):  1.380E+00 0.000E+00

     negative rho (up, down):  1.380E+00 0.000E+00
 
     Adding external electric field

     Computed dipole along edir(3) : 
        Dipole               -0.2072 Ry au,         -0.5266 Debye
        Dipole field         -0.0004 Ry au
 
        Potential amp.        0.0402 Ry
        Total length         46.4675 bohr
 

     total cpu time spent up to now is     1828.5 secs

     End of self-consistent calculation

          k = 0.0000 0.0000 0.0000 ( 22729 PWs)   bands (ev):

   -61.5184 -61.4760 -61.4566 -61.4564 -61.4305 -61.3977 -61.3966 -61.3941
   -60.9965 -60.9691 -60.9687 -60.9043 -30.2518 -30.2517 -30.2199 -30.1760
   -30.1758 -30.1754 -30.1675 -30.0869 -30.0409 -30.0406 -30.0350 -29.9652
   -29.9569 -29.9562 -29.8287 -29.8262 -29.8261 -29.7688 -29.7682 -29.7678
   -29.7113 -29.6937 -29.6936 -29.6858 -29.6856 -29.6406 -29.6405 -29.4629
   -29.4523 -29.4520 -29.3732 -29.3585 -29.3449 -29.3447 -29.2218 -29.2217
   -15.8863  -5.2718  -3.9751  -2.7453  -2.3405  -2.3405  -2.1853  -1.7679
    -1.7678  -1.6609  -1.4670  -1.4144  -1.4144  -0.8157  -0.8157  -0.7770
    -0.4746  -0.4746  -0.2117   0.3340   0.3341   0.6729   1.2119   1.4263
     1.6230   1.6429   1.6576   1.6576   1.6924   1.6925   2.0017   2.2266
     2.3153   2.3154   2.4764   2.4846   2.4847

          k = 0.0000 0.0301 0.0000 ( 22708 PWs)   bands (ev):

   -61.5173 -61.4756 -61.4581 -61.4564 -61.4282 -61.3990 -61.3973 -61.3945
   -60.9946 -60.9705 -60.9688 -60.9046 -30.2333 -30.2240 -30.1953 -30.1605
   -30.1565 -30.1554 -30.1422 -30.0826 -30.0381 -30.0353 -30.0307 -29.9690
   -29.9613 -29.9588 -29.8486 -29.8478 -29.8191 -29.7902 -29.7895 -29.7598
   -29.7291 -29.6998 -29.6946 -29.6793 -29.6727 -29.6663 -29.6490 -29.4586
   -29.4513 -29.4504 -29.3750 -29.3714 -29.3640 -29.3405 -29.2563 -29.2296
   -15.8846  -5.0745  -3.7877  -2.5665  -2.3933  -2.2831  -2.1151  -1.9248
    -1.6851  -1.6115  -1.3764  -1.2635  -1.2604  -0.7726  -0.6634  -0.6477
    -0.3781  -0.3675  -0.1415   0.3502   0.3641   0.6619   1.1957   1.2989
     1.4121   1.4732   1.5032   1.6330   1.7422   1.7560   1.9316   2.1055
     2.1305   2.1870   2.2242   2.2729   2.3734

          k = 0.0000 0.0602 0.0000 ( 22648 PWs)   bands (ev):

   -61.5151 -61.4744 -61.4615 -61.4564 -61.4220 -61.4049 -61.3974 -61.3947
   -60.9898 -60.9747 -60.9688 -60.9053 -30.1888 -30.1651 -30.1453 -30.1136
   -30.1098 -30.1076 -30.0744 -30.0507 -30.0331 -30.0237 -30.0201 -29.9838
   -29.9647 -29.9647 -29.9044 -29.8940 -29.8417 -29.8407 -29.8276 -29.7984
   -29.7809 -29.7365 -29.7204 -29.6726 -29.6565 -29.6337 -29.5958 -29.4526
   -29.4493 -29.4481 -29.4225 -29.4117 -29.3678 -29.3468 -29.3206 -29.2507
   -15.8813  -4.5171  -3.2850  -2.8665  -2.2594  -2.1717  -2.1395  -1.7541
    -1.4963  -1.4851  -1.2925  -0.9528  -0.9390  -0.6712  -0.2638  -0.2070
    -0.0901  -0.0625   0.0718   0.3984   0.4701   0.6440   0.8826   1.0932
     1.1125   1.1198   1.1799   1.3029   1.4204   1.4215   1.5989   1.7153
     1.7430   1.8191   1.9122   2.0782   2.0862

          k = 0.0000-0.0903 0.0000 ( 22668 PWs)   bands (ev):

   -61.5139 -61.4734 -61.4637 -61.4564 -61.4146 -61.4122 -61.3974 -61.3947
   -60.9857 -60.9785 -60.9688 -60.9056 -30.1595 -30.1366 -30.1247 -30.0793
   -30.0781 -30.0712 -30.0449 -30.0173 -30.0136 -30.0109 -29.9909 -29.9707
   -29.9639 -29.9627 -29.9218 -29.9180 -29.9146 -29.9105 -29.8758 -29.8743
   -29.7819 -29.7374 -29.7057 -29.7035 -29.6318 -29.6038 -29.4916 -29.4850
   -29.4615 -29.4505 -29.4488 -29.4426 -29.4163 -29.3662 -29.3025 -29.2692
   -15.8796  -3.7364  -3.6844  -2.7262  -2.5809  -2.1181  -1.8764  -1.7203
    -1.3663  -1.3562  -1.0797  -0.8528  -0.7432  -0.7362   0.0982   0.1549
     0.2229   0.2546   0.3552   0.3820   0.6279   0.6305   0.7358   0.7699
     0.7871   0.8453   1.0169   1.0591   1.0849   1.1626   1.1765   1.3399
     1.4217   1.5940   1.6653   2.1025   2.1344

          k = 0.0261-0.0151 0.0000 ( 22708 PWs)   bands (ev):

   -61.5173 -61.4756 -61.4579 -61.4566 -61.4282 -61.3990 -61.3972 -61.3945
   -60.9946 -60.9706 -60.9688 -60.9046 -30.2332 -30.2241 -30.1953 -30.1605
   -30.1565 -30.1554 -30.1422 -30.0826 -30.0380 -30.0354 -30.0307 -29.9690
   -29.9613 -29.9589 -29.8485 -29.8479 -29.8190 -29.7902 -29.7895 -29.7598
   -29.7291 -29.6998 -29.6946 -29.6793 -29.6728 -29.6663 -29.6489 -29.4586
   -29.4513 -29.4504 -29.3750 -29.3714 -29.3640 -29.3405 -29.2563 -29.2296
   -15.8846  -5.0745  -3.7877  -2.5665  -2.3933  -2.2831  -2.1151  -1.9248
    -1.6851  -1.6115  -1.3764  -1.2635  -1.2605  -0.7726  -0.6634  -0.6477
    -0.3781  -0.3675  -0.1415   0.3502   0.3641   0.6619   1.1957   1.2989
     1.4121   1.4732   1.5032   1.6330   1.7422   1.7560   1.9316   2.1054
     2.1305   2.1871   2.2242   2.2729   2.3734

          k = 0.0261 0.0151 0.0000 ( 22708 PWs)   bands (ev):

   -61.5173 -61.4756 -61.4580 -61.4565 -61.4282 -61.3993 -61.3966 -61.3947
   -60.9947 -60.9702 -60.9691 -60.9046 -30.2333 -30.2240 -30.1953 -30.1604
   -30.1569 -30.1551 -30.1422 -30.0826 -30.0382 -30.0352 -30.0306 -29.9687
   -29.9620 -29.9584 -29.8486 -29.8478 -29.8191 -29.7898 -29.7898 -29.7598
   -29.7291 -29.6998 -29.6947 -29.6793 -29.6725 -29.6665 -29.6490 -29.4586
   -29.4509 -29.4507 -29.3751 -29.3714 -29.3638 -29.3406 -29.2563 -29.2296
   -15.8846  -5.0745  -3.7877  -2.5665  -2.3933  -2.2831  -2.1151  -1.9248
    -1.6851  -1.6114  -1.3764  -1.2635  -1.2604  -0.7726  -0.6635  -0.6477
    -0.3781  -0.3675  -0.1415   0.3501   0.3642   0.6619   1.1957   1.2989
     1.4122   1.4731   1.5032   1.6330   1.7422   1.7560   1.9317   2.1054
     2.1305   2.1872   2.2242   2.2729   2.3734

          k = 0.0261 0.0452 0.0000 ( 22675 PWs)   bands (ev):

   -61.5157 -61.4747 -61.4609 -61.4562 -61.4239 -61.4017 -61.3995 -61.3938
   -60.9913 -60.9730 -60.9691 -60.9051 -30.2023 -30.1716 -30.1566 -30.1393
   -30.1309 -30.0983 -30.0964 -30.0741 -30.0357 -30.0273 -30.0227 -29.9750
   -29.9740 -29.9579 -29.9122 -29.8557 -29.8372 -29.8270 -29.7932 -29.7715
   -29.7709 -29.7471 -29.7167 -29.6683 -29.6671 -29.6344 -29.6291 -29.4539
   -29.4494 -29.4484 -29.4300 -29.3689 -29.3568 -29.3491 -29.3151 -29.2467
   -15.8821  -4.6960  -3.4387  -2.4838  -2.4219  -2.2256  -2.0727  -2.0145
    -1.7457  -1.3034  -1.2795  -1.1133  -0.9423  -0.6165  -0.4742  -0.3431
    -0.1900  -0.1563   0.0019   0.3911   0.4183   0.6514   1.0606   1.1067
     1.1960   1.2041   1.2650   1.3885   1.4872   1.6397   1.7031   1.8295
     1.8621   1.9230   2.0011   2.1119   2.1463

          k = 0.0261-0.1054 0.0000 ( 22643 PWs)   bands (ev):

   -61.5139 -61.4728 -61.4648 -61.4559 -61.4166 -61.4080 -61.4016 -61.3927
   -60.9861 -60.9776 -60.9693 -60.9056 -30.1532 -30.1363 -30.1105 -30.0831
   -30.0733 -30.0570 -30.0463 -30.0369 -30.0182 -30.0114 -30.0003 -29.9879
   -29.9797 -29.9774 -29.9523 -29.9297 -29.9137 -29.8599 -29.8535 -29.8020
   -29.8013 -29.7445 -29.7385 -29.7003 -29.6284 -29.5884 -29.5462 -29.4973
   -29.4502 -29.4480 -29.4465 -29.4288 -29.3731 -29.3651 -29.3217 -29.2753
   -15.8796  -4.0047  -3.1545  -2.8507  -2.4432  -2.3165  -1.9994  -1.8587
    -1.5554  -1.2231  -1.0806  -0.7500  -0.5867  -0.5128  -0.0631   0.0350
     0.1474   0.1608   0.2604   0.4574   0.5462   0.6243   0.6579   0.8030
     0.8831   0.9096   0.9870   1.0246   1.1190   1.2410   1.2847   1.4174
     1.4673   1.5013   1.6834   1.8034   2.2172

          k = 0.0261-0.0753 0.0000 ( 22643 PWs)   bands (ev):

   -61.5139 -61.4728 -61.4647 -61.4559 -61.4167 -61.4079 -61.4017 -61.3927
   -60.9860 -60.9778 -60.9692 -60.9056 -30.1532 -30.1363 -30.1105 -30.0831
   -30.0733 -30.0570 -30.0463 -30.0369 -30.0182 -30.0116 -30.0003 -29.9878
   -29.9797 -29.9775 -29.9523 -29.9297 -29.9136 -29.8599 -29.8536 -29.8020
   -29.8013 -29.7445 -29.7385 -29.7003 -29.6284 -29.5884 -29.5462 -29.4975
   -29.4501 -29.4482 -29.4464 -29.4286 -29.3731 -29.3651 -29.3217 -29.2753
   -15.8796  -4.0047  -3.1545  -2.8507  -2.4432  -2.3166  -1.9994  -1.8587
    -1.5553  -1.2231  -1.0806  -0.7500  -0.5867  -0.5128  -0.0630   0.0350
     0.1474   0.1608   0.2604   0.4574   0.5463   0.6243   0.6579   0.8030
     0.8831   0.9096   0.9870   1.0246   1.1190   1.2410   1.2847   1.4175
     1.4673   1.5013   1.6834   1.8034   2.2172

          k = 0.0261-0.0452 0.0000 ( 22675 PWs)   bands (ev):

   -61.5157 -61.4747 -61.4608 -61.4562 -61.4239 -61.4009 -61.4004 -61.3936
   -60.9913 -60.9733 -60.9689 -60.9051 -30.2023 -30.1717 -30.1566 -30.1393
   -30.1308 -30.0983 -30.0964 -30.0741 -30.0356 -30.0272 -30.0229 -29.9755
   -29.9734 -29.9579 -29.9123 -29.8557 -29.8371 -29.8271 -29.7932 -29.7713
   -29.7711 -29.7471 -29.7167 -29.6683 -29.6670 -29.6347 -29.6290 -29.4539
   -29.4496 -29.4482 -29.4301 -29.3689 -29.3568 -29.3490 -29.3151 -29.2467
   -15.8821  -4.6960  -3.4387  -2.4838  -2.4219  -2.2256  -2.0727  -2.0145
    -1.7456  -1.3034  -1.2795  -1.1133  -0.9423  -0.6165  -0.4742  -0.3431
    -0.1900  -0.1564   0.0019   0.3912   0.4182   0.6514   1.0606   1.1067
     1.1960   1.2041   1.2650   1.3885   1.4873   1.6397   1.7031   1.8295
     1.8622   1.9230   2.0010   2.1120   2.1463

          k = 0.0521-0.0301 0.0000 ( 22648 PWs)   bands (ev):

   -61.5151 -61.4745 -61.4612 -61.4566 -61.4220 -61.4049 -61.3974 -61.3947
   -60.9898 -60.9747 -60.9688 -60.9053 -30.1887 -30.1652 -30.1453 -30.1136
   -30.1098 -30.1076 -30.0745 -30.0507 -30.0330 -30.0238 -30.0201 -29.9838
   -29.9647 -29.9647 -29.9043 -29.8942 -29.8417 -29.8407 -29.8275 -29.7983
   -29.7809 -29.7365 -29.7205 -29.6725 -29.6565 -29.6337 -29.5958 -29.4526
   -29.4493 -29.4481 -29.4225 -29.4117 -29.3678 -29.3468 -29.3206 -29.2507
   -15.8813  -4.5171  -3.2850  -2.8665  -2.2594  -2.1717  -2.1395  -1.7541
    -1.4963  -1.4851  -1.2925  -0.9528  -0.9390  -0.6712  -0.2638  -0.2070
    -0.0901  -0.0625   0.0718   0.3984   0.4701   0.6440   0.8826   1.0932
     1.1125   1.1198   1.1799   1.3029   1.4204   1.4215   1.5989   1.7153
     1.7430   1.8191   1.9122   2.0782   2.0862

          k = 0.0521 0.0000 0.0000 ( 22675 PWs)   bands (ev):

   -61.5157 -61.4748 -61.4607 -61.4563 -61.4239 -61.4017 -61.3994 -61.3938
   -60.9913 -60.9731 -60.9691 -60.9051 -30.2022 -30.1717 -30.1566 -30.1393
   -30.1309 -30.0983 -30.0964 -30.0741 -30.0356 -30.0275 -30.0227 -29.9750
   -29.9740 -29.9579 -29.9123 -29.8557 -29.8371 -29.8270 -29.7932 -29.7715
   -29.7709 -29.7471 -29.7168 -29.6683 -29.6670 -29.6344 -29.6291 -29.4539
   -29.4494 -29.4484 -29.4300 -29.3689 -29.3568 -29.3491 -29.3151 -29.2467
   -15.8821  -4.6960  -3.4387  -2.4838  -2.4219  -2.2256  -2.0727  -2.0145
    -1.7457  -1.3034  -1.2795  -1.1133  -0.9423  -0.6165  -0.4742  -0.3431
    -0.1900  -0.1563   0.0019   0.3911   0.4182   0.6514   1.0606   1.1067
     1.1960   1.2041   1.2650   1.3885   1.4872   1.6397   1.7031   1.8295
     1.8621   1.9230   2.0011   2.1119   2.1463

          k = 0.0521 0.0301 0.0000 ( 22648 PWs)   bands (ev):

   -61.5151 -61.4745 -61.4614 -61.4565 -61.4219 -61.4051 -61.3966 -61.3952
   -60.9899 -60.9743 -60.9691 -60.9053 -30.1887 -30.1652 -30.1453 -30.1133
   -30.1104 -30.1073 -30.0744 -30.0508 -30.0332 -30.0237 -30.0200 -29.9838
   -29.9653 -29.9642 -29.9044 -29.8941 -29.8412 -29.8411 -29.8276 -29.7984
   -29.7808 -29.7365 -29.7205 -29.6726 -29.6568 -29.6334 -29.5958 -29.4527
   -29.4489 -29.4484 -29.4227 -29.4115 -29.3678 -29.3469 -29.3207 -29.2506
   -15.8813  -4.5171  -3.2850  -2.8665  -2.2594  -2.1717  -2.1395  -1.7541
    -1.4963  -1.4851  -1.2925  -0.9528  -0.9389  -0.6712  -0.2638  -0.2070
    -0.0901  -0.0625   0.0718   0.3983   0.4702   0.6440   0.8827   1.0932
     1.1124   1.1198   1.1799   1.3030   1.4203   1.4215   1.5989   1.7153
     1.7430   1.8191   1.9122   2.0782   2.0862

          k = 0.0521-0.1204 0.0000 ( 22643 PWs)   bands (ev):

   -61.5139 -61.4729 -61.4647 -61.4559 -61.4166 -61.4082 -61.4013 -61.3928
   -60.9862 -60.9773 -60.9694 -60.9056 -30.1532 -30.1363 -30.1106 -30.0831
   -30.0733 -30.0570 -30.0463 -30.0370 -30.0182 -30.0114 -30.0005 -29.9877
   -29.9797 -29.9774 -29.9523 -29.9297 -29.9137 -29.8599 -29.8535 -29.8019
   -29.8013 -29.7445 -29.7385 -29.7003 -29.6286 -29.5882 -29.5461 -29.4974
   -29.4502 -29.4479 -29.4466 -29.4287 -29.3731 -29.3651 -29.3218 -29.2752
   -15.8796  -4.0047  -3.1545  -2.8507  -2.4432  -2.3165  -1.9994  -1.8587
    -1.5553  -1.2231  -1.0806  -0.7500  -0.5867  -0.5128  -0.0631   0.0350
     0.1474   0.1608   0.2604   0.4574   0.5463   0.6243   0.6580   0.8030
     0.8831   0.9096   0.9869   1.0245   1.1190   1.2410   1.2847   1.4174
     1.4673   1.5014   1.6834   1.8034   2.2172

          k = 0.0521-0.0903 0.0000 ( 22614 PWs)   bands (ev):

   -61.5134 -61.4694 -61.4691 -61.4555 -61.4106 -61.4095 -61.4072 -61.3916
   -60.9817 -60.9814 -60.9697 -60.9058 -30.1305 -30.0972 -30.0824 -30.0756
   -30.0484 -30.0315 -30.0250 -30.0197 -30.0146 -30.0075 -30.0007 -29.9926
   -29.9923 -29.9866 -29.9542 -29.9535 -29.9514 -29.9507 -29.8182 -29.8172
   -29.7726 -29.7498 -29.7488 -29.7481 -29.5784 -29.5740 -29.5238 -29.5070
   -29.5069 -29.4487 -29.4472 -29.4461 -29.3663 -29.3446 -29.3159 -29.3157
   -15.8788  -3.2811  -3.2332  -3.2092  -2.3679  -2.3241  -2.3017  -1.6920
    -1.4937  -1.4457  -0.5501  -0.5470  -0.3427  -0.3227  -0.1351  -0.1289
     0.3072   0.3299   0.4221   0.4261   0.5160   0.6005   0.6148   0.6687
     0.6728   0.6880   0.7893   1.0591   1.0797   1.1080   1.1831   1.2723
     1.3438   1.3904   1.4354   1.5835   2.1759

          k = 0.0521-0.0602 0.0000 ( 22643 PWs)   bands (ev):

   -61.5139 -61.4729 -61.4645 -61.4560 -61.4167 -61.4079 -61.4017 -61.3927
   -60.9860 -60.9778 -60.9692 -60.9056 -30.1531 -30.1363 -30.1106 -30.0831
   -30.0733 -30.0570 -30.0464 -30.0369 -30.0182 -30.0116 -30.0003 -29.9877
   -29.9797 -29.9775 -29.9523 -29.9297 -29.9137 -29.8599 -29.8535 -29.8019
   -29.8013 -29.7446 -29.7385 -29.7003 -29.6284 -29.5884 -29.5462 -29.4975
   -29.4501 -29.4482 -29.4464 -29.4286 -29.3731 -29.3651 -29.3217 -29.2753
   -15.8796  -4.0047  -3.1545  -2.8507  -2.4432  -2.3166  -1.9994  -1.8587
    -1.5553  -1.2231  -1.0806  -0.7500  -0.5867  -0.5128  -0.0631   0.0350
     0.1474   0.1608   0.2604   0.4574   0.5463   0.6243   0.6579   0.8030
     0.8831   0.9096   0.9870   1.0246   1.1190   1.2410   1.2847   1.4175
     1.4672   1.5014   1.6834   1.8033   2.2172

          k =-0.0782 0.0452 0.0000 ( 22668 PWs)   bands (ev):

   -61.5139 -61.4736 -61.4633 -61.4566 -61.4146 -61.4122 -61.3974 -61.3947
   -60.9856 -60.9785 -60.9688 -60.9056 -30.1594 -30.1366 -30.1248 -30.0793
   -30.0781 -30.0713 -30.0447 -30.0175 -30.0136 -30.0109 -29.9908 -29.9707
   -29.9639 -29.9628 -29.9219 -29.9179 -29.9146 -29.9104 -29.8758 -29.8743
   -29.7817 -29.7375 -29.7057 -29.7036 -29.6318 -29.6038 -29.4916 -29.4850
   -29.4615 -29.4505 -29.4488 -29.4426 -29.4163 -29.3662 -29.3025 -29.2692
   -15.8796  -3.7363  -3.6844  -2.7261  -2.5809  -2.1181  -1.8764  -1.7203
    -1.3663  -1.3562  -1.0797  -0.8528  -0.7432  -0.7362   0.0982   0.1549
     0.2230   0.2546   0.3552   0.3819   0.6279   0.6305   0.7358   0.7699
     0.7871   0.8453   1.0169   1.0590   1.0848   1.1626   1.1765   1.3399
     1.4217   1.5940   1.6652   2.1025   2.1344

          k =-0.0782 0.0753 0.0000 ( 22643 PWs)   bands (ev):

   -61.5139 -61.4730 -61.4645 -61.4560 -61.4166 -61.4080 -61.4015 -61.3927
   -60.9861 -60.9776 -60.9692 -60.9056 -30.1531 -30.1363 -30.1106 -30.0831
   -30.0733 -30.0570 -30.0464 -30.0368 -30.0184 -30.0114 -30.0003 -29.9879
   -29.9797 -29.9774 -29.9523 -29.9297 -29.9136 -29.8599 -29.8535 -29.8019
   -29.8013 -29.7446 -29.7385 -29.7003 -29.6284 -29.5884 -29.5462 -29.4973
   -29.4502 -29.4481 -29.4465 -29.4288 -29.3731 -29.3651 -29.3217 -29.2753
   -15.8796  -4.0047  -3.1545  -2.8507  -2.4432  -2.3165  -1.9994  -1.8587
    -1.5554  -1.2231  -1.0806  -0.7500  -0.5867  -0.5128  -0.0631   0.0350
     0.1474   0.1608   0.2604   0.4574   0.5462   0.6243   0.6579   0.8030
     0.8831   0.9096   0.9869   1.0246   1.1190   1.2410   1.2847   1.4174
     1.4673   1.5013   1.6834   1.8034   2.2172

          k =-0.0782 0.1054 0.0000 ( 22643 PWs)   bands (ev):

   -61.5139 -61.4729 -61.4646 -61.4560 -61.4166 -61.4082 -61.4013 -61.3928
   -60.9862 -60.9774 -60.9694 -60.9056 -30.1531 -30.1363 -30.1106 -30.0831
   -30.0733 -30.0570 -30.0463 -30.0369 -30.0183 -30.0114 -30.0005 -29.9878
   -29.9797 -29.9774 -29.9523 -29.9297 -29.9136 -29.8599 -29.8535 -29.8019
   -29.8013 -29.7446 -29.7385 -29.7003 -29.6286 -29.5882 -29.5461 -29.4974
   -29.4502 -29.4479 -29.4466 -29.4287 -29.3731 -29.3651 -29.3218 -29.2752
   -15.8796  -4.0047  -3.1545  -2.8507  -2.4432  -2.3165  -1.9994  -1.8587
    -1.5553  -1.2231  -1.0806  -0.7500  -0.5867  -0.5128  -0.0631   0.0350
     0.1474   0.1608   0.2604   0.4574   0.5463   0.6243   0.6580   0.8030
     0.8831   0.9096   0.9869   1.0246   1.1190   1.2410   1.2847   1.4174
     1.4673   1.5013   1.6834   1.8034   2.2172

          k =-0.0782-0.0452 0.0000 ( 22668 PWs)   bands (ev):

   -61.5139 -61.4735 -61.4635 -61.4565 -61.4138 -61.4132 -61.3966 -61.3953
   -60.9859 -60.9779 -60.9691 -60.9056 -30.1595 -30.1366 -30.1247 -30.0788
   -30.0787 -30.0713 -30.0448 -30.0174 -30.0134 -30.0109 -29.9913 -29.9701
   -29.9642 -29.9628 -29.9218 -29.9178 -29.9149 -29.9104 -29.8751 -29.8749
   -29.7818 -29.7375 -29.7050 -29.7043 -29.6321 -29.6035 -29.4918 -29.4846
   -29.4617 -29.4505 -29.4485 -29.4429 -29.4163 -29.3662 -29.3028 -29.2690
   -15.8796  -3.7362  -3.6845  -2.7260  -2.5810  -2.1181  -1.8764  -1.7203
    -1.3663  -1.3561  -1.0797  -0.8528  -0.7431  -0.7363   0.0982   0.1549
     0.2229   0.2548   0.3553   0.3819   0.6278   0.6307   0.7358   0.7697
     0.7872   0.8453   1.0169   1.0590   1.0849   1.1626   1.1765   1.3399
     1.4216   1.5941   1.6652   2.1025   2.1346

     the Fermi energy is     1.2030 ev

!    total energy              =   -1959.34548725 Ry
     Harris-Foulkes estimate   =   -1959.34548115 Ry
     estimated scf accuracy    <       0.00000170 Ry

     The total energy is the sum of the following terms:

     one-electron contribution =   -8632.25277093 Ry
     hartree contribution      =    4301.13323720 Ry
     xc contribution           =    -935.18119026 Ry
     ewald contribution        =    3307.06875810 Ry
     electric field correction =       0.00008955 Ry
     smearing contrib. (-TS)   =      -0.11361091 Ry

     convergence has been achieved in  49 iterations
 
 BEEF-vdW xc energy contributions
           1 :   -845.373214128111     
           2 :    785.383401025367     
           3 :   -679.204127877640     
           4 :    548.929470885928     
           5 :   -417.295579342547     
           6 :    301.304133628774     
           7 :   -209.508401021139     
           8 :    142.999564445947     
           9 :   -98.4878485876484     
          10 :    71.2799334950864     
          11 :   -56.8367039383006     
          12 :    50.8690851915444     
          13 :   -48.9347686109093     
          14 :    46.5143940579076     
          15 :   -39.9159789906007     
          16 :    27.4988018861898     
          17 :   -10.3746540303187     
          18 :   -8.01630902428076     
          19 :    23.3603238489763     
          20 :   -32.2689441502791     
          21 :    33.5321247085290     
          22 :   -28.3015639413427     
          23 :    19.2863248908488     
          24 :   -9.55326958820547     
          25 :    1.57829413318348     
          26 :    3.12198282395491     
          27 :   -3.90340954374904     
          28 :   0.800942136329240     
          29 :    5.50848955697131     
          30 :   -13.6252540920061     
          31 :   -60.9060703543649     
          32 :   -43.7394567024575     

     Forces acting on atoms (Ry/au):


     negative rho (up, down):  1.380E+00 0.000E+00
     atom    1 type  1   force =    -0.00003192   -0.00003415    0.02365340
     atom    2 type  1   force =     0.00003870    0.00160972    0.02481235
     atom    3 type  1   force =     0.00142665   -0.00077001    0.02484445
     atom    4 type  1   force =    -0.00142519   -0.00080744    0.02482728
     atom    5 type  1   force =    -0.00086932    0.00061357   -0.00040227
     atom    6 type  1   force =     0.00086136    0.00050864   -0.00033755
     atom    7 type  1   force =    -0.00008303   -0.00005920   -0.00521257
     atom    8 type  1   force =     0.00007844   -0.00106376   -0.00041110
     atom    9 type  1   force =     0.03298268    0.01901816    0.04202403
     atom   10 type  1   force =    -0.03300540    0.01900175    0.04201743
     atom   11 type  1   force =    -0.00002490   -0.03806853    0.04203978
     atom   12 type  1   force =     0.00005277    0.00005301   -0.04350591
     atom   13 type  2   force =    -0.00000082   -0.00000177   -0.17434932

     Total force =     0.204789     Total SCF correction =     0.000471


     entering subroutine stress ...


     negative rho (up, down):  1.380E+00 0.000E+00
          total   stress  (Ry/bohr**3)                   (kbar)     P=  -29.85
  -0.00017334   0.00000002   0.00000001        -25.50      0.00      0.00
   0.00000002  -0.00017335   0.00000000          0.00    -25.50      0.00
   0.00000001   0.00000000  -0.00026206          0.00      0.00    -38.55


     BFGS Geometry Optimization

     number of scf cycles    =   1
     number of bfgs steps    =   0

     energy   new            =   -1959.3454872524 Ry

     new trust radius        =       0.1743493194 bohr
     new conv_thr            =       0.0000099958 Ry


ATOMIC_POSITIONS (crystal)
Hf1      0.166666667   0.166666667   0.396510335    0   0   0
Hf1      0.666666667   0.166666667   0.396510335    0   0   0
Hf1      0.166666667   0.666666667   0.396510335    0   0   0
Hf1      0.666666667   0.666666667   0.396510335    0   0   0
Hf1      0.833333333   0.333333333   0.500000000    0   0   0
Hf1      0.333333333   0.333333333   0.500000000    0   0   0
Hf1      0.833333333   0.833333333   0.500000000    0   0   0
Hf1      0.333333333   0.833333333   0.500000000    0   0   0
Hf1      0.001821192   0.001817695   0.604371431
Hf1      0.496360016   0.001816126   0.604371293
Hf1      0.001817173   0.496361532   0.604371762
Hf1      0.500001834   0.500005067   0.602576806
O1       0.166666683   0.166666498   0.661944738



     Writing output data file calc.save
     Check: negative starting charge=   -1.301681
     NEW-OLD atomic charge density approx. for the potential

     Check: negative/imaginary core charge=   -0.000003    0.000000
     Check: negative starting charge=   -1.299624

     negative rho (up, down):  1.378E+00 0.000E+00
 
     Adding external electric field

     Computed dipole along edir(3) : 
        Dipole               -0.0420 Ry au,         -0.1069 Debye
        Dipole field         -0.0001 Ry au
 
        Potential amp.        0.0082 Ry
        Total length         46.4675 bohr
 

     total cpu time spent up to now is     1976.9 secs

     per-process dynamical memory:   160.0 Mb

     Self-consistent Calculation

     iteration #  1     ecut=    36.75 Ry     beta=0.30
     Davidson diagonalization with overlap
     ethr =  1.00E-06,  avg # of iterations = 12.7

     negative rho (up, down):  1.378E+00 0.000E+00
 
     Adding external electric field

     Computed dipole along edir(3) : 
        Dipole               -2.7818 Ry au,         -7.0706 Debye
        Dipole field         -0.0058 Ry au
 
        Potential amp.        0.5393 Ry
        Total length         46.4675 bohr
 

     total cpu time spent up to now is     2029.3 secs

     total energy              =   -1959.06284742 Ry
     Harris-Foulkes estimate   =   -1959.38130054 Ry
     estimated scf accuracy    <       0.66795237 Ry

     iteration #  2     ecut=    36.75 Ry     beta=0.30
     Davidson diagonalization with overlap
     ethr =  4.45E-04,  avg # of iterations = 11.8

     negative rho (up, down):  1.378E+00 0.000E+00
 
     Adding external electric field

     Computed dipole along edir(3) : 
        Dipole               -0.2019 Ry au,         -0.5133 Debye
        Dipole field         -0.0004 Ry au
 
        Potential amp.        0.0391 Ry
        Total length         46.4675 bohr
 

     total cpu time spent up to now is     2078.6 secs

     total energy              =   -1956.23544868 Ry
     Harris-Foulkes estimate   =   -1962.83061477 Ry
     estimated scf accuracy    <     224.58494394 Ry

     iteration #  3     ecut=    36.75 Ry     beta=0.30
     Davidson diagonalization with overlap
     ethr =  4.45E-04,  avg # of iterations =  6.8

     negative rho (up, down):  1.378E+00 0.000E+00
 
     Adding external electric field

     Computed dipole along edir(3) : 
        Dipole               -0.1962 Ry au,         -0.4986 Debye
        Dipole field         -0.0004 Ry au
 
        Potential amp.        0.0380 Ry
        Total length         46.4675 bohr
 

     total cpu time spent up to now is     2125.1 secs

     total energy              =   -1959.34608296 Ry
     Harris-Foulkes estimate   =   -1959.43002968 Ry
     estimated scf accuracy    <       0.80876420 Ry

     iteration #  4     ecut=    36.75 Ry     beta=0.30
     Davidson diagonalization with overlap
     ethr =  4.45E-04,  avg # of iterations =  2.9

     negative rho (up, down):  1.378E+00 0.000E+00
 
     Adding external electric field

     Computed dipole along edir(3) : 
        Dipole               -0.1484 Ry au,         -0.3772 Debye
        Dipole field         -0.0003 Ry au
 
        Potential amp.        0.0288 Ry
        Total length         46.4675 bohr
 

     total cpu time spent up to now is     2163.8 secs

     total energy              =   -1959.37867435 Ry
     Harris-Foulkes estimate   =   -1959.38474210 Ry
     estimated scf accuracy    <       0.18566726 Ry

     iteration #  5     ecut=    36.75 Ry     beta=0.30
     Davidson diagonalization with overlap
     ethr =  1.24E-04,  avg # of iterations =  3.5

     negative rho (up, down):  1.378E+00 0.000E+00
 
     Adding external electric field

     Computed dipole along edir(3) : 
        Dipole               -0.1240 Ry au,         -0.3151 Debye
        Dipole field         -0.0003 Ry au
 
        Potential amp.        0.0240 Ry
        Total length         46.4675 bohr
 

     total cpu time spent up to now is     2202.5 secs

     total energy              =   -1959.38281789 Ry
     Harris-Foulkes estimate   =   -1959.38405371 Ry
     estimated scf accuracy    <       0.01161442 Ry

     iteration #  6     ecut=    36.75 Ry     beta=0.30
     Davidson diagonalization with overlap
     ethr =  7.74E-06,  avg # of iterations =  6.9

     negative rho (up, down):  1.378E+00 0.000E+00
 
     Adding external electric field

     Computed dipole along edir(3) : 
        Dipole               -0.1142 Ry au,         -0.2902 Debye
        Dipole field         -0.0002 Ry au
 
        Potential amp.        0.0221 Ry
        Total length         46.4675 bohr
 

     total cpu time spent up to now is     2247.7 secs

     total energy              =   -1959.38520316 Ry
     Harris-Foulkes estimate   =   -1959.38562418 Ry
     estimated scf accuracy    <       0.00516602 Ry

     iteration #  7     ecut=    36.75 Ry     beta=0.30
     Davidson diagonalization with overlap
     ethr =  3.44E-06,  avg # of iterations =  2.0

     negative rho (up, down):  1.378E+00 0.000E+00
 
     Adding external electric field

     Computed dipole along edir(3) : 
        Dipole               -0.1185 Ry au,         -0.3013 Debye
        Dipole field         -0.0002 Ry au
 
        Potential amp.        0.0230 Ry
        Total length         46.4675 bohr
 

     total cpu time spent up to now is     2285.7 secs

     total energy              =   -1959.38511749 Ry
     Harris-Foulkes estimate   =   -1959.38536753 Ry
     estimated scf accuracy    <       0.00304489 Ry

     iteration #  8     ecut=    36.75 Ry     beta=0.30
     Davidson diagonalization with overlap
     ethr =  2.03E-06,  avg # of iterations =  3.0

     negative rho (up, down):  1.378E+00 0.000E+00
 
     Adding external electric field

     Computed dipole along edir(3) : 
        Dipole               -0.1182 Ry au,         -0.3005 Debye
        Dipole field         -0.0002 Ry au
 
        Potential amp.        0.0229 Ry
        Total length         46.4675 bohr
 

     total cpu time spent up to now is     2324.2 secs

     total energy              =   -1959.38523803 Ry
     Harris-Foulkes estimate   =   -1959.38525757 Ry
     estimated scf accuracy    <       0.00014606 Ry

     iteration #  9     ecut=    36.75 Ry     beta=0.30
     Davidson diagonalization with overlap
     ethr =  9.74E-08,  avg # of iterations =  6.2

     negative rho (up, down):  1.378E+00 0.000E+00
 
     Adding external electric field

     Computed dipole along edir(3) : 
        Dipole               -0.1178 Ry au,         -0.2994 Debye
        Dipole field         -0.0002 Ry au
 
        Potential amp.        0.0228 Ry
        Total length         46.4675 bohr
 

     total cpu time spent up to now is     2368.8 secs

     total energy              =   -1959.38528206 Ry
     Harris-Foulkes estimate   =   -1959.38529908 Ry
     estimated scf accuracy    <       0.00026340 Ry

     iteration # 10     ecut=    36.75 Ry     beta=0.30
     Davidson diagonalization with overlap
     ethr =  9.74E-08,  avg # of iterations =  1.2

     negative rho (up, down):  1.378E+00 0.000E+00
 
     Adding external electric field

     Computed dipole along edir(3) : 
        Dipole               -0.1178 Ry au,         -0.2994 Debye
        Dipole field         -0.0002 Ry au
 
        Potential amp.        0.0228 Ry
        Total length         46.4675 bohr
 

     total cpu time spent up to now is     2406.3 secs

     total energy              =   -1959.38527716 Ry
     Harris-Foulkes estimate   =   -1959.38528797 Ry
     estimated scf accuracy    <       0.00009747 Ry

     iteration # 11     ecut=    36.75 Ry     beta=0.30
     Davidson diagonalization with overlap
     ethr =  6.50E-08,  avg # of iterations =  3.5

     negative rho (up, down):  1.378E+00 0.000E+00

     negative rho (up, down):  1.378E+00 0.000E+00

     negative rho (up, down):  1.378E+00 0.000E+00

     negative rho (up, down):  1.378E+00 0.000E+00

     negative rho (up, down):  1.378E+00 0.000E+00

     negative rho (up, down):  1.378E+00 0.000E+00

     negative rho (up, down):  1.378E+00 0.000E+00

     negative rho (up, down):  1.378E+00 0.000E+00

     negative rho (up, down):  1.378E+00 0.000E+00

     negative rho (up, down):  1.378E+00 0.000E+00

     negative rho (up, down):  1.378E+00 0.000E+00

     negative rho (up, down):  1.378E+00 0.000E+00

     negative rho (up, down):  1.378E+00 0.000E+00

     negative rho (up, down):  1.378E+00 0.000E+00

     negative rho (up, down):  1.378E+00 0.000E+00

     negative rho (up, down):  1.378E+00 0.000E+00

     negative rho (up, down):  1.378E+00 0.000E+00

     negative rho (up, down):  1.378E+00 0.000E+00

     negative rho (up, down):  1.378E+00 0.000E+00

     negative rho (up, down):  1.378E+00 0.000E+00

     negative rho (up, down):  1.378E+00 0.000E+00

     negative rho (up, down):  1.378E+00 0.000E+00

     negative rho (up, down):  1.378E+00 0.000E+00

     negative rho (up, down):  1.378E+00 0.000E+00

     negative rho (up, down):  1.378E+00 0.000E+00

     negative rho (up, down):  1.378E+00 0.000E+00

     negative rho (up, down):  1.378E+00 0.000E+00

     negative rho (up, down):  1.378E+00 0.000E+00

     negative rho (up, down):  1.378E+00 0.000E+00

     negative rho (up, down):  1.378E+00 0.000E+00

     negative rho (up, down):  1.378E+00 0.000E+00

     negative rho (up, down):  1.378E+00 0.000E+00

     negative rho (up, down):  1.378E+00 0.000E+00

     negative rho (up, down):  1.378E+00 0.000E+00

     negative rho (up, down):  1.378E+00 0.000E+00
 
     Adding external electric field

     Computed dipole along edir(3) : 
        Dipole               -0.1283 Ry au,         -0.3260 Debye
        Dipole field         -0.0003 Ry au
 
        Potential amp.        0.0249 Ry
        Total length         46.4675 bohr
 

     total cpu time spent up to now is     2508.1 secs

     End of self-consistent calculation

          k = 0.0000 0.0000 0.0000 ( 22729 PWs)   bands (ev):

   -61.4265 -61.3959 -61.3958 -61.3757 -61.3547 -61.3217 -61.3217 -61.3176
   -60.9198 -60.8915 -60.8914 -60.8484 -30.1742 -30.1647 -30.1647 -30.1019
   -30.0989 -30.0989 -30.0822 -29.9888 -29.9753 -29.9752 -29.9646 -29.8864
   -29.8864 -29.8822 -29.7617 -29.7414 -29.7414 -29.6924 -29.6922 -29.6922
   -29.6301 -29.6248 -29.6247 -29.6149 -29.6149 -29.5646 -29.5646 -29.3838
   -29.3739 -29.3738 -29.3182 -29.2820 -29.2731 -29.2731 -29.1513 -29.1513
   -16.3082  -5.1871  -3.9079  -2.7659  -2.6841  -2.6841  -2.3068  -1.7016
    -1.7016  -1.6001  -1.4041  -1.3531  -1.3531  -0.7821  -0.7820  -0.7110
    -0.3956  -0.3956  -0.1242   0.4165   0.4165   0.7615   1.2839   1.5205
     1.6691   1.7093   1.7283   1.7283   1.7608   1.7608   2.0972   2.3232
     2.3762   2.3763   2.5491   2.5628   2.5629

          k = 0.0000 0.0301 0.0000 ( 22708 PWs)   bands (ev):

   -61.4244 -61.3974 -61.3958 -61.3763 -61.3524 -61.3235 -61.3217 -61.3181
   -60.9179 -60.8930 -60.8915 -60.8488 -30.1527 -30.1455 -30.1334 -30.0820
   -30.0798 -30.0726 -30.0666 -29.9856 -29.9732 -29.9707 -29.9600 -29.8931
   -29.8876 -29.8842 -29.7783 -29.7627 -29.7373 -29.7139 -29.7137 -29.6838
   -29.6585 -29.6291 -29.6144 -29.6040 -29.6034 -29.5967 -29.5730 -29.3795
   -29.3728 -29.3723 -29.3164 -29.2994 -29.2922 -29.2676 -29.1863 -29.1593
[...]
   -29.7555 -29.7349 -29.7274 -29.7169 -29.7104 -29.7049 -29.6984 -29.6844
   -29.6773 -29.6582 -29.6196 -29.6104 -29.5842 -29.5457 -29.5273 -29.4665
   -29.4634 -29.4284 -29.4180 -29.3451 -29.2541 -29.2144 -29.1736 -29.1283
   -29.0687 -29.0560 -29.0545 -29.0528 -29.0308 -29.0061 -28.9552 -28.9187
   -17.7675  -4.5450  -4.2139  -3.8477  -3.5087  -2.7339  -2.2289  -1.9374
    -1.5035  -1.0135  -0.8662  -0.5503  -0.3256  -0.2962   0.1770   0.2530
     0.3398   0.4006   0.5283   0.6566   0.7582   0.8591   0.9064   1.0478
     1.1410   1.1600   1.2335   1.3084   1.3836   1.5208   1.5887   1.6937
     1.7803   1.8338   1.9935   2.1070   2.5706

          k = 0.0261-0.0452 0.0000 ( 22675 PWs)   bands (ev):

   -61.1538 -61.1307 -61.1304 -61.1242 -61.0900 -61.0703 -61.0659 -60.9164
   -60.6053 -60.5841 -60.5804 -60.5753 -29.9991 -29.8636 -29.8322 -29.8302
   -29.8098 -29.7850 -29.7762 -29.7316 -29.7248 -29.7197 -29.7094 -29.6833
   -29.6695 -29.6120 -29.5805 -29.5497 -29.5003 -29.4974 -29.4764 -29.4718
   -29.4568 -29.3960 -29.3891 -29.3229 -29.2891 -29.2680 -29.2387 -29.0674
   -29.0590 -29.0580 -29.0540 -29.0365 -28.9860 -28.9853 -28.9572 -28.8883
   -17.7792  -4.6487  -4.2496  -4.2056  -3.7904  -2.8557  -1.9681  -1.9067
    -1.6307  -1.1273  -1.0738  -0.9634  -0.7128  -0.3504  -0.2505  -0.0894
     0.0470   0.0813   0.3217   0.6433   0.6573   0.8735   1.2621   1.3884
     1.4481   1.4704   1.5041   1.6528   1.7540   1.8966   2.0109   2.0658
     2.1612   2.2156   2.3099   2.4794   2.5695

          k = 0.0521-0.0301 0.0000 ( 22648 PWs)   bands (ev):

   -61.1518 -61.1348 -61.1263 -61.1261 -61.0887 -61.0717 -61.0658 -60.9165
   -60.6034 -60.5867 -60.5787 -60.5763 -29.9816 -29.8434 -29.8408 -29.8019
   -29.7893 -29.7738 -29.7525 -29.7283 -29.7235 -29.7145 -29.7079 -29.6876
   -29.6708 -29.6145 -29.5663 -29.5658 -29.5416 -29.5390 -29.5075 -29.4652
   -29.4264 -29.4203 -29.4012 -29.3224 -29.2813 -29.2566 -29.2178 -29.0647
   -29.0575 -29.0572 -29.0489 -29.0473 -29.0326 -28.9862 -28.9541 -28.8930
   -17.7753  -4.6036  -4.2253  -4.1122  -3.7414  -2.7168  -2.4009  -1.5546
    -1.3152  -1.2742  -1.1788  -0.7476  -0.7106  -0.4104  -0.0136   0.0098
     0.1377   0.1796   0.3769   0.6520   0.7040   0.8625   1.1329   1.2958
     1.3277   1.3951   1.4497   1.5902   1.6159   1.7349   1.8836   1.9664
     2.0240   2.1580   2.2290   2.4405   2.4431

          k = 0.0521 0.0000 0.0000 ( 22675 PWs)   bands (ev):

   -61.1538 -61.1306 -61.1304 -61.1242 -61.0900 -61.0704 -61.0658 -60.9164
   -60.6053 -60.5841 -60.5804 -60.5753 -29.9991 -29.8636 -29.8322 -29.8302
   -29.8098 -29.7850 -29.7762 -29.7316 -29.7248 -29.7196 -29.7094 -29.6833
   -29.6694 -29.6120 -29.5805 -29.5497 -29.5003 -29.4974 -29.4764 -29.4717
   -29.4567 -29.3960 -29.3891 -29.3229 -29.2891 -29.2680 -29.2387 -29.0674
   -29.0590 -29.0580 -29.0540 -29.0365 -28.9860 -28.9853 -28.9572 -28.8883
   -17.7792  -4.6487  -4.2495  -4.2057  -3.7904  -2.8557  -1.9681  -1.9067
    -1.6307  -1.1272  -1.0738  -0.9634  -0.7128  -0.3503  -0.2506  -0.0894
     0.0470   0.0813   0.3217   0.6433   0.6573   0.8736   1.2621   1.3884
     1.4481   1.4704   1.5041   1.6528   1.7540   1.8965   2.0109   2.0657
     2.1611   2.2155   2.3098   2.4795   2.5696

          k = 0.0521 0.0301 0.0000 ( 22648 PWs)   bands (ev):

   -61.1518 -61.1348 -61.1264 -61.1261 -61.0886 -61.0718 -61.0657 -60.9165
   -60.6035 -60.5867 -60.5787 -60.5763 -29.9816 -29.8434 -29.8408 -29.8019
   -29.7893 -29.7738 -29.7525 -29.7283 -29.7235 -29.7145 -29.7079 -29.6876
   -29.6707 -29.6145 -29.5662 -29.5659 -29.5416 -29.5390 -29.5075 -29.4652
   -29.4264 -29.4203 -29.4012 -29.3225 -29.2814 -29.2565 -29.2178 -29.0648
   -29.0575 -29.0572 -29.0489 -29.0473 -29.0326 -28.9862 -28.9541 -28.8930
   -17.7753  -4.6035  -4.2252  -4.1123  -3.7414  -2.7168  -2.4010  -1.5546
    -1.3152  -1.2742  -1.1788  -0.7476  -0.7106  -0.4104  -0.0137   0.0098
     0.1377   0.1796   0.3769   0.6520   0.7040   0.8625   1.1329   1.2958
     1.3277   1.3951   1.4497   1.5902   1.6158   1.7349   1.8836   1.9664
     2.0240   2.1580   2.2291   2.4406   2.4431

          k = 0.0521-0.1204 0.0000 ( 22643 PWs)   bands (ev):

   -61.1464 -61.1379 -61.1316 -61.1231 -61.0851 -61.0749 -61.0659 -60.9167
   -60.5986 -60.5894 -60.5828 -60.5744 -29.9359 -29.8138 -29.7846 -29.7777
   -29.7555 -29.7349 -29.7274 -29.7169 -29.7103 -29.7049 -29.6984 -29.6844
   -29.6773 -29.6582 -29.6197 -29.6104 -29.5842 -29.5457 -29.5273 -29.4665
   -29.4634 -29.4284 -29.4180 -29.3451 -29.2541 -29.2144 -29.1736 -29.1283
   -29.0687 -29.0560 -29.0545 -29.0528 -29.0308 -29.0061 -28.9552 -28.9187
   -17.7675  -4.5450  -4.2138  -3.8478  -3.5087  -2.7339  -2.2289  -1.9374
    -1.5034  -1.0135  -0.8662  -0.5503  -0.3256  -0.2962   0.1770   0.2530
     0.3398   0.4006   0.5283   0.6566   0.7582   0.8591   0.9064   1.0478
     1.1410   1.1600   1.2335   1.3084   1.3836   1.5208   1.5887   1.6937
     1.7803   1.8339   1.9935   2.1071   2.5707

          k = 0.0521-0.0903 0.0000 ( 22614 PWs)   bands (ev):

   -61.1393 -61.1389 -61.1389 -61.1219 -61.0821 -61.0776 -61.0661 -60.9167
   -60.5945 -60.5890 -60.5883 -60.5733 -29.9019 -29.7629 -29.7579 -29.7538
   -29.7469 -29.7435 -29.7218 -29.7122 -29.7107 -29.6953 -29.6848 -29.6801
   -29.6772 -29.6764 -29.6568 -29.6210 -29.6080 -29.6059 -29.4778 -29.4755
   -29.4741 -29.4678 -29.3963 -29.3827 -29.2100 -29.1973 -29.1481 -29.1467
   -29.1380 -29.0554 -29.0524 -29.0521 -29.0293 -28.9686 -28.9637 -28.9582
   -17.7636  -4.5197  -4.2168  -3.7736  -2.9376  -2.8024  -2.7134  -1.7051
    -1.4817  -1.4140  -0.2785  -0.2726  -0.1423  -0.1265   0.0322   0.1425
     0.4551   0.5809   0.6243   0.6687   0.6872   0.7998   0.8621   0.9397
     0.9682   0.9934   1.0482   1.3191   1.3846   1.4122   1.5310   1.5635
     1.6054   1.6671   1.7896   1.8648   2.5755

          k = 0.0521-0.0602 0.0000 ( 22643 PWs)   bands (ev):

   -61.1464 -61.1379 -61.1316 -61.1231 -61.0851 -61.0748 -61.0660 -60.9167
   -60.5986 -60.5894 -60.5828 -60.5744 -29.9359 -29.8138 -29.7846 -29.7777
   -29.7555 -29.7349 -29.7274 -29.7169 -29.7104 -29.7049 -29.6984 -29.6844
   -29.6773 -29.6582 -29.6196 -29.6104 -29.5842 -29.5457 -29.5273 -29.4665
   -29.4634 -29.4284 -29.4180 -29.3451 -29.2541 -29.2144 -29.1736 -29.1283
   -29.0687 -29.0560 -29.0545 -29.0528 -29.0308 -29.0061 -28.9552 -28.9187
   -17.7675  -4.5450  -4.2139  -3.8477  -3.5087  -2.7339  -2.2289  -1.9374
    -1.5035  -1.0135  -0.8662  -0.5503  -0.3256  -0.2962   0.1770   0.2530
     0.3398   0.4006   0.5283   0.6566   0.7582   0.8591   0.9064   1.0478
     1.1410   1.1600   1.2335   1.3084   1.3836   1.5208   1.5887   1.6937
     1.7803   1.8338   1.9935   2.1070   2.5706

          k =-0.0782 0.0452 0.0000 ( 22668 PWs)   bands (ev):

   -61.1434 -61.1432 -61.1263 -61.1261 -61.0850 -61.0751 -61.0658 -60.9167
   -60.5972 -60.5928 -60.5789 -60.5763 -29.9400 -29.8111 -29.8087 -29.7723
   -29.7626 -29.7363 -29.7271 -29.7127 -29.7032 -29.6984 -29.6773 -29.6748
   -29.6464 -29.6383 -29.6212 -29.6001 -29.5995 -29.5880 -29.5808 -29.4756
   -29.4338 -29.4330 -29.4143 -29.3329 -29.2587 -29.2260 -29.1225 -29.1128
   -29.0872 -29.0774 -29.0556 -29.0552 -29.0505 -29.0216 -28.9288 -28.9186
   -17.7675  -4.5558  -4.1969  -3.8280  -3.3346  -3.1907  -2.1059  -1.8183
    -1.1545  -1.1269  -0.8262  -0.6297  -0.5352  -0.4955   0.3000   0.3640
     0.4157   0.5174   0.6084   0.6307   0.8016   0.8729   0.9738   1.0174
     1.0510   1.0904   1.2034   1.2878   1.3766   1.4648   1.4916   1.6452
     1.7591   1.9169   2.0001   2.3998   2.4341

          k =-0.0782 0.0753 0.0000 ( 22643 PWs)   bands (ev):

   -61.1464 -61.1379 -61.1316 -61.1231 -61.0851 -61.0748 -61.0660 -60.9167
   -60.5986 -60.5894 -60.5828 -60.5744 -29.9359 -29.8138 -29.7846 -29.7777
   -29.7555 -29.7349 -29.7274 -29.7169 -29.7103 -29.7049 -29.6984 -29.6844
   -29.6773 -29.6582 -29.6197 -29.6104 -29.5842 -29.5457 -29.5273 -29.4665
   -29.4634 -29.4284 -29.4180 -29.3451 -29.2541 -29.2144 -29.1736 -29.1283
   -29.0687 -29.0560 -29.0545 -29.0528 -29.0308 -29.0061 -28.9552 -28.9187
   -17.7675  -4.5450  -4.2139  -3.8478  -3.5087  -2.7339  -2.2289  -1.9374
    -1.5034  -1.0135  -0.8662  -0.5503  -0.3256  -0.2962   0.1770   0.2530
     0.3398   0.4006   0.5283   0.6566   0.7582   0.8591   0.9064   1.0478
     1.1410   1.1600   1.2335   1.3084   1.3836   1.5208   1.5887   1.6937
     1.7803   1.8339   1.9935   2.1071   2.5706

          k =-0.0782 0.1054 0.0000 ( 22643 PWs)   bands (ev):

   -61.1464 -61.1379 -61.1316 -61.1231 -61.0851 -61.0749 -61.0659 -60.9167
   -60.5986 -60.5894 -60.5828 -60.5744 -29.9359 -29.8138 -29.7846 -29.7777
   -29.7555 -29.7349 -29.7274 -29.7169 -29.7103 -29.7049 -29.6984 -29.6844
   -29.6773 -29.6582 -29.6197 -29.6104 -29.5842 -29.5457 -29.5273 -29.4665
   -29.4634 -29.4284 -29.4180 -29.3451 -29.2541 -29.2144 -29.1736 -29.1283
   -29.0687 -29.0560 -29.0545 -29.0528 -29.0308 -29.0061 -28.9552 -28.9187
   -17.7675  -4.5450  -4.2138  -3.8478  -3.5087  -2.7339  -2.2289  -1.9374
    -1.5034  -1.0135  -0.8662  -0.5503  -0.3256  -0.2962   0.1770   0.2530
     0.3398   0.4006   0.5283   0.6566   0.7582   0.8591   0.9064   1.0478
     1.1410   1.1600   1.2335   1.3084   1.3836   1.5208   1.5887   1.6937
     1.7803   1.8339   1.9935   2.1071   2.5707

          k =-0.0782-0.0452 0.0000 ( 22668 PWs)   bands (ev):

   -61.1435 -61.1432 -61.1264 -61.1261 -61.0849 -61.0753 -61.0657 -60.9167
   -60.5972 -60.5927 -60.5789 -60.5763 -29.9400 -29.8111 -29.8087 -29.7723
   -29.7626 -29.7364 -29.7271 -29.7127 -29.7032 -29.6984 -29.6773 -29.6748
   -29.6464 -29.6383 -29.6213 -29.6001 -29.5995 -29.5881 -29.5808 -29.4757
   -29.4338 -29.4330 -29.4142 -29.3330 -29.2587 -29.2260 -29.1225 -29.1128
   -29.0873 -29.0774 -29.0556 -29.0552 -29.0504 -29.0216 -28.9289 -28.9185
   -17.7675  -4.5558  -4.1968  -3.8281  -3.3347  -3.1908  -2.1059  -1.8183
    -1.1545  -1.1269  -0.8262  -0.6297  -0.5351  -0.4955   0.3000   0.3640
     0.4157   0.5175   0.6084   0.6307   0.8015   0.8729   0.9738   1.0174
     1.0509   1.0904   1.2033   1.2878   1.3766   1.4648   1.4916   1.6452
     1.7591   1.9169   2.0001   2.3999   2.4341

     the Fermi energy is     1.4727 ev

!    total energy              =   -1959.48462214 Ry
     Harris-Foulkes estimate   =   -1959.48462166 Ry
     estimated scf accuracy    <       0.00000007 Ry

     The total energy is the sum of the following terms:

     one-electron contribution =   -8912.00308687 Ry
     hartree contribution      =    4442.22973250 Ry
     xc contribution           =    -935.70678495 Ry
     ewald contribution        =    3446.10316722 Ry
     electric field correction =       0.00001478 Ry
     smearing contrib. (-TS)   =      -0.10766482 Ry

     convergence has been achieved in  10 iterations
 
 BEEF-vdW xc energy contributions
           1 :   -845.911956087798     
           2 :    786.094873898094     
           3 :   -680.062255048363     
           4 :    549.710057046748     
           5 :   -417.745529816807     
           6 :    301.315771978495     
           7 :   -209.180133179423     
           8 :    142.560447328073     
           9 :   -98.1542047458388     
          10 :    71.1443870011424     
          11 :   -56.8517600714488     
          12 :    50.9160012443020     
          13 :   -48.9211506377437     
          14 :    46.4323688336599     
          15 :   -39.8292886113029     
          16 :    27.4801518525315     
          17 :   -10.4412315796565     
          18 :   -7.92428013138351     
          19 :    23.3425671914603     
          20 :   -32.3944019488267     
          21 :    33.7841167968261     
          22 :   -28.5803583515035     
          23 :    19.4700903142545     
          24 :   -9.57446327426055     
          25 :    1.46185797364194     
          26 :    3.28370776308554     
          27 :   -4.01812348208296     
          28 :   0.835472134551765     
          29 :    5.51922385357193     
          30 :   -13.6218473978781     
          31 :   -60.9400887606522     
          32 :   -43.8027140736982     

     Forces acting on atoms (Ry/au):


     negative rho (up, down):  1.379E+00 0.000E+00
     atom    1 type  1   force =     0.00000645    0.00000394    0.01755881
     atom    2 type  1   force =     0.00001410    0.00054781    0.02199068
     atom    3 type  1   force =     0.00048123   -0.00026181    0.02199062
     atom    4 type  1   force =    -0.00045444   -0.00026258    0.02199540
     atom    5 type  1   force =     0.00413377   -0.00237173   -0.02091371
     atom    6 type  1   force =    -0.00410491   -0.00236960   -0.02088544
     atom    7 type  1   force =     0.00000248    0.00000096   -0.02040158
     atom    8 type  1   force =     0.00001258    0.00476603   -0.02091495
     atom    9 type  1   force =    -0.00114047   -0.00065720   -0.00017673
     atom   10 type  1   force =     0.00114424   -0.00071397   -0.00021025
     atom   11 type  1   force =    -0.00004716    0.00134700   -0.00021105
     atom   12 type  1   force =     0.00001641    0.00000824    0.00070026
     atom   13 type  2   force =    -0.00006429   -0.00003709   -0.00052205

     Total force =     0.002501     Total SCF correction =     0.000244


     entering subroutine stress ...


     negative rho (up, down):  1.379E+00 0.000E+00
          total   stress  (Ry/bohr**3)                   (kbar)     P=  -14.70
  -0.00010228  -0.00000001  -0.00000002        -15.05     -0.00     -0.00
  -0.00000001  -0.00010226  -0.00000001         -0.00    -15.04     -0.00
  -0.00000002  -0.00000001  -0.00009525         -0.00     -0.00    -14.01


     bfgs converged in  15 scf cycles and  14 bfgs steps
     (criteria: energy <  1.0E+00, force <  1.9E-03)

     End of BFGS Geometry Optimization

     Final energy   =   -1959.4846221406 Ry
Begin final coordinates

ATOMIC_POSITIONS (crystal)
Hf1      0.166666667   0.166666667   0.396510335    0   0   0
Hf1      0.666666667   0.166666667   0.396510335    0   0   0
Hf1      0.166666667   0.666666667   0.396510335    0   0   0
Hf1      0.666666667   0.666666667   0.396510335    0   0   0
Hf1      0.833333333   0.333333333   0.500000000    0   0   0
Hf1      0.333333333   0.333333333   0.500000000    0   0   0
Hf1      0.833333333   0.833333333   0.500000000    0   0   0
Hf1      0.333333333   0.833333333   0.500000000    0   0   0
Hf1      0.001000626   0.000999649   0.600536734
Hf1      0.497970117   0.001020510   0.600540533
Hf1      0.001020806   0.497970449   0.600540747
Hf1      0.500006721   0.500008080   0.593460949
O1       0.166676758   0.166676653   0.638367581
End final coordinates



     Writing output data file calc.save
 
     init_run     :     20.13s CPU     20.61s WALL (       1 calls)
     electrons    :  10803.00s CPU  11486.59s WALL (      15 calls)
     update_pot   :     48.79s CPU     50.55s WALL (      14 calls)
     forces       :    558.60s CPU    605.59s WALL (      15 calls)
     stress       :   1660.36s CPU   1788.07s WALL (      15 calls)

     Called by init_run:
     wfcinit      :      6.58s CPU      6.71s WALL (       1 calls)
     potinit      :      2.28s CPU      2.40s WALL (       1 calls)

     Called by electrons:
     c_bands      :   3311.69s CPU   3470.16s WALL (     260 calls)
     sum_band     :   2775.00s CPU   2970.67s WALL (     260 calls)
     v_of_rho     :    524.19s CPU    558.31s WALL (     275 calls)
     newd         :   3056.11s CPU   3080.95s WALL (     275 calls)
     mix_rho      :     21.04s CPU     21.58s WALL (     260 calls)
     vdW_energy   :    213.80s CPU    235.51s WALL (     815 calls)
     vdW_ffts     :    551.60s CPU    576.73s WALL (    1660 calls)
     vdW_v        :    227.71s CPU    234.72s WALL (     815 calls)

     Called by c_bands:
     init_us_2    :     28.53s CPU     28.63s WALL (    2755 calls)
     cegterg      :   2951.67s CPU   3015.35s WALL (    1305 calls)

     Called by *egterg:
     h_psi        :   1969.22s CPU   2020.83s WALL (    7318 calls)
     s_psi        :    239.86s CPU    240.29s WALL (    7318 calls)
     g_psi        :     10.81s CPU     10.84s WALL (    6008 calls)
     cdiaghg      :    221.96s CPU    224.12s WALL (    7243 calls)

     Called by h_psi:
     add_vuspsi   :    243.73s CPU    244.35s WALL (    7318 calls)

     General routines
     calbec       :    364.16s CPU    370.01s WALL (    8768 calls)
     fft          :    884.83s CPU    953.11s WALL (   49709 calls)
     ffts         :      1.16s CPU      1.25s WALL (     535 calls)
     fftw         :   1095.46s CPU   1150.71s WALL (  693164 calls)
     interpolate  :     12.38s CPU     12.74s WALL (     535 calls)
     davcio       :      0.00s CPU      0.03s WALL (       5 calls)
 
     Parallel routines
     fft_scatter  :   1189.19s CPU   1305.28s WALL (  743408 calls)
 
     PWSCF        :     3h40m CPU        3h55m WALL

 
   This run was terminated on:  20: 2:36   3May2018            

=------------------------------------------------------------------------------=
   JOB DONE.
=------------------------------------------------------------------------------=
Job  /afs/slac/g/suncat/bin/suncat-tsmpirun -x LD_LIBRARY_PATH -wdir /scratch/qe793225_Gs9vd pw.x -npool 4 -in pw.inp

TID   HOST_NAME   COMMAND_LINE            STATUS            TERMINATION_TIME
===== ========== ================  =======================  ===================
00000 suncat0070 pw.x -npool 4 -i  Done                     05/03/2018 20:02:36
00001 suncat0070 pw.x -npool 4 -i  Done                     05/03/2018 20:02:36
00002 suncat0070 pw.x -npool 4 -i  Done                     05/03/2018 20:02:36
00003 suncat0070 pw.x -npool 4 -i  Done                     05/03/2018 20:02:36
00004 suncat0070 pw.x -npool 4 -i  Done                     05/03/2018 20:02:36
00005 suncat0070 pw.x -npool 4 -i  Done                     05/03/2018 20:02:36
00006 suncat0070 pw.x -npool 4 -i  Done                     05/03/2018 20:02:36
00007 suncat0070 pw.x -npool 4 -i  Done                     05/03/2018 20:02:36
00008 suncat0049 pw.x -npool 4 -i  Done                     05/03/2018 20:02:36
00009 suncat0049 pw.x -npool 4 -i  Done                     05/03/2018 20:02:36
00010 suncat0049 pw.x -npool 4 -i  Done                     05/03/2018 20:02:36
00011 suncat0049 pw.x -npool 4 -i  Done                     05/03/2018 20:02:36
00012 suncat0049 pw.x -npool 4 -i  Done                     05/03/2018 20:02:36
00013 suncat0049 pw.x -npool 4 -i  Done                     05/03/2018 20:02:36
00014 suncat0049 pw.x -npool 4 -i  Done                     05/03/2018 20:02:36
00015 suncat0049 pw.x -npool 4 -i  Done                     05/03/2018 20:02:36
00016 suncat0182 pw.x -npool 4 -i  Done                     05/03/2018 20:02:36
00017 suncat0182 pw.x -npool 4 -i  Done                     05/03/2018 20:02:36
00018 suncat0182 pw.x -npool 4 -i  Done                     05/03/2018 20:02:36
00019 suncat0182 pw.x -npool 4 -i  Done                     05/03/2018 20:02:36
00020 suncat0182 pw.x -npool 4 -i  Done                     05/03/2018 20:02:36
00021 suncat0182 pw.x -npool 4 -i  Done                     05/03/2018 20:02:36
00022 suncat0182 pw.x -npool 4 -i  Done                     05/03/2018 20:02:36
00023 suncat0182 pw.x -npool 4 -i  Done                     05/03/2018 20:02:36
00024 suncat0173 pw.x -npool 4 -i  Done                     05/03/2018 20:02:36
00025 suncat0173 pw.x -npool 4 -i  Done                     05/03/2018 20:02:36
00026 suncat0173 pw.x -npool 4 -i  Done                     05/03/2018 20:02:36
00027 suncat0173 pw.x -npool 4 -i  Done                     05/03/2018 20:02:36
00028 suncat0173 pw.x -npool 4 -i  Done                     05/03/2018 20:02:36
00029 suncat0173 pw.x -npool 4 -i  Done                     05/03/2018 20:02:36
00030 suncat0173 pw.x -npool 4 -i  Done                     05/03/2018 20:02:36
00031 suncat0173 pw.x -npool 4 -i  Done                     05/03/2018 20:02:36
