  python dir          : /u/if/mamunm/src/espresso
  espresso dir        : /nfs/slac/g/suncatfs/sw/espv18/espresso-dynpy-beef/bin
  pseudo dir          : /u/if/mamunm/psp/gbrv1.5pbe
  ase-espresso py git : GITVERSION



     Program PWSCF v.5.1rc2 (svn rev. 11289) starts on  2May2018 at 17:32: 2 

     This program is part of the open-source Quantum ESPRESSO suite
     for quantum simulation of materials; please cite
         "P. Giannozzi et al., J. Phys.:Condens. Matter 21 395502 (2009);
          URL http://www.quantum-espresso.org", 
     in publications or presentations arising from this work. More details at
     http://www.quantum-espresso.org/quote

     Parallel version (MPI), running on    32 processors
     K-points division:     npool     =       4
     R & G space division:  proc/nbgrp/npool/nimage =       8
     Reading input from pw.inp
     Message from routine read_cards :
     DEPRECATED: no units specified in CELL_PARAMETERS card

     Current dimensions of program PWSCF are:
     Max number of different atomic species (ntypx) = 10
     Max number of k-points (npk) =  40000
     Max angular momentum in pseudopotentials (lmaxx) =  3
     Presently stress not available with electric field


     **************************************************************************
     Initializing libbeef V0.1.1 with the BEEF-vdW functional.
     Citation: Wellendorff et al., PRB 85, 235149 (2012).
     **************************************************************************


     IMPORTANT: XC functional enforced from input :
     Exchange-correlation      = BEEF-VDW ( 1  4 27 13 2)
     Any further DFT definition will be discarded
     Please, verify this is what you really want


     Subspace diagonalization in iterative solution of the eigenvalue problem:
     a serial algorithm will be used

 
     Parallelization info
     --------------------
     sticks:   dense  smooth     PW     G-vecs:    dense   smooth      PW
     Min         329     130     39                61797    15613    2499
     Max         330     131     40                61814    15645    2512
     Sum        2635    1045    313               494447   125015   20053
 


     bravais-lattice index     =            0
     lattice parameter (alat)  =       1.8897  a.u.
     unit-cell volume          =    4158.3597 (a.u.)^3
     number of atoms/cell      =           13
     number of atomic types    =            2
     number of electrons       =       157.00
     number of Kohn-Sham states=           88
     kinetic-energy cutoff     =      36.7493  Ry
     charge density cutoff     =     367.4932  Ry
     convergence threshold     =      1.0E-05
     mixing beta               =       0.3000
     number of iterations used =           10  plain     mixing
     Exchange-correlation      = BEEF-VDW ( 1  4 27 13 2)
     nstep                     =           50


     celldm(1)=   1.889726  celldm(2)=   0.000000  celldm(3)=   0.000000
     celldm(4)=   0.000000  celldm(5)=   0.000000  celldm(6)=   0.000000

     crystal axes: (cart. coord. in units of alat)
               a(1) = (   5.399178   0.000000   0.000000 )  
               a(2) = (   2.699589   4.675825   0.000000 )  
               a(3) = (   0.000000   0.000000  24.408411 )  

     reciprocal axes: (cart. coord. in units 2 pi/alat)
               b(1) = (  0.185213 -0.106933  0.000000 )  
               b(2) = (  0.000000  0.213866  0.000000 )  
               b(3) = (  0.000000  0.000000  0.040969 )  


     PseudoPot. # 1 for V  read from file:
     /u/if/mamunm/psp/gbrv1.5pbe/V.UPF
     MD5 check sum: 22b79981416ebb76fdaf5b1b8640f6fb
     Pseudo is Ultrasoft + core correction, Zval = 13.0
     Generated by new atomic code, or converted to UPF format
     Using radial grid of  853 points,  6 beta functions with: 
                l(1) =   0
                l(2) =   0
                l(3) =   1
                l(4) =   1
                l(5) =   2
                l(6) =   2
     Q(r) pseudized with  8 coefficients,  rinner =    1.100   1.100   1.100
                                                       1.100   1.100

     PseudoPot. # 2 for H  read from file:
     /u/if/mamunm/psp/gbrv1.5pbe/H.UPF
     MD5 check sum: 761ae9a214b05c3daf00ab9f6b793d6f
     Pseudo is Ultrasoft, Zval =  1.0
     Generated by new atomic code, or converted to UPF format
     Using radial grid of  615 points,  2 beta functions with: 
                l(1) =   0
                l(2) =   0
     Q(r) pseudized with  8 coefficients,  rinner =    0.700

     vdW kernel table read from file vdW_kernel_table
     MD5 check sum: 095c7af220d748ca6e76c0b4c6cfb241

     atomic species   valence    mass     pseudopotential
        V1            13.00    50.94150     V ( 1.00)
        H1             1.00     1.00800     H ( 1.00)

     No symmetry found



   Cartesian axes

     site n.     atom                  positions (alat units)
         1           V1  tau(   1) = (   1.3497945   0.7793042  10.0000000  )
         2           V1  tau(   2) = (   4.0493836   0.7793042  10.0000000  )
         3           V1  tau(   3) = (   2.6995891   3.1172170  10.0000000  )
         4           V1  tau(   4) = (   5.3991782   3.1172170  10.0000000  )
         5           V1  tau(   5) = (   5.3991782   1.5586085  12.2042053  )
         6           V1  tau(   6) = (   2.6995891   1.5586085  12.2042053  )
         7           V1  tau(   7) = (   6.7489727   3.8965212  12.2042053  )
         8           V1  tau(   8) = (   4.0493836   3.8965212  12.2042053  )
         9           V1  tau(   9) = (   0.0000000   0.0000000  14.4084105  )
        10           V1  tau(  10) = (   2.6995891   0.0000000  14.4084105  )
        11           V1  tau(  11) = (   1.3497945   2.3379127  14.4084105  )
        12           V1  tau(  12) = (   4.0493836   2.3379127  14.4084105  )
        13           H1  tau(  13) = (   1.3497945   0.7793042  15.6044105  )

     number of k points=    20  Fermi-Dirac smearing, width (Ry)=  0.0110
                       cart. coord. in units 2pi/alat
        k(    1) = (   0.0000000   0.0000000   0.0000000), wk =   0.0555556
        k(    2) = (   0.0000000   0.0356443   0.0000000), wk =   0.1111111
        k(    3) = (   0.0000000   0.0712887   0.0000000), wk =   0.1111111
        k(    4) = (   0.0000000  -0.1069330   0.0000000), wk =   0.0555556
        k(    5) = (   0.0308689  -0.0178222   0.0000000), wk =   0.1111111
        k(    6) = (   0.0308689   0.0178222   0.0000000), wk =   0.1111111
        k(    7) = (   0.0308689   0.0534665   0.0000000), wk =   0.1111111
        k(    8) = (   0.0308689  -0.1247552   0.0000000), wk =   0.1111111
        k(    9) = (   0.0308689  -0.0891108   0.0000000), wk =   0.1111111
        k(   10) = (   0.0308689  -0.0534665   0.0000000), wk =   0.1111111
        k(   11) = (   0.0617378  -0.0356443   0.0000000), wk =   0.1111111
        k(   12) = (   0.0617378   0.0000000   0.0000000), wk =   0.1111111
        k(   13) = (   0.0617378   0.0356443   0.0000000), wk =   0.1111111
        k(   14) = (   0.0617378  -0.1425773   0.0000000), wk =   0.1111111
        k(   15) = (   0.0617378  -0.1069330   0.0000000), wk =   0.1111111
        k(   16) = (   0.0617378  -0.0712887   0.0000000), wk =   0.1111111
        k(   17) = (  -0.0926067   0.0534665   0.0000000), wk =   0.0555556
        k(   18) = (  -0.0926067   0.0891108   0.0000000), wk =   0.1111111
        k(   19) = (  -0.0926067   0.1247552   0.0000000), wk =   0.1111111
        k(   20) = (  -0.0926067  -0.0534665   0.0000000), wk =   0.0555556

     Dense  grid:   494447 G-vectors     FFT dimensions: (  64,  64, 288)

     Smooth grid:   125015 G-vectors     FFT dimensions: (  40,  40, 180)

     Largest allocated arrays     est. size (Mb)     dimensions
        Kohn-Sham Wavefunctions         2.75 Mb     (    2047,   88)
        NL pseudopotentials             6.81 Mb     (    2047,  218)
        Each V/rho on FFT grid          2.25 Mb     (  147456)
        Each G-vector array             0.47 Mb     (   61814)
        G-vector shells                 0.12 Mb     (   16161)
     Largest temporary arrays     est. size (Mb)     dimensions
        Auxiliary wavefunctions        10.99 Mb     (    2047,  352)
        Each subspace H/S matrix        1.89 Mb     (     352,  352)
        Each <psi_i|beta_j> matrix      0.29 Mb     (     218,   88)
        Arrays for rho mixing          22.50 Mb     (  147456,   10)

     Check: negative/imaginary core charge=   -0.000001    0.000000

     Initial potential from superposition of free atoms
     Check: negative starting charge=   -0.011696

     starting charge  156.98526, renormalised to  157.00000

     negative rho (up, down):  1.170E-02 0.000E+00


     ************************************************************************
     *
     * You are using vdW-DF for exchange-correlation in this calculation.
     * Please cite the following three references that made this development
     * possible:
     *
     *   M. Dion, H. Rydberg, E. Schroder, D. C. Langreth, and
     *   B. I. Lundqvist, Phys. Rev. Lett. 92, 246401 (2004).
     *
     *   T. Thonhauser, V. R. Cooper, S. Li, A. Puzder, P. Hyldgaard, and
     *   D. C. Langreth, Phys. Rev. B 76, 125112 (2007).
     *
     *   G. Roman-Perez and J. M. Soler, Phys. Rev. Lett. 103, 096102 (2009).
     *
     *
     * If you are using vdW-DF2, please also cite:
     *
     *   K. Lee, E. D. Murray, L. Kong, B. I. Lundqvist, and
     *   D. C. Langreth, Phys. Rev. B 82, 081101(R) (2010).
     *
     *
     * If you are calculating the stress with vdW-DF, please also cite:
     *
     *   R. Sabatini, E. Kucukbenli, B. Kolb, T. Thonhauser, and
     *   S. de Gironcoli, J. Phys.: Condens. Matter 24, 424209 (2012).
     *
     ************************************************************************

     Carrying out vdW-DF run using the following parameters:

     Nqs =      20    Nr_points =    1024   r_max =   100.000
     q_mesh =
               0.00001000     0.04494208     0.09755937     0.15916263
               0.23128650     0.31572767     0.41458969     0.53033537
               0.66584808     0.82450364     1.01025438     1.22772762
               1.48234092     1.78043706     2.12944203     2.53805004
               3.01644009     3.57652955     4.23227104     5.00000000

     Gradients computed in reciprocal space

     ************************************************************************


 
     Adding external electric field

     Computed dipole along edir(3) : 
        Dipole               -0.0005 Ry au,         -0.0014 Debye
        Dipole field         -0.0000 Ry au
 
        Potential amp.        0.0001 Ry
        Total length         44.9721 bohr
 
     Starting wfc are  121 randomized atomic wfcs

     total cpu time spent up to now is        8.5 secs

     per-process dynamical memory:    68.6 Mb

     Self-consistent Calculation

     iteration #  1     ecut=    36.75 Ry     beta=0.30
     Davidson diagonalization with overlap
     ethr =  1.00E-02,  avg # of iterations =  2.3

     negative rho (up, down):  1.220E-02 0.000E+00
 
     Adding external electric field

     Computed dipole along edir(3) : 
        Dipole               -1.7651 Ry au,         -4.4864 Debye
        Dipole field         -0.0053 Ry au
 
        Potential amp.        0.4798 Ry
        Total length         44.9721 bohr
 

     total cpu time spent up to now is       22.2 secs

     total energy              =   -1744.86433682 Ry
     Harris-Foulkes estimate   =   -1750.79215717 Ry
     estimated scf accuracy    <      12.18642342 Ry

     iteration #  2     ecut=    36.75 Ry     beta=0.30
     Davidson diagonalization with overlap
     ethr =  7.76E-03,  avg # of iterations = 10.1

     negative rho (up, down):  1.109E-02 0.000E+00
 
     Adding external electric field

     Computed dipole along edir(3) : 
        Dipole                3.9586 Ry au,         10.0618 Debye
        Dipole field          0.0120 Ry au
 
        Potential amp.       -1.0760 Ry
        Total length         44.9721 bohr
 

     total cpu time spent up to now is       44.2 secs

     total energy              =   -1735.04733261 Ry
     Harris-Foulkes estimate   =   -1767.56462155 Ry
     estimated scf accuracy    <     646.59631691 Ry

     iteration #  3     ecut=    36.75 Ry     beta=0.30
     Davidson diagonalization with overlap
     ethr =  7.76E-03,  avg # of iterations =  9.7

     negative rho (up, down):  1.035E-02 0.000E+00
 
     Adding external electric field

     Computed dipole along edir(3) : 
        Dipole               -0.4764 Ry au,         -1.2110 Debye
        Dipole field         -0.0014 Ry au
 
        Potential amp.        0.1295 Ry
        Total length         44.9721 bohr
 

     total cpu time spent up to now is       66.0 secs

     total energy              =   -1736.75969353 Ry
     Harris-Foulkes estimate   =   -1772.03466599 Ry
     estimated scf accuracy    <    1179.61674075 Ry

     iteration #  4     ecut=    36.75 Ry     beta=0.30
     Davidson diagonalization with overlap
     ethr =  7.76E-03,  avg # of iterations =  6.4

     negative rho (up, down):  1.064E-02 0.000E+00
 
     Adding external electric field

     Computed dipole along edir(3) : 
        Dipole                0.0084 Ry au,          0.0212 Debye
        Dipole field          0.0000 Ry au
 
        Potential amp.       -0.0023 Ry
        Total length         44.9721 bohr
 

     total cpu time spent up to now is       84.4 secs

     total energy              =   -1749.90263250 Ry
     Harris-Foulkes estimate   =   -1750.52455353 Ry
     estimated scf accuracy    <      36.18646801 Ry

     iteration #  5     ecut=    36.75 Ry     beta=0.30
     Davidson diagonalization with overlap
     ethr =  7.76E-03,  avg # of iterations =  1.4

     negative rho (up, down):  1.098E-02 0.000E+00
 
     Adding external electric field

     Computed dipole along edir(3) : 
        Dipole               -0.0054 Ry au,         -0.0138 Debye
        Dipole field         -0.0000 Ry au
 
        Potential amp.        0.0015 Ry
        Total length         44.9721 bohr
 

     total cpu time spent up to now is       97.3 secs

     total energy              =   -1749.89612117 Ry
     Harris-Foulkes estimate   =   -1750.06870669 Ry
     estimated scf accuracy    <      11.32484994 Ry

     iteration #  6     ecut=    36.75 Ry     beta=0.30
     Davidson diagonalization with overlap
     ethr =  7.21E-03,  avg # of iterations =  1.0

     negative rho (up, down):  1.165E-02 0.000E+00
 
     Adding external electric field

     Computed dipole along edir(3) : 
        Dipole               -0.1544 Ry au,         -0.3924 Debye
        Dipole field         -0.0005 Ry au
 
        Potential amp.        0.0420 Ry
        Total length         44.9721 bohr
 

     total cpu time spent up to now is      109.8 secs

     total energy              =   -1749.75782459 Ry
     Harris-Foulkes estimate   =   -1750.00778290 Ry
     estimated scf accuracy    <       8.31722987 Ry

     iteration #  7     ecut=    36.75 Ry     beta=0.30
     Davidson diagonalization with overlap
     ethr =  5.30E-03,  avg # of iterations =  1.0

     negative rho (up, down):  1.254E-02 0.000E+00
 
     Adding external electric field

     Computed dipole along edir(3) : 
        Dipole                0.0521 Ry au,          0.1325 Debye
        Dipole field          0.0002 Ry au
 
        Potential amp.       -0.0142 Ry
        Total length         44.9721 bohr
 

     total cpu time spent up to now is      122.5 secs

     total energy              =   -1749.76119775 Ry
     Harris-Foulkes estimate   =   -1749.87352451 Ry
     estimated scf accuracy    <       4.20757382 Ry

     iteration #  8     ecut=    36.75 Ry     beta=0.30
     Davidson diagonalization with overlap
     ethr =  2.68E-03,  avg # of iterations =  6.6

     negative rho (up, down):  1.267E-02 0.000E+00
 
     Adding external electric field

     Computed dipole along edir(3) : 
        Dipole               -0.1011 Ry au,         -0.2569 Debye
        Dipole field         -0.0003 Ry au
 
        Potential amp.        0.0275 Ry
        Total length         44.9721 bohr
 

     total cpu time spent up to now is      138.5 secs

     total energy              =   -1750.05071379 Ry
     Harris-Foulkes estimate   =   -1750.07891111 Ry
     estimated scf accuracy    <       2.77457204 Ry

     iteration #  9     ecut=    36.75 Ry     beta=0.30
     Davidson diagonalization with overlap
     ethr =  1.77E-03,  avg # of iterations =  2.5

     negative rho (up, down):  1.270E-02 0.000E+00
 
     Adding external electric field

     Computed dipole along edir(3) : 
        Dipole               -0.1481 Ry au,         -0.3764 Debye
        Dipole field         -0.0004 Ry au
 
        Potential amp.        0.0403 Ry
        Total length         44.9721 bohr
 

     total cpu time spent up to now is      152.5 secs

     total energy              =   -1750.07563235 Ry
     Harris-Foulkes estimate   =   -1750.08804531 Ry
     estimated scf accuracy    <       1.34469642 Ry

     iteration # 10     ecut=    36.75 Ry     beta=0.30
     Davidson diagonalization with overlap
     ethr =  8.56E-04,  avg # of iterations =  3.5

     negative rho (up, down):  1.273E-02 0.000E+00
 
     Adding external electric field

     Computed dipole along edir(3) : 
        Dipole               -0.1663 Ry au,         -0.4228 Debye
        Dipole field         -0.0005 Ry au
 
        Potential amp.        0.0452 Ry
        Total length         44.9721 bohr
 

     total cpu time spent up to now is      167.3 secs

     total energy              =   -1750.09250911 Ry
     Harris-Foulkes estimate   =   -1750.10914301 Ry
     estimated scf accuracy    <       1.43724722 Ry

     iteration # 11     ecut=    36.75 Ry     beta=0.30
     Davidson diagonalization with overlap
     ethr =  8.56E-04,  avg # of iterations =  1.3

     negative rho (up, down):  1.291E-02 0.000E+00
 
     Adding external electric field

     Computed dipole along edir(3) : 
        Dipole               -0.2322 Ry au,         -0.5902 Debye
        Dipole field         -0.0007 Ry au
 
        Potential amp.        0.0631 Ry
        Total length         44.9721 bohr
 

     total cpu time spent up to now is      180.2 secs

     total energy              =   -1750.07515156 Ry
     Harris-Foulkes estimate   =   -1750.09868037 Ry
     estimated scf accuracy    <       0.90129678 Ry

     iteration # 12     ecut=    36.75 Ry     beta=0.30
     Davidson diagonalization with overlap
     ethr =  5.74E-04,  avg # of iterations =  1.0

     negative rho (up, down):  1.339E-02 0.000E+00
 
     Adding external electric field

     Computed dipole along edir(3) : 
        Dipole               -0.3271 Ry au,         -0.8315 Debye
        Dipole field         -0.0010 Ry au
 
        Potential amp.        0.0889 Ry
        Total length         44.9721 bohr
 

     total cpu time spent up to now is      192.8 secs

     total energy              =   -1750.07340892 Ry
     Harris-Foulkes estimate   =   -1750.08532436 Ry
     estimated scf accuracy    <       0.09263525 Ry

     iteration # 13     ecut=    36.75 Ry     beta=0.30
     Davidson diagonalization with overlap
     ethr =  5.90E-05,  avg # of iterations =  7.7

     negative rho (up, down):  1.347E-02 0.000E+00
 
     Adding external electric field

     Computed dipole along edir(3) : 
        Dipole               -0.3032 Ry au,         -0.7706 Debye
        Dipole field         -0.0009 Ry au
 
        Potential amp.        0.0824 Ry
        Total length         44.9721 bohr
 

     total cpu time spent up to now is      212.1 secs

     total energy              =   -1750.09387908 Ry
     Harris-Foulkes estimate   =   -1750.10092787 Ry
     estimated scf accuracy    <       1.10055333 Ry

     iteration # 14     ecut=    36.75 Ry     beta=0.30
     Davidson diagonalization with overlap
     ethr =  5.90E-05,  avg # of iterations =  1.4

     negative rho (up, down):  1.358E-02 0.000E+00
 
     Adding external electric field

     Computed dipole along edir(3) : 
        Dipole               -0.1840 Ry au,         -0.4676 Debye
        Dipole field         -0.0006 Ry au
 
        Potential amp.        0.0500 Ry
        Total length         44.9721 bohr
 

     total cpu time spent up to now is      225.0 secs

     total energy              =   -1750.08845214 Ry
     Harris-Foulkes estimate   =   -1750.09568786 Ry
     estimated scf accuracy    <       0.82059912 Ry

     iteration # 15     ecut=    36.75 Ry     beta=0.30
     Davidson diagonalization with overlap
     ethr =  5.90E-05,  avg # of iterations =  1.1

     negative rho (up, down):  1.362E-02 0.000E+00
 
     Adding external electric field

     Computed dipole along edir(3) : 
        Dipole               -0.0961 Ry au,         -0.2442 Debye
        Dipole field         -0.0003 Ry au
 
        Potential amp.        0.0261 Ry
        Total length         44.9721 bohr
 

     total cpu time spent up to now is      237.7 secs

     total energy              =   -1750.07673694 Ry
     Harris-Foulkes estimate   =   -1750.09050602 Ry
     estimated scf accuracy    <       0.52687802 Ry

     iteration # 16     ecut=    36.75 Ry     beta=0.30
     Davidson diagonalization with overlap
     ethr =  5.90E-05,  avg # of iterations =  5.0

     negative rho (up, down):  1.364E-02 0.000E+00
 
     Adding external electric field

     Computed dipole along edir(3) : 
        Dipole               -0.0686 Ry au,         -0.1745 Debye
        Dipole field         -0.0002 Ry au
 
        Potential amp.        0.0187 Ry
        Total length         44.9721 bohr
 

     total cpu time spent up to now is      252.4 secs

     total energy              =   -1750.08346499 Ry
     Harris-Foulkes estimate   =   -1750.08407799 Ry
     estimated scf accuracy    <       0.00969352 Ry

     iteration # 17     ecut=    36.75 Ry     beta=0.30
     Davidson diagonalization with overlap
     ethr =  6.17E-06,  avg # of iterations =  6.8

     negative rho (up, down):  1.365E-02 0.000E+00
 
     Adding external electric field

     Computed dipole along edir(3) : 
        Dipole               -0.0635 Ry au,         -0.1614 Debye
        Dipole field         -0.0002 Ry au
 
        Potential amp.        0.0173 Ry
        Total length         44.9721 bohr
 

     total cpu time spent up to now is      270.4 secs

     total energy              =   -1750.08491503 Ry
     Harris-Foulkes estimate   =   -1750.08591055 Ry
     estimated scf accuracy    <       0.02649742 Ry

     iteration # 18     ecut=    36.75 Ry     beta=0.30
     Davidson diagonalization with overlap
     ethr =  6.17E-06,  avg # of iterations =  1.7

     negative rho (up, down):  1.372E-02 0.000E+00
 
     Adding external electric field

     Computed dipole along edir(3) : 
        Dipole               -0.0545 Ry au,         -0.1386 Debye
        Dipole field         -0.0002 Ry au
 
        Potential amp.        0.0148 Ry
        Total length         44.9721 bohr
 

     total cpu time spent up to now is      283.7 secs

     total energy              =   -1750.08456883 Ry
     Harris-Foulkes estimate   =   -1750.08517768 Ry
     estimated scf accuracy    <       0.01151421 Ry

     iteration # 19     ecut=    36.75 Ry     beta=0.30
     Davidson diagonalization with overlap
     ethr =  6.17E-06,  avg # of iterations =  5.7

     negative rho (up, down):  1.382E-02 0.000E+00
 
     Adding external electric field

     Computed dipole along edir(3) : 
        Dipole               -0.0365 Ry au,         -0.0927 Debye
        Dipole field         -0.0001 Ry au
 
        Potential amp.        0.0099 Ry
        Total length         44.9721 bohr
 

     total cpu time spent up to now is      299.1 secs

     total energy              =   -1750.08515751 Ry
     Harris-Foulkes estimate   =   -1750.08539200 Ry
     estimated scf accuracy    <       0.00459332 Ry

     iteration # 20     ecut=    36.75 Ry     beta=0.30
     Davidson diagonalization with overlap
     ethr =  2.93E-06,  avg # of iterations =  3.9

     negative rho (up, down):  1.421E-02 0.000E+00
 
     Adding external electric field

     Computed dipole along edir(3) : 
        Dipole               -0.0267 Ry au,         -0.0679 Debye
        Dipole field         -0.0001 Ry au
 
        Potential amp.        0.0073 Ry
        Total length         44.9721 bohr
 

     total cpu time spent up to now is      313.4 secs

     total energy              =   -1750.08521171 Ry
     Harris-Foulkes estimate   =   -1750.08531949 Ry
     estimated scf accuracy    <       0.00174432 Ry

     iteration # 21     ecut=    36.75 Ry     beta=0.30
     Davidson diagonalization with overlap
     ethr =  1.11E-06,  avg # of iterations =  7.3

     negative rho (up, down):  1.441E-02 0.000E+00
 
     Adding external electric field

     Computed dipole along edir(3) : 
        Dipole               -0.0200 Ry au,         -0.0509 Debye
        Dipole field         -0.0001 Ry au
 
        Potential amp.        0.0054 Ry
        Total length         44.9721 bohr
 

     total cpu time spent up to now is      330.2 secs

     total energy              =   -1750.08532736 Ry
     Harris-Foulkes estimate   =   -1750.08538194 Ry
     estimated scf accuracy    <       0.00210402 Ry

     iteration # 22     ecut=    36.75 Ry     beta=0.30
     Davidson diagonalization with overlap
     ethr =  1.11E-06,  avg # of iterations =  1.0

     negative rho (up, down):  1.477E-02 0.000E+00
 
     Adding external electric field

     Computed dipole along edir(3) : 
        Dipole               -0.0114 Ry au,         -0.0290 Debye
        Dipole field         -0.0000 Ry au
 
        Potential amp.        0.0031 Ry
        Total length         44.9721 bohr
 

     total cpu time spent up to now is      342.7 secs

     total energy              =   -1750.08531958 Ry
     Harris-Foulkes estimate   =   -1750.08537353 Ry
     estimated scf accuracy    <       0.00196635 Ry

     iteration # 23     ecut=    36.75 Ry     beta=0.30
     Davidson diagonalization with overlap
     ethr =  1.11E-06,  avg # of iterations =  1.0

     negative rho (up, down):  1.507E-02 0.000E+00
 
     Adding external electric field

     Computed dipole along edir(3) : 
        Dipole               -0.0063 Ry au,         -0.0161 Debye
        Dipole field         -0.0000 Ry au
 
        Potential amp.        0.0017 Ry
        Total length         44.9721 bohr
 

     total cpu time spent up to now is      355.4 secs

     total energy              =   -1750.08534769 Ry
     Harris-Foulkes estimate   =   -1750.08536112 Ry
     estimated scf accuracy    <       0.00013449 Ry

     iteration # 24     ecut=    36.75 Ry     beta=0.30
     Davidson diagonalization with overlap
     ethr =  8.57E-08,  avg # of iterations =  7.2

     negative rho (up, down):  1.517E-02 0.000E+00
 
     Adding external electric field

     Computed dipole along edir(3) : 
        Dipole               -0.0057 Ry au,         -0.0146 Debye
        Dipole field         -0.0000 Ry au
 
        Potential amp.        0.0016 Ry
        Total length         44.9721 bohr
 

     total cpu time spent up to now is      373.0 secs

     total energy              =   -1750.08535976 Ry
     Harris-Foulkes estimate   =   -1750.08536670 Ry
     estimated scf accuracy    <       0.00009381 Ry

     iteration # 25     ecut=    36.75 Ry     beta=0.30
     Davidson diagonalization with overlap
     ethr =  5.98E-08,  avg # of iterations =  1.6

     negative rho (up, down):  1.527E-02 0.000E+00
 
     Adding external electric field

     Computed dipole along edir(3) : 
        Dipole               -0.0064 Ry au,         -0.0161 Debye
        Dipole field         -0.0000 Ry au
 
        Potential amp.        0.0017 Ry
        Total length         44.9721 bohr
 

     total cpu time spent up to now is      386.0 secs

     total energy              =   -1750.08535913 Ry
     Harris-Foulkes estimate   =   -1750.08536300 Ry
     estimated scf accuracy    <       0.00003329 Ry

     iteration # 26     ecut=    36.75 Ry     beta=0.30
     Davidson diagonalization with overlap
     ethr =  2.12E-08,  avg # of iterations =  7.0

     negative rho (up, down):  1.534E-02 0.000E+00
 
     Adding external electric field

     Computed dipole along edir(3) : 
        Dipole               -0.0060 Ry au,         -0.0154 Debye
        Dipole field         -0.0000 Ry au
 
        Potential amp.        0.0016 Ry
        Total length         44.9721 bohr
 

     total cpu time spent up to now is      403.3 secs

     total energy              =   -1750.08536145 Ry
     Harris-Foulkes estimate   =   -1750.08536388 Ry
     estimated scf accuracy    <       0.00003282 Ry

     iteration # 27     ecut=    36.75 Ry     beta=0.30
     Davidson diagonalization with overlap
     ethr =  2.09E-08,  avg # of iterations =  1.2

     negative rho (up, down):  1.535E-02 0.000E+00
 
     Adding external electric field

     Computed dipole along edir(3) : 
        Dipole               -0.0057 Ry au,         -0.0145 Debye
        Dipole field         -0.0000 Ry au
 
        Potential amp.        0.0016 Ry
        Total length         44.9721 bohr
 

     total cpu time spent up to now is      416.1 secs

     total energy              =   -1750.08536161 Ry
     Harris-Foulkes estimate   =   -1750.08536263 Ry
     estimated scf accuracy    <       0.00001544 Ry

     iteration # 28     ecut=    36.75 Ry     beta=0.30
     Davidson diagonalization with overlap
     ethr =  9.84E-09,  avg # of iterations =  6.0

     negative rho (up, down):  1.543E-02 0.000E+00

     negative rho (up, down):  1.543E-02 0.000E+00

     negative rho (up, down):  1.543E-02 0.000E+00

     negative rho (up, down):  1.543E-02 0.000E+00

     negative rho (up, down):  1.543E-02 0.000E+00

     negative rho (up, down):  1.543E-02 0.000E+00

     negative rho (up, down):  1.543E-02 0.000E+00

     negative rho (up, down):  1.543E-02 0.000E+00

     negative rho (up, down):  1.543E-02 0.000E+00

     negative rho (up, down):  1.543E-02 0.000E+00

     negative rho (up, down):  1.543E-02 0.000E+00

     negative rho (up, down):  1.543E-02 0.000E+00

     negative rho (up, down):  1.543E-02 0.000E+00

     negative rho (up, down):  1.543E-02 0.000E+00

     negative rho (up, down):  1.543E-02 0.000E+00

     negative rho (up, down):  1.543E-02 0.000E+00

     negative rho (up, down):  1.543E-02 0.000E+00

     negative rho (up, down):  1.543E-02 0.000E+00

     negative rho (up, down):  1.543E-02 0.000E+00

     negative rho (up, down):  1.543E-02 0.000E+00

     negative rho (up, down):  1.543E-02 0.000E+00

     negative rho (up, down):  1.543E-02 0.000E+00

     negative rho (up, down):  1.543E-02 0.000E+00

     negative rho (up, down):  1.543E-02 0.000E+00

     negative rho (up, down):  1.543E-02 0.000E+00

     negative rho (up, down):  1.543E-02 0.000E+00

     negative rho (up, down):  1.543E-02 0.000E+00

     negative rho (up, down):  1.543E-02 0.000E+00

     negative rho (up, down):  1.543E-02 0.000E+00

     negative rho (up, down):  1.543E-02 0.000E+00

     negative rho (up, down):  1.543E-02 0.000E+00

     negative rho (up, down):  1.543E-02 0.000E+00

     negative rho (up, down):  1.543E-02 0.000E+00

     negative rho (up, down):  1.543E-02 0.000E+00

     negative rho (up, down):  1.543E-02 0.000E+00
 
     Adding external electric field

     Computed dipole along edir(3) : 
        Dipole               -0.0078 Ry au,         -0.0198 Debye
        Dipole field         -0.0000 Ry au
 
        Potential amp.        0.0021 Ry
        Total length         44.9721 bohr
 

     total cpu time spent up to now is      472.9 secs

     End of self-consistent calculation

          k = 0.0000 0.0000 0.0000 ( 15569 PWs)   bands (ev):

   -63.3407 -63.2625 -63.2171 -63.2092 -63.2091 -63.1891 -63.1697 -63.1693
   -63.1582 -63.1357 -63.1348 -63.1339 -37.4355 -37.4245 -37.4243 -37.3877
   -37.3605 -37.3446 -37.3444 -37.2904 -37.2768 -37.2765 -37.1307 -37.0508
   -37.0504 -37.0401 -37.0114 -37.0110 -37.0084 -36.9321 -36.9320 -36.9303
   -36.8807 -36.8806 -36.8655 -36.8340 -36.8338 -36.8267 -36.8122 -36.7877
   -36.7874 -36.7791 -36.7691 -36.7691 -36.6882 -36.6882 -36.6632 -36.6632
    -5.3261  -4.2770  -2.9466  -2.2126  -2.0845  -2.0804  -2.0803  -1.8321
    -1.8320  -1.6697  -1.3316  -1.3315  -1.3254  -1.3192  -1.3191  -0.9771
    -0.4583  -0.4581  -0.0986   0.4428   0.5725   0.5725   0.6076   0.8082
     1.0292   1.1129   1.1129   1.1776   1.1779   1.2820   1.2820   1.2821
     1.3537   1.3537   1.3591   1.4168   1.4168   1.6557   1.8549   1.8551

          k = 0.0000 0.0356 0.0000 ( 15635 PWs)   bands (ev):

   -63.3322 -63.2558 -63.2172 -63.2117 -63.2092 -63.1918 -63.1728 -63.1696
   -63.1597 -63.1402 -63.1352 -63.1343 -37.4112 -37.4024 -37.3900 -37.3745
   -37.3379 -37.3253 -37.3198 -37.2663 -37.2549 -37.2406 -37.1298 -37.0773
   -37.0648 -37.0588 -37.0039 -37.0010 -36.9961 -36.9450 -36.9441 -36.9213
   -36.8949 -36.8925 -36.8644 -36.8444 -36.8342 -36.8312 -36.8137 -36.8107
   -36.8032 -36.8019 -36.7833 -36.7735 -36.7225 -36.7016 -36.6970 -36.6713
    -5.1217  -4.1307  -2.8017  -2.1351  -2.0560  -1.9668  -1.9629  -1.8242
    -1.7127  -1.5914  -1.2683  -1.2167  -1.2049  -1.1638  -1.1479  -0.8936
    -0.4157  -0.4075  -0.0856   0.3696   0.6010   0.6218   0.6366   0.7834
     0.8635   0.9171   0.9390   0.9910   1.1139   1.2247   1.2547   1.3053
     1.3067   1.3461   1.3856   1.4047   1.4485   1.5601   1.6018   1.6144

          k = 0.0000 0.0713 0.0000 ( 15669 PWs)   bands (ev):

   -63.3089 -63.2427 -63.2366 -63.2094 -63.2006 -63.1924 -63.1857 -63.1696
   -63.1612 -63.1541 -63.1352 -63.1343 -37.3565 -37.3476 -37.3383 -37.2970
   -37.2897 -37.2813 -37.2711 -37.2138 -37.2023 -37.1368 -37.1348 -37.1031
   -37.1003 -37.0920 -36.9891 -36.9858 -36.9835 -36.9663 -36.9662 -36.9430
   -36.9379 -36.9134 -36.8930 -36.8824 -36.8690 -36.8689 -36.8421 -36.8358
   -36.8273 -36.8214 -36.8124 -36.7899 -36.7733 -36.7538 -36.7211 -36.6933
    -4.5820  -3.7807  -2.5848  -2.3905  -1.8266  -1.6771  -1.6654  -1.5697
    -1.4342  -1.3807  -1.0850  -0.9086  -0.9019  -0.8033  -0.7189  -0.6407
    -0.2945  -0.2616  -0.0756   0.0969   0.3375   0.3946   0.4154   0.4825
     0.6260   0.7881   0.8078   0.8727   0.8971   0.9272   0.9314   1.0252
     1.1076   1.1645   1.1940   1.3671   1.4438   1.4810   1.5105   1.5350

          k = 0.0000-0.1069 0.0000 ( 15660 PWs)   bands (ev):

   -63.2795 -63.2724 -63.2148 -63.2110 -63.2094 -63.1961 -63.1761 -63.1721
   -63.1696 -63.1608 -63.1351 -63.1343 -37.3185 -37.3086 -37.2958 -37.2892
   -37.2625 -37.2558 -37.1855 -37.1812 -37.1750 -37.1620 -37.1403 -37.1353
   -37.0316 -37.0206 -36.9964 -36.9881 -36.9875 -36.9834 -36.9753 -36.9682
   -36.9533 -36.9514 -36.9411 -36.9366 -36.9255 -36.9207 -36.8566 -36.8493
   -36.8378 -36.8332 -36.8167 -36.8054 -36.7645 -36.7484 -36.7241 -36.7222
    -4.1592  -3.3990  -3.1638  -2.1282  -1.8172  -1.4281  -1.4265  -1.3243
    -1.3085  -1.1815  -1.0349  -0.6343  -0.6334  -0.5031  -0.4924  -0.4133
    -0.3385  -0.0330  -0.0135   0.0446   0.0575   0.0638   0.1579   0.3524
     0.4177   0.4890   0.5468   0.5975   0.6207   0.6743   0.7998   0.8120
     1.0456   1.0509   1.1176   1.1569   1.1710   1.1754   1.6678   1.6719

          k = 0.0309-0.0178 0.0000 ( 15635 PWs)   bands (ev):

   -63.3322 -63.2558 -63.2173 -63.2117 -63.2092 -63.1918 -63.1730 -63.1694
   -63.1598 -63.1401 -63.1356 -63.1339 -37.4112 -37.4024 -37.3900 -37.3745
   -37.3379 -37.3253 -37.3198 -37.2663 -37.2548 -37.2406 -37.1298 -37.0773
   -37.0648 -37.0588 -37.0041 -37.0009 -36.9961 -36.9450 -36.9441 -36.9213
   -36.8950 -36.8924 -36.8644 -36.8445 -36.8342 -36.8312 -36.8137 -36.8106
   -36.8034 -36.8019 -36.7833 -36.7734 -36.7225 -36.7016 -36.6971 -36.6713
    -5.1217  -4.1307  -2.8017  -2.1351  -2.0560  -1.9668  -1.9629  -1.8242
    -1.7127  -1.5914  -1.2683  -1.2167  -1.2049  -1.1638  -1.1479  -0.8936
    -0.4157  -0.4075  -0.0856   0.3696   0.6010   0.6219   0.6366   0.7834
     0.8635   0.9172   0.9390   0.9909   1.1139   1.2247   1.2547   1.3053
     1.3067   1.3461   1.3856   1.4047   1.4485   1.5602   1.6018   1.6144

          k = 0.0309 0.0178 0.0000 ( 15635 PWs)   bands (ev):

   -63.3322 -63.2558 -63.2172 -63.2117 -63.2093 -63.1918 -63.1731 -63.1693
   -63.1598 -63.1402 -63.1348 -63.1346 -37.4113 -37.4023 -37.3900 -37.3745
   -37.3379 -37.3254 -37.3197 -37.2661 -37.2551 -37.2405 -37.1298 -37.0774
   -37.0645 -37.0590 -37.0038 -37.0011 -36.9961 -36.9450 -36.9441 -36.9213
   -36.8948 -36.8926 -36.8645 -36.8445 -36.8340 -36.8313 -36.8136 -36.8108
   -36.8031 -36.8020 -36.7833 -36.7735 -36.7224 -36.7016 -36.6971 -36.6713
    -5.1217  -4.1307  -2.8017  -2.1351  -2.0560  -1.9667  -1.9629  -1.8241
    -1.7128  -1.5914  -1.2683  -1.2167  -1.2048  -1.1638  -1.1481  -0.8936
    -0.4159  -0.4073  -0.0855   0.3696   0.6011   0.6218   0.6366   0.7834
     0.8635   0.9171   0.9392   0.9908   1.1140   1.2247   1.2547   1.3054
     1.3067   1.3461   1.3856   1.4047   1.4485   1.5601   1.6019   1.6143

          k = 0.0309 0.0535 0.0000 ( 15620 PWs)   bands (ev):

   -63.3163 -63.2434 -63.2276 -63.2200 -63.2014 -63.1899 -63.1781 -63.1748
   -63.1596 -63.1455 -63.1437 -63.1301 -37.3782 -37.3501 -37.3419 -37.3385
   -37.3022 -37.2881 -37.2849 -37.2349 -37.1947 -37.1853 -37.1316 -37.0983
   -37.0940 -37.0866 -37.0028 -36.9878 -36.9861 -36.9729 -36.9559 -36.9255
   -36.9227 -36.8839 -36.8756 -36.8744 -36.8664 -36.8640 -36.8426 -36.8254
   -36.8074 -36.8023 -36.7897 -36.7882 -36.7859 -36.7526 -36.7137 -36.6908
    -4.7458  -3.8808  -2.5476  -2.1437  -2.1231  -1.8038  -1.7367  -1.6672
    -1.5937  -1.3032  -1.0732  -1.0664  -0.9757  -0.9186  -0.8455  -0.7339
    -0.3276  -0.3246  -0.0772   0.2040   0.4714   0.4950   0.5111   0.5458
     0.6871   0.7139   0.8675   0.8891   0.9388   1.0382   1.0686   1.1024
     1.1898   1.2512   1.3009   1.3661   1.3908   1.5337   1.5894   1.6126

          k = 0.0309-0.1248 0.0000 ( 15642 PWs)   bands (ev):

   -63.2884 -63.2545 -63.2285 -63.2207 -63.1973 -63.1884 -63.1809 -63.1783
   -63.1618 -63.1578 -63.1470 -63.1274 -37.3208 -37.3077 -37.2865 -37.2715
   -37.2563 -37.2518 -37.2337 -37.1900 -37.1553 -37.1482 -37.1363 -37.1113
   -37.0803 -37.0634 -37.0350 -37.0110 -36.9807 -36.9776 -36.9724 -36.9706
   -36.9451 -36.9382 -36.9280 -36.9097 -36.8925 -36.8819 -36.8598 -36.8468
   -36.8373 -36.8321 -36.8054 -36.7985 -36.7848 -36.7581 -36.7463 -36.7226
    -4.2076  -3.4814  -2.7770  -2.1324  -2.0582  -1.7125  -1.4779  -1.2722
    -1.1956  -0.9949  -0.8958  -0.6956  -0.6481  -0.6332  -0.5272  -0.4349
    -0.2026  -0.1641  -0.1041   0.0008   0.0614   0.1439   0.1880   0.2621
     0.3140   0.4645   0.5783   0.6373   0.6947   0.7266   0.7661   0.7895
     0.8744   1.0796   1.1422   1.1498   1.2530   1.4430   1.5360   1.6408

          k = 0.0309-0.0891 0.0000 ( 15642 PWs)   bands (ev):

   -63.2884 -63.2546 -63.2285 -63.2207 -63.1972 -63.1885 -63.1810 -63.1781
   -63.1618 -63.1578 -63.1470 -63.1274 -37.3208 -37.3077 -37.2865 -37.2716
   -37.2563 -37.2518 -37.2337 -37.1900 -37.1554 -37.1481 -37.1363 -37.1112
   -37.0803 -37.0634 -37.0349 -37.0109 -36.9808 -36.9774 -36.9727 -36.9706
   -36.9451 -36.9381 -36.9280 -36.9097 -36.8926 -36.8820 -36.8597 -36.8468
   -36.8373 -36.8321 -36.8053 -36.7986 -36.7848 -36.7581 -36.7463 -36.7226
    -4.2076  -3.4814  -2.7770  -2.1323  -2.0582  -1.7125  -1.4779  -1.2722
    -1.1956  -0.9949  -0.8958  -0.6956  -0.6481  -0.6331  -0.5272  -0.4349
    -0.2026  -0.1641  -0.1041   0.0008   0.0615   0.1439   0.1880   0.2621
     0.3140   0.4644   0.5783   0.6373   0.6946   0.7266   0.7661   0.7895
     0.8744   1.0796   1.1423   1.1498   1.2530   1.4430   1.5360   1.6408

          k = 0.0309-0.0535 0.0000 ( 15620 PWs)   bands (ev):

   -63.3163 -63.2434 -63.2278 -63.2198 -63.2014 -63.1899 -63.1781 -63.1750
   -63.1596 -63.1456 -63.1436 -63.1301 -37.3782 -37.3502 -37.3420 -37.3384
   -37.3022 -37.2880 -37.2850 -37.2350 -37.1945 -37.1854 -37.1317 -37.0980
   -37.0943 -37.0866 -37.0028 -36.9880 -36.9859 -36.9730 -36.9559 -36.9254
   -36.9227 -36.8841 -36.8755 -36.8743 -36.8664 -36.8640 -36.8427 -36.8254
   -36.8074 -36.8024 -36.7898 -36.7882 -36.7857 -36.7526 -36.7136 -36.6908
    -4.7458  -3.8808  -2.5476  -2.1437  -2.1231  -1.8038  -1.7367  -1.6672
    -1.5937  -1.3032  -1.0732  -1.0664  -0.9757  -0.9186  -0.8455  -0.7339
    -0.3277  -0.3244  -0.0772   0.2040   0.4714   0.4949   0.5112   0.5458
     0.6872   0.7139   0.8675   0.8891   0.9388   1.0383   1.0685   1.1023
     1.1899   1.2511   1.3009   1.3661   1.3909   1.5337   1.5893   1.6127

          k = 0.0617-0.0356 0.0000 ( 15669 PWs)   bands (ev):

   -63.3089 -63.2426 -63.2367 -63.2093 -63.2006 -63.1926 -63.1857 -63.1694
   -63.1613 -63.1542 -63.1355 -63.1339 -37.3565 -37.3476 -37.3383 -37.2969
   -37.2896 -37.2813 -37.2711 -37.2139 -37.2023 -37.1368 -37.1347 -37.1031
   -37.1003 -37.0920 -36.9891 -36.9859 -36.9835 -36.9664 -36.9662 -36.9430
   -36.9380 -36.9134 -36.8931 -36.8823 -36.8690 -36.8688 -36.8420 -36.8359
   -36.8272 -36.8214 -36.8124 -36.7899 -36.7733 -36.7537 -36.7212 -36.6933
    -4.5820  -3.7807  -2.5849  -2.3905  -1.8266  -1.6771  -1.6654  -1.5696
    -1.4342  -1.3807  -1.0850  -0.9086  -0.9019  -0.8033  -0.7189  -0.6407
    -0.2945  -0.2615  -0.0756   0.0969   0.3375   0.3946   0.4153   0.4826
     0.6260   0.7881   0.8078   0.8726   0.8972   0.9272   0.9314   1.0252
     1.1076   1.1645   1.1940   1.3671   1.4438   1.4811   1.5105   1.5350

          k = 0.0617 0.0000 0.0000 ( 15620 PWs)   bands (ev):

   -63.3163 -63.2434 -63.2276 -63.2200 -63.2014 -63.1899 -63.1783 -63.1746
   -63.1597 -63.1455 -63.1437 -63.1301 -37.3783 -37.3501 -37.3419 -37.3386
   -37.3022 -37.2882 -37.2849 -37.2349 -37.1947 -37.1853 -37.1316 -37.0983
   -37.0940 -37.0866 -37.0028 -36.9879 -36.9860 -36.9729 -36.9559 -36.9255
   -36.9228 -36.8841 -36.8756 -36.8743 -36.8664 -36.8640 -36.8426 -36.8253
   -36.8075 -36.8023 -36.7897 -36.7882 -36.7858 -36.7526 -36.7137 -36.6908
    -4.7458  -3.8808  -2.5476  -2.1438  -2.1231  -1.8038  -1.7367  -1.6672
    -1.5937  -1.3032  -1.0732  -1.0664  -0.9757  -0.9186  -0.8455  -0.7339
    -0.3276  -0.3246  -0.0772   0.2040   0.4714   0.4950   0.5111   0.5459
     0.6871   0.7139   0.8675   0.8891   0.9389   1.0382   1.0685   1.1024
     1.1899   1.2512   1.3009   1.3661   1.3909   1.5337   1.5894   1.6126

          k = 0.0617 0.0356 0.0000 ( 15669 PWs)   bands (ev):

   -63.3089 -63.2425 -63.2366 -63.2095 -63.2006 -63.1925 -63.1858 -63.1692
   -63.1615 -63.1541 -63.1348 -63.1347 -37.3567 -37.3475 -37.3383 -37.2970
   -37.2894 -37.2815 -37.2710 -37.2135 -37.2026 -37.1367 -37.1348 -37.1029
   -37.1006 -37.0920 -36.9889 -36.9860 -36.9835 -36.9664 -36.9662 -36.9433
   -36.9377 -36.9133 -36.8930 -36.8825 -36.8690 -36.8688 -36.8420 -36.8357
   -36.8275 -36.8213 -36.8124 -36.7899 -36.7733 -36.7538 -36.7212 -36.6933
    -4.5819  -3.7807  -2.5849  -2.3905  -1.8266  -1.6771  -1.6655  -1.5696
    -1.4342  -1.3807  -1.0850  -0.9086  -0.9020  -0.8033  -0.7190  -0.6406
    -0.2947  -0.2614  -0.0756   0.0969   0.3376   0.3946   0.4153   0.4825
     0.6261   0.7881   0.8078   0.8726   0.8971   0.9272   0.9314   1.0253
     1.1076   1.1644   1.1940   1.3671   1.4438   1.4810   1.5106   1.5350

          k = 0.0617-0.1426 0.0000 ( 15642 PWs)   bands (ev):

   -63.2885 -63.2545 -63.2286 -63.2207 -63.1974 -63.1884 -63.1810 -63.1781
   -63.1618 -63.1578 -63.1470 -63.1274 -37.3209 -37.3077 -37.2864 -37.2715
   -37.2562 -37.2520 -37.2337 -37.1899 -37.1554 -37.1480 -37.1366 -37.1112
   -37.0804 -37.0634 -37.0349 -37.0109 -36.9807 -36.9775 -36.9726 -36.9705
   -36.9450 -36.9382 -36.9280 -36.9097 -36.8926 -36.8820 -36.8597 -36.8468
   -36.8373 -36.8320 -36.8053 -36.7986 -36.7847 -36.7581 -36.7464 -36.7227
    -4.2076  -3.4814  -2.7770  -2.1323  -2.0582  -1.7125  -1.4779  -1.2722
    -1.1956  -0.9949  -0.8958  -0.6956  -0.6481  -0.6332  -0.5272  -0.4349
    -0.2026  -0.1641  -0.1041   0.0008   0.0615   0.1439   0.1879   0.2621
     0.3140   0.4645   0.5783   0.6373   0.6946   0.7266   0.7662   0.7895
     0.8744   1.0796   1.1423   1.1499   1.2529   1.4430   1.5360   1.6408

          k = 0.0617-0.1069 0.0000 ( 15672 PWs)   bands (ev):

   -63.2636 -63.2617 -63.2511 -63.2033 -63.2010 -63.1957 -63.1817 -63.1662
   -63.1656 -63.1607 -63.1562 -63.1247 -37.2759 -37.2703 -37.2629 -37.2551
   -37.2509 -37.2144 -37.2105 -37.2087 -37.2063 -37.1056 -37.1038 -37.0817
   -37.0666 -37.0665 -37.0502 -37.0333 -37.0326 -37.0239 -36.9744 -36.9733
   -36.9728 -36.9697 -36.9438 -36.8829 -36.8788 -36.8727 -36.8724 -36.8398
   -36.8381 -36.8271 -36.8113 -36.7903 -36.7894 -36.7686 -36.7663 -36.7638
    -4.0187  -2.8992  -2.8880  -2.7439  -1.7424  -1.7363  -1.5078  -0.9036
    -0.9005  -0.7572  -0.7113  -0.6933  -0.6470  -0.3129  -0.3119  -0.3114
    -0.3090  -0.2936  -0.1608  -0.1487  -0.1283  -0.0584  -0.0487   0.2096
     0.3450   0.3463   0.4077   0.4253   0.4328   0.4475   0.5937   0.7279
     0.7391   0.8193   1.2874   1.3234   1.3470   1.5555   1.5648   1.5767

          k = 0.0617-0.0713 0.0000 ( 15642 PWs)   bands (ev):

   -63.2884 -63.2546 -63.2285 -63.2207 -63.1973 -63.1885 -63.1808 -63.1781
   -63.1619 -63.1578 -63.1470 -63.1274 -37.3208 -37.3077 -37.2865 -37.2716
   -37.2563 -37.2518 -37.2337 -37.1900 -37.1554 -37.1481 -37.1363 -37.1112
   -37.0804 -37.0634 -37.0349 -37.0109 -36.9807 -36.9775 -36.9726 -36.9706
   -36.9451 -36.9381 -36.9280 -36.9097 -36.8926 -36.8820 -36.8597 -36.8468
   -36.8373 -36.8321 -36.8053 -36.7986 -36.7847 -36.7581 -36.7464 -36.7226
    -4.2076  -3.4814  -2.7770  -2.1324  -2.0582  -1.7125  -1.4779  -1.2722
    -1.1956  -0.9949  -0.8958  -0.6956  -0.6481  -0.6331  -0.5272  -0.4349
    -0.2026  -0.1641  -0.1041   0.0008   0.0615   0.1439   0.1880   0.2621
     0.3140   0.4644   0.5783   0.6373   0.6946   0.7266   0.7661   0.7895
     0.8744   1.0796   1.1423   1.1498   1.2530   1.4430   1.5360   1.6408

          k =-0.0926 0.0535 0.0000 ( 15660 PWs)   bands (ev):

   -63.2794 -63.2724 -63.2146 -63.2112 -63.2094 -63.1961 -63.1759 -63.1723
   -63.1694 -63.1609 -63.1355 -63.1339 -37.3185 -37.3086 -37.2958 -37.2893
   -37.2624 -37.2558 -37.1854 -37.1812 -37.1750 -37.1620 -37.1402 -37.1353
   -37.0317 -37.0205 -36.9967 -36.9880 -36.9873 -36.9834 -36.9752 -36.9682
   -36.9533 -36.9515 -36.9411 -36.9366 -36.9253 -36.9210 -36.8566 -36.8492
   -36.8378 -36.8331 -36.8167 -36.8054 -36.7643 -36.7485 -36.7242 -36.7222
    -4.1592  -3.3991  -3.1638  -2.1283  -1.8172  -1.4281  -1.4265  -1.3244
    -1.3085  -1.1815  -1.0349  -0.6343  -0.6334  -0.5030  -0.4924  -0.4133
    -0.3384  -0.0329  -0.0135   0.0447   0.0576   0.0637   0.1578   0.3524
     0.4177   0.4890   0.5468   0.5975   0.6208   0.6743   0.7997   0.8120
     1.0456   1.0509   1.1175   1.1569   1.1710   1.1753   1.6677   1.6719

          k =-0.0926 0.0891 0.0000 ( 15642 PWs)   bands (ev):

   -63.2884 -63.2546 -63.2285 -63.2207 -63.1974 -63.1885 -63.1808 -63.1782
   -63.1618 -63.1578 -63.1470 -63.1274 -37.3208 -37.3077 -37.2865 -37.2716
   -37.2563 -37.2518 -37.2337 -37.1899 -37.1553 -37.1482 -37.1364 -37.1112
   -37.0803 -37.0634 -37.0350 -37.0110 -36.9807 -36.9776 -36.9724 -36.9706
   -36.9451 -36.9381 -36.9280 -36.9097 -36.8926 -36.8820 -36.8598 -36.8468
   -36.8373 -36.8321 -36.8054 -36.7985 -36.7847 -36.7581 -36.7465 -36.7226
    -4.2076  -3.4814  -2.7770  -2.1324  -2.0582  -1.7125  -1.4779  -1.2722
    -1.1956  -0.9949  -0.8958  -0.6956  -0.6481  -0.6332  -0.5271  -0.4349
    -0.2026  -0.1641  -0.1041   0.0008   0.0614   0.1439   0.1880   0.2621
     0.3140   0.4644   0.5783   0.6373   0.6947   0.7266   0.7661   0.7895
     0.8744   1.0796   1.1422   1.1498   1.2530   1.4430   1.5360   1.6408

          k =-0.0926 0.1248 0.0000 ( 15642 PWs)   bands (ev):

   -63.2885 -63.2545 -63.2286 -63.2207 -63.1974 -63.1884 -63.1810 -63.1780
   -63.1618 -63.1579 -63.1470 -63.1274 -37.3209 -37.3077 -37.2864 -37.2715
   -37.2562 -37.2519 -37.2337 -37.1899 -37.1554 -37.1480 -37.1366 -37.1112
   -37.0804 -37.0634 -37.0350 -37.0110 -36.9808 -36.9774 -36.9727 -36.9705
   -36.9450 -36.9381 -36.9280 -36.9097 -36.8926 -36.8820 -36.8597 -36.8468
   -36.8373 -36.8320 -36.8053 -36.7986 -36.7846 -36.7581 -36.7465 -36.7226
    -4.2076  -3.4814  -2.7770  -2.1324  -2.0582  -1.7125  -1.4779  -1.2722
    -1.1956  -0.9949  -0.8958  -0.6956  -0.6481  -0.6332  -0.5272  -0.4349
    -0.2026  -0.1642  -0.1041   0.0008   0.0614   0.1439   0.1879   0.2621
     0.3140   0.4645   0.5783   0.6372   0.6947   0.7267   0.7661   0.7895
     0.8744   1.0796   1.1422   1.1498   1.2529   1.4430   1.5360   1.6408

          k =-0.0926-0.0535 0.0000 ( 15660 PWs)   bands (ev):

   -63.2797 -63.2722 -63.2145 -63.2114 -63.2095 -63.1960 -63.1764 -63.1718
   -63.1692 -63.1610 -63.1348 -63.1347 -37.3188 -37.3084 -37.2959 -37.2890
   -37.2622 -37.2561 -37.1854 -37.1812 -37.1746 -37.1624 -37.1402 -37.1354
   -37.0318 -37.0205 -36.9965 -36.9877 -36.9876 -36.9837 -36.9754 -36.9679
   -36.9535 -36.9512 -36.9410 -36.9367 -36.9259 -36.9204 -36.8569 -36.8490
   -36.8377 -36.8331 -36.8169 -36.8053 -36.7641 -36.7487 -36.7241 -36.7224
    -4.1592  -3.3990  -3.1638  -2.1282  -1.8173  -1.4283  -1.4264  -1.3244
    -1.3085  -1.1814  -1.0350  -0.6344  -0.6332  -0.5033  -0.4922  -0.4133
    -0.3384  -0.0330  -0.0134   0.0446   0.0573   0.0639   0.1578   0.3524
     0.4177   0.4889   0.5468   0.5975   0.6208   0.6743   0.7999   0.8119
     1.0456   1.0508   1.1177   1.1569   1.1707   1.1755   1.6675   1.6721

     the Fermi energy is     0.9705 ev

!    total energy              =   -1750.08535684 Ry
     Harris-Foulkes estimate   =   -1750.08536247 Ry
     estimated scf accuracy    <       0.00000617 Ry

     The total energy is the sum of the following terms:

     one-electron contribution =  -14948.57694234 Ry
     hartree contribution      =    7461.30066094 Ry
     xc contribution           =    -244.93367495 Ry
     ewald contribution        =    5982.27065197 Ry
     electric field correction =       0.00000018 Ry
     smearing contrib. (-TS)   =      -0.14605265 Ry

     convergence has been achieved in  28 iterations
 
 BEEF-vdW xc energy contributions
           1 :   -211.077253313567     
           2 :    189.433236785008     
           3 :   -153.681461543908     
           4 :    115.096997628556     
           5 :   -83.5251362966469     
           6 :    63.6221694234720     
           7 :   -54.2020870653002     
           8 :    50.4543120079548     
           9 :   -47.3459470542333     
          10 :    42.2004789098470     
          11 :   -35.3103620409882     
          12 :    28.7371936176910     
          13 :   -24.4167891945958     
          14 :    22.8162339832315     
          15 :   -22.8261672209938     
          16 :    22.7047442083715     
          17 :   -21.2953728743556     
          18 :    18.6848951082812     
          19 :   -15.9456457061967     
          20 :    14.2433796209712     
          21 :   -13.9903505799277     
          22 :    14.6164334176987     
          23 :   -15.0517618227012     
          24 :    14.5089962960694     
          25 :   -12.9936028384761     
          26 :    11.2175546310703     
          27 :   -10.0384571240768     
          28 :    9.85476915020260     
          29 :   -10.3728381550783     
          30 :    10.8670964850600     
          31 :   -21.8465939288165     
          32 :   -15.7554938070753     

     Forces acting on atoms (Ry/au):


     negative rho (up, down):  1.543E-02 0.000E+00
     atom    1 type  1   force =     0.00000153    0.00000456   -0.00160315
     atom    2 type  1   force =     0.00001865    0.00052611    0.00011339
     atom    3 type  1   force =     0.00042979   -0.00026137    0.00012253
     atom    4 type  1   force =    -0.00042939   -0.00027451    0.00009377
     atom    5 type  1   force =     0.00046708   -0.00031469    0.00127815
     atom    6 type  1   force =    -0.00048421   -0.00031039    0.00125176
     atom    7 type  1   force =    -0.00001957    0.00004487   -0.00969426
     atom    8 type  1   force =     0.00001024    0.00059274    0.00127782
     atom    9 type  1   force =    -0.00024541   -0.00013603    0.01050515
     atom   10 type  1   force =     0.00023527   -0.00013118    0.01050838
     atom   11 type  1   force =     0.00001057    0.00028468    0.01048456
     atom   12 type  1   force =     0.00000525   -0.00001441   -0.00670057
     atom   13 type  2   force =     0.00000021   -0.00001040   -0.01763752

     Total force =     0.026209     Total SCF correction =     0.006277
     SCF correction compared to forces is large: reduce conv_thr to get better values


     entering subroutine stress ...


     negative rho (up, down):  1.543E-02 0.000E+00
          total   stress  (Ry/bohr**3)                   (kbar)     P=  -20.23
  -0.00019889  -0.00000002  -0.00000003        -29.26     -0.00     -0.00
  -0.00000002  -0.00019892   0.00000001         -0.00    -29.26      0.00
  -0.00000003   0.00000001  -0.00001476         -0.00      0.00     -2.17


     BFGS Geometry Optimization

     number of scf cycles    =   1
     number of bfgs steps    =   0

     energy   new            =   -1750.0853568382 Ry

     new trust radius        =       0.0176375220 bohr
     new conv_thr            =       0.0000099958 Ry


ATOMIC_POSITIONS (crystal)
V1       0.166666667   0.166666667   0.409694847    0   0   0
V1       0.666666667   0.166666667   0.409694847    0   0   0
V1       0.166666667   0.666666667   0.409694847    0   0   0
V1       0.666666667   0.666666667   0.409694847    0   0   0
V1       0.833333333   0.333333333   0.500000000    0   0   0
V1       0.333333333   0.333333333   0.500000000    0   0   0
V1       0.833333333   0.833333333   0.500000000    0   0   0
V1       0.333333333   0.833333333   0.500000000    0   0   0
V1      -0.000016355  -0.000015395   0.590532906
V1       0.500030482  -0.000014846   0.590532976
V1      -0.000015073   0.500032218   0.590532460
V1       0.500001330   0.499998369   0.590159884
H1       0.166667276   0.166665490   0.638922274



     Writing output data file calc.save
     Check: negative starting charge=   -0.011696
     NEW-OLD atomic charge density approx. for the potential

     Check: negative/imaginary core charge=   -0.000001    0.000000
     Check: negative starting charge=   -0.011676

     negative rho (up, down):  1.541E-02 0.000E+00
 
     Adding external electric field

     Computed dipole along edir(3) : 
        Dipole               -0.0078 Ry au,         -0.0197 Debye
        Dipole field         -0.0000 Ry au
 
        Potential amp.        0.0021 Ry
        Total length         44.9721 bohr
 

     total cpu time spent up to now is      521.9 secs

     per-process dynamical memory:   103.5 Mb

     Self-consistent Calculation

     iteration #  1     ecut=    36.75 Ry     beta=0.30
     Davidson diagonalization with overlap
     ethr =  1.00E-06,  avg # of iterations =  4.7

     negative rho (up, down):  1.540E-02 0.000E+00
 
     Adding external electric field

     Computed dipole along edir(3) : 
        Dipole                0.0637 Ry au,          0.1619 Debye
        Dipole field          0.0002 Ry au
 
        Potential amp.       -0.0173 Ry
        Total length         44.9721 bohr
 

     total cpu time spent up to now is      542.1 secs

     total energy              =   -1750.08436776 Ry
     Harris-Foulkes estimate   =   -1750.08610144 Ry
     estimated scf accuracy    <       0.00356061 Ry

     iteration #  2     ecut=    36.75 Ry     beta=0.30
     Davidson diagonalization with overlap
     ethr =  2.27E-06,  avg # of iterations =  6.5

     negative rho (up, down):  1.541E-02 0.000E+00
 
     Adding external electric field

     Computed dipole along edir(3) : 
        Dipole               -0.0400 Ry au,         -0.1018 Debye
        Dipole field         -0.0001 Ry au
 
        Potential amp.        0.0109 Ry
        Total length         44.9721 bohr
 

     total cpu time spent up to now is      561.0 secs

     total energy              =   -1750.06788633 Ry
     Harris-Foulkes estimate   =   -1750.10243920 Ry
     estimated scf accuracy    <       1.92304393 Ry

     iteration #  3     ecut=    36.75 Ry     beta=0.30
     Davidson diagonalization with overlap
     ethr =  2.27E-06,  avg # of iterations =  7.3

     negative rho (up, down):  1.541E-02 0.000E+00
 
     Adding external electric field

     Computed dipole along edir(3) : 
        Dipole               -0.0090 Ry au,         -0.0229 Debye
        Dipole field         -0.0000 Ry au
 
        Potential amp.        0.0024 Ry
        Total length         44.9721 bohr
 

     total cpu time spent up to now is      580.6 secs

     total energy              =   -1750.08137387 Ry
     Harris-Foulkes estimate   =   -1750.09066949 Ry
     estimated scf accuracy    <       0.38534569 Ry

     iteration #  4     ecut=    36.75 Ry     beta=0.30
     Davidson diagonalization with overlap
     ethr =  2.27E-06,  avg # of iterations =  6.2

     negative rho (up, down):  1.541E-02 0.000E+00
 
     Adding external electric field

     Computed dipole along edir(3) : 
        Dipole               -0.0084 Ry au,         -0.0213 Debye
        Dipole field         -0.0000 Ry au
 
        Potential amp.        0.0023 Ry
        Total length         44.9721 bohr
 

     total cpu time spent up to now is      599.0 secs

     total energy              =   -1750.08590394 Ry
     Harris-Foulkes estimate   =   -1750.08608492 Ry
     estimated scf accuracy    <       0.00286479 Ry

     iteration #  5     ecut=    36.75 Ry     beta=0.30
     Davidson diagonalization with overlap
     ethr =  1.82E-06,  avg # of iterations =  1.0

     negative rho (up, down):  1.541E-02 0.000E+00
 
     Adding external electric field

     Computed dipole along edir(3) : 
        Dipole               -0.0061 Ry au,         -0.0155 Debye
        Dipole field         -0.0000 Ry au
 
        Potential amp.        0.0017 Ry
        Total length         44.9721 bohr
 

     total cpu time spent up to now is      611.9 secs

     total energy              =   -1750.08596420 Ry
     Harris-Foulkes estimate   =   -1750.08597365 Ry
     estimated scf accuracy    <       0.00017445 Ry

     iteration #  6     ecut=    36.75 Ry     beta=0.30
     Davidson diagonalization with overlap
     ethr =  1.11E-07,  avg # of iterations =  6.3

     negative rho (up, down):  1.541E-02 0.000E+00
 
     Adding external electric field

     Computed dipole along edir(3) : 
        Dipole               -0.0047 Ry au,         -0.0121 Debye
        Dipole field         -0.0000 Ry au
 
        Potential amp.        0.0013 Ry
        Total length         44.9721 bohr
 

     total cpu time spent up to now is      630.3 secs

     total energy              =   -1750.08600579 Ry
     Harris-Foulkes estimate   =   -1750.08601535 Ry
     estimated scf accuracy    <       0.00027286 Ry

     iteration #  7     ecut=    36.75 Ry     beta=0.30
     Davidson diagonalization with overlap
     ethr =  1.11E-07,  avg # of iterations =  1.0

     negative rho (up, down):  1.541E-02 0.000E+00
 
     Adding external electric field

     Computed dipole along edir(3) : 
        Dipole               -0.0048 Ry au,         -0.0122 Debye
        Dipole field         -0.0000 Ry au
 
        Potential amp.        0.0013 Ry
        Total length         44.9721 bohr
 

     total cpu time spent up to now is      643.2 secs

     total energy              =   -1750.08600178 Ry
     Harris-Foulkes estimate   =   -1750.08601037 Ry
     estimated scf accuracy    <       0.00021717 Ry

     iteration #  8     ecut=    36.75 Ry     beta=0.30
     Davidson diagonalization with overlap
     ethr =  1.11E-07,  avg # of iterations =  1.0

     negative rho (up, down):  1.541E-02 0.000E+00
 
     Adding external electric field

     Computed dipole along edir(3) : 
        Dipole               -0.0050 Ry au,         -0.0126 Debye
        Dipole field         -0.0000 Ry au
 
        Potential amp.        0.0014 Ry
        Total length         44.9721 bohr
 

     total cpu time spent up to now is      656.1 secs

     total energy              =   -1750.08600132 Ry
     Harris-Foulkes estimate   =   -1750.08600506 Ry
     estimated scf accuracy    <       0.00009608 Ry

     iteration #  9     ecut=    36.75 Ry     beta=0.30
     Davidson diagonalization with overlap
     ethr =  6.12E-08,  avg # of iterations =  2.5

     negative rho (up, down):  1.541E-02 0.000E+00
 
     Adding external electric field

     Computed dipole along edir(3) : 
        Dipole               -0.0050 Ry au,         -0.0128 Debye
        Dipole field         -0.0000 Ry au
 
        Potential amp.        0.0014 Ry
        Total length         44.9721 bohr
 

     total cpu time spent up to now is      669.6 secs

     total energy              =   -1750.08600106 Ry
     Harris-Foulkes estimate   =   -1750.08600353 Ry
     estimated scf accuracy    <       0.00003623 Ry

     iteration # 10     ecut=    36.75 Ry     beta=0.30
     Davidson diagonalization with overlap
     ethr =  2.31E-08,  avg # of iterations =  6.5

     negative rho (up, down):  1.541E-02 0.000E+00
 
     Adding external electric field

     Computed dipole along edir(3) : 
        Dipole               -0.0051 Ry au,         -0.0130 Debye
        Dipole field         -0.0000 Ry au
 
        Potential amp.        0.0014 Ry
        Total length         44.9721 bohr
 

     total cpu time spent up to now is      687.0 secs

     total energy              =   -1750.08600522 Ry
     Harris-Foulkes estimate   =   -1750.08600602 Ry
     estimated scf accuracy    <       0.00002131 Ry

     iteration # 11     ecut=    36.75 Ry     beta=0.30
     Davidson diagonalization with overlap
     ethr =  1.36E-08,  avg # of iterations =  1.0

     negative rho (up, down):  1.541E-02 0.000E+00
 
     Adding external electric field

     Computed dipole along edir(3) : 
        Dipole               -0.0052 Ry au,         -0.0133 Debye
        Dipole field         -0.0000 Ry au
 
        Potential amp.        0.0014 Ry
        Total length         44.9721 bohr
 

     total cpu time spent up to now is      699.9 secs

     total energy              =   -1750.08600442 Ry
     Harris-Foulkes estimate   =   -1750.08600554 Ry
     estimated scf accuracy    <       0.00001287 Ry

     iteration # 12     ecut=    36.75 Ry     beta=0.30
     Davidson diagonalization with overlap
     ethr =  8.20E-09,  avg # of iterations =  4.3

     negative rho (up, down):  1.541E-02 0.000E+00

     negative rho (up, down):  1.541E-02 0.000E+00

     negative rho (up, down):  1.541E-02 0.000E+00

     negative rho (up, down):  1.541E-02 0.000E+00

     negative rho (up, down):  1.541E-02 0.000E+00

     negative rho (up, down):  1.541E-02 0.000E+00

     negative rho (up, down):  1.541E-02 0.000E+00

     negative rho (up, down):  1.541E-02 0.000E+00

     negative rho (up, down):  1.541E-02 0.000E+00

     negative rho (up, down):  1.541E-02 0.000E+00

     negative rho (up, down):  1.541E-02 0.000E+00

     negative rho (up, down):  1.541E-02 0.000E+00

     negative rho (up, down):  1.541E-02 0.000E+00

     negative rho (up, down):  1.541E-02 0.000E+00

     negative rho (up, down):  1.541E-02 0.000E+00

     negative rho (up, down):  1.541E-02 0.000E+00

     negative rho (up, down):  1.541E-02 0.000E+00

     negative rho (up, down):  1.541E-02 0.000E+00

     negative rho (up, down):  1.541E-02 0.000E+00

     negative rho (up, down):  1.541E-02 0.000E+00

     negative rho (up, down):  1.541E-02 0.000E+00

     negative rho (up, down):  1.541E-02 0.000E+00

     negative rho (up, down):  1.541E-02 0.000E+00

     negative rho (up, down):  1.541E-02 0.000E+00

     negative rho (up, down):  1.541E-02 0.000E+00

     negative rho (up, down):  1.541E-02 0.000E+00

     negative rho (up, down):  1.541E-02 0.000E+00

     negative rho (up, down):  1.541E-02 0.000E+00

     negative rho (up, down):  1.541E-02 0.000E+00

     negative rho (up, down):  1.541E-02 0.000E+00

     negative rho (up, down):  1.541E-02 0.000E+00

     negative rho (up, down):  1.541E-02 0.000E+00

     negative rho (up, down):  1.541E-02 0.000E+00

     negative rho (up, down):  1.541E-02 0.000E+00

     negative rho (up, down):  1.541E-02 0.000E+00
 
     Adding external electric field

     Computed dipole along edir(3) : 
        Dipole               -0.0059 Ry au,         -0.0150 Debye
        Dipole field         -0.0000 Ry au
 
        Potential amp.        0.0016 Ry
        Total length         44.9721 bohr
 

     total cpu time spent up to now is      756.1 secs

     End of self-consistent calculation

          k = 0.0000 0.0000 0.0000 ( 15569 PWs)   bands (ev):

   -63.3406 -63.2626 -63.2176 -63.2094 -63.2092 -63.1901 -63.1707 -63.1695
   -63.1558 -63.1356 -63.1355 -63.1344 -37.4351 -37.4241 -37.4241 -37.3868
   -37.3594 -37.3438 -37.3437 -37.2905 -37.2766 -37.2763 -37.1312 -37.0526
   -37.0516 -37.0367 -37.0118 -37.0118 -37.0091 -36.9322 -36.9321 -36.9299
   -36.8820 -36.8818 -36.8654 -36.8332 -36.8327 -36.8284 -36.8128 -36.7877
   -36.7876 -36.7799 -36.7696 -36.7695 -36.6877 -36.6876 -36.6635 -36.6635
    -5.3322  -4.2932  -2.9530  -2.2117  -2.0804  -2.0782  -2.0781  -1.8304
    -1.8303  -1.6716  -1.3307  -1.3305  -1.3249  -1.3165  -1.3165  -0.9685
    -0.4574  -0.4572  -0.0873   0.4409   0.5703   0.5703   0.6038   0.8040
     1.0273   1.1144   1.1144   1.1786   1.1789   1.2785   1.2840   1.2840
     1.3560   1.3562   1.3643   1.4170   1.4170   1.6546   1.8546   1.8547

          k = 0.0000 0.0356 0.0000 ( 15635 PWs)   bands (ev):

   -63.3322 -63.2559 -63.2174 -63.2122 -63.2093 -63.1927 -63.1739 -63.1696
   -63.1575 -63.1405 -63.1355 -63.1347 -37.4108 -37.4021 -37.3897 -37.3736
   -37.3367 -37.3247 -37.3189 -37.2663 -37.2549 -37.2404 -37.1302 -37.0780
   -37.0653 -37.0575 -37.0047 -37.0015 -36.9962 -36.9451 -36.9441 -36.9211
   -36.8956 -36.8929 -36.8649 -36.8444 -36.8335 -36.8325 -36.8138 -36.8109
   -36.8040 -36.8025 -36.7835 -36.7741 -36.7220 -36.7019 -36.6967 -36.6716
    -5.1290  -4.1474  -2.8075  -2.1326  -2.0544  -1.9632  -1.9607  -1.8228
    -1.7110  -1.5919  -1.2666  -1.2136  -1.2038  -1.1621  -1.1477  -0.8866
    -0.4150  -0.4065  -0.0756   0.3675   0.5989   0.6205   0.6331   0.7827
     0.8622   0.9162   0.9414   0.9914   1.1124   1.2265   1.2562   1.3076
     1.3076   1.3457   1.3880   1.4081   1.4485   1.5607   1.6014   1.6147

          k = 0.0000 0.0713 0.0000 ( 15669 PWs)   bands (ev):

   -63.3088 -63.2427 -63.2369 -63.2094 -63.2012 -63.1932 -63.1862 -63.1695
   -63.1598 -63.1543 -63.1355 -63.1347 -37.3561 -37.3473 -37.3374 -37.2964
   -37.2883 -37.2808 -37.2703 -37.2138 -37.2023 -37.1366 -37.1349 -37.1029
   -37.1008 -37.0914 -36.9903 -36.9865 -36.9835 -36.9666 -36.9662 -36.9430
   -36.9378 -36.9134 -36.8929 -36.8828 -36.8694 -36.8693 -36.8425 -36.8365
   -36.8283 -36.8214 -36.8125 -36.7900 -36.7741 -36.7542 -36.7208 -36.6936
    -4.5949  -3.7957  -2.5840  -2.3924  -1.8249  -1.6739  -1.6632  -1.5677
    -1.4323  -1.3793  -1.0834  -0.9054  -0.9006  -0.8008  -0.7189  -0.6371
    -0.2940  -0.2605  -0.0695   0.0972   0.3382   0.3976   0.4153   0.4812
     0.6272   0.7881   0.8068   0.8733   0.8964   0.9273   0.9317   1.0247
     1.1060   1.1663   1.1929   1.3679   1.4420   1.4803   1.5120   1.5384

          k = 0.0000-0.1069 0.0000 ( 15660 PWs)   bands (ev):

   -63.2794 -63.2725 -63.2150 -63.2114 -63.2095 -63.1966 -63.1766 -63.1726
   -63.1695 -63.1593 -63.1354 -63.1347 -37.3182 -37.3083 -37.2949 -37.2882
   -37.2609 -37.2556 -37.1850 -37.1812 -37.1748 -37.1619 -37.1397 -37.1354
   -37.0314 -37.0209 -36.9970 -36.9897 -36.9879 -36.9822 -36.9743 -36.9677
   -36.9535 -36.9521 -36.9414 -36.9381 -36.9254 -36.9212 -36.8567 -36.8493
   -36.8389 -36.8333 -36.8171 -36.8075 -36.7641 -36.7484 -36.7245 -36.7225
    -4.1853  -3.3977  -3.1679  -2.1279  -1.8173  -1.4260  -1.4239  -1.3214
    -1.3065  -1.1792  -1.0327  -0.6333  -0.6302  -0.5021  -0.4885  -0.4108
    -0.3371  -0.0290  -0.0148   0.0459   0.0597   0.0650   0.1601   0.3508
     0.4201   0.4869   0.5462   0.5969   0.6231   0.6757   0.8007   0.8124
     1.0442   1.0505   1.1154   1.1555   1.1695   1.1778   1.6697   1.6769

          k = 0.0309-0.0178 0.0000 ( 15635 PWs)   bands (ev):

   -63.3322 -63.2559 -63.2174 -63.2122 -63.2093 -63.1927 -63.1736 -63.1700
   -63.1574 -63.1405 -63.1355 -63.1347 -37.4108 -37.4021 -37.3897 -37.3736
   -37.3368 -37.3246 -37.3189 -37.2664 -37.2547 -37.2405 -37.1302 -37.0778
   -37.0656 -37.0573 -37.0048 -37.0014 -36.9962 -36.9450 -36.9442 -36.9212
   -36.8957 -36.8927 -36.8649 -36.8443 -36.8338 -36.8324 -36.8139 -36.8108
   -36.8041 -36.8026 -36.7835 -36.7741 -36.7221 -36.7019 -36.6966 -36.6716
    -5.1290  -4.1474  -2.8075  -2.1326  -2.0544  -1.9633  -1.9606  -1.8229
    -1.7110  -1.5919  -1.2667  -1.2136  -1.2038  -1.1621  -1.1476  -0.8866
    -0.4149  -0.4066  -0.0757   0.3675   0.5989   0.6205   0.6331   0.7827
     0.8622   0.9162   0.9412   0.9916   1.1124   1.2265   1.2562   1.3075
     1.3076   1.3457   1.3880   1.4081   1.4485   1.5607   1.6014   1.6147

          k = 0.0309 0.0178 0.0000 ( 15635 PWs)   bands (ev):

   -63.3322 -63.2559 -63.2173 -63.2121 -63.2094 -63.1927 -63.1732 -63.1705
   -63.1573 -63.1405 -63.1355 -63.1347 -37.4108 -37.4021 -37.3897 -37.3736
   -37.3368 -37.3245 -37.3190 -37.2664 -37.2547 -37.2405 -37.1302 -37.0777
   -37.0659 -37.0572 -37.0049 -37.0013 -36.9963 -36.9449 -36.9442 -36.9212
   -36.8957 -36.8926 -36.8649 -36.8442 -36.8340 -36.8323 -36.8139 -36.8108
   -36.8040 -36.8026 -36.7836 -36.7740 -36.7222 -36.7019 -36.6965 -36.6716
    -5.1290  -4.1474  -2.8075  -2.1326  -2.0543  -1.9633  -1.9606  -1.8229
    -1.7109  -1.5919  -1.2667  -1.2136  -1.2038  -1.1621  -1.1475  -0.8866
    -0.4148  -0.4067  -0.0757   0.3675   0.5989   0.6206   0.6331   0.7827
     0.8622   0.9162   0.9411   0.9917   1.1123   1.2266   1.2562   1.3075
     1.3077   1.3457   1.3880   1.4081   1.4485   1.5607   1.6014   1.6147

          k = 0.0309 0.0535 0.0000 ( 15620 PWs)   bands (ev):

   -63.3163 -63.2436 -63.2276 -63.2203 -63.2018 -63.1906 -63.1789 -63.1746
   -63.1579 -63.1457 -63.1441 -63.1305 -37.3779 -37.3491 -37.3417 -37.3381
   -37.3011 -37.2873 -37.2841 -37.2350 -37.1945 -37.1852 -37.1319 -37.0988
   -37.0939 -37.0859 -37.0032 -36.9893 -36.9859 -36.9731 -36.9556 -36.9256
   -36.9226 -36.8843 -36.8767 -36.8734 -36.8673 -36.8645 -36.8436 -36.8249
   -36.8082 -36.8028 -36.7898 -36.7888 -36.7860 -36.7531 -36.7132 -36.6911
    -4.7563  -3.8971  -2.5514  -2.1414  -2.1215  -1.8014  -1.7349  -1.6638
    -1.5926  -1.3021  -1.0718  -1.0637  -0.9737  -0.9172  -0.8444  -0.7295
    -0.3270  -0.3237  -0.0696   0.2031   0.4718   0.4935   0.5118   0.5478
     0.6880   0.7126   0.8662   0.8898   0.9366   1.0398   1.0693   1.1027
     1.1896   1.2503   1.3014   1.3672   1.3918   1.5354   1.5923   1.6139

          k = 0.0309-0.1248 0.0000 ( 15642 PWs)   bands (ev):

   -63.2884 -63.2546 -63.2290 -63.2208 -63.1977 -63.1889 -63.1811 -63.1783
   -63.1623 -63.1565 -63.1474 -63.1278 -37.3204 -37.3068 -37.2860 -37.2705
   -37.2551 -37.2512 -37.2335 -37.1898 -37.1553 -37.1480 -37.1361 -37.1112
   -37.0800 -37.0636 -37.0343 -37.0111 -36.9819 -36.9781 -36.9740 -36.9693
   -36.9449 -36.9386 -36.9284 -36.9101 -36.8926 -36.8821 -36.8604 -36.8468
   -36.8378 -36.8329 -36.8056 -36.7997 -36.7850 -36.7585 -36.7462 -36.7230
    -4.2304  -3.4882  -2.7761  -2.1324  -2.0569  -1.7116  -1.4760  -1.2693
    -1.1931  -0.9927  -0.8937  -0.6935  -0.6457  -0.6303  -0.5256  -0.4329
    -0.2014  -0.1608  -0.1034   0.0023   0.0634   0.1455   0.1891   0.2616
     0.3150   0.4644   0.5788   0.6377   0.6956   0.7260   0.7681   0.7884
     0.8738   1.0780   1.1412   1.1488   1.2524   1.4440   1.5349   1.6434

          k = 0.0309-0.0891 0.0000 ( 15642 PWs)   bands (ev):

   -63.2884 -63.2546 -63.2289 -63.2209 -63.1977 -63.1889 -63.1810 -63.1783
   -63.1623 -63.1565 -63.1474 -63.1278 -37.3204 -37.3068 -37.2861 -37.2705
   -37.2551 -37.2512 -37.2335 -37.1898 -37.1552 -37.1480 -37.1361 -37.1112
   -37.0800 -37.0636 -37.0345 -37.0111 -36.9819 -36.9781 -36.9740 -36.9693
   -36.9449 -36.9386 -36.9284 -36.9101 -36.8926 -36.8821 -36.8604 -36.8467
   -36.8378 -36.8329 -36.8056 -36.7997 -36.7850 -36.7585 -36.7462 -36.7230
    -4.2303  -3.4882  -2.7761  -2.1324  -2.0569  -1.7116  -1.4760  -1.2693
    -1.1931  -0.9927  -0.8937  -0.6935  -0.6457  -0.6304  -0.5256  -0.4329
    -0.2014  -0.1608  -0.1034   0.0023   0.0634   0.1454   0.1892   0.2616
     0.3150   0.4644   0.5788   0.6377   0.6957   0.7260   0.7680   0.7884
     0.8738   1.0780   1.1412   1.1489   1.2524   1.4441   1.5349   1.6434

          k = 0.0309-0.0535 0.0000 ( 15620 PWs)   bands (ev):

   -63.3163 -63.2436 -63.2277 -63.2202 -63.2018 -63.1906 -63.1793 -63.1741
   -63.1580 -63.1458 -63.1441 -63.1305 -37.3779 -37.3491 -37.3417 -37.3381
   -37.3011 -37.2874 -37.2840 -37.2350 -37.1946 -37.1851 -37.1319 -37.0990
   -37.0937 -37.0859 -37.0032 -36.9894 -36.9857 -36.9732 -36.9557 -36.9256
   -36.9225 -36.8844 -36.8767 -36.8733 -36.8673 -36.8644 -36.8436 -36.8247
   -36.8082 -36.8028 -36.7898 -36.7888 -36.7861 -36.7531 -36.7133 -36.6911
    -4.7563  -3.8971  -2.5514  -2.1414  -2.1215  -1.8014  -1.7349  -1.6638
    -1.5926  -1.3021  -1.0718  -1.0637  -0.9738  -0.9172  -0.8444  -0.7294
    -0.3269  -0.3237  -0.0696   0.2031   0.4718   0.4935   0.5117   0.5479
     0.6880   0.7126   0.8662   0.8897   0.9366   1.0398   1.0692   1.1027
     1.1896   1.2503   1.3014   1.3671   1.3919   1.5353   1.5923   1.6139

          k = 0.0617-0.0356 0.0000 ( 15669 PWs)   bands (ev):

   -63.3088 -63.2428 -63.2367 -63.2095 -63.2011 -63.1931 -63.1861 -63.1700
   -63.1595 -63.1543 -63.1355 -63.1347 -37.3561 -37.3474 -37.3374 -37.2964
   -37.2885 -37.2807 -37.2703 -37.2139 -37.2021 -37.1366 -37.1349 -37.1031
   -37.1005 -37.0914 -36.9905 -36.9863 -36.9835 -36.9667 -36.9661 -36.9427
   -36.9380 -36.9134 -36.8929 -36.8827 -36.8695 -36.8693 -36.8425 -36.8367
   -36.8282 -36.8215 -36.8126 -36.7900 -36.7741 -36.7542 -36.7206 -36.6936
    -4.5949  -3.7957  -2.5840  -2.3924  -1.8249  -1.6739  -1.6632  -1.5677
    -1.4323  -1.3793  -1.0834  -0.9054  -0.9006  -0.8008  -0.7188  -0.6372
    -0.2939  -0.2606  -0.0695   0.0972   0.3381   0.3976   0.4154   0.4812
     0.6272   0.7882   0.8068   0.8733   0.8964   0.9273   0.9316   1.0247
     1.1060   1.1663   1.1930   1.3678   1.4420   1.4803   1.5119   1.5384

          k = 0.0617 0.0000 0.0000 ( 15620 PWs)   bands (ev):

   -63.3163 -63.2436 -63.2276 -63.2203 -63.2017 -63.1906 -63.1785 -63.1753
   -63.1578 -63.1457 -63.1441 -63.1305 -37.3779 -37.3491 -37.3418 -37.3380
   -37.3012 -37.2872 -37.2841 -37.2350 -37.1944 -37.1853 -37.1319 -37.0985
   -37.0942 -37.0858 -37.0032 -36.9892 -36.9861 -36.9731 -36.9556 -36.9257
   -36.9226 -36.8841 -36.8767 -36.8734 -36.8674 -36.8646 -36.8437 -36.8250
   -36.8082 -36.8028 -36.7899 -36.7888 -36.7859 -36.7531 -36.7131 -36.6911
    -4.7563  -3.8972  -2.5514  -2.1414  -2.1215  -1.8013  -1.7349  -1.6638
    -1.5926  -1.3020  -1.0718  -1.0637  -0.9737  -0.9172  -0.8444  -0.7295
    -0.3270  -0.3236  -0.0696   0.2031   0.4717   0.4934   0.5118   0.5478
     0.6880   0.7126   0.8661   0.8899   0.9366   1.0397   1.0693   1.1026
     1.1895   1.2503   1.3014   1.3672   1.3918   1.5354   1.5922   1.6139

          k = 0.0617 0.0356 0.0000 ( 15669 PWs)   bands (ev):

   -63.3088 -63.2430 -63.2365 -63.2096 -63.2010 -63.1930 -63.1860 -63.1705
   -63.1593 -63.1543 -63.1354 -63.1348 -37.3561 -37.3473 -37.3375 -37.2963
   -37.2886 -37.2806 -37.2703 -37.2140 -37.2020 -37.1365 -37.1350 -37.1033
   -37.1003 -37.0915 -36.9907 -36.9861 -36.9835 -36.9667 -36.9660 -36.9425
   -36.9381 -36.9134 -36.8930 -36.8826 -36.8696 -36.8694 -36.8425 -36.8367
   -36.8281 -36.8216 -36.8127 -36.7900 -36.7741 -36.7542 -36.7205 -36.6936
    -4.5949  -3.7957  -2.5840  -2.3924  -1.8249  -1.6739  -1.6631  -1.5677
    -1.4322  -1.3793  -1.0834  -0.9054  -0.9006  -0.8009  -0.7188  -0.6372
    -0.2938  -0.2607  -0.0696   0.0972   0.3381   0.3976   0.4154   0.4812
     0.6272   0.7882   0.8068   0.8734   0.8964   0.9272   0.9316   1.0248
     1.1060   1.1663   1.1930   1.3678   1.4419   1.4804   1.5118   1.5384

          k = 0.0617-0.1426 0.0000 ( 15642 PWs)   bands (ev):

   -63.2884 -63.2547 -63.2288 -63.2210 -63.1973 -63.1889 -63.1811 -63.1788
   -63.1622 -63.1564 -63.1473 -63.1278 -37.3204 -37.3068 -37.2861 -37.2705
   -37.2554 -37.2511 -37.2335 -37.1898 -37.1552 -37.1482 -37.1358 -37.1112
   -37.0798 -37.0636 -37.0345 -37.0111 -36.9820 -36.9781 -36.9739 -36.9694
   -36.9449 -36.9386 -36.9283 -36.9101 -36.8926 -36.8822 -36.8604 -36.8467
   -36.8379 -36.8329 -36.8056 -36.7997 -36.7852 -36.7586 -36.7458 -36.7229
    -4.2304  -3.4882  -2.7761  -2.1324  -2.0569  -1.7116  -1.4760  -1.2693
    -1.1931  -0.9927  -0.8936  -0.6935  -0.6457  -0.6303  -0.5256  -0.4329
    -0.2014  -0.1607  -0.1035   0.0023   0.0634   0.1455   0.1892   0.2615
     0.3150   0.4645   0.5788   0.6377   0.6956   0.7260   0.7679   0.7884
     0.8738   1.0780   1.1412   1.1488   1.2525   1.4440   1.5349   1.6434

          k = 0.0617-0.1069 0.0000 ( 15672 PWs)   bands (ev):

   -63.2635 -63.2616 -63.2517 -63.2041 -63.2017 -63.1940 -63.1824 -63.1665
   -63.1659 -63.1617 -63.1546 -63.1250 -37.2748 -37.2689 -37.2623 -37.2546
   -37.2508 -37.2134 -37.2101 -37.2088 -37.2063 -37.1055 -37.1037 -37.0818
   -37.0656 -37.0653 -37.0503 -37.0334 -37.0327 -37.0243 -36.9759 -36.9751
   -36.9747 -36.9671 -36.9443 -36.8832 -36.8783 -36.8732 -36.8730 -36.8411
   -36.8383 -36.8284 -36.8113 -36.7901 -36.7894 -36.7688 -36.7666 -36.7646
    -4.0487  -2.8977  -2.8864  -2.7450  -1.7414  -1.7363  -1.5065  -0.9008
    -0.8971  -0.7541  -0.7097  -0.6908  -0.6431  -0.3139  -0.3080  -0.3076
    -0.3059  -0.2929  -0.1572  -0.1498  -0.1263  -0.0549  -0.0498   0.2076
     0.3438   0.3476   0.4088   0.4237   0.4337   0.4506   0.5917   0.7279
     0.7394   0.8190   1.2877   1.3198   1.3464   1.5542   1.5664   1.5758

          k = 0.0617-0.0713 0.0000 ( 15642 PWs)   bands (ev):

   -63.2884 -63.2547 -63.2288 -63.2210 -63.1975 -63.1889 -63.1810 -63.1785
   -63.1622 -63.1565 -63.1474 -63.1278 -37.3204 -37.3068 -37.2861 -37.2705
   -37.2552 -37.2512 -37.2335 -37.1898 -37.1552 -37.1481 -37.1359 -37.1112
   -37.0798 -37.0636 -37.0345 -37.0111 -36.9820 -36.9781 -36.9739 -36.9693
   -36.9449 -36.9386 -36.9283 -36.9101 -36.8926 -36.8822 -36.8604 -36.8467
   -36.8379 -36.8329 -36.8056 -36.7997 -36.7851 -36.7585 -36.7460 -36.7229
    -4.2304  -3.4882  -2.7761  -2.1324  -2.0569  -1.7116  -1.4760  -1.2693
    -1.1931  -0.9927  -0.8936  -0.6935  -0.6457  -0.6303  -0.5256  -0.4329
    -0.2014  -0.1608  -0.1035   0.0023   0.0633   0.1455   0.1892   0.2616
     0.3150   0.4645   0.5788   0.6376   0.6957   0.7261   0.7679   0.7884
     0.8738   1.0780   1.1411   1.1489   1.2525   1.4441   1.5349   1.6434

          k =-0.0926 0.0535 0.0000 ( 15660 PWs)   bands (ev):

   -63.2793 -63.2726 -63.2155 -63.2108 -63.2096 -63.1966 -63.1765 -63.1726
   -63.1700 -63.1590 -63.1355 -63.1347 -37.3181 -37.3084 -37.2949 -37.2883
   -37.2612 -37.2554 -37.1851 -37.1811 -37.1751 -37.1616 -37.1399 -37.1352
   -37.0310 -37.0209 -36.9967 -36.9900 -36.9880 -36.9820 -36.9741 -36.9680
   -36.9535 -36.9522 -36.9415 -36.9380 -36.9253 -36.9214 -36.8566 -36.8494
   -36.8390 -36.8333 -36.8171 -36.8075 -36.7645 -36.7480 -36.7246 -36.7223
    -4.1854  -3.3977  -3.1679  -2.1278  -1.8174  -1.4259  -1.4240  -1.3214
    -1.3065  -1.1792  -1.0327  -0.6333  -0.6302  -0.5020  -0.4886  -0.4108
    -0.3372  -0.0291  -0.0148   0.0459   0.0599   0.0650   0.1601   0.3508
[...]
    -1.1669  -0.9824  -0.8744  -0.7060  -0.6550  -0.5856  -0.4646  -0.4152
    -0.2164  -0.1271  -0.0915  -0.0112   0.0893   0.1580   0.2066   0.2700
     0.3893   0.4743   0.5353   0.6269   0.7026   0.7568   0.7895   0.8848
     0.9138   1.0730   1.2155   1.2784   1.3799   1.5035   1.5966   1.6435

          k = 0.0309-0.0535 0.0000 ( 15620 PWs)   bands (ev):

   -63.2764 -63.2224 -63.1878 -63.1768 -63.1635 -63.1619 -63.1517 -63.1347
   -63.1061 -63.1040 -63.0906 -62.9906 -37.3632 -37.3206 -37.3053 -37.2951
   -37.2676 -37.2567 -37.2500 -37.1979 -37.1564 -37.1504 -37.1083 -37.0785
   -37.0681 -37.0477 -36.9800 -36.9660 -36.9439 -36.9250 -36.9064 -36.8877
   -36.8786 -36.8638 -36.8421 -36.8304 -36.8175 -36.8128 -36.7801 -36.7675
   -36.7576 -36.7508 -36.7404 -36.7270 -36.6700 -36.6529 -36.6253 -36.6148
    -4.8045  -3.9536  -2.5197  -2.1053  -2.1019  -1.7494  -1.7402  -1.6358
    -1.5399  -1.2890  -1.0746  -0.9918  -0.9387  -0.8845  -0.7904  -0.6491
    -0.2894  -0.2630  -0.0081   0.2646   0.3337   0.4893   0.5420   0.5857
     0.6945   0.7505   0.8531   0.9533   0.9944   1.0126   1.1067   1.1450
     1.2175   1.3395   1.3599   1.3880   1.4543   1.5534   1.6293   1.6584

          k = 0.0617-0.0356 0.0000 ( 15669 PWs)   bands (ev):

   -63.2695 -63.2192 -63.1966 -63.1706 -63.1705 -63.1582 -63.1487 -63.1372
   -63.1153 -63.0952 -63.0949 -62.9908 -37.3469 -37.3083 -37.2993 -37.2696
   -37.2494 -37.2488 -37.2371 -37.1802 -37.1607 -37.1121 -37.1041 -37.0798
   -37.0734 -37.0557 -36.9752 -36.9650 -36.9367 -36.9309 -36.9113 -36.9088
   -36.8983 -36.8633 -36.8554 -36.8283 -36.8270 -36.8220 -36.8032 -36.8008
   -36.7657 -36.7641 -36.7386 -36.7116 -36.6831 -36.6616 -36.6231 -36.6142
    -4.6589  -3.8399  -2.5530  -2.3477  -1.7938  -1.6590  -1.6505  -1.5149
    -1.4038  -1.3431  -1.0635  -0.8910  -0.8490  -0.7306  -0.7265  -0.5712
    -0.2446  -0.2349  -0.0328   0.1589   0.2386   0.4041   0.4619   0.4974
     0.6625   0.7216   0.7854   0.8795   0.9317   0.9532   0.9929   1.0852
     1.1988   1.2533   1.2774   1.3747   1.4689   1.5203   1.5297   1.5676

          k = 0.0617 0.0000 0.0000 ( 15620 PWs)   bands (ev):

   -63.2764 -63.2224 -63.1878 -63.1769 -63.1636 -63.1619 -63.1517 -63.1347
   -63.1061 -63.1040 -63.0906 -62.9906 -37.3632 -37.3205 -37.3053 -37.2951
   -37.2676 -37.2567 -37.2500 -37.1979 -37.1564 -37.1504 -37.1083 -37.0785
   -37.0682 -37.0477 -36.9800 -36.9659 -36.9439 -36.9250 -36.9064 -36.8877
   -36.8786 -36.8638 -36.8421 -36.8303 -36.8175 -36.8128 -36.7800 -36.7675
   -36.7576 -36.7508 -36.7405 -36.7270 -36.6700 -36.6529 -36.6253 -36.6148
    -4.8045  -3.9536  -2.5197  -2.1053  -2.1019  -1.7494  -1.7402  -1.6358
    -1.5399  -1.2890  -1.0746  -0.9918  -0.9387  -0.8845  -0.7904  -0.6491
    -0.2894  -0.2630  -0.0081   0.2646   0.3337   0.4893   0.5420   0.5857
     0.6945   0.7505   0.8531   0.9533   0.9944   1.0126   1.1067   1.1450
     1.2175   1.3395   1.3599   1.3880   1.4543   1.5534   1.6293   1.6584

          k = 0.0617 0.0356 0.0000 ( 15669 PWs)   bands (ev):

   -63.2695 -63.2193 -63.1965 -63.1708 -63.1705 -63.1582 -63.1486 -63.1373
   -63.1153 -63.0952 -63.0949 -62.9908 -37.3469 -37.3083 -37.2993 -37.2696
   -37.2494 -37.2488 -37.2371 -37.1802 -37.1606 -37.1121 -37.1041 -37.0797
   -37.0735 -37.0557 -36.9752 -36.9649 -36.9368 -36.9308 -36.9113 -36.9088
   -36.8982 -36.8633 -36.8554 -36.8283 -36.8270 -36.8220 -36.8032 -36.8008
   -36.7657 -36.7641 -36.7387 -36.7116 -36.6831 -36.6616 -36.6231 -36.6142
    -4.6589  -3.8399  -2.5530  -2.3477  -1.7938  -1.6590  -1.6505  -1.5149
    -1.4038  -1.3431  -1.0635  -0.8910  -0.8490  -0.7306  -0.7265  -0.5712
    -0.2446  -0.2349  -0.0328   0.1589   0.2386   0.4041   0.4619   0.4974
     0.6625   0.7216   0.7854   0.8795   0.9317   0.9532   0.9929   1.0851
     1.1988   1.2533   1.2774   1.3747   1.4689   1.5203   1.5297   1.5676

          k = 0.0617-0.1426 0.0000 ( 15642 PWs)   bands (ev):

   -63.2515 -63.2164 -63.1994 -63.1858 -63.1700 -63.1593 -63.1438 -63.1319
   -63.1225 -63.1076 -63.0880 -62.9910 -37.3075 -37.2744 -37.2587 -37.2376
   -37.2261 -37.2189 -37.1942 -37.1540 -37.1236 -37.1205 -37.0968 -37.0802
   -37.0629 -37.0319 -37.0059 -36.9844 -36.9589 -36.9479 -36.9421 -36.9220
   -36.9025 -36.8842 -36.8734 -36.8650 -36.8396 -36.8357 -36.8185 -36.8014
   -36.7870 -36.7770 -36.7432 -36.7250 -36.6915 -36.6834 -36.6425 -36.6092
    -4.3475  -3.4823  -2.7392  -2.0948  -2.0131  -1.6608  -1.4343  -1.2680
    -1.1669  -0.9824  -0.8744  -0.7060  -0.6550  -0.5856  -0.4646  -0.4152
    -0.2164  -0.1272  -0.0915  -0.0112   0.0893   0.1580   0.2066   0.2700
     0.3893   0.4743   0.5353   0.6270   0.7026   0.7568   0.7894   0.8848
     0.9138   1.0730   1.2155   1.2785   1.3799   1.5035   1.5966   1.6435

          k = 0.0617-0.1069 0.0000 ( 15672 PWs)   bands (ev):

   -63.2378 -63.2113 -63.2088 -63.1891 -63.1742 -63.1648 -63.1303 -63.1281
   -63.1236 -63.1227 -63.0856 -62.9912 -37.2613 -37.2585 -37.2516 -37.2101
   -37.1992 -37.1890 -37.1763 -37.1708 -37.1602 -37.0851 -37.0679 -37.0670
   -37.0501 -37.0272 -37.0175 -36.9974 -36.9967 -36.9637 -36.9630 -36.9511
   -36.9439 -36.9046 -36.8666 -36.8540 -36.8315 -36.8292 -36.8183 -36.7999
   -36.7957 -36.7621 -36.7445 -36.7382 -36.7339 -36.6714 -36.6705 -36.6060
    -4.1965  -2.8546  -2.8502  -2.7067  -1.7229  -1.6903  -1.4022  -0.9895
    -0.8656  -0.8006  -0.7439  -0.6898  -0.5356  -0.4106  -0.2927  -0.2821
    -0.2454  -0.2236  -0.2034  -0.1424  -0.0742  -0.0427   0.0948   0.1834
     0.2759   0.3810   0.4277   0.4513   0.5132   0.5313   0.5659   0.7384
     0.7667   0.8520   1.3449   1.4062   1.4871   1.6094   1.6305   1.6706

          k = 0.0617-0.0713 0.0000 ( 15642 PWs)   bands (ev):

   -63.2514 -63.2164 -63.1995 -63.1858 -63.1700 -63.1593 -63.1438 -63.1319
   -63.1225 -63.1076 -63.0880 -62.9910 -37.3074 -37.2744 -37.2587 -37.2376
   -37.2261 -37.2189 -37.1942 -37.1540 -37.1236 -37.1205 -37.0968 -37.0802
   -37.0629 -37.0319 -37.0058 -36.9844 -36.9589 -36.9479 -36.9421 -36.9220
   -36.9025 -36.8842 -36.8734 -36.8651 -36.8396 -36.8358 -36.8185 -36.8014
   -36.7870 -36.7770 -36.7432 -36.7250 -36.6915 -36.6834 -36.6425 -36.6092
    -4.3475  -3.4823  -2.7392  -2.0948  -2.0131  -1.6608  -1.4343  -1.2680
    -1.1669  -0.9824  -0.8744  -0.7060  -0.6550  -0.5856  -0.4646  -0.4152
    -0.2164  -0.1272  -0.0915  -0.0112   0.0893   0.1580   0.2066   0.2700
     0.3893   0.4743   0.5354   0.6269   0.7026   0.7568   0.7895   0.8848
     0.9138   1.0730   1.2155   1.2785   1.3799   1.5035   1.5966   1.6435

          k =-0.0926 0.0535 0.0000 ( 15660 PWs)   bands (ev):

   -63.2471 -63.2260 -63.1984 -63.1828 -63.1707 -63.1523 -63.1381 -63.1373
   -63.1336 -63.0952 -63.0949 -62.9910 -37.3057 -37.2761 -37.2705 -37.2428
   -37.2293 -37.2284 -37.1575 -37.1499 -37.1383 -37.1168 -37.1150 -37.0986
   -37.0367 -36.9894 -36.9847 -36.9807 -36.9581 -36.9348 -36.9234 -36.9212
   -36.9110 -36.9030 -36.9021 -36.8882 -36.8654 -36.8409 -36.8194 -36.8013
   -36.7951 -36.7942 -36.7266 -36.6994 -36.6952 -36.6852 -36.6311 -36.6113
    -4.3177  -3.3584  -3.1485  -2.0910  -1.7442  -1.4109  -1.3791  -1.3202
    -1.2710  -1.1448  -1.0074  -0.6840  -0.6133  -0.5064  -0.4622  -0.3423
    -0.3164  -0.1105  -0.0065   0.0696   0.1086   0.1404   0.1568   0.3102
     0.4312   0.5277   0.5717   0.6185   0.6233   0.7540   0.7912   0.9000
     0.9309   1.1523   1.1594   1.2219   1.3228   1.3567   1.5774   1.7139

          k =-0.0926 0.0891 0.0000 ( 15642 PWs)   bands (ev):

   -63.2514 -63.2164 -63.1995 -63.1858 -63.1701 -63.1593 -63.1438 -63.1319
   -63.1225 -63.1076 -63.0880 -62.9910 -37.3074 -37.2744 -37.2587 -37.2376
   -37.2261 -37.2189 -37.1942 -37.1540 -37.1236 -37.1204 -37.0968 -37.0802
   -37.0629 -37.0319 -37.0058 -36.9844 -36.9589 -36.9479 -36.9421 -36.9220
   -36.9025 -36.8842 -36.8734 -36.8651 -36.8396 -36.8357 -36.8185 -36.8014
   -36.7870 -36.7770 -36.7432 -36.7250 -36.6915 -36.6834 -36.6425 -36.6092
    -4.3475  -3.4823  -2.7392  -2.0948  -2.0131  -1.6608  -1.4343  -1.2680
    -1.1669  -0.9824  -0.8744  -0.7060  -0.6550  -0.5856  -0.4646  -0.4152
    -0.2164  -0.1272  -0.0915  -0.0112   0.0893   0.1580   0.2066   0.2700
     0.3893   0.4743   0.5354   0.6270   0.7026   0.7568   0.7895   0.8848
     0.9138   1.0730   1.2155   1.2785   1.3799   1.5036   1.5966   1.6435

          k =-0.0926 0.1248 0.0000 ( 15642 PWs)   bands (ev):

   -63.2515 -63.2164 -63.1994 -63.1859 -63.1700 -63.1593 -63.1438 -63.1319
   -63.1225 -63.1076 -63.0880 -62.9910 -37.3074 -37.2744 -37.2587 -37.2376
   -37.2261 -37.2189 -37.1942 -37.1540 -37.1236 -37.1205 -37.0968 -37.0802
   -37.0629 -37.0319 -37.0059 -36.9844 -36.9589 -36.9479 -36.9421 -36.9220
   -36.9025 -36.8842 -36.8734 -36.8650 -36.8396 -36.8357 -36.8185 -36.8014
   -36.7870 -36.7770 -36.7432 -36.7250 -36.6915 -36.6834 -36.6425 -36.6092
    -4.3475  -3.4823  -2.7392  -2.0948  -2.0131  -1.6608  -1.4343  -1.2680
    -1.1669  -0.9824  -0.8744  -0.7060  -0.6550  -0.5856  -0.4646  -0.4152
    -0.2164  -0.1271  -0.0915  -0.0112   0.0893   0.1580   0.2066   0.2700
     0.3893   0.4743   0.5353   0.6269   0.7026   0.7568   0.7894   0.8848
     0.9138   1.0730   1.2155   1.2785   1.3799   1.5036   1.5966   1.6435

          k =-0.0926-0.0535 0.0000 ( 15660 PWs)   bands (ev):

   -63.2472 -63.2260 -63.1984 -63.1826 -63.1708 -63.1523 -63.1381 -63.1373
   -63.1335 -63.0952 -63.0949 -62.9910 -37.3057 -37.2761 -37.2704 -37.2428
   -37.2294 -37.2284 -37.1575 -37.1499 -37.1383 -37.1167 -37.1149 -37.0987
   -37.0367 -36.9894 -36.9848 -36.9806 -36.9582 -36.9348 -36.9234 -36.9211
   -36.9109 -36.9030 -36.9021 -36.8882 -36.8653 -36.8408 -36.8194 -36.8013
   -36.7951 -36.7941 -36.7267 -36.6994 -36.6952 -36.6852 -36.6311 -36.6113
    -4.3177  -3.3584  -3.1485  -2.0910  -1.7442  -1.4109  -1.3791  -1.3201
    -1.2711  -1.1448  -1.0074  -0.6840  -0.6133  -0.5064  -0.4622  -0.3423
    -0.3164  -0.1105  -0.0065   0.0696   0.1085   0.1404   0.1568   0.3102
     0.4312   0.5277   0.5717   0.6185   0.6233   0.7540   0.7912   0.9000
     0.9309   1.1523   1.1594   1.2219   1.3228   1.3567   1.5774   1.7139

     the Fermi energy is     1.0042 ev

!    total energy              =   -1750.09087383 Ry
     Harris-Foulkes estimate   =   -1750.09087379 Ry
     estimated scf accuracy    <       0.00000003 Ry

     The total energy is the sum of the following terms:

     one-electron contribution =  -15003.26295786 Ry
     hartree contribution      =    7488.93357881 Ry
     xc contribution           =    -245.02241460 Ry
     ewald contribution        =    6009.40004057 Ry
     electric field correction =       0.00000194 Ry
     smearing contrib. (-TS)   =      -0.13912269 Ry

     convergence has been achieved in  17 iterations
 
 BEEF-vdW xc energy contributions
           1 :   -211.164961193334     
           2 :    189.533196080955     
           3 :   -153.787469218625     
           4 :    115.179528982483     
           5 :   -83.5440980361979     
           6 :    63.5514999659884     
           7 :   -54.0525838703882     
           8 :    50.2759654922388     
           9 :   -47.2028324906208     
          10 :    42.1311651420473     
          11 :   -35.3021665123448     
          12 :    28.7344541215299     
          13 :   -24.3591722744190     
          14 :    22.6805009868851     
          15 :   -22.6408655384859     
          16 :    22.5294679450199     
          17 :   -21.1801882493365     
          18 :    18.6370097333275     
          19 :   -15.9247895225192     
          20 :    14.1883902841581     
          21 :   -13.8596259471291     
          22 :    14.4167856928488     
          23 :   -14.8365287096054     
          24 :    14.3453950155399     
          25 :   -12.9205113654947     
          26 :    11.2213615194933     
          27 :   -10.0638603083286     
          28 :    9.84278655029416     
          29 :   -10.2999677965940     
          30 :    10.7582271735425     
          31 :   -21.8522973273512     
          32 :   -15.7614645188269     

     Forces acting on atoms (Ry/au):


     negative rho (up, down):  1.458E-02 0.000E+00
     atom    1 type  1   force =    -0.00000195    0.00000055    0.00150186
     atom    2 type  1   force =    -0.00000028    0.00007490    0.00049975
     atom    3 type  1   force =     0.00006347   -0.00003671    0.00050061
     atom    4 type  1   force =    -0.00006556   -0.00003773    0.00050109
     atom    5 type  1   force =     0.01681929   -0.00970947   -0.00452622
     atom    6 type  1   force =    -0.01681865   -0.00970935   -0.00451604
     atom    7 type  1   force =    -0.00000427    0.00000142    0.00556796
     atom    8 type  1   force =    -0.00000021    0.01941917   -0.00451988
     atom    9 type  1   force =     0.00010806    0.00006073    0.00133927
     atom   10 type  1   force =    -0.00010077    0.00005985    0.00133938
     atom   11 type  1   force =    -0.00000175   -0.00011837    0.00133206
     atom   12 type  1   force =     0.00000056   -0.00000144    0.00018431
     atom   13 type  2   force =     0.00000205   -0.00000354    0.00079585

     Total force =     0.002464     Total SCF correction =     0.000251
     SCF correction compared to forces is large: reduce conv_thr to get better values


     entering subroutine stress ...


     negative rho (up, down):  1.458E-02 0.000E+00
          total   stress  (Ry/bohr**3)                   (kbar)     P=  -16.10
  -0.00016221   0.00000000   0.00000001        -23.86      0.00      0.00
   0.00000000  -0.00016222  -0.00000001          0.00    -23.86     -0.00
   0.00000001  -0.00000001  -0.00000381          0.00     -0.00     -0.56


     bfgs converged in  15 scf cycles and  14 bfgs steps
     (criteria: energy <  1.0E+00, force <  1.9E-03)

     End of BFGS Geometry Optimization

     Final energy   =   -1750.0908738302 Ry
Begin final coordinates

ATOMIC_POSITIONS (crystal)
V1       0.166666667   0.166666667   0.409694847    0   0   0
V1       0.666666667   0.166666667   0.409694847    0   0   0
V1       0.166666667   0.666666667   0.409694847    0   0   0
V1       0.666666667   0.666666667   0.409694847    0   0   0
V1       0.833333333   0.333333333   0.500000000    0   0   0
V1       0.333333333   0.333333333   0.500000000    0   0   0
V1       0.833333333   0.833333333   0.500000000    0   0   0
V1       0.333333333   0.833333333   0.500000000    0   0   0
V1      -0.005246176  -0.005254690   0.592429741
V1       0.510499057  -0.005255936   0.592430031
V1      -0.005243233   0.510492703   0.592430597
V1       0.500011688   0.499990804   0.579651033
H1       0.166665598   0.166666223   0.635067001
End final coordinates



     Writing output data file calc.save
 
     init_run     :      7.75s CPU      7.98s WALL (       1 calls)
     electrons    :   5088.70s CPU   5402.07s WALL (      15 calls)
     update_pot   :     30.45s CPU     32.66s WALL (      14 calls)
     forces       :    169.68s CPU    176.64s WALL (      15 calls)
     stress       :    549.50s CPU    571.70s WALL (      15 calls)

     Called by init_run:
     wfcinit      :      2.84s CPU      2.90s WALL (       1 calls)
     potinit      :      1.50s CPU      1.62s WALL (       1 calls)

     Called by electrons:
     c_bands      :   2218.69s CPU   2348.48s WALL (     282 calls)
     sum_band     :    978.92s CPU   1026.00s WALL (     282 calls)
     v_of_rho     :    365.65s CPU    393.13s WALL (     297 calls)
     newd         :    904.45s CPU    923.06s WALL (     297 calls)
     mix_rho      :     14.55s CPU     14.92s WALL (     282 calls)
     vdW_energy   :    157.70s CPU    173.28s WALL (     837 calls)
     vdW_ffts     :    348.18s CPU    370.98s WALL (    1704 calls)
     vdW_v        :    140.62s CPU    146.84s WALL (     837 calls)

     Called by c_bands:
     init_us_2    :     13.44s CPU     13.51s WALL (    2975 calls)
     cegterg      :   1950.97s CPU   1991.64s WALL (    1410 calls)

     Called by *egterg:
     h_psi        :   1194.14s CPU   1226.60s WALL (    7393 calls)
     s_psi        :    120.24s CPU    120.61s WALL (    7393 calls)
     g_psi        :      7.82s CPU      7.90s WALL (    5978 calls)
     cdiaghg      :    244.25s CPU    246.10s WALL (    7318 calls)

     Called by h_psi:
     add_vuspsi   :    124.11s CPU    124.50s WALL (    7393 calls)

     General routines
     calbec       :    185.22s CPU    187.91s WALL (    8953 calls)
     fft          :    538.69s CPU    589.48s WALL (   51161 calls)
     ffts         :      0.88s CPU      0.95s WALL (     579 calls)
     fftw         :    712.78s CPU    747.00s WALL (  756230 calls)
     interpolate  :      7.95s CPU      8.24s WALL (     579 calls)
     davcio       :      0.00s CPU      0.02s WALL (       5 calls)
 
     Parallel routines
     fft_scatter  :    735.40s CPU    815.73s WALL (  807970 calls)
 
     PWSCF        :     1h38m CPU        1h44m WALL

 
   This run was terminated on:  19:16: 7   2May2018            

=------------------------------------------------------------------------------=
   JOB DONE.
=------------------------------------------------------------------------------=
Job  /afs/slac/g/suncat/bin/suncat-tsmpirun -x LD_LIBRARY_PATH -wdir /scratch/qe814866_YD4Kx pw.x -npool 4 -in pw.inp

TID   HOST_NAME   COMMAND_LINE            STATUS            TERMINATION_TIME
===== ========== ================  =======================  ===================
00000 suncat0020 pw.x -npool 4 -i  Done                     05/02/2018 19:16:07
00001 suncat0020 pw.x -npool 4 -i  Done                     05/02/2018 19:16:07
00002 suncat0020 pw.x -npool 4 -i  Done                     05/02/2018 19:16:07
00003 suncat0020 pw.x -npool 4 -i  Done                     05/02/2018 19:16:07
00004 suncat0020 pw.x -npool 4 -i  Done                     05/02/2018 19:16:07
00005 suncat0020 pw.x -npool 4 -i  Done                     05/02/2018 19:16:07
00006 suncat0020 pw.x -npool 4 -i  Done                     05/02/2018 19:16:07
00007 suncat0020 pw.x -npool 4 -i  Done                     05/02/2018 19:16:07
00008 suncat0012 pw.x -npool 4 -i  Done                     05/02/2018 19:16:07
00009 suncat0012 pw.x -npool 4 -i  Done                     05/02/2018 19:16:07
00010 suncat0012 pw.x -npool 4 -i  Done                     05/02/2018 19:16:07
00011 suncat0012 pw.x -npool 4 -i  Done                     05/02/2018 19:16:07
00012 suncat0012 pw.x -npool 4 -i  Done                     05/02/2018 19:16:07
00013 suncat0012 pw.x -npool 4 -i  Done                     05/02/2018 19:16:07
00014 suncat0012 pw.x -npool 4 -i  Done                     05/02/2018 19:16:07
00015 suncat0012 pw.x -npool 4 -i  Done                     05/02/2018 19:16:07
00016 suncat0198 pw.x -npool 4 -i  Done                     05/02/2018 19:16:07
00017 suncat0198 pw.x -npool 4 -i  Done                     05/02/2018 19:16:07
00018 suncat0198 pw.x -npool 4 -i  Done                     05/02/2018 19:16:07
00019 suncat0198 pw.x -npool 4 -i  Done                     05/02/2018 19:16:07
00020 suncat0198 pw.x -npool 4 -i  Done                     05/02/2018 19:16:07
00021 suncat0198 pw.x -npool 4 -i  Done                     05/02/2018 19:16:07
00022 suncat0198 pw.x -npool 4 -i  Done                     05/02/2018 19:16:07
00023 suncat0198 pw.x -npool 4 -i  Done                     05/02/2018 19:16:07
00024 suncat0192 pw.x -npool 4 -i  Done                     05/02/2018 19:16:07
00025 suncat0192 pw.x -npool 4 -i  Done                     05/02/2018 19:16:07
00026 suncat0192 pw.x -npool 4 -i  Done                     05/02/2018 19:16:07
00027 suncat0192 pw.x -npool 4 -i  Done                     05/02/2018 19:16:07
00028 suncat0192 pw.x -npool 4 -i  Done                     05/02/2018 19:16:07
00029 suncat0192 pw.x -npool 4 -i  Done                     05/02/2018 19:16:07
00030 suncat0192 pw.x -npool 4 -i  Done                     05/02/2018 19:16:07
00031 suncat0192 pw.x -npool 4 -i  Done                     05/02/2018 19:16:07
