  python dir          : /nfs/slac/g/suncatfs/sw/espv20/lib/python2.7/site-packages/espresso
  espresso dir        : /nfs/slac/g/suncatfs/sw/espv18/espresso-dynpy-beef/bin
  pseudo dir          : /afs/slac.stanford.edu/u/if/mamunm/psp/gbrv1.5pbe
  ase-espresso py git : ffa2778-git



     Program PWSCF v.5.1rc2 (svn rev. 11289) starts on 17Jan2018 at 16:17: 7 

     This program is part of the open-source Quantum ESPRESSO suite
     for quantum simulation of materials; please cite
         "P. Giannozzi et al., J. Phys.:Condens. Matter 21 395502 (2009);
          URL http://www.quantum-espresso.org", 
     in publications or presentations arising from this work. More details at
     http://www.quantum-espresso.org/quote

     Parallel version (MPI), running on    32 processors
     R & G space division:  proc/nbgrp/npool/nimage =      32
     Reading input from pw.inp
     Message from routine read_cards :
     DEPRECATED: no units specified in CELL_PARAMETERS card

     Current dimensions of program PWSCF are:
     Max number of different atomic species (ntypx) = 10
     Max number of k-points (npk) =  40000
     Max angular momentum in pseudopotentials (lmaxx) =  3
     Presently stress not available with electric field


     **************************************************************************
     Initializing libbeef V0.1.1 with the BEEF-vdW functional.
     Citation: Wellendorff et al., PRB 85, 235149 (2012).
     **************************************************************************


     IMPORTANT: XC functional enforced from input :
     Exchange-correlation      = BEEF-VDW ( 1  4 27 13 2)
     Any further DFT definition will be discarded
     Please, verify this is what you really want


     Subspace diagonalization in iterative solution of the eigenvalue problem:
     a serial algorithm will be used

 
     Parallelization info
     --------------------
     sticks:   dense  smooth     PW     G-vecs:    dense   smooth      PW
     Min          83      33      9                15713     3963     619
     Max          84      34     10                15736     4002     646
     Sum        2677    1069    313               503261   127391   20329
 


     bravais-lattice index     =            0
     lattice parameter (alat)  =       1.8897  a.u.
     unit-cell volume          =    4228.3700 (a.u.)^3
     number of atoms/cell      =           13
     number of atomic types    =            2
     number of electrons       =       198.00
     number of Kohn-Sham states=          109
     kinetic-energy cutoff     =      36.7493  Ry
     charge density cutoff     =     367.4932  Ry
     convergence threshold     =      1.0E-05
     mixing beta               =       0.3000
     number of iterations used =           10  plain     mixing
     Exchange-correlation      = BEEF-VDW ( 1  4 27 13 2)
     nstep                     =           50


     celldm(1)=   1.889726  celldm(2)=   0.000000  celldm(3)=   0.000000
     celldm(4)=   0.000000  celldm(5)=   0.000000  celldm(6)=   0.000000

     crystal axes: (cart. coord. in units of alat)
               a(1) = (   5.440665   0.000000   0.000000 )  
               a(2) = (   2.720332   4.711754   0.000000 )  
               a(3) = (   0.000000   0.000000  24.442284 )  

     reciprocal axes: (cart. coord. in units 2 pi/alat)
               b(1) = (  0.183801 -0.106118  0.000000 )  
               b(2) = (  0.000000  0.212235  0.000000 )  
               b(3) = (  0.000000  0.000000  0.040913 )  


     PseudoPot. # 1 for Os read from file:
     /afs/slac.stanford.edu/u/if/mamunm/psp/gbrv1.5pbe/Os.UPF
     MD5 check sum: a3fb40a04f0c37c25c34bbc47164c9a8
     Pseudo is Ultrasoft + core correction, Zval = 16.0
     Generated by new atomic code, or converted to UPF format
     Using radial grid of  983 points,  8 beta functions with: 
                l(1) =   0
                l(2) =   0
                l(3) =   1
                l(4) =   1
                l(5) =   2
                l(6) =   2
                l(7) =   3
                l(8) =   3
     Q(r) pseudized with  8 coefficients,  rinner =    1.150   1.150   1.150
                                                       1.150   1.150   1.150
                                                       1.150

     PseudoPot. # 2 for O  read from file:
     /afs/slac.stanford.edu/u/if/mamunm/psp/gbrv1.5pbe/O.UPF
     MD5 check sum: 734c27235a0248c51dbae37a1fbe46ec
     Pseudo is Ultrasoft + core correction, Zval =  6.0
     Generated by new atomic code, or converted to UPF format
     Using radial grid of  737 points,  5 beta functions with: 
                l(1) =   0
                l(2) =   0
                l(3) =   1
                l(4) =   1
                l(5) =   2
     Q(r) pseudized with  8 coefficients,  rinner =    0.900   0.900   0.900
                                                       0.900   0.900

     vdW kernel table read from file vdW_kernel_table
     MD5 check sum: 095c7af220d748ca6e76c0b4c6cfb241

     atomic species   valence    mass     pseudopotential
        Os1           16.00   190.23000     Os( 1.00)
        O1             6.00    15.99900     O ( 1.00)

     No symmetry found



   Cartesian axes

     site n.     atom                  positions (alat units)
         1           Os1 tau(   1) = (   1.3601662   0.7852923  10.0000000  )
         2           Os1 tau(   2) = (   4.0804987   0.7852923  10.0000000  )
         3           Os1 tau(   3) = (   2.7203325   3.1411694  10.0000000  )
         4           Os1 tau(   4) = (   5.4406649   3.1411694  10.0000000  )
         5           Os1 tau(   5) = (   5.4406649   1.5705847  12.2211422  )
         6           Os1 tau(   6) = (   2.7203325   1.5705847  12.2211422  )
         7           Os1 tau(   7) = (   6.8008312   3.9264617  12.2211422  )
         8           Os1 tau(   8) = (   4.0804987   3.9264617  12.2211422  )
         9           Os1 tau(   9) = (   0.0000000   0.0000000  14.4422843  )
        10           Os1 tau(  10) = (   2.7203325   0.0000000  14.4422843  )
        11           Os1 tau(  11) = (   1.3601662   2.3558770  14.4422843  )
        12           Os1 tau(  12) = (   4.0804987   2.3558770  14.4422843  )
        13           O1  tau(  13) = (   1.3601662   0.7852923  16.5422843  )

     number of k points=    20  Fermi-Dirac smearing, width (Ry)=  0.0110
                       cart. coord. in units 2pi/alat
        k(    1) = (   0.0000000   0.0000000   0.0000000), wk =   0.0555556
        k(    2) = (   0.0000000   0.0353725   0.0000000), wk =   0.1111111
        k(    3) = (   0.0000000   0.0707451   0.0000000), wk =   0.1111111
        k(    4) = (   0.0000000  -0.1061176   0.0000000), wk =   0.0555556
        k(    5) = (   0.0306335  -0.0176863   0.0000000), wk =   0.1111111
        k(    6) = (   0.0306335   0.0176863   0.0000000), wk =   0.1111111
        k(    7) = (   0.0306335   0.0530588   0.0000000), wk =   0.1111111
        k(    8) = (   0.0306335  -0.1238039   0.0000000), wk =   0.1111111
        k(    9) = (   0.0306335  -0.0884313   0.0000000), wk =   0.1111111
        k(   10) = (   0.0306335  -0.0530588   0.0000000), wk =   0.1111111
        k(   11) = (   0.0612670  -0.0353725   0.0000000), wk =   0.1111111
        k(   12) = (   0.0612670   0.0000000   0.0000000), wk =   0.1111111
        k(   13) = (   0.0612670   0.0353725   0.0000000), wk =   0.1111111
        k(   14) = (   0.0612670  -0.1414901   0.0000000), wk =   0.1111111
        k(   15) = (   0.0612670  -0.1061176   0.0000000), wk =   0.1111111
        k(   16) = (   0.0612670  -0.0707451   0.0000000), wk =   0.1111111
        k(   17) = (  -0.0919005   0.0530588   0.0000000), wk =   0.0555556
        k(   18) = (  -0.0919005   0.0884313   0.0000000), wk =   0.1111111
        k(   19) = (  -0.0919005   0.1238039   0.0000000), wk =   0.1111111
        k(   20) = (  -0.0919005  -0.0530588   0.0000000), wk =   0.0555556

     Dense  grid:   503261 G-vectors     FFT dimensions: (  64,  64, 288)

     Smooth grid:   127391 G-vectors     FFT dimensions: (  40,  40, 180)

     Largest allocated arrays     est. size (Mb)     dimensions
        Kohn-Sham Wavefunctions         0.88 Mb     (     531,  109)
        NL pseudopotentials             3.22 Mb     (     531,  397)
        Each V/rho on FFT grid          0.56 Mb     (   36864)
        Each G-vector array             0.12 Mb     (   15717)
        G-vector shells                 0.05 Mb     (    7001)
     Largest temporary arrays     est. size (Mb)     dimensions
        Auxiliary wavefunctions         3.53 Mb     (     531,  436)
        Each subspace H/S matrix        2.90 Mb     (     436,  436)
        Each <psi_i|beta_j> matrix      0.66 Mb     (     397,  109)
        Arrays for rho mixing           5.62 Mb     (   36864,   10)

     Initial potential from superposition of free atoms
     Check: negative starting charge=   -1.495950

     starting charge  191.99956, renormalised to  198.00000

     negative rho (up, down):  1.543E+00 0.000E+00


     ************************************************************************
     *
     * You are using vdW-DF for exchange-correlation in this calculation.
     * Please cite the following three references that made this development
     * possible:
     *
     *   M. Dion, H. Rydberg, E. Schroder, D. C. Langreth, and
     *   B. I. Lundqvist, Phys. Rev. Lett. 92, 246401 (2004).
     *
     *   T. Thonhauser, V. R. Cooper, S. Li, A. Puzder, P. Hyldgaard, and
     *   D. C. Langreth, Phys. Rev. B 76, 125112 (2007).
     *
     *   G. Roman-Perez and J. M. Soler, Phys. Rev. Lett. 103, 096102 (2009).
     *
     *
     * If you are using vdW-DF2, please also cite:
     *
     *   K. Lee, E. D. Murray, L. Kong, B. I. Lundqvist, and
     *   D. C. Langreth, Phys. Rev. B 82, 081101(R) (2010).
     *
     *
     * If you are calculating the stress with vdW-DF, please also cite:
     *
     *   R. Sabatini, E. Kucukbenli, B. Kolb, T. Thonhauser, and
     *   S. de Gironcoli, J. Phys.: Condens. Matter 24, 424209 (2012).
     *
     ************************************************************************

     Carrying out vdW-DF run using the following parameters:

     Nqs =      20    Nr_points =    1024   r_max =   100.000
     q_mesh =
               0.00001000     0.04494208     0.09755937     0.15916263
               0.23128650     0.31572767     0.41458969     0.53033537
               0.66584808     0.82450364     1.01025438     1.22772762
               1.48234092     1.78043706     2.12944203     2.53805004
               3.01644009     3.57652955     4.23227104     5.00000000

     Gradients computed in reciprocal space

     ************************************************************************


 
     Adding external electric field

     Computed dipole along edir(3) : 
        Dipole               -1.5312 Ry au,         -3.8919 Debye
        Dipole field         -0.0046 Ry au
 
        Potential amp.        0.4099 Ry
        Total length         45.0345 bohr
 
     Starting wfc are  160 randomized atomic wfcs

     total cpu time spent up to now is        8.0 secs

     Self-consistent Calculation

     iteration #  1     ecut=    36.75 Ry     beta=0.30
     Davidson diagonalization with overlap
     ethr =  1.00E-02,  avg # of iterations =  2.0

     negative rho (up, down):  1.539E+00 0.000E+00
 
     Adding external electric field

     Computed dipole along edir(3) : 
        Dipole               20.6524 Ry au,         52.4932 Debye
        Dipole field          0.0614 Ry au
 
        Potential amp.       -5.5282 Ry
        Total length         45.0345 bohr
 

     total cpu time spent up to now is       22.8 secs

     total energy              =   -2396.71287629 Ry
     Harris-Foulkes estimate   =   -2430.03636098 Ry
     estimated scf accuracy    <      68.65757783 Ry

     iteration #  2     ecut=    36.75 Ry     beta=0.30
     Davidson diagonalization with overlap
     ethr =  1.00E-02,  avg # of iterations = 12.4

     negative rho (up, down):  1.535E+00 0.000E+00
 
     Adding external electric field

     Computed dipole along edir(3) : 
        Dipole               -3.7619 Ry au,         -9.5619 Debye
        Dipole field         -0.0112 Ry au
 
        Potential amp.        1.0070 Ry
        Total length         45.0345 bohr
 

     total cpu time spent up to now is       65.1 secs

     total energy              =   -2256.51390835 Ry
     Harris-Foulkes estimate   =   -2652.05355340 Ry
     estimated scf accuracy    <   11090.97493539 Ry

     iteration #  3     ecut=    36.75 Ry     beta=0.30
     Davidson diagonalization with overlap
     ethr =  1.00E-02,  avg # of iterations =  9.7

     negative rho (up, down):  1.534E+00 0.000E+00
 
     Adding external electric field

     Computed dipole along edir(3) : 
        Dipole               -2.2882 Ry au,         -5.8160 Debye
        Dipole field         -0.0068 Ry au
 
        Potential amp.        0.6125 Ry
        Total length         45.0345 bohr
 

     total cpu time spent up to now is       97.0 secs

     total energy              =   -2418.62832073 Ry
     Harris-Foulkes estimate   =   -2463.82885972 Ry
     estimated scf accuracy    <     890.45690012 Ry

     iteration #  4     ecut=    36.75 Ry     beta=0.30
     Davidson diagonalization with overlap
     ethr =  1.00E-02,  avg # of iterations =  5.8

     negative rho (up, down):  1.532E+00 0.000E+00
 
     Adding external electric field

     Computed dipole along edir(3) : 
        Dipole               -1.4763 Ry au,         -3.7524 Debye
        Dipole field         -0.0044 Ry au
 
        Potential amp.        0.3952 Ry
        Total length         45.0345 bohr
 

     total cpu time spent up to now is      121.6 secs

     total energy              =   -2429.05934921 Ry
     Harris-Foulkes estimate   =   -2431.38074107 Ry
     estimated scf accuracy    <      49.59226236 Ry

     iteration #  5     ecut=    36.75 Ry     beta=0.30
     Davidson diagonalization with overlap
     ethr =  1.00E-02,  avg # of iterations =  1.3

     negative rho (up, down):  1.531E+00 0.000E+00
 
     Adding external electric field

     Computed dipole along edir(3) : 
        Dipole               -1.5720 Ry au,         -3.9957 Debye
        Dipole field         -0.0047 Ry au
 
        Potential amp.        0.4208 Ry
        Total length         45.0345 bohr
 

     total cpu time spent up to now is      133.5 secs

     total energy              =   -2429.45802909 Ry
     Harris-Foulkes estimate   =   -2429.86545371 Ry
     estimated scf accuracy    <      11.82580812 Ry

     iteration #  6     ecut=    36.75 Ry     beta=0.30
     Davidson diagonalization with overlap
     ethr =  5.97E-03,  avg # of iterations =  2.0

     negative rho (up, down):  1.531E+00 0.000E+00
 
     Adding external electric field

     Computed dipole along edir(3) : 
        Dipole               -1.5111 Ry au,         -3.8408 Debye
        Dipole field         -0.0045 Ry au
 
        Potential amp.        0.4045 Ry
        Total length         45.0345 bohr
 

     total cpu time spent up to now is      146.0 secs

     total energy              =   -2429.44561544 Ry
     Harris-Foulkes estimate   =   -2429.70801544 Ry
     estimated scf accuracy    <       2.33093165 Ry

     iteration #  7     ecut=    36.75 Ry     beta=0.30
     Davidson diagonalization with overlap
     ethr =  1.18E-03,  avg # of iterations =  5.7

     negative rho (up, down):  1.524E+00 0.000E+00
 
     Adding external electric field

     Computed dipole along edir(3) : 
        Dipole               -1.4540 Ry au,         -3.6956 Debye
        Dipole field         -0.0043 Ry au
 
        Potential amp.        0.3892 Ry
        Total length         45.0345 bohr
 

     total cpu time spent up to now is      164.5 secs

     total energy              =   -2429.58914707 Ry
     Harris-Foulkes estimate   =   -2429.84305890 Ry
     estimated scf accuracy    <      10.00478088 Ry

     iteration #  8     ecut=    36.75 Ry     beta=0.30
     Davidson diagonalization with overlap
     ethr =  1.18E-03,  avg # of iterations =  3.0

     negative rho (up, down):  1.521E+00 0.000E+00
 
     Adding external electric field

     Computed dipole along edir(3) : 
        Dipole               -1.4463 Ry au,         -3.6761 Debye
        Dipole field         -0.0043 Ry au
 
        Potential amp.        0.3871 Ry
        Total length         45.0345 bohr
 

     total cpu time spent up to now is      177.8 secs

     total energy              =   -2429.66866365 Ry
     Harris-Foulkes estimate   =   -2429.70559474 Ry
     estimated scf accuracy    <       0.74583965 Ry

     iteration #  9     ecut=    36.75 Ry     beta=0.30
     Davidson diagonalization with overlap
     ethr =  3.77E-04,  avg # of iterations =  4.1

     negative rho (up, down):  1.518E+00 0.000E+00
 
     Adding external electric field

     Computed dipole along edir(3) : 
        Dipole               -1.3983 Ry au,         -3.5541 Debye
        Dipole field         -0.0042 Ry au
 
        Potential amp.        0.3743 Ry
        Total length         45.0345 bohr
 

     total cpu time spent up to now is      193.0 secs

     total energy              =   -2429.70330043 Ry
     Harris-Foulkes estimate   =   -2429.71058557 Ry
     estimated scf accuracy    <       0.10924882 Ry

     iteration # 10     ecut=    36.75 Ry     beta=0.30
     Davidson diagonalization with overlap
     ethr =  5.52E-05,  avg # of iterations =  5.0

     negative rho (up, down):  1.516E+00 0.000E+00
 
     Adding external electric field

     Computed dipole along edir(3) : 
        Dipole               -1.3100 Ry au,         -3.3296 Debye
        Dipole field         -0.0039 Ry au
 
        Potential amp.        0.3507 Ry
        Total length         45.0345 bohr
 

     total cpu time spent up to now is      210.3 secs

     total energy              =   -2429.70131897 Ry
     Harris-Foulkes estimate   =   -2429.71718370 Ry
     estimated scf accuracy    <       0.41189686 Ry

     iteration # 11     ecut=    36.75 Ry     beta=0.30
     Davidson diagonalization with overlap
     ethr =  5.52E-05,  avg # of iterations =  1.0

     negative rho (up, down):  1.514E+00 0.000E+00
 
     Adding external electric field

     Computed dipole along edir(3) : 
        Dipole               -1.2067 Ry au,         -3.0670 Debye
        Dipole field         -0.0036 Ry au
 
        Potential amp.        0.3230 Ry
        Total length         45.0345 bohr
 

     total cpu time spent up to now is      221.8 secs

     total energy              =   -2429.70192292 Ry
     Harris-Foulkes estimate   =   -2429.70691393 Ry
     estimated scf accuracy    <       0.02914323 Ry

     iteration # 12     ecut=    36.75 Ry     beta=0.30
     Davidson diagonalization with overlap
     ethr =  1.47E-05,  avg # of iterations =  5.0

     negative rho (up, down):  1.513E+00 0.000E+00
 
     Adding external electric field

     Computed dipole along edir(3) : 
        Dipole               -1.1770 Ry au,         -2.9917 Debye
        Dipole field         -0.0035 Ry au
 
        Potential amp.        0.3151 Ry
        Total length         45.0345 bohr
 

     total cpu time spent up to now is      239.0 secs

     total energy              =   -2429.70361318 Ry
     Harris-Foulkes estimate   =   -2429.70671573 Ry
     estimated scf accuracy    <       0.07957515 Ry

     iteration # 13     ecut=    36.75 Ry     beta=0.30
     Davidson diagonalization with overlap
     ethr =  1.47E-05,  avg # of iterations =  1.0

     negative rho (up, down):  1.509E+00 0.000E+00
 
     Adding external electric field

     Computed dipole along edir(3) : 
        Dipole               -0.8399 Ry au,         -2.1348 Debye
        Dipole field         -0.0025 Ry au
 
        Potential amp.        0.2248 Ry
        Total length         45.0345 bohr
 

     total cpu time spent up to now is      250.7 secs

     total energy              =   -2429.70053266 Ry
     Harris-Foulkes estimate   =   -2429.70659410 Ry
     estimated scf accuracy    <       0.01687201 Ry

     iteration # 14     ecut=    36.75 Ry     beta=0.30
     Davidson diagonalization with overlap
     ethr =  8.52E-06,  avg # of iterations =  4.7

     negative rho (up, down):  1.509E+00 0.000E+00
 
     Adding external electric field

     Computed dipole along edir(3) : 
        Dipole               -0.7130 Ry au,         -1.8122 Debye
        Dipole field         -0.0021 Ry au
 
        Potential amp.        0.1908 Ry
        Total length         45.0345 bohr
 

     total cpu time spent up to now is      266.7 secs

     total energy              =   -2429.70087301 Ry
     Harris-Foulkes estimate   =   -2429.70300221 Ry
     estimated scf accuracy    <       0.03663967 Ry

     iteration # 15     ecut=    36.75 Ry     beta=0.30
     Davidson diagonalization with overlap
     ethr =  8.52E-06,  avg # of iterations =  1.2

     negative rho (up, down):  1.512E+00 0.000E+00
 
     Adding external electric field

     Computed dipole along edir(3) : 
        Dipole               -0.5975 Ry au,         -1.5187 Debye
        Dipole field         -0.0018 Ry au
 
        Potential amp.        0.1599 Ry
        Total length         45.0345 bohr
 

     total cpu time spent up to now is      278.6 secs

     total energy              =   -2429.70114219 Ry
     Harris-Foulkes estimate   =   -2429.70200701 Ry
     estimated scf accuracy    <       0.00530859 Ry

     iteration # 16     ecut=    36.75 Ry     beta=0.30
     Davidson diagonalization with overlap
     ethr =  2.68E-06,  avg # of iterations =  6.0

     negative rho (up, down):  1.513E+00 0.000E+00
 
     Adding external electric field

     Computed dipole along edir(3) : 
        Dipole               -0.5590 Ry au,         -1.4208 Debye
        Dipole field         -0.0017 Ry au
 
        Potential amp.        0.1496 Ry
        Total length         45.0345 bohr
 

     total cpu time spent up to now is      296.7 secs

     total energy              =   -2429.70100091 Ry
     Harris-Foulkes estimate   =   -2429.70223033 Ry
     estimated scf accuracy    <       0.03912701 Ry

     iteration # 17     ecut=    36.75 Ry     beta=0.30
     Davidson diagonalization with overlap
     ethr =  2.68E-06,  avg # of iterations =  4.5

     negative rho (up, down):  1.513E+00 0.000E+00
 
     Adding external electric field

     Computed dipole along edir(3) : 
        Dipole               -0.5370 Ry au,         -1.3650 Debye
        Dipole field         -0.0016 Ry au
 
        Potential amp.        0.1437 Ry
        Total length         45.0345 bohr
 

     total cpu time spent up to now is      312.1 secs

     total energy              =   -2429.70162130 Ry
     Harris-Foulkes estimate   =   -2429.70175659 Ry
     estimated scf accuracy    <       0.00094659 Ry

     iteration # 18     ecut=    36.75 Ry     beta=0.30
     Davidson diagonalization with overlap
     ethr =  4.78E-07,  avg # of iterations =  3.1

     negative rho (up, down):  1.513E+00 0.000E+00
 
     Adding external electric field

     Computed dipole along edir(3) : 
        Dipole               -0.5304 Ry au,         -1.3483 Debye
        Dipole field         -0.0016 Ry au
 
        Potential amp.        0.1420 Ry
        Total length         45.0345 bohr
 

     total cpu time spent up to now is      326.1 secs

     total energy              =   -2429.70166202 Ry
     Harris-Foulkes estimate   =   -2429.70169728 Ry
     estimated scf accuracy    <       0.00057071 Ry

     iteration # 19     ecut=    36.75 Ry     beta=0.30
     Davidson diagonalization with overlap
     ethr =  2.88E-07,  avg # of iterations =  1.0

     negative rho (up, down):  1.513E+00 0.000E+00
 
     Adding external electric field

     Computed dipole along edir(3) : 
        Dipole               -0.5254 Ry au,         -1.3355 Debye
        Dipole field         -0.0016 Ry au
 
        Potential amp.        0.1406 Ry
        Total length         45.0345 bohr
 

     total cpu time spent up to now is      337.7 secs

     total energy              =   -2429.70166635 Ry
     Harris-Foulkes estimate   =   -2429.70168770 Ry
     estimated scf accuracy    <       0.00015901 Ry

     iteration # 20     ecut=    36.75 Ry     beta=0.30
     Davidson diagonalization with overlap
     ethr =  8.03E-08,  avg # of iterations =  3.6

     negative rho (up, down):  1.514E+00 0.000E+00
 
     Adding external electric field

     Computed dipole along edir(3) : 
        Dipole               -0.5205 Ry au,         -1.3231 Debye
        Dipole field         -0.0015 Ry au
 
        Potential amp.        0.1393 Ry
        Total length         45.0345 bohr
 

     total cpu time spent up to now is      351.8 secs

     total energy              =   -2429.70166845 Ry
     Harris-Foulkes estimate   =   -2429.70168678 Ry
     estimated scf accuracy    <       0.00003920 Ry

     iteration # 21     ecut=    36.75 Ry     beta=0.30
     Davidson diagonalization with overlap
     ethr =  1.98E-08,  avg # of iterations =  4.2

     negative rho (up, down):  1.514E+00 0.000E+00

     negative rho (up, down):  1.514E+00 0.000E+00

     negative rho (up, down):  1.514E+00 0.000E+00

     negative rho (up, down):  1.514E+00 0.000E+00

     negative rho (up, down):  1.514E+00 0.000E+00

     negative rho (up, down):  1.514E+00 0.000E+00

     negative rho (up, down):  1.514E+00 0.000E+00

     negative rho (up, down):  1.514E+00 0.000E+00

     negative rho (up, down):  1.514E+00 0.000E+00

     negative rho (up, down):  1.514E+00 0.000E+00

     negative rho (up, down):  1.514E+00 0.000E+00

     negative rho (up, down):  1.514E+00 0.000E+00

     negative rho (up, down):  1.514E+00 0.000E+00

     negative rho (up, down):  1.514E+00 0.000E+00

     negative rho (up, down):  1.514E+00 0.000E+00

     negative rho (up, down):  1.514E+00 0.000E+00

     negative rho (up, down):  1.514E+00 0.000E+00

     negative rho (up, down):  1.514E+00 0.000E+00

     negative rho (up, down):  1.514E+00 0.000E+00

     negative rho (up, down):  1.514E+00 0.000E+00

     negative rho (up, down):  1.514E+00 0.000E+00

     negative rho (up, down):  1.514E+00 0.000E+00

     negative rho (up, down):  1.514E+00 0.000E+00

     negative rho (up, down):  1.514E+00 0.000E+00

     negative rho (up, down):  1.514E+00 0.000E+00

     negative rho (up, down):  1.514E+00 0.000E+00

     negative rho (up, down):  1.514E+00 0.000E+00

     negative rho (up, down):  1.514E+00 0.000E+00

     negative rho (up, down):  1.514E+00 0.000E+00

     negative rho (up, down):  1.514E+00 0.000E+00

     negative rho (up, down):  1.514E+00 0.000E+00

     negative rho (up, down):  1.514E+00 0.000E+00

     negative rho (up, down):  1.514E+00 0.000E+00

     negative rho (up, down):  1.514E+00 0.000E+00

     negative rho (up, down):  1.514E+00 0.000E+00
 
     Adding external electric field

     Computed dipole along edir(3) : 
        Dipole               -0.5349 Ry au,         -1.3595 Debye
        Dipole field         -0.0016 Ry au
 
        Potential amp.        0.1432 Ry
        Total length         45.0345 bohr
 

     total cpu time spent up to now is      379.3 secs

     End of self-consistent calculation

          k = 0.0000 0.0000 0.0000 ( 15845 PWs)   bands (ev):

   -84.7713 -84.7213 -84.7208 -84.5889 -84.3664 -84.3202 -84.3196 -84.2386
   -84.1817 -84.1816 -84.1764 -84.1480 -44.4432 -44.3998 -44.3996 -44.2519
   -44.1410 -44.1407 -44.1154 -43.9197 -43.8829 -43.8827 -43.8376 -43.8052
   -43.8049 -43.7378 -43.7377 -43.7070 -43.6119 -43.6118 -43.6112 -43.5474
   -43.5469 -43.4489 -43.4024 -43.4023 -43.3910 -43.3821 -43.3682 -43.3642
   -43.3637 -43.2771 -43.2771 -43.2748 -43.1593 -43.1591 -43.1004 -43.1004
   -13.5607  -7.3205  -5.3153  -4.9121  -4.5869  -4.5680  -4.5679  -4.2550
    -4.2392  -4.2392  -3.6717  -3.6446  -3.6446  -3.3825  -3.3617  -3.3616
    -1.8708  -1.8099  -1.8098  -1.0190  -1.0139  -1.0139  -0.7636  -0.6185
    -0.5386  -0.5386  -0.0438  -0.0438  -0.0088  -0.0086  -0.0085   0.2306
     0.2453   0.2455   0.3151   0.3151   0.6810   1.0659   1.0659   1.6847
     1.9908   1.9908   2.0435   2.1803   2.1804   2.3237   2.3237   2.3732
     3.0520   3.0520   3.2871   3.7002   3.7052   3.7052   3.9396   3.9397
     3.9471   4.1335   4.1336   4.2237   4.2237

          k = 0.0000 0.0354 0.0000 ( 15861 PWs)   bands (ev):

   -84.7679 -84.7241 -84.7208 -84.5895 -84.3633 -84.3226 -84.3199 -84.2347
   -84.1848 -84.1816 -84.1772 -84.1485 -44.4107 -44.3709 -44.3579 -44.2390
   -44.1336 -44.1296 -44.0947 -43.8972 -43.8743 -43.8486 -43.8464 -43.8312
   -43.7999 -43.7241 -43.7230 -43.6998 -43.6861 -43.6246 -43.5789 -43.5427
   -43.5412 -43.4437 -43.4138 -43.4082 -43.3977 -43.3938 -43.3803 -43.3718
   -43.3590 -43.3041 -43.3033 -43.2648 -43.2044 -43.1699 -43.1502 -43.1124
   -13.5593  -7.0458  -5.0368  -4.6335  -4.5410  -4.3458  -4.3327  -4.1465
    -4.0588  -4.0487  -3.5742  -3.5126  -3.4978  -3.2301  -3.0906  -3.0754
    -1.8404  -1.7842  -1.7378  -1.0264  -0.9148  -0.9029  -0.8987  -0.7778
    -0.6601  -0.4249  -0.4047  -0.3117  -0.0325   0.0107   0.0642   0.1350
     0.1813   0.2508   0.3261   0.5248   0.5410   0.9409   0.9682   1.3012
     1.5278   1.6111   1.8886   2.0242   2.0396   2.1590   2.1666   2.1969
     2.5365   2.7812   2.8586   3.0753   3.1717   3.5268   3.5998   3.6984
     3.7902   3.8315   3.9006   3.9061   4.1119

          k = 0.0000 0.0707 0.0000 ( 15905 PWs)   bands (ev):

   -84.7592 -84.7316 -84.7208 -84.5907 -84.3555 -84.3295 -84.3199 -84.2241
   -84.1949 -84.1816 -84.1778 -84.1494 -44.3412 -44.2978 -44.2332 -44.2051
   -44.1305 -44.1076 -44.0555 -43.9494 -43.9287 -43.8492 -43.8129 -43.7861
   -43.7704 -43.7366 -43.6817 -43.6730 -43.6561 -43.6379 -43.5582 -43.5432
   -43.5365 -43.4729 -43.4674 -43.4364 -43.4026 -43.4000 -43.3935 -43.3838
   -43.3680 -43.3613 -43.3369 -43.3155 -43.2783 -43.2331 -43.1952 -43.1448
   -13.5564  -6.2960  -4.6707  -4.3320  -3.9131  -3.8919  -3.7578  -3.7418
    -3.6082  -3.5951  -3.3491  -3.0728  -3.0595  -2.8355  -2.3565  -2.3403
    -1.8263  -1.7648  -1.6490  -1.5705  -1.2785  -1.1366  -1.1149  -0.8463
    -0.7996  -0.5340  -0.5332  -0.3049  -0.2380  -0.1124  -0.0237   0.0057
     0.1907   0.2653   0.3014   0.4786   0.5019   0.5836   0.7071   0.8837
     0.9715   0.9861   1.1543   1.1938   1.2707   1.3985   1.6407   1.7754
     2.0170   2.0827   2.0856   2.5342   2.6406   2.6541   2.8312   3.0439
     3.1112   3.1775   3.1805   3.5450   3.6606

          k = 0.0000-0.1061 0.0000 ( 15968 PWs)   bands (ev):

   -84.7517 -84.7386 -84.7208 -84.5913 -84.3490 -84.3356 -84.3199 -84.2109
   -84.2080 -84.1816 -84.1779 -84.1498 -44.2985 -44.2441 -44.1730 -44.1490
   -44.0969 -44.0686 -44.0486 -44.0363 -44.0071 -43.9270 -43.7998 -43.7509
   -43.7323 -43.6813 -43.6515 -43.6439 -43.6079 -43.5901 -43.5656 -43.5491
   -43.5308 -43.5060 -43.4717 -43.4674 -43.4375 -43.4222 -43.4156 -43.4140
   -43.3951 -43.3785 -43.3684 -43.3651 -43.3217 -43.2123 -43.1920 -43.1857
   -13.5550  -5.3421  -5.3333  -3.7977  -3.7758  -3.3573  -3.3303  -3.3177
    -3.3087  -3.2781  -3.2491  -2.6265  -2.6079  -2.2808  -2.2401  -2.0820
    -2.0765  -1.7343  -1.7236  -1.6701  -1.6604  -1.3185  -1.2424  -0.8542
    -0.7573  -0.5815  -0.4091  -0.4042  -0.3281  -0.2896  -0.2739  -0.1813
    -0.0410  -0.0015   0.0671   0.1292   0.1724   0.2313   0.2548   0.4877
     0.4945   0.9533   1.1410   1.1846   1.2985   1.3364   1.5038   1.5870
     1.7040   1.8919   2.0128   2.1034   2.2827   2.3111   2.4767   2.5051
     2.7376   2.9018   2.9998   3.0751   3.1073

          k = 0.0306-0.0177 0.0000 ( 15861 PWs)   bands (ev):

   -84.7679 -84.7237 -84.7212 -84.5895 -84.3633 -84.3228 -84.3196 -84.2347
   -84.1847 -84.1817 -84.1772 -84.1485 -44.4108 -44.3707 -44.3580 -44.2390
   -44.1333 -44.1299 -44.0947 -43.8972 -43.8744 -43.8485 -43.8465 -43.8310
   -43.8001 -43.7242 -43.7229 -43.6998 -43.6861 -43.6245 -43.5789 -43.5425
   -43.5414 -43.4437 -43.4138 -43.4082 -43.3977 -43.3938 -43.3804 -43.3718
   -43.3589 -43.3040 -43.3033 -43.2647 -43.2043 -43.1700 -43.1502 -43.1123
   -13.5593  -7.0458  -5.0368  -4.6335  -4.5410  -4.3458  -4.3327  -4.1465
    -4.0589  -4.0486  -3.5742  -3.5126  -3.4979  -3.2301  -3.0905  -3.0754
    -1.8404  -1.7842  -1.7378  -1.0264  -0.9148  -0.9029  -0.8987  -0.7778
    -0.6601  -0.4249  -0.4047  -0.3118  -0.0325   0.0107   0.0642   0.1350
     0.1813   0.2508   0.3261   0.5247   0.5410   0.9409   0.9682   1.3012
     1.5278   1.6112   1.8886   2.0242   2.0396   2.1590   2.1666   2.1968
     2.5365   2.7812   2.8587   3.0753   3.1717   3.5268   3.5997   3.6984
     3.7902   3.8315   3.9006   3.9063   4.1120

          k = 0.0306 0.0177 0.0000 ( 15861 PWs)   bands (ev):

   -84.7679 -84.7238 -84.7211 -84.5895 -84.3634 -84.3222 -84.3202 -84.2347
   -84.1848 -84.1816 -84.1772 -84.1485 -44.4107 -44.3707 -44.3580 -44.2390
   -44.1334 -44.1298 -44.0948 -43.8972 -43.8744 -43.8485 -43.8463 -43.8311
   -43.8001 -43.7241 -43.7230 -43.6998 -43.6861 -43.6246 -43.5789 -43.5429
   -43.5410 -43.4437 -43.4138 -43.4082 -43.3976 -43.3938 -43.3802 -43.3718
   -43.3593 -43.3041 -43.3033 -43.2648 -43.2045 -43.1699 -43.1502 -43.1124
   -13.5593  -7.0458  -5.0368  -4.6335  -4.5410  -4.3458  -4.3327  -4.1465
    -4.0589  -4.0486  -3.5742  -3.5126  -3.4978  -3.2301  -3.0906  -3.0754
    -1.8404  -1.7841  -1.7379  -1.0264  -0.9148  -0.9029  -0.8987  -0.7778
    -0.6601  -0.4250  -0.4046  -0.3118  -0.0325   0.0107   0.0642   0.1350
     0.1813   0.2508   0.3261   0.5248   0.5410   0.9408   0.9682   1.3012
     1.5278   1.6111   1.8886   2.0242   2.0396   2.1590   2.1666   2.1968
     2.5365   2.7812   2.8586   3.0753   3.1717   3.5268   3.5997   3.6985
     3.7902   3.8315   3.9006   3.9061   4.1118

          k = 0.0306 0.0531 0.0000 ( 15900 PWs)   bands (ev):

   -84.7619 -84.7289 -84.7212 -84.5904 -84.3579 -84.3269 -84.3203 -84.2274
   -84.1890 -84.1860 -84.1758 -84.1491 -44.3613 -44.2990 -44.2917 -44.2155
   -44.1276 -44.1142 -44.0644 -43.9569 -43.8562 -43.8406 -43.8200 -43.7929
   -43.7838 -43.7681 -43.6983 -43.6783 -43.6690 -43.6507 -43.5626 -43.5403
   -43.5374 -43.4790 -43.4384 -43.4091 -43.4046 -43.4000 -43.3911 -43.3754
   -43.3752 -43.3683 -43.2802 -43.2780 -43.2737 -43.2370 -43.1925 -43.1373
   -13.5571  -6.5291  -4.5301  -4.3394  -4.3303  -4.1204  -3.8699  -3.8590
    -3.8044  -3.6369  -3.3491  -3.3401  -3.1286  -2.8417  -2.8157  -2.4594
    -1.8641  -1.7038  -1.6703  -1.4716  -1.0547  -0.9563  -0.9194  -0.8534
    -0.8303  -0.6949  -0.4723  -0.4428  -0.1242  -0.0553   0.0060   0.1145
     0.1507   0.1671   0.2709   0.3996   0.6590   0.7324   0.9115   1.0310
     1.1068   1.1363   1.2285   1.4006   1.5488   1.6830   1.8205   1.8764
     1.9512   2.0877   2.2799   2.6575   2.7705   2.8589   3.1112   3.2578
     3.2872   3.4713   3.5799   3.6940   3.8411

          k = 0.0306-0.1238 0.0000 ( 15922 PWs)   bands (ev):

   -84.7524 -84.7372 -84.7216 -84.5913 -84.3494 -84.3346 -84.3204 -84.2149
   -84.2002 -84.1891 -84.1741 -84.1498 -44.2894 -44.2203 -44.1785 -44.1543
   -44.1349 -44.1018 -44.0656 -44.0330 -43.9624 -43.8668 -43.7944 -43.7771
   -43.7145 -43.7020 -43.6772 -43.6487 -43.6203 -43.5896 -43.5716 -43.5468
   -43.5361 -43.5164 -43.4878 -43.4752 -43.4306 -43.4173 -43.4081 -43.3985
   -43.3839 -43.3739 -43.3534 -43.3184 -43.3141 -43.2343 -43.2259 -43.1822
   -13.5550  -5.6383  -4.7412  -3.9540  -3.8009  -3.6018  -3.4163  -3.3222
    -3.3070  -3.0731  -3.0280  -2.8316  -2.5660  -2.3737  -2.2968  -2.1368
    -1.9853  -1.7569  -1.6915  -1.6538  -1.6049  -1.3770  -1.2052  -1.0526
    -0.9710  -0.7170  -0.5281  -0.4997  -0.3769  -0.3468  -0.3108  -0.2256
    -0.1856  -0.1248  -0.0173   0.1928   0.3827   0.4379   0.5053   0.6051
     0.7098   0.7989   1.0883   1.1261   1.2201   1.4783   1.6213   1.6590
     1.8477   1.9121   2.0351   2.0766   2.2392   2.4254   2.6980   2.7813
     3.0582   3.2141   3.3343   3.3752   3.5837

          k = 0.0306-0.0884 0.0000 ( 15922 PWs)   bands (ev):

   -84.7524 -84.7372 -84.7216 -84.5913 -84.3493 -84.3349 -84.3203 -84.2149
   -84.2002 -84.1891 -84.1741 -84.1498 -44.2894 -44.2203 -44.1785 -44.1543
   -44.1349 -44.1018 -44.0656 -44.0330 -43.9625 -43.8668 -43.7944 -43.7770
   -43.7145 -43.7020 -43.6771 -43.6489 -43.6203 -43.5901 -43.5715 -43.5471
   -43.5355 -43.5167 -43.4876 -43.4750 -43.4306 -43.4173 -43.4081 -43.3985
   -43.3839 -43.3738 -43.3534 -43.3185 -43.3141 -43.2343 -43.2259 -43.1822
   -13.5550  -5.6383  -4.7412  -3.9540  -3.8009  -3.6018  -3.4163  -3.3222
    -3.3070  -3.0731  -3.0280  -2.8316  -2.5660  -2.3737  -2.2968  -2.1368
    -1.9853  -1.7569  -1.6915  -1.6538  -1.6049  -1.3770  -1.2052  -1.0526
    -0.9710  -0.7171  -0.5281  -0.4997  -0.3768  -0.3468  -0.3108  -0.2256
    -0.1856  -0.1248  -0.0173   0.1927   0.3827   0.4379   0.5054   0.6051
     0.7098   0.7989   1.0882   1.1262   1.2201   1.4784   1.6214   1.6589
     1.8477   1.9121   2.0351   2.0766   2.2392   2.4254   2.6980   2.7814
     3.0581   3.2141   3.3343   3.3751   3.5837

          k = 0.0306-0.0531 0.0000 ( 15900 PWs)   bands (ev):

   -84.7619 -84.7289 -84.7212 -84.5904 -84.3578 -84.3275 -84.3198 -84.2274
   -84.1889 -84.1862 -84.1758 -84.1491 -44.3613 -44.2989 -44.2917 -44.2155
   -44.1275 -44.1142 -44.0644 -43.9569 -43.8562 -43.8406 -43.8200 -43.7931
   -43.7837 -43.7681 -43.6983 -43.6784 -43.6690 -43.6507 -43.5626 -43.5405
   -43.5373 -43.4793 -43.4384 -43.4090 -43.4046 -43.4000 -43.3911 -43.3754
   -43.3751 -43.3681 -43.2802 -43.2780 -43.2737 -43.2371 -43.1926 -43.1373
   -13.5571  -6.5291  -4.5301  -4.3394  -4.3303  -4.1204  -3.8699  -3.8590
    -3.8044  -3.6369  -3.3491  -3.3400  -3.1286  -2.8417  -2.8157  -2.4594
    -1.8641  -1.7039  -1.6703  -1.4716  -1.0547  -0.9563  -0.9194  -0.8533
    -0.8304  -0.6950  -0.4723  -0.4428  -0.1242  -0.0553   0.0060   0.1145
     0.1507   0.1670   0.2709   0.3996   0.6590   0.7323   0.9116   1.0310
     1.1067   1.1363   1.2286   1.4005   1.5488   1.6830   1.8205   1.8764
     1.9512   2.0876   2.2799   2.6575   2.7704   2.8589   3.1112   3.2578
     3.2872   3.4712   3.5798   3.6940   3.8411

          k = 0.0613-0.0354 0.0000 ( 15905 PWs)   bands (ev):

   -84.7593 -84.7312 -84.7212 -84.5907 -84.3554 -84.3299 -84.3196 -84.2241
   -84.1949 -84.1817 -84.1777 -84.1494 -44.3415 -44.2975 -44.2333 -44.2051
   -44.1302 -44.1079 -44.0555 -43.9496 -43.9284 -43.8491 -43.8130 -43.7863
   -43.7706 -43.7366 -43.6818 -43.6730 -43.6560 -43.6379 -43.5581 -43.5430
   -43.5368 -43.4727 -43.4675 -43.4364 -43.4026 -43.4000 -43.3935 -43.3838
   -43.3681 -43.3613 -43.3367 -43.3154 -43.2783 -43.2331 -43.1954 -43.1448
   -13.5564  -6.2960  -4.6707  -4.3320  -3.9131  -3.8920  -3.7578  -3.7418
    -3.6083  -3.5950  -3.3491  -3.0727  -3.0596  -2.8355  -2.3565  -2.3403
    -1.8262  -1.7649  -1.6490  -1.5705  -1.2785  -1.1366  -1.1149  -0.8463
    -0.7995  -0.5340  -0.5332  -0.3049  -0.2380  -0.1124  -0.0237   0.0057
     0.1907   0.2654   0.3013   0.4786   0.5019   0.5836   0.7071   0.8837
     0.9715   0.9861   1.1543   1.1938   1.2707   1.3985   1.6407   1.7754
     2.0170   2.0827   2.0856   2.5343   2.6405   2.6541   2.8313   3.0438
     3.1112   3.1775   3.1805   3.5456   3.6605

          k = 0.0613 0.0000 0.0000 ( 15900 PWs)   bands (ev):

   -84.7619 -84.7286 -84.7215 -84.5904 -84.3579 -84.3272 -84.3201 -84.2274
   -84.1889 -84.1861 -84.1758 -84.1491 -44.3614 -44.2987 -44.2918 -44.2155
   -44.1273 -44.1144 -44.0644 -43.9568 -43.8562 -43.8406 -43.8201 -43.7931
   -43.7838 -43.7681 -43.6983 -43.6784 -43.6690 -43.6506 -43.5626 -43.5404
   -43.5373 -43.4792 -43.4384 -43.4091 -43.4046 -43.4000 -43.3911 -43.3754
   -43.3751 -43.3682 -43.2802 -43.2780 -43.2737 -43.2370 -43.1926 -43.1373
   -13.5571  -6.5291  -4.5301  -4.3394  -4.3303  -4.1204  -3.8699  -3.8591
    -3.8044  -3.6369  -3.3491  -3.3400  -3.1286  -2.8417  -2.8157  -2.4594
    -1.8641  -1.7038  -1.6703  -1.4716  -1.0547  -0.9563  -0.9194  -0.8533
    -0.8304  -0.6949  -0.4723  -0.4428  -0.1242  -0.0553   0.0060   0.1145
     0.1507   0.1671   0.2709   0.3996   0.6590   0.7323   0.9116   1.0310
     1.1068   1.1363   1.2285   1.4006   1.5488   1.6830   1.8205   1.8764
     1.9512   2.0877   2.2799   2.6575   2.7704   2.8589   3.1112   3.2579
     3.2872   3.4712   3.5798   3.6939   3.8412

          k = 0.0613 0.0354 0.0000 ( 15905 PWs)   bands (ev):

   -84.7593 -84.7313 -84.7211 -84.5907 -84.3556 -84.3291 -84.3202 -84.2241
   -84.1949 -84.1816 -84.1778 -84.1494 -44.3414 -44.2975 -44.2332 -44.2051
   -44.1303 -44.1078 -44.0556 -43.9495 -43.9284 -43.8492 -43.8130 -43.7860
   -43.7705 -43.7366 -43.6818 -43.6730 -43.6560 -43.6379 -43.5582 -43.5434
   -43.5363 -43.4730 -43.4672 -43.4364 -43.4026 -43.3999 -43.3936 -43.3838
   -43.3680 -43.3614 -43.3372 -43.3155 -43.2783 -43.2331 -43.1951 -43.1448
   -13.5564  -6.2960  -4.6707  -4.3320  -3.9131  -3.8919  -3.7579  -3.7418
    -3.6083  -3.5950  -3.3491  -3.0728  -3.0595  -2.8355  -2.3566  -2.3402
    -1.8263  -1.7648  -1.6490  -1.5705  -1.2785  -1.1366  -1.1149  -0.8463
    -0.7995  -0.5340  -0.5332  -0.3049  -0.2381  -0.1124  -0.0237   0.0057
     0.1907   0.2653   0.3014   0.4786   0.5018   0.5836   0.7071   0.8837
     0.9715   0.9861   1.1544   1.1938   1.2707   1.3985   1.6407   1.7754
     2.0170   2.0827   2.0857   2.5343   2.6406   2.6541   2.8312   3.0438
     3.1112   3.1775   3.1805   3.5450   3.6606

          k = 0.0613-0.1415 0.0000 ( 15922 PWs)   bands (ev):

   -84.7525 -84.7369 -84.7217 -84.5913 -84.3496 -84.3343 -84.3206 -84.2149
   -84.2002 -84.1891 -84.1741 -84.1498 -44.2895 -44.2201 -44.1785 -44.1543
   -44.1347 -44.1019 -44.0657 -44.0331 -43.9623 -43.8668 -43.7945 -43.7772
   -43.7144 -43.7019 -43.6770 -43.6488 -43.6203 -43.5897 -43.5716 -43.5468
   -43.5361 -43.5165 -43.4877 -43.4752 -43.4306 -43.4173 -43.4081 -43.3985
   -43.3840 -43.3740 -43.3534 -43.3185 -43.3141 -43.2343 -43.2257 -43.1822
   -13.5550  -5.6383  -4.7412  -3.9540  -3.8009  -3.6018  -3.4163  -3.3222
    -3.3070  -3.0731  -3.0280  -2.8316  -2.5660  -2.3737  -2.2968  -2.1368
    -1.9853  -1.7569  -1.6915  -1.6538  -1.6049  -1.3770  -1.2052  -1.0526
    -0.9710  -0.7170  -0.5281  -0.4997  -0.3769  -0.3468  -0.3108  -0.2257
    -0.1856  -0.1248  -0.0173   0.1928   0.3827   0.4379   0.5053   0.6052
     0.7098   0.7989   1.0883   1.1261   1.2201   1.4783   1.6214   1.6590
     1.8477   1.9121   2.0351   2.0766   2.2392   2.4254   2.6980   2.7814
     3.0581   3.2141   3.3343   3.3752   3.5837

          k = 0.0613-0.1061 0.0000 ( 15972 PWs)   bands (ev):

   -84.7444 -84.7440 -84.7225 -84.5916 -84.3421 -84.3413 -84.3208 -84.2037
   -84.2035 -84.1989 -84.1723 -84.1501 -44.1974 -44.1964 -44.1520 -44.1494
   -44.1243 -44.1045 -44.0821 -44.0813 -44.0184 -43.8233 -43.7900 -43.7678
   -43.7232 -43.7051 -43.6245 -43.6197 -43.5949 -43.5937 -43.5505 -43.5462
   -43.5437 -43.5435 -43.5084 -43.5048 -43.4964 -43.4368 -43.4003 -43.3977
   -43.3924 -43.3837 -43.3643 -43.2824 -43.2792 -43.2513 -43.2440 -43.2439
   -13.5544  -4.7226  -4.7216  -4.7176  -3.3360  -3.3344  -3.3249  -2.8260
    -2.8144  -2.7572  -2.5841  -2.5838  -2.5654  -2.3853  -2.3641  -2.3625
    -1.9734  -1.9637  -1.6314  -1.6254  -1.6219  -1.4877  -1.2954  -1.2852
    -1.0487  -1.0198  -1.0131  -0.8893  -0.7745  -0.7736  -0.6341  -0.2434
    -0.2156   0.0042   0.0089   0.1435   0.3394   0.3565   0.4743   0.4802
     0.4810   0.8527   0.9308   1.0535   1.4641   1.4697   1.6358   1.7772
     1.8189   1.9023   2.0665   2.1283   2.3509   2.3870   2.9574   3.3599
     3.3714   3.4047   3.4289   3.4385   3.6104

          k = 0.0613-0.0707 0.0000 ( 15922 PWs)   bands (ev):

   -84.7525 -84.7368 -84.7218 -84.5913 -84.3492 -84.3352 -84.3201 -84.2149
   -84.2002 -84.1892 -84.1741 -84.1498 -44.2896 -44.2201 -44.1786 -44.1543
   -44.1347 -44.1020 -44.0657 -44.0330 -43.9623 -43.8668 -43.7944 -43.7772
   -43.7147 -43.7019 -43.6772 -43.6488 -43.6203 -43.5899 -43.5715 -43.5471
   -43.5355 -43.5166 -43.4877 -43.4751 -43.4306 -43.4173 -43.4081 -43.3986
   -43.3839 -43.3738 -43.3533 -43.3184 -43.3141 -43.2343 -43.2260 -43.1821
   -13.5550  -5.6383  -4.7412  -3.9540  -3.8009  -3.6018  -3.4163  -3.3222
    -3.3070  -3.0731  -3.0280  -2.8316  -2.5660  -2.3737  -2.2968  -2.1368
    -1.9853  -1.7570  -1.6914  -1.6538  -1.6049  -1.3770  -1.2052  -1.0526
    -0.9710  -0.7171  -0.5281  -0.4997  -0.3768  -0.3468  -0.3108  -0.2256
    -0.1856  -0.1248  -0.0173   0.1927   0.3827   0.4379   0.5054   0.6052
     0.7097   0.7989   1.0882   1.1262   1.2201   1.4784   1.6214   1.6590
     1.8477   1.9121   2.0351   2.0766   2.2392   2.4254   2.6980   2.7814
     3.0581   3.2142   3.3343   3.3751   3.5837

          k =-0.0919 0.0531 0.0000 ( 15968 PWs)   bands (ev):

   -84.7521 -84.7379 -84.7212 -84.5913 -84.3487 -84.3362 -84.3196 -84.2110
   -84.2079 -84.1817 -84.1778 -84.1498 -44.2988 -44.2437 -44.1733 -44.1485
   -44.0972 -44.0689 -44.0481 -44.0362 -44.0074 -43.9270 -43.7996 -43.7513
   -43.7325 -43.6810 -43.6516 -43.6440 -43.6081 -43.5900 -43.5654 -43.5489
   -43.5311 -43.5058 -43.4718 -43.4674 -43.4375 -43.4222 -43.4156 -43.4139
   -43.3952 -43.3784 -43.3683 -43.3651 -43.3214 -43.2124 -43.1921 -43.1856
   -13.5550  -5.3422  -5.3331  -3.7977  -3.7758  -3.3575  -3.3301  -3.3176
    -3.3089  -3.2782  -3.2491  -2.6267  -2.6077  -2.2808  -2.2401  -2.0820
    -2.0766  -1.7344  -1.7235  -1.6702  -1.6604  -1.3185  -1.2425  -0.8542
    -0.7573  -0.5815  -0.4091  -0.4042  -0.3281  -0.2896  -0.2739  -0.1813
    -0.0410  -0.0015   0.0671   0.1292   0.1724   0.2313   0.2547   0.4876
     0.4946   0.9533   1.1410   1.1845   1.2984   1.3365   1.5038   1.5871
     1.7040   1.8919   2.0127   2.1034   2.2828   2.3110   2.4767   2.5050
     2.7378   2.9018   2.9997   3.0750   3.1073

          k =-0.0919 0.0884 0.0000 ( 15922 PWs)   bands (ev):

   -84.7526 -84.7367 -84.7219 -84.5913 -84.3493 -84.3350 -84.3202 -84.2149
   -84.2002 -84.1892 -84.1741 -84.1498 -44.2896 -44.2201 -44.1786 -44.1543
   -44.1346 -44.1021 -44.0655 -44.0330 -43.9625 -43.8668 -43.7944 -43.7772
   -43.7147 -43.7018 -43.6772 -43.6487 -43.6203 -43.5897 -43.5715 -43.5469
   -43.5358 -43.5165 -43.4878 -43.4752 -43.4306 -43.4173 -43.4081 -43.3986
   -43.3839 -43.3738 -43.3534 -43.3183 -43.3140 -43.2343 -43.2260 -43.1821
   -13.5550  -5.6383  -4.7412  -3.9540  -3.8009  -3.6018  -3.4163  -3.3222
    -3.3070  -3.0731  -3.0280  -2.8316  -2.5660  -2.3737  -2.2968  -2.1368
    -1.9853  -1.7569  -1.6915  -1.6538  -1.6049  -1.3770  -1.2052  -1.0526
    -0.9710  -0.7170  -0.5281  -0.4997  -0.3769  -0.3468  -0.3108  -0.2256
    -0.1856  -0.1248  -0.0173   0.1928   0.3827   0.4379   0.5053   0.6052
     0.7097   0.7989   1.0883   1.1262   1.2201   1.4784   1.6214   1.6590
     1.8477   1.9121   2.0351   2.0766   2.2392   2.4254   2.6980   2.7814
     3.0581   3.2142   3.3343   3.3751   3.5837

          k =-0.0919 0.1238 0.0000 ( 15922 PWs)   bands (ev):

   -84.7526 -84.7367 -84.7218 -84.5913 -84.3495 -84.3344 -84.3205 -84.2149
   -84.2002 -84.1891 -84.1741 -84.1498 -44.2896 -44.2201 -44.1786 -44.1543
   -44.1346 -44.1020 -44.0655 -44.0330 -43.9626 -43.8668 -43.7945 -43.7772
   -43.7144 -43.7019 -43.6770 -43.6488 -43.6203 -43.5899 -43.5715 -43.5470
   -43.5358 -43.5166 -43.4876 -43.4751 -43.4306 -43.4173 -43.4081 -43.3985
   -43.3840 -43.3739 -43.3534 -43.3185 -43.3141 -43.2343 -43.2257 -43.1822
   -13.5550  -5.6383  -4.7412  -3.9540  -3.8009  -3.6018  -3.4163  -3.3222
    -3.3070  -3.0731  -3.0280  -2.8316  -2.5660  -2.3737  -2.2968  -2.1368
    -1.9853  -1.7569  -1.6915  -1.6538  -1.6049  -1.3770  -1.2052  -1.0526
    -0.9710  -0.7170  -0.5281  -0.4997  -0.3768  -0.3468  -0.3108  -0.2256
    -0.1856  -0.1248  -0.0173   0.1927   0.3827   0.4379   0.5053   0.6052
     0.7097   0.7989   1.0883   1.1262   1.2201   1.4784   1.6214   1.6589
     1.8477   1.9121   2.0351   2.0766   2.2392   2.4254   2.6980   2.7814
     3.0581   3.2142   3.3343   3.3751   3.5837

          k =-0.0919-0.0531 0.0000 ( 15968 PWs)   bands (ev):

   -84.7520 -84.7380 -84.7211 -84.5913 -84.3493 -84.3350 -84.3202 -84.2109
   -84.2080 -84.1816 -84.1779 -84.1498 -44.2988 -44.2438 -44.1732 -44.1487
   -44.0971 -44.0689 -44.0482 -44.0363 -44.0073 -43.9270 -43.7999 -43.7511
   -43.7321 -43.6810 -43.6514 -43.6439 -43.6077 -43.5902 -43.5659 -43.5492
   -43.5305 -43.5062 -43.4717 -43.4674 -43.4374 -43.4222 -43.4155 -43.4140
   -43.3951 -43.3785 -43.3683 -43.3651 -43.3220 -43.2121 -43.1920 -43.1857
   -13.5550  -5.3422  -5.3332  -3.7978  -3.7757  -3.3574  -3.3301  -3.3176
    -3.3088  -3.2782  -3.2491  -2.6266  -2.6077  -2.2809  -2.2400  -2.0820
    -2.0765  -1.7344  -1.7235  -1.6702  -1.6604  -1.3186  -1.2423  -0.8541
    -0.7573  -0.5815  -0.4090  -0.4043  -0.3281  -0.2897  -0.2739  -0.1813
    -0.0410  -0.0015   0.0671   0.1292   0.1723   0.2313   0.2548   0.4876
     0.4945   0.9533   1.1409   1.1846   1.2984   1.3365   1.5038   1.5870
     1.7040   1.8920   2.0127   2.1035   2.2826   2.3112   2.4766   2.5051
     2.7377   2.9018   2.9997   3.0750   3.1074

     the Fermi energy is     2.3341 ev

!    total energy              =   -2429.70166855 Ry
     Harris-Foulkes estimate   =   -2429.70162744 Ry
     estimated scf accuracy    <       0.00000396 Ry

     The total energy is the sum of the following terms:

     one-electron contribution =  -21876.78848132 Ry
     hartree contribution      =   10919.93509764 Ry
     xc contribution           =    -471.52723146 Ry
     ewald contribution        =    8998.74882867 Ry
     electric field correction =       0.00085025 Ry
     smearing contrib. (-TS)   =      -0.07073233 Ry

     convergence has been achieved in  21 iterations
 
 BEEF-vdW xc energy contributions
           1 :   -412.929654887144     
           2 :    382.282067146859     
           3 :   -328.337106891271     
           4 :    262.989512918497     
           5 :   -198.869465108320     
           6 :    145.935349458493     
           7 :   -109.322867287594     
           8 :    88.8892976309129     
           9 :   -80.4087502891305     
          10 :    77.8063921119287     
          11 :   -75.5292774841726     
          12 :    70.2075021173888     
          13 :   -61.1870649181977     
          14 :    49.9992070736517     
          15 :   -39.1762913147363     
          16 :    30.9573726590765     
          17 :   -26.3867106615927     
          18 :    25.0671562562646     
          19 :   -25.5419957009696     
          20 :    26.0416067022708     
          21 :   -25.2407736816838     
          22 :    22.7160595121035     
          23 :   -18.9606045693746     
          24 :    15.0125526188232     
          25 :   -11.9113800220002     
          26 :    10.2328087376112     
          27 :   -9.89105402362173     
          28 :    10.2594069175066     
          29 :   -10.5206480448134     
          30 :    10.0643467506020     
          31 :   -39.2412793678341     
          32 :   -29.8765444636253     

     Forces acting on atoms (Ry/au):


     negative rho (up, down):  1.514E+00 0.000E+00
     atom    1 type  1   force =     0.00001675   -0.00004851    0.03549660
     atom    2 type  1   force =    -0.00001953    0.00493677    0.02948605
     atom    3 type  1   force =     0.00431910   -0.00245784    0.02940933
     atom    4 type  1   force =    -0.00431512   -0.00243523    0.02948562
     atom    5 type  1   force =    -0.00259881    0.00155003    0.01013531
     atom    6 type  1   force =     0.00260724    0.00146589    0.01022559
     atom    7 type  1   force =    -0.00011268    0.00001029    0.01169974
     atom    8 type  1   force =     0.00008946   -0.00301042    0.01018816
     atom    9 type  1   force =     0.02476932    0.01423136    0.01391016
     atom   10 type  1   force =    -0.02474252    0.01421941    0.01395466
     atom   11 type  1   force =     0.00001514   -0.02851681    0.01398581
     atom   12 type  1   force =    -0.00000177    0.00005251   -0.04688243
     atom   13 type  2   force =    -0.00002657    0.00000255   -0.16109458

     Total force =     0.188652     Total SCF correction =     0.016136


     entering subroutine stress ...


     negative rho (up, down):  1.514E+00 0.000E+00
          total   stress  (Ry/bohr**3)                   (kbar)     P=  -45.51
  -0.00023855   0.00000004   0.00000001        -35.09      0.01      0.00
   0.00000004  -0.00023856   0.00000001          0.01    -35.09      0.00
   0.00000001   0.00000001  -0.00045095          0.00      0.00    -66.34

 !ASE

     Writing output data file calc.save
 
     init_run     :      5.19s CPU      7.16s WALL (       1 calls)
     electrons    :    296.03s CPU    371.38s WALL (       1 calls)
     forces       :      3.58s CPU      3.79s WALL (       1 calls)
     stress       :     15.07s CPU     15.70s WALL (       1 calls)

     Called by init_run:
     wfcinit      :      3.30s CPU      4.85s WALL (       1 calls)
     potinit      :      0.41s CPU      0.61s WALL (       1 calls)

     Called by electrons:
     c_bands      :    226.64s CPU    286.52s WALL (      21 calls)
     sum_band     :     37.54s CPU     46.04s WALL (      21 calls)
     v_of_rho     :      5.66s CPU      8.25s WALL (      22 calls)
     newd         :     19.17s CPU     19.49s WALL (      22 calls)
     mix_rho      :      0.24s CPU      0.34s WALL (      21 calls)
     vdW_energy   :      2.21s CPU      2.43s WALL (      58 calls)
     vdW_ffts     :      5.65s CPU     10.19s WALL (     118 calls)
     vdW_v        :      1.64s CPU      2.32s WALL (      58 calls)

     Called by c_bands:
     init_us_2    :      1.57s CPU      1.59s WALL (     900 calls)
     cegterg      :    211.77s CPU    271.34s WALL (     420 calls)

     Called by *egterg:
     h_psi        :     88.79s CPU    133.51s WALL (    2171 calls)
     s_psi        :     14.45s CPU     14.81s WALL (    2171 calls)
     g_psi        :      0.61s CPU      0.62s WALL (    1731 calls)
     cdiaghg      :     73.80s CPU     74.79s WALL (    2151 calls)

     Called by h_psi:
     add_vuspsi   :     16.01s CPU     16.35s WALL (    2171 calls)

     General routines
     calbec       :     23.28s CPU     26.74s WALL (    2631 calls)
     fft          :      8.49s CPU     15.41s WALL (    3555 calls)
     ffts         :      0.02s CPU      0.05s WALL (      43 calls)
     fftw         :     59.21s CPU    107.54s WALL (  285388 calls)
     interpolate  :      0.11s CPU      0.21s WALL (      43 calls)
     davcio       :      0.00s CPU      0.17s WALL (      20 calls)
 
     Parallel routines
     fft_scatter  :     45.57s CPU     98.96s WALL (  288986 calls)
 
     PWSCF        :  5m20.64s CPU     6m39.62s WALL

 
   This run was terminated on:  16:23:46  17Jan2018            

=------------------------------------------------------------------------------=
   JOB DONE.
=------------------------------------------------------------------------------=
Job  /afs/slac/g/suncat/bin/suncat-tsmpirun -x LD_LIBRARY_PATH -wdir /scratch/qe842464_M73qc pw.x -in pw.inp

TID   HOST_NAME   COMMAND_LINE            STATUS            TERMINATION_TIME
===== ========== ================  =======================  ===================
00000 suncat2041 pw.x -in pw.inp   Done                     01/17/2018 16:23:46
00001 suncat2041 pw.x -in pw.inp   Done                     01/17/2018 16:23:46
00002 suncat2041 pw.x -in pw.inp   Done                     01/17/2018 16:23:46
00003 suncat2041 pw.x -in pw.inp   Done                     01/17/2018 16:23:46
00004 suncat2041 pw.x -in pw.inp   Done                     01/17/2018 16:23:46
00005 suncat2041 pw.x -in pw.inp   Done                     01/17/2018 16:23:46
00006 suncat2041 pw.x -in pw.inp   Done                     01/17/2018 16:23:46
00007 suncat2041 pw.x -in pw.inp   Done                     01/17/2018 16:23:46
00008 suncat2041 pw.x -in pw.inp   Done                     01/17/2018 16:23:46
00009 suncat2041 pw.x -in pw.inp   Done                     01/17/2018 16:23:46
00010 suncat2041 pw.x -in pw.inp   Done                     01/17/2018 16:23:46
00011 suncat2041 pw.x -in pw.inp   Done                     01/17/2018 16:23:46
00012 suncat2041 pw.x -in pw.inp   Done                     01/17/2018 16:23:46
00013 suncat2041 pw.x -in pw.inp   Done                     01/17/2018 16:23:46
00014 suncat2041 pw.x -in pw.inp   Done                     01/17/2018 16:23:46
00015 suncat2041 pw.x -in pw.inp   Done                     01/17/2018 16:23:46
00016 suncat2040 pw.x -in pw.inp   Done                     01/17/2018 16:23:46
00017 suncat2040 pw.x -in pw.inp   Done                     01/17/2018 16:23:46
00018 suncat2040 pw.x -in pw.inp   Done                     01/17/2018 16:23:46
00019 suncat2040 pw.x -in pw.inp   Done                     01/17/2018 16:23:46
00020 suncat2040 pw.x -in pw.inp   Done                     01/17/2018 16:23:46
00021 suncat2040 pw.x -in pw.inp   Done                     01/17/2018 16:23:46
00022 suncat2040 pw.x -in pw.inp   Done                     01/17/2018 16:23:46
00023 suncat2040 pw.x -in pw.inp   Done                     01/17/2018 16:23:46
00024 suncat2040 pw.x -in pw.inp   Done                     01/17/2018 16:23:46
00025 suncat2040 pw.x -in pw.inp   Done                     01/17/2018 16:23:46
00026 suncat2040 pw.x -in pw.inp   Done                     01/17/2018 16:23:46
00027 suncat2040 pw.x -in pw.inp   Done                     01/17/2018 16:23:46
00028 suncat2040 pw.x -in pw.inp   Done                     01/17/2018 16:23:46
00029 suncat2040 pw.x -in pw.inp   Done                     01/17/2018 16:23:46
00030 suncat2040 pw.x -in pw.inp   Done                     01/17/2018 16:23:46
00031 suncat2040 pw.x -in pw.inp   Done                     01/17/2018 16:23:46

     Program PWSCF v.5.1rc2 (svn rev. 11289) starts on 17Jan2018 at 16:23:52 

     This program is part of the open-source Quantum ESPRESSO suite
     for quantum simulation of materials; please cite
         "P. Giannozzi et al., J. Phys.:Condens. Matter 21 395502 (2009);
          URL http://www.quantum-espresso.org", 
     in publications or presentations arising from this work. More details at
     http://www.quantum-espresso.org/quote

     Parallel version (MPI), running on    32 processors
     R & G space division:  proc/nbgrp/npool/nimage =      32
     Reading input from pw.inp
     Message from routine read_cards :
     DEPRECATED: no units specified in CELL_PARAMETERS card

     Current dimensions of program PWSCF are:
     Max number of different atomic species (ntypx) = 10
     Max number of k-points (npk) =  40000
     Max angular momentum in pseudopotentials (lmaxx) =  3
     Presently stress not available with electric field


     **************************************************************************
     Initializing libbeef V0.1.1 with the BEEF-vdW functional.
     Citation: Wellendorff et al., PRB 85, 235149 (2012).
     **************************************************************************


     IMPORTANT: XC functional enforced from input :
     Exchange-correlation      = BEEF-VDW ( 1  4 27 13 2)
     Any further DFT definition will be discarded
     Please, verify this is what you really want


     Subspace diagonalization in iterative solution of the eigenvalue problem:
     a serial algorithm will be used

 
     Parallelization info
     --------------------
     sticks:   dense  smooth     PW     G-vecs:    dense   smooth      PW
     Min          83      33      9                15713     3963     619
     Max          84      34     10                15736     4002     646
     Sum        2677    1069    313               503261   127391   20329
 


     bravais-lattice index     =            0
     lattice parameter (alat)  =       1.8897  a.u.
     unit-cell volume          =    4228.3700 (a.u.)^3
     number of atoms/cell      =           13
     number of atomic types    =            2
     number of electrons       =       198.00
     number of Kohn-Sham states=          109
     kinetic-energy cutoff     =      36.7493  Ry
     charge density cutoff     =     367.4932  Ry
     convergence threshold     =      1.0E-05
     mixing beta               =       0.3000
     number of iterations used =           10  plain     mixing
     Exchange-correlation      = BEEF-VDW ( 1  4 27 13 2)
     nstep                     =           50


     celldm(1)=   1.889726  celldm(2)=   0.000000  celldm(3)=   0.000000
     celldm(4)=   0.000000  celldm(5)=   0.000000  celldm(6)=   0.000000

     crystal axes: (cart. coord. in units of alat)
               a(1) = (   5.440665   0.000000   0.000000 )  
               a(2) = (   2.720332   4.711754   0.000000 )  
               a(3) = (   0.000000   0.000000  24.442284 )  

     reciprocal axes: (cart. coord. in units 2 pi/alat)
               b(1) = (  0.183801 -0.106118  0.000000 )  
               b(2) = (  0.000000  0.212235  0.000000 )  
               b(3) = (  0.000000  0.000000  0.040913 )  


     PseudoPot. # 1 for Os read from file:
     /afs/slac.stanford.edu/u/if/mamunm/psp/gbrv1.5pbe/Os.UPF
     MD5 check sum: a3fb40a04f0c37c25c34bbc47164c9a8
     Pseudo is Ultrasoft + core correction, Zval = 16.0
     Generated by new atomic code, or converted to UPF format
     Using radial grid of  983 points,  8 beta functions with: 
                l(1) =   0
                l(2) =   0
                l(3) =   1
                l(4) =   1
                l(5) =   2
                l(6) =   2
                l(7) =   3
                l(8) =   3
     Q(r) pseudized with  8 coefficients,  rinner =    1.150   1.150   1.150
                                                       1.150   1.150   1.150
                                                       1.150

     PseudoPot. # 2 for O  read from file:
     /afs/slac.stanford.edu/u/if/mamunm/psp/gbrv1.5pbe/O.UPF
     MD5 check sum: 734c27235a0248c51dbae37a1fbe46ec
     Pseudo is Ultrasoft + core correction, Zval =  6.0
     Generated by new atomic code, or converted to UPF format
     Using radial grid of  737 points,  5 beta functions with: 
                l(1) =   0
                l(2) =   0
                l(3) =   1
                l(4) =   1
                l(5) =   2
     Q(r) pseudized with  8 coefficients,  rinner =    0.900   0.900   0.900
                                                       0.900   0.900

     vdW kernel table read from file vdW_kernel_table
     MD5 check sum: 095c7af220d748ca6e76c0b4c6cfb241

     atomic species   valence    mass     pseudopotential
        Os1           16.00   190.23000     Os( 1.00)
        O1             6.00    15.99900     O ( 1.00)

     No symmetry found



   Cartesian axes

     site n.     atom                  positions (alat units)
         1           Os1 tau(   1) = (   1.3601662   0.7852923  10.0000000  )
         2           Os1 tau(   2) = (   4.0804987   0.7852923  10.0000000  )
         3           Os1 tau(   3) = (   2.7203325   3.1411694  10.0000000  )
         4           Os1 tau(   4) = (   5.4406649   3.1411694  10.0000000  )
         5           Os1 tau(   5) = (   5.4406649   1.5705847  12.2211422  )
         6           Os1 tau(   6) = (   2.7203325   1.5705847  12.2211422  )
         7           Os1 tau(   7) = (   6.8008312   3.9264617  12.2211422  )
         8           Os1 tau(   8) = (   4.0804987   3.9264617  12.2211422  )
         9           Os1 tau(   9) = (   0.0636845   0.0365903  14.4780488  )
        10           Os1 tau(  10) = (   2.6567169   0.0365596  14.4781632  )
        11           Os1 tau(  11) = (   1.3602052   2.2825574  14.4782433  )
        12           Os1 tau(  12) = (   4.0804942   2.3560120  14.3217448  )
        13           O1  tau(  13) = (   1.3600979   0.7852989  16.1280935  )

     number of k points=    20  Fermi-Dirac smearing, width (Ry)=  0.0110
                       cart. coord. in units 2pi/alat
        k(    1) = (   0.0000000   0.0000000   0.0000000), wk =   0.0555556
        k(    2) = (   0.0000000   0.0353725   0.0000000), wk =   0.1111111
        k(    3) = (   0.0000000   0.0707451   0.0000000), wk =   0.1111111
        k(    4) = (   0.0000000  -0.1061176   0.0000000), wk =   0.0555556
        k(    5) = (   0.0306335  -0.0176863   0.0000000), wk =   0.1111111
        k(    6) = (   0.0306335   0.0176863   0.0000000), wk =   0.1111111
        k(    7) = (   0.0306335   0.0530588   0.0000000), wk =   0.1111111
        k(    8) = (   0.0306335  -0.1238039   0.0000000), wk =   0.1111111
        k(    9) = (   0.0306335  -0.0884313   0.0000000), wk =   0.1111111
        k(   10) = (   0.0306335  -0.0530588   0.0000000), wk =   0.1111111
        k(   11) = (   0.0612670  -0.0353725   0.0000000), wk =   0.1111111
        k(   12) = (   0.0612670   0.0000000   0.0000000), wk =   0.1111111
        k(   13) = (   0.0612670   0.0353725   0.0000000), wk =   0.1111111
        k(   14) = (   0.0612670  -0.1414901   0.0000000), wk =   0.1111111
        k(   15) = (   0.0612670  -0.1061176   0.0000000), wk =   0.1111111
        k(   16) = (   0.0612670  -0.0707451   0.0000000), wk =   0.1111111
        k(   17) = (  -0.0919005   0.0530588   0.0000000), wk =   0.0555556
        k(   18) = (  -0.0919005   0.0884313   0.0000000), wk =   0.1111111
        k(   19) = (  -0.0919005   0.1238039   0.0000000), wk =   0.1111111
        k(   20) = (  -0.0919005  -0.0530588   0.0000000), wk =   0.0555556

     Dense  grid:   503261 G-vectors     FFT dimensions: (  64,  64, 288)

     Smooth grid:   127391 G-vectors     FFT dimensions: (  40,  40, 180)

     Largest allocated arrays     est. size (Mb)     dimensions
        Kohn-Sham Wavefunctions         0.88 Mb     (     531,  109)
        NL pseudopotentials             3.22 Mb     (     531,  397)
        Each V/rho on FFT grid          0.56 Mb     (   36864)
        Each G-vector array             0.12 Mb     (   15717)
        G-vector shells                 0.05 Mb     (    7001)
     Largest temporary arrays     est. size (Mb)     dimensions
        Auxiliary wavefunctions         3.53 Mb     (     531,  436)
        Each subspace H/S matrix        2.90 Mb     (     436,  436)
        Each <psi_i|beta_j> matrix      0.66 Mb     (     397,  109)
        Arrays for rho mixing           5.62 Mb     (   36864,   10)

     Initial potential from superposition of free atoms
     Check: negative starting charge=   -1.490895

     starting charge  191.99956, renormalised to  198.00000

     negative rho (up, down):  1.537E+00 0.000E+00


     ************************************************************************
     *
     * You are using vdW-DF for exchange-correlation in this calculation.
     * Please cite the following three references that made this development
     * possible:
     *
     *   M. Dion, H. Rydberg, E. Schroder, D. C. Langreth, and
     *   B. I. Lundqvist, Phys. Rev. Lett. 92, 246401 (2004).
     *
     *   T. Thonhauser, V. R. Cooper, S. Li, A. Puzder, P. Hyldgaard, and
     *   D. C. Langreth, Phys. Rev. B 76, 125112 (2007).
     *
     *   G. Roman-Perez and J. M. Soler, Phys. Rev. Lett. 103, 096102 (2009).
     *
     *
     * If you are using vdW-DF2, please also cite:
     *
     *   K. Lee, E. D. Murray, L. Kong, B. I. Lundqvist, and
     *   D. C. Langreth, Phys. Rev. B 82, 081101(R) (2010).
     *
     *
     * If you are calculating the stress with vdW-DF, please also cite:
     *
     *   R. Sabatini, E. Kucukbenli, B. Kolb, T. Thonhauser, and
     *   S. de Gironcoli, J. Phys.: Condens. Matter 24, 424209 (2012).
     *
     ************************************************************************

     Carrying out vdW-DF run using the following parameters:

     Nqs =      20    Nr_points =    1024   r_max =   100.000
     q_mesh =
               0.00001000     0.04494208     0.09755937     0.15916263
               0.23128650     0.31572767     0.41458969     0.53033537
               0.66584808     0.82450364     1.01025438     1.22772762
               1.48234092     1.78043706     2.12944203     2.53805004
               3.01644009     3.57652955     4.23227104     5.00000000

     Gradients computed in reciprocal space

     ************************************************************************


 
     Adding external electric field

     Computed dipole along edir(3) : 
        Dipole               -1.3848 Ry au,         -3.5198 Debye
        Dipole field         -0.0041 Ry au
 
        Potential amp.        0.3707 Ry
        Total length         45.0345 bohr
 
     Starting wfc are  160 randomized atomic wfcs

     total cpu time spent up to now is        7.3 secs

     Self-consistent Calculation

     iteration #  1     ecut=    36.75 Ry     beta=0.30
     Davidson diagonalization with overlap
     ethr =  1.00E-02,  avg # of iterations =  2.0

     negative rho (up, down):  1.536E+00 0.000E+00
 
     Adding external electric field

     Computed dipole along edir(3) : 
        Dipole               20.3149 Ry au,         51.6352 Debye
        Dipole field          0.0604 Ry au
 
        Potential amp.       -5.4378 Ry
        Total length         45.0345 bohr
 

     total cpu time spent up to now is       21.9 secs

     total energy              =   -2397.65777740 Ry
     Harris-Foulkes estimate   =   -2430.22735548 Ry
     estimated scf accuracy    <      67.10676334 Ry

     iteration #  2     ecut=    36.75 Ry     beta=0.30
     Davidson diagonalization with overlap
     ethr =  1.00E-02,  avg # of iterations = 12.3

     negative rho (up, down):  1.532E+00 0.000E+00
 
     Adding external electric field

     Computed dipole along edir(3) : 
        Dipole               -3.6058 Ry au,         -9.1651 Debye
        Dipole field         -0.0107 Ry au
 
        Potential amp.        0.9652 Ry
        Total length         45.0345 bohr
 

     total cpu time spent up to now is       64.9 secs

     total energy              =   -2258.23550914 Ry
     Harris-Foulkes estimate   =   -2643.85700812 Ry
     estimated scf accuracy    <   10868.55192120 Ry

     iteration #  3     ecut=    36.75 Ry     beta=0.30
     Davidson diagonalization with overlap
     ethr =  1.00E-02,  avg # of iterations =  9.2

     negative rho (up, down):  1.530E+00 0.000E+00
 
     Adding external electric field

     Computed dipole along edir(3) : 
        Dipole               -2.1692 Ry au,         -5.5135 Debye
        Dipole field         -0.0064 Ry au
 
        Potential amp.        0.5806 Ry
        Total length         45.0345 bohr
 

     total cpu time spent up to now is       95.6 secs

     total energy              =   -2418.56104571 Ry
     Harris-Foulkes estimate   =   -2462.82277342 Ry
     estimated scf accuracy    <     864.76123930 Ry

     iteration #  4     ecut=    36.75 Ry     beta=0.30
     Davidson diagonalization with overlap
     ethr =  1.00E-02,  avg # of iterations =  5.9

     negative rho (up, down):  1.528E+00 0.000E+00
 
     Adding external electric field

     Computed dipole along edir(3) : 
        Dipole               -1.3474 Ry au,         -3.4247 Debye
        Dipole field         -0.0040 Ry au
 
        Potential amp.        0.3607 Ry
        Total length         45.0345 bohr
 

     total cpu time spent up to now is      120.0 secs

     total energy              =   -2429.15742139 Ry
     Harris-Foulkes estimate   =   -2431.47294565 Ry
     estimated scf accuracy    <      42.09402583 Ry

     iteration #  5     ecut=    36.75 Ry     beta=0.30
     Davidson diagonalization with overlap
     ethr =  1.00E-02,  avg # of iterations =  1.0

     negative rho (up, down):  1.527E+00 0.000E+00
 
     Adding external electric field

     Computed dipole along edir(3) : 
        Dipole               -1.4504 Ry au,         -3.6865 Debye
        Dipole field         -0.0043 Ry au
 
        Potential amp.        0.3882 Ry
        Total length         45.0345 bohr
 

     total cpu time spent up to now is      131.4 secs

     total energy              =   -2429.56803719 Ry
     Harris-Foulkes estimate   =   -2429.99051916 Ry
     estimated scf accuracy    <      10.37770887 Ry

     iteration #  6     ecut=    36.75 Ry     beta=0.30
     Davidson diagonalization with overlap
     ethr =  5.24E-03,  avg # of iterations =  1.9

     negative rho (up, down):  1.525E+00 0.000E+00
 
     Adding external electric field

     Computed dipole along edir(3) : 
        Dipole               -1.2920 Ry au,         -3.2840 Debye
        Dipole field         -0.0038 Ry au
 
        Potential amp.        0.3458 Ry
        Total length         45.0345 bohr
 

     total cpu time spent up to now is      143.8 secs

     total energy              =   -2429.62131562 Ry
     Harris-Foulkes estimate   =   -2429.80707621 Ry
     estimated scf accuracy    <       0.85913163 Ry

     iteration #  7     ecut=    36.75 Ry     beta=0.30
     Davidson diagonalization with overlap
     ethr =  4.34E-04,  avg # of iterations =  5.3

     negative rho (up, down):  1.519E+00 0.000E+00
 
     Adding external electric field

     Computed dipole along edir(3) : 
        Dipole               -1.3091 Ry au,         -3.3275 Debye
        Dipole field         -0.0039 Ry au
 
        Potential amp.        0.3504 Ry
        Total length         45.0345 bohr
 

     total cpu time spent up to now is      164.7 secs

     total energy              =   -2429.73439528 Ry
     Harris-Foulkes estimate   =   -2429.95681243 Ry
     estimated scf accuracy    <       6.93255158 Ry

     iteration #  8     ecut=    36.75 Ry     beta=0.30
     Davidson diagonalization with overlap
     ethr =  4.34E-04,  avg # of iterations =  3.9

     negative rho (up, down):  1.514E+00 0.000E+00
 
     Adding external electric field

     Computed dipole along edir(3) : 
        Dipole               -1.2878 Ry au,         -3.2733 Debye
        Dipole field         -0.0038 Ry au
 
        Potential amp.        0.3447 Ry
        Total length         45.0345 bohr
 

     total cpu time spent up to now is      179.3 secs

     total energy              =   -2429.82405792 Ry
     Harris-Foulkes estimate   =   -2429.83976242 Ry
     estimated scf accuracy    <       0.10441386 Ry

     iteration #  9     ecut=    36.75 Ry     beta=0.30
     Davidson diagonalization with overlap
     ethr =  5.27E-05,  avg # of iterations =  5.2

     negative rho (up, down):  1.512E+00 0.000E+00
 
     Adding external electric field

     Computed dipole along edir(3) : 
        Dipole               -1.2312 Ry au,         -3.1293 Debye
        Dipole field         -0.0037 Ry au
 
        Potential amp.        0.3296 Ry
        Total length         45.0345 bohr
 

     total cpu time spent up to now is      198.9 secs

     total energy              =   -2429.83976973 Ry
     Harris-Foulkes estimate   =   -2429.85050281 Ry
     estimated scf accuracy    <       0.33769903 Ry

     iteration # 10     ecut=    36.75 Ry     beta=0.30
     Davidson diagonalization with overlap
     ethr =  5.27E-05,  avg # of iterations =  1.0

     negative rho (up, down):  1.511E+00 0.000E+00
 
     Adding external electric field

     Computed dipole along edir(3) : 
        Dipole               -1.1477 Ry au,         -2.9172 Debye
        Dipole field         -0.0034 Ry au
 
        Potential amp.        0.3072 Ry
        Total length         45.0345 bohr
 

     total cpu time spent up to now is      210.5 secs

     total energy              =   -2429.83215492 Ry
     Harris-Foulkes estimate   =   -2429.84229579 Ry
     estimated scf accuracy    <       0.13651357 Ry

     iteration # 11     ecut=    36.75 Ry     beta=0.30
     Davidson diagonalization with overlap
     ethr =  5.27E-05,  avg # of iterations =  1.6

     negative rho (up, down):  1.509E+00 0.000E+00
 
     Adding external electric field

     Computed dipole along edir(3) : 
        Dipole               -1.0566 Ry au,         -2.6855 Debye
        Dipole field         -0.0031 Ry au
 
        Potential amp.        0.2828 Ry
        Total length         45.0345 bohr
 

     total cpu time spent up to now is      222.7 secs

     total energy              =   -2429.83366589 Ry
     Harris-Foulkes estimate   =   -2429.83634930 Ry
     estimated scf accuracy    <       0.01819904 Ry

     iteration # 12     ecut=    36.75 Ry     beta=0.30
     Davidson diagonalization with overlap
     ethr =  9.19E-06,  avg # of iterations =  6.5

     negative rho (up, down):  1.509E+00 0.000E+00
 
     Adding external electric field

     Computed dipole along edir(3) : 
        Dipole               -1.0333 Ry au,         -2.6264 Debye
        Dipole field         -0.0031 Ry au
 
        Potential amp.        0.2766 Ry
        Total length         45.0345 bohr
 

     total cpu time spent up to now is      241.7 secs

     total energy              =   -2429.83439018 Ry
     Harris-Foulkes estimate   =   -2429.83603297 Ry
     estimated scf accuracy    <       0.03517918 Ry

     iteration # 13     ecut=    36.75 Ry     beta=0.30
     Davidson diagonalization with overlap
     ethr =  9.19E-06,  avg # of iterations =  1.0

     negative rho (up, down):  1.504E+00 0.000E+00
 
     Adding external electric field

     Computed dipole along edir(3) : 
        Dipole               -0.5358 Ry au,         -1.3619 Debye
        Dipole field         -0.0016 Ry au
 
        Potential amp.        0.1434 Ry
        Total length         45.0345 bohr
 

     total cpu time spent up to now is      253.2 secs

     total energy              =   -2429.82649994 Ry
     Harris-Foulkes estimate   =   -2429.83695722 Ry
     estimated scf accuracy    <       0.02021260 Ry

     iteration # 14     ecut=    36.75 Ry     beta=0.30
     Davidson diagonalization with overlap
     ethr =  9.19E-06,  avg # of iterations =  4.8

     negative rho (up, down):  1.507E+00 0.000E+00
 
     Adding external electric field

     Computed dipole along edir(3) : 
        Dipole               -0.4063 Ry au,         -1.0327 Debye
        Dipole field         -0.0012 Ry au
 
        Potential amp.        0.1088 Ry
        Total length         45.0345 bohr
 

     total cpu time spent up to now is      271.4 secs

     total energy              =   -2429.82627947 Ry
     Harris-Foulkes estimate   =   -2429.83282083 Ry
     estimated scf accuracy    <       0.05235753 Ry

     iteration # 15     ecut=    36.75 Ry     beta=0.30
     Davidson diagonalization with overlap
     ethr =  9.19E-06,  avg # of iterations =  4.3

     negative rho (up, down):  1.508E+00 0.000E+00
 
     Adding external electric field

     Computed dipole along edir(3) : 
        Dipole               -0.3483 Ry au,         -0.8852 Debye
        Dipole field         -0.0010 Ry au
 
        Potential amp.        0.0932 Ry
        Total length         45.0345 bohr
 

     total cpu time spent up to now is      287.4 secs

     total energy              =   -2429.82955803 Ry
     Harris-Foulkes estimate   =   -2429.83001731 Ry
     estimated scf accuracy    <       0.01111955 Ry

     iteration # 16     ecut=    36.75 Ry     beta=0.30
     Davidson diagonalization with overlap
     ethr =  5.62E-06,  avg # of iterations =  1.1

     negative rho (up, down):  1.509E+00 0.000E+00
 
     Adding external electric field

     Computed dipole along edir(3) : 
        Dipole               -0.2827 Ry au,         -0.7187 Debye
        Dipole field         -0.0008 Ry au
 
        Potential amp.        0.0757 Ry
        Total length         45.0345 bohr
 

     total cpu time spent up to now is      299.2 secs

     total energy              =   -2429.82969055 Ry
     Harris-Foulkes estimate   =   -2429.82998277 Ry
     estimated scf accuracy    <       0.00587416 Ry

     iteration # 17     ecut=    36.75 Ry     beta=0.30
     Davidson diagonalization with overlap
     ethr =  2.97E-06,  avg # of iterations =  1.0

[...]
    -0.2677  -0.1349  -0.0449   0.0194   0.1422   0.2643   0.2906   0.6479
     0.6975   0.7898   0.8660   1.0058   1.0503   1.1522   1.5195   1.5942
     1.7107   1.7647   1.8935   2.1076   2.1589   2.3147   2.4721   2.5938
     2.6161   3.0471   3.0900   3.4212   3.4861   3.7782   3.9181   3.9443
     4.0806   4.1685   4.3102   4.3999   4.4650

          k = 0.0613-0.0354 0.0000 ( 15905 PWs)   bands (ev):

   -83.9997 -83.9709 -83.9600 -83.8738 -83.8392 -83.8052 -83.7985 -83.4892
   -83.4612 -83.4506 -83.4206 -83.3611 -43.7264 -43.5979 -43.5785 -43.5106
   -43.4871 -43.4188 -43.3884 -43.3005 -43.2322 -43.2282 -43.2023 -43.1649
   -43.1155 -43.0495 -43.0201 -43.0117 -42.9645 -42.9600 -42.9343 -42.9070
   -42.9058 -42.8601 -42.8560 -42.7850 -42.7084 -42.6842 -42.6829 -42.6591
   -42.6315 -42.6265 -42.6025 -42.5584 -42.5309 -42.4897 -42.4714 -42.3997
   -16.3835  -5.6536  -4.2643  -3.9098  -3.5530  -3.4381  -3.3914  -3.1799
    -3.0655  -3.0058  -2.8331  -2.6329  -2.6013  -2.3564  -2.2883  -2.1847
    -1.6969  -1.5208  -1.3128  -1.1358  -1.0273  -0.8909  -0.7853  -0.5471
    -0.4147  -0.3818  -0.1309   0.0334   0.1441   0.3193   0.4537   0.5712
     0.7148   0.7853   0.9117   1.0134   1.0539   1.1301   1.3658   1.4004
     1.6172   1.6453   1.7190   1.8714   1.9069   2.0343   2.3781   2.3996
     2.6406   2.9881   3.0854   3.2628   3.2768   3.4039   3.7232   3.7469
     3.7783   3.9762   3.9970   4.2120   4.4265

          k = 0.0613 0.0000 0.0000 ( 15900 PWs)   bands (ev):

   -84.0026 -83.9680 -83.9604 -83.8737 -83.8402 -83.8037 -83.7988 -83.4923
   -83.4578 -83.4514 -83.4201 -83.3610 -43.7431 -43.6217 -43.5721 -43.5689
   -43.5010 -43.4181 -43.4030 -43.2942 -43.2337 -43.2297 -43.2045 -43.1015
   -43.0996 -43.0707 -43.0263 -43.0163 -42.9685 -42.9539 -42.9402 -42.9242
   -42.8962 -42.8686 -42.8429 -42.7982 -42.7091 -42.6848 -42.6820 -42.6585
   -42.6460 -42.6050 -42.5379 -42.5340 -42.5267 -42.4914 -42.4736 -42.3924
   -16.3897  -5.8707  -4.2081  -3.8642  -3.7443  -3.5903  -3.5283  -3.4786
    -3.2320  -3.0972  -2.9159  -2.7665  -2.6302  -2.4887  -2.4184  -2.2518
    -1.9113  -1.6214  -1.3278  -1.1029  -0.9846  -0.7897  -0.6847  -0.3885
    -0.2678  -0.1349  -0.0448   0.0194   0.1422   0.2641   0.2904   0.6478
     0.6976   0.7898   0.8658   1.0058   1.0504   1.1524   1.5194   1.5943
     1.7106   1.7647   1.8936   2.1073   2.1589   2.3147   2.4721   2.5941
     2.6160   3.0471   3.0901   3.4211   3.4863   3.7783   3.9181   3.9443
     4.0807   4.1685   4.3101   4.3999   4.4649

          k = 0.0613 0.0354 0.0000 ( 15905 PWs)   bands (ev):

   -83.9997 -83.9708 -83.9600 -83.8738 -83.8392 -83.8048 -83.7989 -83.4892
   -83.4613 -83.4504 -83.4206 -83.3611 -43.7265 -43.5980 -43.5784 -43.5105
   -43.4871 -43.4188 -43.3884 -43.3003 -43.2322 -43.2281 -43.2024 -43.1649
   -43.1155 -43.0495 -43.0201 -43.0118 -42.9644 -42.9601 -42.9342 -42.9070
   -42.9059 -42.8603 -42.8560 -42.7852 -42.7084 -42.6843 -42.6828 -42.6591
   -42.6314 -42.6266 -42.6026 -42.5585 -42.5309 -42.4896 -42.4712 -42.3997
   -16.3835  -5.6535  -4.2641  -3.9098  -3.5530  -3.4381  -3.3914  -3.1798
    -3.0656  -3.0059  -2.8330  -2.6328  -2.6012  -2.3564  -2.2885  -2.1844
    -1.6968  -1.5209  -1.3129  -1.1357  -1.0274  -0.8909  -0.7854  -0.5470
    -0.4146  -0.3819  -0.1310   0.0333   0.1441   0.3193   0.4536   0.5712
     0.7145   0.7850   0.9118   1.0135   1.0539   1.1300   1.3659   1.4006
     1.6171   1.6453   1.7188   1.8713   1.9071   2.0343   2.3779   2.3999
     2.6407   2.9883   3.0853   3.2627   3.2768   3.4039   3.7231   3.7472
     3.7783   3.9761   3.9971   4.2119   4.4264

          k = 0.0613-0.1415 0.0000 ( 15922 PWs)   bands (ev):

   -83.9924 -83.9764 -83.9611 -83.8739 -83.8369 -83.8075 -83.7989 -83.4813
   -83.4665 -83.4528 -83.4210 -83.3613 -43.6875 -43.5520 -43.5002 -43.4590
   -43.4338 -43.4076 -43.3814 -43.3504 -43.2861 -43.2380 -43.2062 -43.1961
   -43.1095 -43.0470 -43.0329 -43.0151 -42.9653 -42.9430 -42.9254 -42.9008
   -42.8825 -42.8544 -42.8198 -42.8050 -42.7401 -42.7047 -42.6873 -42.6816
   -42.6550 -42.6455 -42.6049 -42.5719 -42.5638 -42.4964 -42.4890 -42.4369
   -16.3709  -5.0605  -4.2797  -3.7084  -3.4041  -3.2218  -3.0240  -2.8675
    -2.7384  -2.5999  -2.5173  -2.3752  -2.2943  -2.1162  -1.9071  -1.8621
    -1.6565  -1.5355  -1.3661  -1.2839  -1.0822  -1.0001  -0.8966  -0.8508
    -0.6844  -0.5337  -0.3841  -0.2289   0.0358   0.1391   0.2730   0.3348
     0.4180   0.4868   0.6369   0.7182   0.8316   1.0975   1.1745   1.2018
     1.3312   1.5150   1.6310   1.7139   1.9881   2.1594   2.2612   2.4062
     2.5320   2.5868   2.6545   2.8886   2.9614   3.3596   3.4653   3.4849
     3.8285   3.9484   4.0791   4.1357   4.2989

          k = 0.0613-0.1061 0.0000 ( 15972 PWs)   bands (ev):

   -83.9837 -83.9835 -83.9623 -83.8739 -83.8355 -83.8091 -83.7990 -83.4725
   -83.4723 -83.4559 -83.4208 -83.3614 -43.6635 -43.4689 -43.4660 -43.4326
   -43.4181 -43.4032 -43.3881 -43.3668 -43.3568 -43.2819 -43.2149 -43.1768
   -43.0802 -43.0658 -43.0341 -42.9949 -42.9652 -42.9605 -42.9052 -42.8896
   -42.8798 -42.8511 -42.8115 -42.7752 -42.7704 -42.7702 -42.7018 -42.6831
   -42.6699 -42.6485 -42.6070 -42.5454 -42.5373 -42.5080 -42.4990 -42.4968
   -16.3646  -4.5248  -4.0862  -4.0440  -3.2080  -3.0764  -2.9677  -2.5876
    -2.5414  -2.3687  -2.1770  -2.0989  -2.0697  -1.9424  -1.7736  -1.7511
    -1.6467  -1.6377  -1.5516  -1.2881  -1.2645  -1.0928  -0.8821  -0.8800
    -0.7844  -0.6414  -0.4559  -0.3721  -0.3524  -0.1610  -0.1535  -0.1171
     0.0479   0.1112   0.7477   0.7490   0.8392   1.1060   1.1212   1.1745
     1.2261   1.4615   1.4789   1.9462   2.0079   2.2364   2.2815   2.5168
     2.5294   2.6541   2.7094   2.7626   3.0614   3.0674   3.7384   3.8511
     4.1024   4.1150   4.2475   4.2502   4.2933

          k = 0.0613-0.0707 0.0000 ( 15922 PWs)   bands (ev):

   -83.9923 -83.9765 -83.9611 -83.8739 -83.8368 -83.8079 -83.7987 -83.4814
   -83.4663 -83.4529 -83.4209 -83.3613 -43.6874 -43.5519 -43.5002 -43.4590
   -43.4338 -43.4076 -43.3813 -43.3504 -43.2862 -43.2379 -43.2063 -43.1962
   -43.1095 -43.0471 -43.0328 -43.0150 -42.9654 -42.9429 -42.9253 -42.9008
   -42.8826 -42.8543 -42.8196 -42.8050 -42.7401 -42.7047 -42.6872 -42.6818
   -42.6549 -42.6455 -42.6049 -42.5718 -42.5638 -42.4965 -42.4891 -42.4368
   -16.3709  -5.0607  -4.2797  -3.7085  -3.4042  -3.2216  -3.0239  -2.8674
    -2.7384  -2.6001  -2.5174  -2.3753  -2.2944  -2.1162  -1.9073  -1.8622
    -1.6565  -1.5355  -1.3660  -1.2842  -1.0822  -1.0001  -0.8966  -0.8510
    -0.6845  -0.5338  -0.3841  -0.2288   0.0359   0.1393   0.2730   0.3348
     0.4184   0.4871   0.6370   0.7182   0.8318   1.0975   1.1742   1.2018
     1.3317   1.5146   1.6309   1.7141   1.9881   2.1593   2.2614   2.4062
     2.5318   2.5867   2.6544   2.8885   2.9614   3.3595   3.4654   3.4849
     3.8285   3.9488   4.0790   4.1356   4.2989

          k =-0.0919 0.0531 0.0000 ( 15968 PWs)   bands (ev):

   -83.9914 -83.9785 -83.9600 -83.8739 -83.8368 -83.8081 -83.7985 -83.4798
   -83.4699 -83.4506 -83.4213 -83.3613 -43.6895 -43.5540 -43.5292 -43.4525
   -43.4380 -43.3646 -43.3505 -43.3289 -43.3033 -43.2751 -43.2114 -43.1864
   -43.1453 -43.0589 -43.0256 -42.9943 -42.9715 -42.9427 -42.9267 -42.9084
   -42.8887 -42.8675 -42.7831 -42.7372 -42.7264 -42.7027 -42.6875 -42.6767
   -42.6708 -42.6697 -42.6554 -42.5954 -42.5891 -42.4805 -42.4512 -42.4372
   -16.3709  -4.8987  -4.6578  -3.7796  -3.2606  -3.1159  -3.0218  -2.7897
    -2.6315  -2.6130  -2.6040  -2.5545  -2.2864  -1.9240  -1.8583  -1.8501
    -1.6663  -1.4308  -1.4189  -1.3379  -1.0555  -1.0225  -1.0198  -0.9489
    -0.6540  -0.5290  -0.1552  -0.0292   0.1436   0.1451   0.3813   0.4596
     0.5477   0.6237   0.7279   0.8343   0.8420   0.9204   0.9884   1.0033
     1.1235   1.3868   1.5973   1.8969   1.9908   2.0892   2.2353   2.2676
     2.4612   2.5373   2.6210   2.6519   3.1095   3.1401   3.3074   3.4691
     3.4900   3.6344   3.6554   3.8055   3.9782

          k =-0.0919 0.0884 0.0000 ( 15922 PWs)   bands (ev):

   -83.9923 -83.9765 -83.9610 -83.8739 -83.8369 -83.8077 -83.7988 -83.4814
   -83.4663 -83.4529 -83.4209 -83.3613 -43.6874 -43.5519 -43.5002 -43.4590
   -43.4338 -43.4076 -43.3813 -43.3504 -43.2863 -43.2380 -43.2062 -43.1962
   -43.1095 -43.0471 -43.0328 -43.0150 -42.9653 -42.9429 -42.9253 -42.9008
   -42.8827 -42.8544 -42.8197 -42.8050 -42.7401 -42.7047 -42.6873 -42.6817
   -42.6549 -42.6455 -42.6049 -42.5718 -42.5638 -42.4965 -42.4891 -42.4368
   -16.3709  -5.0606  -4.2798  -3.7084  -3.4042  -3.2216  -3.0241  -2.8675
    -2.7383  -2.6000  -2.5173  -2.3753  -2.2943  -2.1162  -1.9073  -1.8622
    -1.6565  -1.5354  -1.3661  -1.2841  -1.0822  -1.0001  -0.8966  -0.8509
    -0.6845  -0.5338  -0.3840  -0.2287   0.0358   0.1391   0.2730   0.3350
     0.4181   0.4869   0.6370   0.7182   0.8318   1.0976   1.1743   1.2017
     1.3316   1.5146   1.6310   1.7139   1.9881   2.1594   2.2614   2.4063
     2.5318   2.5867   2.6543   2.8887   2.9614   3.3596   3.4654   3.4850
     3.8283   3.9487   4.0790   4.1357   4.2989

          k =-0.0919 0.1238 0.0000 ( 15922 PWs)   bands (ev):

   -83.9923 -83.9765 -83.9611 -83.8739 -83.8369 -83.8075 -83.7990 -83.4813
   -83.4665 -83.4528 -83.4210 -83.3613 -43.6875 -43.5520 -43.5002 -43.4590
   -43.4338 -43.4076 -43.3813 -43.3503 -43.2863 -43.2379 -43.2062 -43.1961
   -43.1095 -43.0470 -43.0329 -43.0151 -42.9653 -42.9429 -42.9254 -42.9008
   -42.8825 -42.8544 -42.8198 -42.8050 -42.7401 -42.7047 -42.6873 -42.6817
   -42.6550 -42.6455 -42.6049 -42.5719 -42.5638 -42.4964 -42.4890 -42.4369
   -16.3709  -5.0606  -4.2797  -3.7084  -3.4041  -3.2218  -3.0240  -2.8676
    -2.7384  -2.6000  -2.5174  -2.3751  -2.2943  -2.1162  -1.9072  -1.8621
    -1.6565  -1.5356  -1.3661  -1.2840  -1.0822  -1.0002  -0.8966  -0.8508
    -0.6843  -0.5338  -0.3842  -0.2289   0.0358   0.1392   0.2730   0.3347
     0.4181   0.4869   0.6369   0.7182   0.8316   1.0976   1.1744   1.2018
     1.3312   1.5150   1.6309   1.7140   1.9880   2.1594   2.2613   2.4061
     2.5321   2.5867   2.6545   2.8886   2.9614   3.3596   3.4655   3.4848
     3.8286   3.9484   4.0791   4.1356   4.2989

          k =-0.0919-0.0531 0.0000 ( 15968 PWs)   bands (ev):

   -83.9914 -83.9783 -83.9600 -83.8739 -83.8369 -83.8076 -83.7989 -83.4796
   -83.4702 -83.4504 -83.4214 -83.3613 -43.6896 -43.5541 -43.5291 -43.4524
   -43.4380 -43.3646 -43.3503 -43.3290 -43.3032 -43.2751 -43.2113 -43.1865
   -43.1452 -43.0588 -43.0257 -42.9944 -42.9715 -42.9428 -42.9268 -42.9083
   -42.8885 -42.8676 -42.7834 -42.7371 -42.7265 -42.7028 -42.6874 -42.6768
   -42.6706 -42.6697 -42.6555 -42.5953 -42.5891 -42.4804 -42.4510 -42.4373
   -16.3710  -4.8983  -4.6580  -3.7794  -3.2607  -3.1161  -3.0216  -2.7899
    -2.6314  -2.6127  -2.6042  -2.5544  -2.2862  -1.9240  -1.8581  -1.8502
    -1.6663  -1.4310  -1.4187  -1.3376  -1.0554  -1.0224  -1.0198  -0.9489
    -0.6538  -0.5289  -0.1554  -0.0289   0.1431   0.1450   0.3811   0.4594
     0.5476   0.6235   0.7276   0.8341   0.8421   0.9202   0.9883   1.0032
     1.1235   1.3882   1.5967   1.8970   1.9906   2.0895   2.2352   2.2674
     2.4612   2.5380   2.6210   2.6521   3.1091   3.1402   3.3070   3.4697
     3.4897   3.6347   3.6545   3.8059   3.9782

     the Fermi energy is     3.1026 ev

!    total energy              =   -2429.87699138 Ry
     Harris-Foulkes estimate   =   -2429.87699159 Ry
     estimated scf accuracy    <       0.00000085 Ry

     The total energy is the sum of the following terms:

     one-electron contribution =  -22338.82700915 Ry
     hartree contribution      =   11154.63042813 Ry
     xc contribution           =    -472.13073631 Ry
     ewald contribution        =    9226.51602071 Ry
     electric field correction =       0.00000539 Ry
     smearing contrib. (-TS)   =      -0.06570016 Ry

     convergence has been achieved in  21 iterations
 
 BEEF-vdW xc energy contributions
           1 :   -413.554317589079     
           2 :    383.123326272691     
           3 :   -329.410682787089     
           4 :    264.100588821430     
           5 :   -199.741320740471     
           6 :    146.353739943835     
           7 :   -109.232458208758     
           8 :    88.4130022584725     
           9 :   -79.7908731560600     
          10 :    77.3094079784729     
          11 :   -75.3311800347200     
          12 :    70.3467328566302     
          13 :   -61.5720638929324     
          14 :    50.4634564836241     
          15 :   -39.5505198002595     
          16 :    31.1317679985593     
          17 :   -26.3408202087289     
          18 :    24.8619317105566     
          19 :   -25.2862656871570     
          20 :    25.8503572089169     
          21 :   -25.1977213953662     
          22 :    22.8492208183547     
          23 :   -19.2369505804110     
          24 :    15.3517902255846     
          25 :   -12.2146460573881     
          26 :    10.4186570854632     
          27 :   -9.92645665213422     
          28 :    10.1737142291394     
          29 :   -10.3944805304225     
          30 :    9.99395822544670     
          31 :   -39.2806711219504     
          32 :   -29.9606130837948     

     Forces acting on atoms (Ry/au):


     negative rho (up, down):  1.508E+00 0.000E+00
     atom    1 type  1   force =    -0.00000286    0.00000188    0.03097693
     atom    2 type  1   force =    -0.00000118    0.00362698    0.03331176
     atom    3 type  1   force =     0.00313162   -0.00182394    0.03341868
     atom    4 type  1   force =    -0.00315196   -0.00182986    0.03334456
     atom    5 type  1   force =    -0.00129930    0.00073096   -0.02559970
     atom    6 type  1   force =     0.00128009    0.00077886   -0.02563783
     atom    7 type  1   force =     0.00002223   -0.00003081   -0.05143089
     atom    8 type  1   force =    -0.00005299   -0.00152239   -0.02564410
     atom    9 type  1   force =     0.00024267    0.00009177   -0.00088194
     atom   10 type  1   force =    -0.00007408    0.00012944   -0.00093688
     atom   11 type  1   force =     0.00011039   -0.00011737   -0.00098734
     atom   12 type  1   force =    -0.00016458   -0.00002843   -0.00007697
     atom   13 type  2   force =    -0.00004006   -0.00000709    0.00014371

     Total force =     0.094670     Total SCF correction =     0.004473


     entering subroutine stress ...


     negative rho (up, down):  1.508E+00 0.000E+00
          total   stress  (Ry/bohr**3)                   (kbar)     P=  -20.40
  -0.00013247   0.00000002   0.00000004        -19.49      0.00      0.01
   0.00000002  -0.00013254   0.00000004          0.00    -19.50      0.01
   0.00000004   0.00000004  -0.00015109          0.01      0.01    -22.23

 !ASE

     Writing output data file calc.save
 
     init_run     :      5.10s CPU      7.34s WALL (       1 calls)
     electrons    :    285.26s CPU    375.67s WALL (       1 calls)
     forces       :      3.55s CPU      3.81s WALL (       1 calls)
     stress       :     13.89s CPU     15.01s WALL (       1 calls)

     Called by init_run:
     wfcinit      :      3.21s CPU      4.95s WALL (       1 calls)
     potinit      :      0.36s CPU      0.52s WALL (       1 calls)

     Called by electrons:
     c_bands      :    218.62s CPU    290.49s WALL (      21 calls)
     sum_band     :     35.31s CPU     46.44s WALL (      21 calls)
     v_of_rho     :      5.34s CPU      8.16s WALL (      22 calls)
     newd         :     19.15s CPU     19.48s WALL (      22 calls)
     mix_rho      :      0.22s CPU      0.37s WALL (      21 calls)
     vdW_energy   :      2.69s CPU      3.06s WALL (      58 calls)
     vdW_ffts     :      4.83s CPU      9.38s WALL (     118 calls)
     vdW_v        :      1.52s CPU      2.26s WALL (      58 calls)

     Called by c_bands:
     init_us_2    :      2.51s CPU      2.64s WALL (     900 calls)
     cegterg      :    203.36s CPU    274.84s WALL (     420 calls)

     Called by *egterg:
     h_psi        :     76.53s CPU    131.47s WALL (    2113 calls)
     s_psi        :     14.04s CPU     14.17s WALL (    2113 calls)
     g_psi        :      0.61s CPU      0.63s WALL (    1673 calls)
     cdiaghg      :     74.35s CPU     75.60s WALL (    2093 calls)

     Called by h_psi:
     add_vuspsi   :     16.07s CPU     16.22s WALL (    2113 calls)

     General routines
     calbec       :     24.07s CPU     27.96s WALL (    2573 calls)
     fft          :      7.21s CPU     14.25s WALL (    3555 calls)
     ffts         :      0.03s CPU      0.05s WALL (      43 calls)
     fftw         :     42.85s CPU    103.87s WALL (  288754 calls)
     interpolate  :      0.11s CPU      0.21s WALL (      43 calls)
     davcio       :      0.00s CPU      0.06s WALL (      20 calls)
 
     Parallel routines
     fft_scatter  :     25.62s CPU     83.14s WALL (  292352 calls)
 
     PWSCF        :  5m 8.24s CPU     6m42.71s WALL

 
   This run was terminated on:  18: 3:23  17Jan2018            

=------------------------------------------------------------------------------=
   JOB DONE.
=------------------------------------------------------------------------------=
Job  /afs/slac/g/suncat/bin/suncat-tsmpirun -x LD_LIBRARY_PATH -wdir /scratch/qe842464_M73qc pw.x -in pw.inp

TID   HOST_NAME   COMMAND_LINE            STATUS            TERMINATION_TIME
===== ========== ================  =======================  ===================
00000 suncat2041 pw.x -in pw.inp   Done                     01/17/2018 18:03:23
00001 suncat2041 pw.x -in pw.inp   Done                     01/17/2018 18:03:23
00002 suncat2041 pw.x -in pw.inp   Done                     01/17/2018 18:03:23
00003 suncat2041 pw.x -in pw.inp   Done                     01/17/2018 18:03:23
00004 suncat2041 pw.x -in pw.inp   Done                     01/17/2018 18:03:23
00005 suncat2041 pw.x -in pw.inp   Done                     01/17/2018 18:03:23
00006 suncat2041 pw.x -in pw.inp   Done                     01/17/2018 18:03:23
00007 suncat2041 pw.x -in pw.inp   Done                     01/17/2018 18:03:23
00008 suncat2041 pw.x -in pw.inp   Done                     01/17/2018 18:03:23
00009 suncat2041 pw.x -in pw.inp   Done                     01/17/2018 18:03:23
00010 suncat2041 pw.x -in pw.inp   Done                     01/17/2018 18:03:23
00011 suncat2041 pw.x -in pw.inp   Done                     01/17/2018 18:03:23
00012 suncat2041 pw.x -in pw.inp   Done                     01/17/2018 18:03:23
00013 suncat2041 pw.x -in pw.inp   Done                     01/17/2018 18:03:23
00014 suncat2041 pw.x -in pw.inp   Done                     01/17/2018 18:03:23
00015 suncat2041 pw.x -in pw.inp   Done                     01/17/2018 18:03:23
00016 suncat2040 pw.x -in pw.inp   Done                     01/17/2018 18:03:23
00017 suncat2040 pw.x -in pw.inp   Done                     01/17/2018 18:03:23
00018 suncat2040 pw.x -in pw.inp   Done                     01/17/2018 18:03:23
00019 suncat2040 pw.x -in pw.inp   Done                     01/17/2018 18:03:23
00020 suncat2040 pw.x -in pw.inp   Done                     01/17/2018 18:03:23
00021 suncat2040 pw.x -in pw.inp   Done                     01/17/2018 18:03:23
00022 suncat2040 pw.x -in pw.inp   Done                     01/17/2018 18:03:23
00023 suncat2040 pw.x -in pw.inp   Done                     01/17/2018 18:03:23
00024 suncat2040 pw.x -in pw.inp   Done                     01/17/2018 18:03:23
00025 suncat2040 pw.x -in pw.inp   Done                     01/17/2018 18:03:23
00026 suncat2040 pw.x -in pw.inp   Done                     01/17/2018 18:03:23
00027 suncat2040 pw.x -in pw.inp   Done                     01/17/2018 18:03:23
00028 suncat2040 pw.x -in pw.inp   Done                     01/17/2018 18:03:23
00029 suncat2040 pw.x -in pw.inp   Done                     01/17/2018 18:03:23
00030 suncat2040 pw.x -in pw.inp   Done                     01/17/2018 18:03:23
00031 suncat2040 pw.x -in pw.inp   Done                     01/17/2018 18:03:23
