  python dir          : /u/if/mamunm/src/espresso
  espresso dir        : /nfs/slac/g/suncatfs/sw/espv18/espresso-dynpy-beef/bin
  pseudo dir          : /u/if/mamunm/psp/gbrv1.5pbe
  ase-espresso py git : GITVERSION



     Program PWSCF v.5.1rc2 (svn rev. 11289) starts on  3May2018 at  9:48:51 

     This program is part of the open-source Quantum ESPRESSO suite
     for quantum simulation of materials; please cite
         "P. Giannozzi et al., J. Phys.:Condens. Matter 21 395502 (2009);
          URL http://www.quantum-espresso.org", 
     in publications or presentations arising from this work. More details at
     http://www.quantum-espresso.org/quote

     Parallel version (MPI), running on    32 processors
     K-points division:     npool     =       4
     R & G space division:  proc/nbgrp/npool/nimage =       8
     Reading input from pw.inp
     Message from routine read_cards :
     DEPRECATED: no units specified in CELL_PARAMETERS card

     Current dimensions of program PWSCF are:
     Max number of different atomic species (ntypx) = 10
     Max number of k-points (npk) =  40000
     Max angular momentum in pseudopotentials (lmaxx) =  3
     Presently stress not available with electric field


     **************************************************************************
     Initializing libbeef V0.1.1 with the BEEF-vdW functional.
     Citation: Wellendorff et al., PRB 85, 235149 (2012).
     **************************************************************************


     IMPORTANT: XC functional enforced from input :
     Exchange-correlation      = BEEF-VDW ( 1  4 27 13 2)
     Any further DFT definition will be discarded
     Please, verify this is what you really want


     Subspace diagonalization in iterative solution of the eigenvalue problem:
     a serial algorithm will be used

 
     Parallelization info
     --------------------
     sticks:   dense  smooth     PW     G-vecs:    dense   smooth      PW
     Min         402     160     46                77078    19492    3044
     Max         403     161     50                77101    19531    3047
     Sum        3217    1285    379               616691   156085   24367
 


     bravais-lattice index     =            0
     lattice parameter (alat)  =       1.8897  a.u.
     unit-cell volume          =    5182.3421 (a.u.)^3
     number of atoms/cell      =           13
     number of atomic types    =            2
     number of electrons       =       162.00
     number of Kohn-Sham states=           91
     kinetic-energy cutoff     =      36.7493  Ry
     charge density cutoff     =     367.4932  Ry
     convergence threshold     =      1.0E-05
     mixing beta               =       0.3000
     number of iterations used =           10  plain     mixing
     Exchange-correlation      = BEEF-VDW ( 1  4 27 13 2)
     nstep                     =           50


     celldm(1)=   1.889726  celldm(2)=   0.000000  celldm(3)=   0.000000
     celldm(4)=   0.000000  celldm(5)=   0.000000  celldm(6)=   0.000000

     crystal axes: (cart. coord. in units of alat)
               a(1) = (   5.970602   0.000000   0.000000 )  
               a(2) = (   2.985301   5.170693   0.000000 )  
               a(3) = (   0.000000   0.000000  24.874976 )  

     reciprocal axes: (cart. coord. in units 2 pi/alat)
               b(1) = (  0.167487 -0.096699  0.000000 )  
               b(2) = (  0.000000  0.193398  0.000000 )  
               b(3) = (  0.000000  0.000000  0.040201 )  


     PseudoPot. # 1 for Nb read from file:
     /u/if/mamunm/psp/gbrv1.5pbe/Nb.UPF
     MD5 check sum: 573aab8a2fa660278ed4a62cd769473f
     Pseudo is Ultrasoft + core correction, Zval = 13.0
     Generated by new atomic code, or converted to UPF format
     Using radial grid of  887 points,  6 beta functions with: 
                l(1) =   0
                l(2) =   0
                l(3) =   1
                l(4) =   1
                l(5) =   2
                l(6) =   2
     Q(r) pseudized with  6 coefficients,  rinner =    1.000   1.000   1.000
                                                       1.000   1.000

     PseudoPot. # 2 for S  read from file:
     /u/if/mamunm/psp/gbrv1.5pbe/S.UPF
     MD5 check sum: 88d86576ff6df21479756cfb9bdac1df
     Pseudo is Ultrasoft + core correction, Zval =  6.0
     Generated by new atomic code, or converted to UPF format
     Using radial grid of  907 points,  6 beta functions with: 
                l(1) =   0
                l(2) =   0
                l(3) =   1
                l(4) =   1
                l(5) =   2
                l(6) =   2
     Q(r) pseudized with  8 coefficients,  rinner =    1.300   1.300   1.300
                                                       1.300   1.300

     vdW kernel table read from file vdW_kernel_table
     MD5 check sum: 095c7af220d748ca6e76c0b4c6cfb241

     atomic species   valence    mass     pseudopotential
        Nb1           13.00    92.90637     Nb( 1.00)
        S1             6.00    32.06000     S ( 1.00)

     No symmetry found



   Cartesian axes

     site n.     atom                  positions (alat units)
         1           Nb1 tau(   1) = (   1.4926504   0.8617821  10.0000000  )
         2           Nb1 tau(   2) = (   4.4779512   0.8617821  10.0000000  )
         3           Nb1 tau(   3) = (   2.9853008   3.4471284  10.0000000  )
         4           Nb1 tau(   4) = (   5.9706016   3.4471284  10.0000000  )
         5           Nb1 tau(   5) = (   5.9706016   1.7235642  12.4374879  )
         6           Nb1 tau(   6) = (   2.9853008   1.7235642  12.4374879  )
         7           Nb1 tau(   7) = (   7.4632520   4.3089105  12.4374879  )
         8           Nb1 tau(   8) = (   4.4779512   4.3089105  12.4374879  )
         9           Nb1 tau(   9) = (   0.0000000   0.0000000  14.8749758  )
        10           Nb1 tau(  10) = (   2.9853008   0.0000000  14.8749758  )
        11           Nb1 tau(  11) = (   1.4926504   2.5853463  14.8749758  )
        12           Nb1 tau(  12) = (   4.4779512   2.5853463  14.8749758  )
        13           S1  tau(  13) = (   2.9853008   1.7235642  16.6234758  )

     number of k points=    20  Fermi-Dirac smearing, width (Ry)=  0.0110
                       cart. coord. in units 2pi/alat
        k(    1) = (   0.0000000   0.0000000   0.0000000), wk =   0.0555556
        k(    2) = (   0.0000000   0.0322329   0.0000000), wk =   0.1111111
        k(    3) = (   0.0000000   0.0644659   0.0000000), wk =   0.1111111
        k(    4) = (   0.0000000  -0.0966988   0.0000000), wk =   0.0555556
        k(    5) = (   0.0279146  -0.0161165   0.0000000), wk =   0.1111111
        k(    6) = (   0.0279146   0.0161165   0.0000000), wk =   0.1111111
        k(    7) = (   0.0279146   0.0483494   0.0000000), wk =   0.1111111
        k(    8) = (   0.0279146  -0.1128153   0.0000000), wk =   0.1111111
        k(    9) = (   0.0279146  -0.0805824   0.0000000), wk =   0.1111111
        k(   10) = (   0.0279146  -0.0483494   0.0000000), wk =   0.1111111
        k(   11) = (   0.0558291  -0.0322329   0.0000000), wk =   0.1111111
        k(   12) = (   0.0558291   0.0000000   0.0000000), wk =   0.1111111
        k(   13) = (   0.0558291   0.0322329   0.0000000), wk =   0.1111111
        k(   14) = (   0.0558291  -0.1289318   0.0000000), wk =   0.1111111
        k(   15) = (   0.0558291  -0.0966988   0.0000000), wk =   0.1111111
        k(   16) = (   0.0558291  -0.0644659   0.0000000), wk =   0.1111111
        k(   17) = (  -0.0837437   0.0483494   0.0000000), wk =   0.0555556
        k(   18) = (  -0.0837437   0.0805824   0.0000000), wk =   0.1111111
        k(   19) = (  -0.0837437   0.1128153   0.0000000), wk =   0.1111111
        k(   20) = (  -0.0837437  -0.0483494   0.0000000), wk =   0.0555556

     Dense  grid:   616691 G-vectors     FFT dimensions: (  72,  72, 288)

     Smooth grid:   156085 G-vectors     FFT dimensions: (  45,  45, 192)

     Largest allocated arrays     est. size (Mb)     dimensions
        Kohn-Sham Wavefunctions         3.45 Mb     (    2487,   91)
        NL pseudopotentials             8.88 Mb     (    2487,  234)
        Each V/rho on FFT grid          2.85 Mb     (  186624)
        Each G-vector array             0.59 Mb     (   77088)
        G-vector shells                 0.16 Mb     (   20970)
     Largest temporary arrays     est. size (Mb)     dimensions
        Auxiliary wavefunctions        13.81 Mb     (    2487,  364)
        Each subspace H/S matrix        2.02 Mb     (     364,  364)
        Each <psi_i|beta_j> matrix      0.32 Mb     (     234,   91)
        Arrays for rho mixing          28.48 Mb     (  186624,   10)

     Initial potential from superposition of free atoms
     Check: negative starting charge=   -0.005081

     starting charge  161.96717, renormalised to  162.00000

     negative rho (up, down):  5.082E-03 0.000E+00


     ************************************************************************
     *
     * You are using vdW-DF for exchange-correlation in this calculation.
     * Please cite the following three references that made this development
     * possible:
     *
     *   M. Dion, H. Rydberg, E. Schroder, D. C. Langreth, and
     *   B. I. Lundqvist, Phys. Rev. Lett. 92, 246401 (2004).
     *
     *   T. Thonhauser, V. R. Cooper, S. Li, A. Puzder, P. Hyldgaard, and
     *   D. C. Langreth, Phys. Rev. B 76, 125112 (2007).
     *
     *   G. Roman-Perez and J. M. Soler, Phys. Rev. Lett. 103, 096102 (2009).
     *
     *
     * If you are using vdW-DF2, please also cite:
     *
     *   K. Lee, E. D. Murray, L. Kong, B. I. Lundqvist, and
     *   D. C. Langreth, Phys. Rev. B 82, 081101(R) (2010).
     *
     *
     * If you are calculating the stress with vdW-DF, please also cite:
     *
     *   R. Sabatini, E. Kucukbenli, B. Kolb, T. Thonhauser, and
     *   S. de Gironcoli, J. Phys.: Condens. Matter 24, 424209 (2012).
     *
     ************************************************************************

     Carrying out vdW-DF run using the following parameters:

     Nqs =      20    Nr_points =    1024   r_max =   100.000
     q_mesh =
               0.00001000     0.04494208     0.09755937     0.15916263
               0.23128650     0.31572767     0.41458969     0.53033537
               0.66584808     0.82450364     1.01025438     1.22772762
               1.48234092     1.78043706     2.12944203     2.53805004
               3.01644009     3.57652955     4.23227104     5.00000000

     Gradients computed in reciprocal space

     ************************************************************************


 
     Adding external electric field

     Computed dipole along edir(3) : 
        Dipole               -0.0093 Ry au,         -0.0238 Debye
        Dipole field         -0.0000 Ry au
 
        Potential amp.        0.0021 Ry
        Total length         45.8317 bohr
 
     Starting wfc are  160 randomized atomic wfcs

     total cpu time spent up to now is       14.0 secs

     per-process dynamical memory:    91.2 Mb

     Self-consistent Calculation

     iteration #  1     ecut=    36.75 Ry     beta=0.30
     Davidson diagonalization with overlap
     ethr =  1.00E-02,  avg # of iterations =  2.0

     negative rho (up, down):  4.829E-03 0.000E+00
 
     Adding external electric field

     Computed dipole along edir(3) : 
        Dipole               -2.4956 Ry au,         -6.3432 Debye
        Dipole field         -0.0061 Ry au
 
        Potential amp.        0.5547 Ry
        Total length         45.8317 bohr
 

     total cpu time spent up to now is       32.8 secs

     total energy              =   -1444.75737868 Ry
     Harris-Foulkes estimate   =   -1447.22000063 Ry
     estimated scf accuracy    <       5.45531980 Ry

     iteration #  2     ecut=    36.75 Ry     beta=0.30
     Davidson diagonalization with overlap
     ethr =  3.37E-03,  avg # of iterations =  9.6

     negative rho (up, down):  3.107E-03 0.000E+00
 
     Adding external electric field

     Computed dipole along edir(3) : 
        Dipole                2.4794 Ry au,          6.3021 Debye
        Dipole field          0.0060 Ry au
 
        Potential amp.       -0.5511 Ry
        Total length         45.8317 bohr
 

     total cpu time spent up to now is       63.3 secs

     total energy              =   -1435.54452147 Ry
     Harris-Foulkes estimate   =   -1455.34565165 Ry
     estimated scf accuracy    <     511.00340251 Ry

     iteration #  3     ecut=    36.75 Ry     beta=0.30
     Davidson diagonalization with overlap
     ethr =  3.37E-03,  avg # of iterations =  8.9

     negative rho (up, down):  5.757E-04 0.000E+00
 
     Adding external electric field

     Computed dipole along edir(3) : 
        Dipole                0.6121 Ry au,          1.5559 Debye
        Dipole field          0.0015 Ry au
 
        Potential amp.       -0.1361 Ry
        Total length         45.8317 bohr
 

     total cpu time spent up to now is       94.6 secs

     total energy              =   -1441.66053228 Ry
     Harris-Foulkes estimate   =   -1451.81746930 Ry
     estimated scf accuracy    <     317.88269712 Ry

     iteration #  4     ecut=    36.75 Ry     beta=0.30
     Davidson diagonalization with overlap
     ethr =  3.37E-03,  avg # of iterations =  5.7

     negative rho (up, down):  4.994E-04 0.000E+00
 
     Adding external electric field

     Computed dipole along edir(3) : 
        Dipole                0.4475 Ry au,          1.1374 Debye
        Dipole field          0.0011 Ry au
 
        Potential amp.       -0.0995 Ry
        Total length         45.8317 bohr
 

     total cpu time spent up to now is      118.7 secs

     total energy              =   -1446.72897933 Ry
     Harris-Foulkes estimate   =   -1446.85880912 Ry
     estimated scf accuracy    <       0.92029579 Ry

     iteration #  5     ecut=    36.75 Ry     beta=0.30
     Davidson diagonalization with overlap
     ethr =  5.68E-04,  avg # of iterations =  4.6

     negative rho (up, down):  5.030E-04 0.000E+00
 
     Adding external electric field

     Computed dipole along edir(3) : 
        Dipole                0.4000 Ry au,          1.0167 Debye
        Dipole field          0.0010 Ry au
 
        Potential amp.       -0.0889 Ry
        Total length         45.8317 bohr
 

     total cpu time spent up to now is      139.5 secs

     total energy              =   -1446.73036205 Ry
     Harris-Foulkes estimate   =   -1446.79012334 Ry
     estimated scf accuracy    <       0.36585013 Ry

     iteration #  6     ecut=    36.75 Ry     beta=0.30
     Davidson diagonalization with overlap
     ethr =  2.26E-04,  avg # of iterations =  4.6

     negative rho (up, down):  5.678E-04 0.000E+00
 
     Adding external electric field

     Computed dipole along edir(3) : 
        Dipole                0.3932 Ry au,          0.9995 Debye
        Dipole field          0.0010 Ry au
 
        Potential amp.       -0.0874 Ry
        Total length         45.8317 bohr
 

     total cpu time spent up to now is      161.6 secs

     total energy              =   -1446.73462940 Ry
     Harris-Foulkes estimate   =   -1446.77846360 Ry
     estimated scf accuracy    <       0.38485552 Ry

     iteration #  7     ecut=    36.75 Ry     beta=0.30
     Davidson diagonalization with overlap
     ethr =  2.26E-04,  avg # of iterations =  1.8

     negative rho (up, down):  9.859E-04 0.000E+00
 
     Adding external electric field

     Computed dipole along edir(3) : 
        Dipole                0.1847 Ry au,          0.4694 Debye
        Dipole field          0.0004 Ry au
 
        Potential amp.       -0.0411 Ry
        Total length         45.8317 bohr
 

     total cpu time spent up to now is      180.5 secs

     total energy              =   -1446.74690670 Ry
     Harris-Foulkes estimate   =   -1446.75398069 Ry
     estimated scf accuracy    <       0.04687040 Ry

     iteration #  8     ecut=    36.75 Ry     beta=0.30
     Davidson diagonalization with overlap
     ethr =  2.89E-05,  avg # of iterations =  6.0

     negative rho (up, down):  1.429E-03 0.000E+00
 
     Adding external electric field

     Computed dipole along edir(3) : 
        Dipole                0.1704 Ry au,          0.4331 Debye
        Dipole field          0.0004 Ry au
 
        Potential amp.       -0.0379 Ry
        Total length         45.8317 bohr
 

     total cpu time spent up to now is      206.5 secs

     total energy              =   -1446.75094500 Ry
     Harris-Foulkes estimate   =   -1446.75996396 Ry
     estimated scf accuracy    <       0.07374843 Ry

     iteration #  9     ecut=    36.75 Ry     beta=0.30
     Davidson diagonalization with overlap
     ethr =  2.89E-05,  avg # of iterations =  2.3

     negative rho (up, down):  2.076E-03 0.000E+00
 
     Adding external electric field

     Computed dipole along edir(3) : 
        Dipole                0.0650 Ry au,          0.1651 Debye
        Dipole field          0.0002 Ry au
 
        Potential amp.       -0.0144 Ry
        Total length         45.8317 bohr
 

     total cpu time spent up to now is      225.7 secs

     total energy              =   -1446.75061960 Ry
     Harris-Foulkes estimate   =   -1446.75377390 Ry
     estimated scf accuracy    <       0.01627465 Ry

     iteration # 10     ecut=    36.75 Ry     beta=0.30
     Davidson diagonalization with overlap
     ethr =  1.00E-05,  avg # of iterations =  5.5

     negative rho (up, down):  2.494E-03 0.000E+00
 
     Adding external electric field

     Computed dipole along edir(3) : 
        Dipole                0.0058 Ry au,          0.0147 Debye
        Dipole field          0.0000 Ry au
 
        Potential amp.       -0.0013 Ry
        Total length         45.8317 bohr
 

     total cpu time spent up to now is      249.6 secs

     total energy              =   -1446.75296751 Ry
     Harris-Foulkes estimate   =   -1446.75434846 Ry
     estimated scf accuracy    <       0.01443357 Ry

     iteration # 11     ecut=    36.75 Ry     beta=0.30
     Davidson diagonalization with overlap
     ethr =  8.91E-06,  avg # of iterations =  1.1

     negative rho (up, down):  2.768E-03 0.000E+00
 
     Adding external electric field

     Computed dipole along edir(3) : 
        Dipole               -0.0289 Ry au,         -0.0736 Debye
        Dipole field         -0.0001 Ry au
 
        Potential amp.        0.0064 Ry
        Total length         45.8317 bohr
 

     total cpu time spent up to now is      268.2 secs

     total energy              =   -1446.75321862 Ry
     Harris-Foulkes estimate   =   -1446.75348187 Ry
     estimated scf accuracy    <       0.00309907 Ry

     iteration # 12     ecut=    36.75 Ry     beta=0.30
     Davidson diagonalization with overlap
     ethr =  1.91E-06,  avg # of iterations =  5.0

     negative rho (up, down):  3.289E-03 0.000E+00
 
     Adding external electric field

     Computed dipole along edir(3) : 
        Dipole               -0.0748 Ry au,         -0.1902 Debye
        Dipole field         -0.0002 Ry au
 
        Potential amp.        0.0166 Ry
        Total length         45.8317 bohr
 

     total cpu time spent up to now is      291.9 secs

     total energy              =   -1446.75371361 Ry
     Harris-Foulkes estimate   =   -1446.75378325 Ry
     estimated scf accuracy    <       0.00148387 Ry

     iteration # 13     ecut=    36.75 Ry     beta=0.30
     Davidson diagonalization with overlap
     ethr =  9.16E-07,  avg # of iterations =  2.0

     negative rho (up, down):  4.051E-03 0.000E+00
 
     Adding external electric field

     Computed dipole along edir(3) : 
        Dipole               -0.1060 Ry au,         -0.2695 Debye
        Dipole field         -0.0003 Ry au
 
        Potential amp.        0.0236 Ry
        Total length         45.8317 bohr
 

     total cpu time spent up to now is      310.8 secs

     total energy              =   -1446.75377848 Ry
     Harris-Foulkes estimate   =   -1446.75376162 Ry
     estimated scf accuracy    <       0.00027505 Ry

     iteration # 14     ecut=    36.75 Ry     beta=0.30
     Davidson diagonalization with overlap
     ethr =  1.70E-07,  avg # of iterations =  4.8

     negative rho (up, down):  4.276E-03 0.000E+00
 
     Adding external electric field

     Computed dipole along edir(3) : 
        Dipole               -0.1125 Ry au,         -0.2860 Debye
        Dipole field         -0.0003 Ry au
 
        Potential amp.        0.0250 Ry
        Total length         45.8317 bohr
 

     total cpu time spent up to now is      333.5 secs

     total energy              =   -1446.75382638 Ry
     Harris-Foulkes estimate   =   -1446.75383073 Ry
     estimated scf accuracy    <       0.00017246 Ry

     iteration # 15     ecut=    36.75 Ry     beta=0.30
     Davidson diagonalization with overlap
     ethr =  1.06E-07,  avg # of iterations =  2.3

     negative rho (up, down):  4.722E-03 0.000E+00
 
     Adding external electric field

     Computed dipole along edir(3) : 
        Dipole               -0.1241 Ry au,         -0.3155 Debye
        Dipole field         -0.0003 Ry au
 
        Potential amp.        0.0276 Ry
        Total length         45.8317 bohr
 

     total cpu time spent up to now is      352.7 secs

     total energy              =   -1446.75381682 Ry
     Harris-Foulkes estimate   =   -1446.75383022 Ry
     estimated scf accuracy    <       0.00014250 Ry

     iteration # 16     ecut=    36.75 Ry     beta=0.30
     Davidson diagonalization with overlap
     ethr =  8.80E-08,  avg # of iterations =  3.0

     negative rho (up, down):  4.788E-03 0.000E+00
 
     Adding external electric field

     Computed dipole along edir(3) : 
        Dipole               -0.1258 Ry au,         -0.3199 Debye
        Dipole field         -0.0003 Ry au
 
        Potential amp.        0.0280 Ry
        Total length         45.8317 bohr
 

     total cpu time spent up to now is      372.5 secs

     total energy              =   -1446.75382958 Ry
     Harris-Foulkes estimate   =   -1446.75382587 Ry
     estimated scf accuracy    <       0.00003028 Ry

     iteration # 17     ecut=    36.75 Ry     beta=0.30
     Davidson diagonalization with overlap
     ethr =  1.87E-08,  avg # of iterations =  2.9

     negative rho (up, down):  4.774E-03 0.000E+00

     negative rho (up, down):  4.774E-03 0.000E+00

     negative rho (up, down):  4.774E-03 0.000E+00

     negative rho (up, down):  4.774E-03 0.000E+00

     negative rho (up, down):  4.774E-03 0.000E+00

     negative rho (up, down):  4.774E-03 0.000E+00

     negative rho (up, down):  4.774E-03 0.000E+00

     negative rho (up, down):  4.774E-03 0.000E+00

     negative rho (up, down):  4.774E-03 0.000E+00

     negative rho (up, down):  4.774E-03 0.000E+00

     negative rho (up, down):  4.774E-03 0.000E+00

     negative rho (up, down):  4.774E-03 0.000E+00

     negative rho (up, down):  4.774E-03 0.000E+00

     negative rho (up, down):  4.774E-03 0.000E+00

     negative rho (up, down):  4.774E-03 0.000E+00

     negative rho (up, down):  4.774E-03 0.000E+00

     negative rho (up, down):  4.774E-03 0.000E+00

     negative rho (up, down):  4.774E-03 0.000E+00

     negative rho (up, down):  4.774E-03 0.000E+00

     negative rho (up, down):  4.774E-03 0.000E+00

     negative rho (up, down):  4.774E-03 0.000E+00

     negative rho (up, down):  4.774E-03 0.000E+00

     negative rho (up, down):  4.774E-03 0.000E+00

     negative rho (up, down):  4.774E-03 0.000E+00

     negative rho (up, down):  4.774E-03 0.000E+00

     negative rho (up, down):  4.774E-03 0.000E+00

     negative rho (up, down):  4.774E-03 0.000E+00

     negative rho (up, down):  4.774E-03 0.000E+00

     negative rho (up, down):  4.774E-03 0.000E+00

     negative rho (up, down):  4.774E-03 0.000E+00

     negative rho (up, down):  4.774E-03 0.000E+00

     negative rho (up, down):  4.774E-03 0.000E+00

     negative rho (up, down):  4.774E-03 0.000E+00

     negative rho (up, down):  4.774E-03 0.000E+00

     negative rho (up, down):  4.774E-03 0.000E+00
 
     Adding external electric field

     Computed dipole along edir(3) : 
        Dipole               -0.1420 Ry au,         -0.3609 Debye
        Dipole field         -0.0003 Ry au
 
        Potential amp.        0.0316 Ry
        Total length         45.8317 bohr
 

     total cpu time spent up to now is      443.3 secs

     End of self-consistent calculation

          k = 0.0000 0.0000 0.0000 ( 19435 PWs)   bands (ev):

   -53.1281 -53.0816 -52.9967 -52.9714 -52.9702 -52.9701 -52.9509 -52.9509
   -52.9469 -52.8877 -52.8785 -52.8785 -29.5914 -29.5641 -29.5641 -29.5085
   -29.4967 -29.4967 -29.4943 -29.4508 -29.4421 -29.4421 -29.1805 -29.0643
   -29.0441 -29.0441 -28.9919 -28.9836 -28.9836 -28.8712 -28.8712 -28.8628
   -28.7923 -28.7923 -28.7835 -28.7658 -28.7517 -28.7517 -28.6930 -28.6779
   -28.6765 -28.6765 -28.6321 -28.6321 -28.5835 -28.5835 -28.5111 -28.5111
   -10.8531  -3.4538  -2.5130  -2.0569  -2.0569  -1.9721  -1.6606  -1.5249
    -1.5249  -1.3129  -1.0399  -0.9932  -0.9932  -0.8284  -0.8097  -0.8097
    -0.4748  -0.4748  -0.1714   0.5193   0.5194   0.8322   1.3855   1.4818
     1.4818   1.7519   1.9914   2.1194   2.1194   2.3337   2.3337   2.3555
     2.4314   2.4314   2.4591   2.4635   2.4916   2.4916   2.7324   2.7324
     3.1666   3.2827   3.2828

          k = 0.0000 0.0322 0.0000 ( 19477 PWs)   bands (ev):

   -53.1186 -53.0733 -53.0003 -52.9763 -52.9702 -52.9653 -52.9596 -52.9510
   -52.9479 -52.8901 -52.8813 -52.8784 -29.5553 -29.5329 -29.5155 -29.4879
   -29.4687 -29.4676 -29.4545 -29.4189 -29.4119 -29.3908 -29.1777 -29.0968
   -29.0717 -29.0650 -28.9799 -28.9704 -28.9671 -28.8994 -28.8921 -28.8538
   -28.8437 -28.8375 -28.7759 -28.7486 -28.7408 -28.7330 -28.7271 -28.7094
   -28.7056 -28.6817 -28.6658 -28.6484 -28.6183 -28.5979 -28.5676 -28.5216
   -10.8451  -3.2532  -2.3830  -2.0470  -1.9784  -1.7640  -1.4636  -1.4010
    -1.3493  -1.1989  -0.9544  -0.8381  -0.8344  -0.7097  -0.6673  -0.6649
    -0.3917  -0.3391  -0.0588   0.5619   0.5733   0.8126   1.2764   1.5282
     1.5318   1.6985   1.8126   1.9551   2.0281   2.1240   2.1903   2.2656
     2.3229   2.3442   2.4351   2.4756   2.5036   2.5830   2.6653   2.7137
     2.9085   3.0623   3.0983

          k = 0.0000 0.0645 0.0000 ( 19509 PWs)   bands (ev):

   -53.0927 -53.0509 -53.0190 -52.9873 -52.9810 -52.9703 -52.9510 -52.9486
   -52.9479 -52.9031 -52.8836 -52.8783 -29.4727 -29.4541 -29.4366 -29.4062
   -29.4042 -29.3820 -29.3617 -29.3443 -29.3381 -29.2455 -29.1782 -29.1420
   -29.1187 -29.1182 -28.9733 -28.9582 -28.9540 -28.9382 -28.9361 -28.9212
   -28.9209 -28.8759 -28.8217 -28.8124 -28.7983 -28.7917 -28.7395 -28.7251
   -28.7184 -28.7183 -28.7051 -28.6925 -28.6518 -28.6365 -28.6344 -28.5511
   -10.8292  -2.7432  -2.1308  -1.9618  -1.8245  -1.3804  -1.2022  -0.9774
    -0.9232  -0.9036  -0.6739  -0.5176  -0.4710  -0.3850  -0.2768  -0.2527
    -0.1371   0.1080   0.3099   0.6458   0.6628   0.7442   0.9279   1.2115
     1.3862   1.4702   1.4839   1.6021   1.8212   1.8439   1.9049   1.9703
     2.0308   2.0764   2.1513   2.3033   2.4611   2.4721   2.6152   2.7013
     2.7288   2.7942   2.8404

          k = 0.0000-0.0967 0.0000 ( 19524 PWs)   bands (ev):

   -53.0640 -53.0480 -53.0205 -53.0154 -52.9844 -52.9704 -52.9511 -52.9483
   -52.9279 -52.9222 -52.8839 -52.8783 -29.4072 -29.3890 -29.3800 -29.3771
   -29.3770 -29.3705 -29.2909 -29.2807 -29.2272 -29.2200 -29.1684 -29.1667
   -29.0874 -29.0548 -29.0251 -29.0214 -29.0118 -28.9908 -28.9720 -28.9707
   -28.9046 -28.8984 -28.8712 -28.8664 -28.8658 -28.8607 -28.7564 -28.7511
   -28.7206 -28.7136 -28.6892 -28.6866 -28.6811 -28.6758 -28.5955 -28.5895
   -10.8213  -2.3809  -2.0262  -1.7508  -1.7504  -1.5940  -0.9038  -0.7508
    -0.5740  -0.5344  -0.4750  -0.4313  -0.2933  -0.1425   0.1600   0.1747
     0.2581   0.3043   0.3578   0.5071   0.8212   0.8309   0.9157   0.9650
     1.0061   1.1842   1.3654   1.4704   1.5966   1.6118   1.6633   1.7485
     1.7712   1.7920   1.8351   2.0014   2.0987   2.2106   2.2466   2.3360
     2.3901   2.8946   2.9089

          k = 0.0279-0.0161 0.0000 ( 19477 PWs)   bands (ev):

   -53.1186 -53.0733 -53.0003 -52.9763 -52.9702 -52.9653 -52.9596 -52.9510
   -52.9479 -52.8901 -52.8813 -52.8784 -29.5553 -29.5329 -29.5155 -29.4879
   -29.4687 -29.4676 -29.4545 -29.4189 -29.4119 -29.3908 -29.1777 -29.0968
   -29.0717 -29.0649 -28.9800 -28.9704 -28.9671 -28.8994 -28.8921 -28.8538
   -28.8437 -28.8375 -28.7759 -28.7486 -28.7408 -28.7330 -28.7271 -28.7094
   -28.7056 -28.6817 -28.6658 -28.6484 -28.6183 -28.5979 -28.5676 -28.5216
   -10.8451  -3.2532  -2.3830  -2.0470  -1.9784  -1.7640  -1.4636  -1.4010
    -1.3493  -1.1989  -0.9544  -0.8381  -0.8344  -0.7097  -0.6673  -0.6649
    -0.3917  -0.3391  -0.0588   0.5619   0.5733   0.8126   1.2764   1.5282
     1.5318   1.6985   1.8126   1.9551   2.0281   2.1241   2.1903   2.2656
     2.3229   2.3442   2.4351   2.4756   2.5036   2.5830   2.6653   2.7137
     2.9085   3.0623   3.0983

          k = 0.0279 0.0161 0.0000 ( 19477 PWs)   bands (ev):

   -53.1186 -53.0733 -53.0002 -52.9763 -52.9702 -52.9653 -52.9596 -52.9510
   -52.9479 -52.8901 -52.8813 -52.8784 -29.5553 -29.5329 -29.5155 -29.4879
   -29.4687 -29.4676 -29.4545 -29.4189 -29.4119 -29.3908 -29.1777 -29.0968
   -29.0717 -29.0649 -28.9800 -28.9703 -28.9671 -28.8995 -28.8921 -28.8538
   -28.8437 -28.8375 -28.7759 -28.7486 -28.7408 -28.7330 -28.7271 -28.7094
   -28.7056 -28.6817 -28.6658 -28.6484 -28.6183 -28.5979 -28.5676 -28.5216
   -10.8451  -3.2532  -2.3830  -2.0470  -1.9784  -1.7640  -1.4636  -1.4010
    -1.3493  -1.1989  -0.9544  -0.8381  -0.8344  -0.7097  -0.6673  -0.6649
    -0.3917  -0.3391  -0.0588   0.5619   0.5733   0.8126   1.2764   1.5282
     1.5318   1.6985   1.8126   1.9551   2.0281   2.1241   2.1903   2.2656
     2.3229   2.3442   2.4351   2.4756   2.5036   2.5830   2.6653   2.7137
     2.9085   3.0623   3.0983

          k = 0.0279 0.0483 0.0000 ( 19485 PWs)   bands (ev):

   -53.1009 -53.0579 -53.0085 -52.9897 -52.9704 -52.9657 -52.9656 -52.9536
   -52.9410 -52.8954 -52.8888 -52.8760 -29.5037 -29.4617 -29.4449 -29.4367
   -29.4259 -29.4020 -29.3976 -29.3773 -29.3237 -29.3153 -29.1763 -29.1339
   -29.1207 -29.0931 -28.9922 -28.9607 -28.9558 -28.9482 -28.9425 -28.8645
   -28.8600 -28.8231 -28.8095 -28.8067 -28.7996 -28.7742 -28.7412 -28.7194
   -28.7172 -28.6938 -28.6831 -28.6787 -28.6728 -28.6399 -28.6123 -28.5498
   -10.8331  -2.8914  -2.1697  -2.0054  -1.8765  -1.4062  -1.2090  -1.1503
    -1.0416  -0.9963  -0.8474  -0.5805  -0.5265  -0.4870  -0.4264  -0.3645
    -0.1911  -0.0808   0.1926   0.6202   0.6378   0.7812   1.0506   1.3857
     1.4663   1.4928   1.5556   1.5998   1.8040   1.9400   2.0066   2.0663
     2.1380   2.2256   2.2849   2.3147   2.5166   2.5719   2.6527   2.7430
     2.7600   2.8004   2.8899

          k = 0.0279-0.1128 0.0000 ( 19505 PWs)   bands (ev):

   -53.0710 -53.0356 -53.0263 -53.0025 -52.9958 -52.9723 -52.9625 -52.9361
   -52.9338 -52.9107 -52.8942 -52.8737 -29.4179 -29.3948 -29.3722 -29.3627
   -29.3526 -29.3419 -29.2993 -29.2862 -29.2461 -29.1962 -29.1835 -29.1654
   -29.1510 -29.1172 -29.0843 -29.0424 -28.9927 -28.9448 -28.9380 -28.9299
   -28.9199 -28.8896 -28.8769 -28.8380 -28.8301 -28.8019 -28.7667 -28.7504
   -28.7452 -28.7312 -28.6893 -28.6856 -28.6789 -28.6588 -28.6397 -28.5939
   -10.8212  -2.3860  -1.9822  -1.8380  -1.7727  -1.3453  -0.8996  -0.8202
    -0.6792  -0.5967  -0.4768  -0.2889  -0.1695  -0.1359  -0.0093   0.1356
     0.1801   0.2791   0.4373   0.6273   0.6630   0.7797   0.8593   0.9801
     1.0835   1.1686   1.2205   1.3359   1.5114   1.5689   1.6331   1.6696
     1.7453   1.8075   1.8490   2.0533   2.1810   2.2263   2.3613   2.4599
     2.5650   2.8416   2.8620

          k = 0.0279-0.0806 0.0000 ( 19505 PWs)   bands (ev):

   -53.0710 -53.0356 -53.0263 -53.0025 -52.9958 -52.9723 -52.9625 -52.9361
   -52.9338 -52.9107 -52.8942 -52.8737 -29.4179 -29.3948 -29.3722 -29.3627
   -29.3526 -29.3419 -29.2993 -29.2862 -29.2461 -29.1962 -29.1835 -29.1654
   -29.1510 -29.1172 -29.0843 -29.0424 -28.9927 -28.9448 -28.9380 -28.9299
   -28.9199 -28.8896 -28.8769 -28.8380 -28.8301 -28.8019 -28.7667 -28.7504
   -28.7452 -28.7312 -28.6893 -28.6856 -28.6789 -28.6588 -28.6397 -28.5939
   -10.8212  -2.3860  -1.9822  -1.8380  -1.7727  -1.3453  -0.8996  -0.8202
    -0.6792  -0.5967  -0.4768  -0.2889  -0.1695  -0.1359  -0.0093   0.1356
     0.1801   0.2791   0.4373   0.6273   0.6630   0.7797   0.8593   0.9801
     1.0835   1.1686   1.2205   1.3359   1.5114   1.5689   1.6331   1.6696
     1.7453   1.8075   1.8490   2.0533   2.1810   2.2263   2.3613   2.4599
     2.5650   2.8416   2.8620

          k = 0.0279-0.0483 0.0000 ( 19485 PWs)   bands (ev):

   -53.1009 -53.0579 -53.0085 -52.9897 -52.9704 -52.9657 -52.9656 -52.9536
   -52.9410 -52.8954 -52.8888 -52.8760 -29.5037 -29.4617 -29.4449 -29.4367
   -29.4259 -29.4020 -29.3976 -29.3773 -29.3237 -29.3153 -29.1763 -29.1339
   -29.1207 -29.0931 -28.9922 -28.9607 -28.9558 -28.9482 -28.9425 -28.8645
   -28.8600 -28.8231 -28.8094 -28.8067 -28.7996 -28.7742 -28.7412 -28.7194
   -28.7172 -28.6938 -28.6831 -28.6788 -28.6728 -28.6399 -28.6123 -28.5498
   -10.8331  -2.8914  -2.1697  -2.0054  -1.8765  -1.4062  -1.2090  -1.1503
    -1.0416  -0.9963  -0.8474  -0.5805  -0.5265  -0.4870  -0.4264  -0.3645
    -0.1911  -0.0808   0.1926   0.6202   0.6378   0.7812   1.0506   1.3857
     1.4663   1.4928   1.5556   1.5998   1.8040   1.9400   2.0066   2.0663
     2.1380   2.2256   2.2849   2.3147   2.5166   2.5719   2.6527   2.7430
     2.7600   2.8004   2.8899

          k = 0.0558-0.0322 0.0000 ( 19509 PWs)   bands (ev):

   -53.0927 -53.0509 -53.0190 -52.9873 -52.9810 -52.9703 -52.9510 -52.9486
   -52.9479 -52.9031 -52.8836 -52.8783 -29.4727 -29.4541 -29.4366 -29.4062
   -29.4042 -29.3820 -29.3617 -29.3443 -29.3381 -29.2455 -29.1782 -29.1420
   -29.1187 -29.1182 -28.9733 -28.9582 -28.9540 -28.9382 -28.9361 -28.9212
   -28.9209 -28.8759 -28.8217 -28.8124 -28.7983 -28.7917 -28.7395 -28.7251
   -28.7184 -28.7183 -28.7051 -28.6925 -28.6518 -28.6365 -28.6344 -28.5511
   -10.8292  -2.7432  -2.1308  -1.9618  -1.8245  -1.3804  -1.2022  -0.9774
    -0.9232  -0.9036  -0.6739  -0.5176  -0.4710  -0.3850  -0.2768  -0.2527
    -0.1372   0.1080   0.3099   0.6458   0.6628   0.7442   0.9279   1.2115
     1.3862   1.4702   1.4839   1.6021   1.8212   1.8439   1.9048   1.9703
     2.0308   2.0764   2.1513   2.3033   2.4611   2.4721   2.6152   2.7013
     2.7288   2.7943   2.8405

          k = 0.0558 0.0000 0.0000 ( 19485 PWs)   bands (ev):

   -53.1009 -53.0579 -53.0085 -52.9897 -52.9704 -52.9657 -52.9656 -52.9536
   -52.9410 -52.8954 -52.8888 -52.8760 -29.5037 -29.4617 -29.4449 -29.4367
   -29.4259 -29.4021 -29.3976 -29.3773 -29.3237 -29.3153 -29.1763 -29.1339
   -29.1207 -29.0931 -28.9922 -28.9607 -28.9558 -28.9482 -28.9425 -28.8645
   -28.8600 -28.8231 -28.8095 -28.8067 -28.7996 -28.7742 -28.7412 -28.7194
   -28.7172 -28.6938 -28.6831 -28.6787 -28.6728 -28.6399 -28.6123 -28.5498
   -10.8331  -2.8914  -2.1697  -2.0054  -1.8765  -1.4062  -1.2090  -1.1503
    -1.0416  -0.9963  -0.8474  -0.5805  -0.5265  -0.4870  -0.4264  -0.3645
    -0.1911  -0.0808   0.1926   0.6202   0.6378   0.7812   1.0506   1.3857
     1.4663   1.4928   1.5556   1.5998   1.8040   1.9400   2.0066   2.0663
     2.1380   2.2256   2.2849   2.3147   2.5166   2.5719   2.6527   2.7431
     2.7600   2.8004   2.8899

          k = 0.0558 0.0322 0.0000 ( 19509 PWs)   bands (ev):

   -53.0927 -53.0509 -53.0190 -52.9873 -52.9810 -52.9703 -52.9510 -52.9486
   -52.9479 -52.9031 -52.8836 -52.8783 -29.4727 -29.4541 -29.4366 -29.4062
   -29.4042 -29.3820 -29.3617 -29.3443 -29.3381 -29.2455 -29.1782 -29.1420
   -29.1187 -29.1182 -28.9733 -28.9581 -28.9540 -28.9382 -28.9361 -28.9212
   -28.9209 -28.8759 -28.8217 -28.8124 -28.7983 -28.7917 -28.7395 -28.7251
   -28.7184 -28.7183 -28.7051 -28.6925 -28.6518 -28.6365 -28.6344 -28.5511
   -10.8292  -2.7432  -2.1308  -1.9618  -1.8245  -1.3804  -1.2022  -0.9774
    -0.9232  -0.9036  -0.6739  -0.5176  -0.4710  -0.3850  -0.2768  -0.2527
    -0.1371   0.1080   0.3099   0.6458   0.6628   0.7442   0.9279   1.2115
     1.3862   1.4702   1.4839   1.6021   1.8212   1.8439   1.9048   1.9703
     2.0308   2.0764   2.1513   2.3033   2.4611   2.4721   2.6152   2.7013
     2.7288   2.7943   2.8405

          k = 0.0558-0.1289 0.0000 ( 19505 PWs)   bands (ev):

   -53.0710 -53.0356 -53.0263 -53.0025 -52.9958 -52.9723 -52.9625 -52.9361
   -52.9338 -52.9108 -52.8942 -52.8737 -29.4178 -29.3948 -29.3722 -29.3627
   -29.3526 -29.3419 -29.2993 -29.2862 -29.2461 -29.1962 -29.1835 -29.1654
   -29.1510 -29.1172 -29.0843 -29.0424 -28.9927 -28.9448 -28.9380 -28.9299
   -28.9199 -28.8896 -28.8769 -28.8380 -28.8301 -28.8019 -28.7667 -28.7504
   -28.7452 -28.7312 -28.6893 -28.6856 -28.6789 -28.6588 -28.6397 -28.5939
   -10.8212  -2.3860  -1.9822  -1.8380  -1.7727  -1.3453  -0.8996  -0.8202
    -0.6792  -0.5967  -0.4768  -0.2889  -0.1695  -0.1359  -0.0093   0.1356
     0.1801   0.2791   0.4373   0.6273   0.6630   0.7797   0.8593   0.9801
     1.0835   1.1686   1.2205   1.3359   1.5114   1.5689   1.6331   1.6696
     1.7453   1.8075   1.8490   2.0533   2.1810   2.2263   2.3613   2.4599
     2.5650   2.8416   2.8620

          k = 0.0558-0.0967 0.0000 ( 19521 PWs)   bands (ev):

   -53.0525 -53.0309 -53.0267 -53.0044 -53.0018 -52.9971 -52.9583 -52.9309
   -52.9191 -52.9118 -52.9098 -52.8714 -29.3491 -29.3480 -29.3468 -29.3302
   -29.3150 -29.3087 -29.2578 -29.2527 -29.2430 -29.1981 -29.1710 -29.1542
   -29.1440 -29.1186 -29.1143 -29.0838 -29.0815 -29.0796 -28.9211 -28.9185
   -28.9180 -28.9110 -28.8967 -28.8096 -28.8062 -28.8050 -28.7602 -28.7428
   -28.7411 -28.7407 -28.7095 -28.7088 -28.7021 -28.6508 -28.6492 -28.6461
   -10.8173  -2.1406  -1.9164  -1.8892  -1.3794  -1.3701  -1.2007  -0.4992
    -0.4933  -0.3948  -0.1575  -0.0056  -0.0032   0.1545   0.1565   0.2251
     0.3880   0.3892   0.3949   0.6277   0.6634   0.6982   0.7052   0.7578
     0.8865   1.0221   1.0765   1.1874   1.1884   1.2300   1.2687   1.4657
     1.5522   1.5753   1.8001   1.8097   2.0520   2.3077   2.4011   2.4089
     2.7214   2.8035   2.8705

          k = 0.0558-0.0645 0.0000 ( 19505 PWs)   bands (ev):

   -53.0710 -53.0356 -53.0263 -53.0025 -52.9958 -52.9723 -52.9625 -52.9361
   -52.9338 -52.9107 -52.8942 -52.8737 -29.4179 -29.3948 -29.3722 -29.3627
   -29.3526 -29.3419 -29.2993 -29.2862 -29.2461 -29.1962 -29.1835 -29.1654
   -29.1510 -29.1172 -29.0843 -29.0424 -28.9927 -28.9448 -28.9380 -28.9299
   -28.9199 -28.8896 -28.8769 -28.8380 -28.8301 -28.8019 -28.7667 -28.7504
   -28.7452 -28.7312 -28.6893 -28.6856 -28.6789 -28.6588 -28.6397 -28.5939
   -10.8212  -2.3860  -1.9822  -1.8380  -1.7727  -1.3453  -0.8996  -0.8202
    -0.6792  -0.5967  -0.4768  -0.2889  -0.1695  -0.1359  -0.0093   0.1356
     0.1801   0.2791   0.4373   0.6273   0.6630   0.7797   0.8593   0.9801
     1.0835   1.1686   1.2205   1.3359   1.5114   1.5689   1.6331   1.6696
     1.7453   1.8075   1.8490   2.0533   2.1810   2.2263   2.3613   2.4599
     2.5650   2.8416   2.8620

          k =-0.0837 0.0483 0.0000 ( 19524 PWs)   bands (ev):

   -53.0640 -53.0480 -53.0205 -53.0154 -52.9844 -52.9704 -52.9511 -52.9483
   -52.9279 -52.9222 -52.8839 -52.8783 -29.4072 -29.3890 -29.3800 -29.3771
   -29.3770 -29.3705 -29.2909 -29.2807 -29.2272 -29.2200 -29.1684 -29.1667
   -29.0874 -29.0548 -29.0251 -29.0214 -29.0118 -28.9908 -28.9720 -28.9707
   -28.9046 -28.8983 -28.8712 -28.8664 -28.8658 -28.8607 -28.7564 -28.7511
   -28.7206 -28.7136 -28.6892 -28.6866 -28.6811 -28.6758 -28.5955 -28.5895
   -10.8213  -2.3809  -2.0261  -1.7508  -1.7504  -1.5940  -0.9038  -0.7508
    -0.5740  -0.5344  -0.4750  -0.4313  -0.2933  -0.1425   0.1600   0.1747
     0.2581   0.3043   0.3578   0.5071   0.8212   0.8309   0.9157   0.9650
     1.0061   1.1842   1.3654   1.4704   1.5966   1.6118   1.6633   1.7485
     1.7712   1.7920   1.8351   2.0014   2.0987   2.2106   2.2466   2.3360
     2.3901   2.8946   2.9089

          k =-0.0837 0.0806 0.0000 ( 19505 PWs)   bands (ev):

   -53.0710 -53.0356 -53.0263 -53.0025 -52.9958 -52.9723 -52.9625 -52.9361
   -52.9338 -52.9107 -52.8942 -52.8737 -29.4179 -29.3948 -29.3722 -29.3627
   -29.3526 -29.3419 -29.2993 -29.2862 -29.2461 -29.1962 -29.1835 -29.1654
   -29.1510 -29.1172 -29.0843 -29.0424 -28.9927 -28.9448 -28.9380 -28.9299
   -28.9199 -28.8896 -28.8769 -28.8380 -28.8301 -28.8019 -28.7667 -28.7504
   -28.7452 -28.7312 -28.6893 -28.6856 -28.6789 -28.6588 -28.6397 -28.5939
   -10.8212  -2.3860  -1.9822  -1.8380  -1.7727  -1.3453  -0.8996  -0.8202
    -0.6792  -0.5967  -0.4768  -0.2889  -0.1695  -0.1359  -0.0093   0.1356
     0.1801   0.2791   0.4373   0.6273   0.6630   0.7797   0.8593   0.9801
     1.0835   1.1686   1.2205   1.3359   1.5114   1.5689   1.6331   1.6696
     1.7453   1.8075   1.8490   2.0533   2.1810   2.2263   2.3613   2.4599
     2.5650   2.8416   2.8620

          k =-0.0837 0.1128 0.0000 ( 19505 PWs)   bands (ev):

   -53.0710 -53.0356 -53.0263 -53.0025 -52.9958 -52.9723 -52.9625 -52.9361
   -52.9338 -52.9108 -52.8942 -52.8737 -29.4178 -29.3948 -29.3722 -29.3627
   -29.3526 -29.3419 -29.2993 -29.2862 -29.2461 -29.1962 -29.1835 -29.1654
   -29.1510 -29.1172 -29.0843 -29.0424 -28.9927 -28.9448 -28.9380 -28.9298
   -28.9199 -28.8896 -28.8769 -28.8380 -28.8301 -28.8019 -28.7667 -28.7504
   -28.7452 -28.7312 -28.6893 -28.6856 -28.6789 -28.6588 -28.6397 -28.5939
   -10.8212  -2.3860  -1.9822  -1.8380  -1.7727  -1.3453  -0.8996  -0.8202
    -0.6792  -0.5967  -0.4768  -0.2889  -0.1695  -0.1359  -0.0093   0.1356
     0.1801   0.2791   0.4373   0.6273   0.6630   0.7797   0.8593   0.9801
     1.0835   1.1686   1.2205   1.3359   1.5114   1.5689   1.6331   1.6696
     1.7453   1.8075   1.8490   2.0533   2.1810   2.2263   2.3613   2.4599
     2.5650   2.8416   2.8620

          k =-0.0837-0.0483 0.0000 ( 19524 PWs)   bands (ev):

   -53.0640 -53.0480 -53.0205 -53.0154 -52.9845 -52.9704 -52.9511 -52.9483
   -52.9279 -52.9222 -52.8839 -52.8783 -29.4072 -29.3890 -29.3800 -29.3771
   -29.3769 -29.3706 -29.2908 -29.2807 -29.2272 -29.2200 -29.1684 -29.1667
   -29.0874 -29.0548 -29.0251 -29.0214 -29.0119 -28.9908 -28.9720 -28.9707
   -28.9046 -28.8983 -28.8712 -28.8664 -28.8658 -28.8607 -28.7564 -28.7511
   -28.7206 -28.7136 -28.6892 -28.6866 -28.6810 -28.6759 -28.5955 -28.5895
   -10.8213  -2.3809  -2.0262  -1.7508  -1.7504  -1.5940  -0.9038  -0.7508
    -0.5740  -0.5344  -0.4750  -0.4313  -0.2933  -0.1425   0.1600   0.1747
     0.2581   0.3043   0.3578   0.5071   0.8212   0.8309   0.9157   0.9650
     1.0061   1.1842   1.3654   1.4704   1.5966   1.6118   1.6633   1.7485
     1.7712   1.7920   1.8351   2.0014   2.0987   2.2106   2.2466   2.3360
     2.3901   2.8946   2.9089

     the Fermi energy is     2.0347 ev

!    total energy              =   -1446.75382494 Ry
     Harris-Foulkes estimate   =   -1446.75382074 Ry
     estimated scf accuracy    <       0.00000680 Ry

     The total energy is the sum of the following terms:

     one-electron contribution =  -11750.85040390 Ry
     hartree contribution      =    5870.23087915 Ry
     xc contribution           =    -237.14602239 Ry
     ewald contribution        =    4671.12942088 Ry
     electric field correction =       0.00004889 Ry
     smearing contrib. (-TS)   =      -0.11774756 Ry

     convergence has been achieved in  17 iterations
 
 BEEF-vdW xc energy contributions
           1 :   -203.270429241887     
           2 :    184.669180512707     
           3 :   -152.960480388635     
           4 :    116.624455752196     
           5 :   -83.8162078099888     
           6 :    59.6779935037309     
           7 :   -45.2485057271942     
           8 :    38.0968074954828     
           9 :   -34.1567437188357     
          10 :    29.7774268192015     
          11 :   -23.1180640151335     
          12 :    14.4313231094783     
          13 :   -5.36460131711488     
          14 :   -2.21400711963025     
          15 :    7.22677840265399     
          16 :   -9.80507373918260     
          17 :    11.0148177891186     
          18 :   -12.1435127576723     
          19 :    13.9705145087499     
          20 :   -16.4096817337248     
          21 :    18.6632647606239     
          22 :   -19.7491586484387     
          23 :    19.0755361532488     
          24 :   -16.7571233640841     
          25 :    13.5308798177575     
          26 :   -10.3616502413422     
          27 :    7.97484618897766     
          28 :   -6.56821057375842     
          29 :    5.82532227040781     
          30 :   -5.19092127667815     
          31 :   -23.4886077826248     
          32 :   -17.7100301826700     

     Forces acting on atoms (Ry/au):


     negative rho (up, down):  4.774E-03 0.000E+00
     atom    1 type  1   force =     0.00025370    0.00014445   -0.00254133
     atom    2 type  1   force =    -0.00025369    0.00014649   -0.00254161
     atom    3 type  1   force =    -0.00000029   -0.00029141   -0.00254356
     atom    4 type  1   force =    -0.00000061   -0.00000080   -0.00779419
     atom    5 type  1   force =     0.00000052   -0.00256388   -0.00443722
     atom    6 type  1   force =    -0.00000011    0.00000134   -0.00030934
     atom    7 type  1   force =     0.00222157    0.00128230   -0.00443731
     atom    8 type  1   force =    -0.00222070    0.00128181   -0.00443875
     atom    9 type  1   force =    -0.00000113   -0.00000122   -0.02203699
     atom   10 type  1   force =    -0.00000058   -0.02899452    0.01389213
     atom   11 type  1   force =    -0.02510964    0.01449851    0.01389428
     atom   12 type  1   force =     0.02511070    0.01449782    0.01389366
     atom   13 type  2   force =     0.00000026   -0.00000088    0.00940024

     Total force =     0.060623     Total SCF correction =     0.002009


     entering subroutine stress ...


     negative rho (up, down):  4.774E-03 0.000E+00
          total   stress  (Ry/bohr**3)                   (kbar)     P=  -16.07
  -0.00018666  -0.00000000  -0.00000000        -27.46     -0.00     -0.00
  -0.00000000  -0.00018666  -0.00000000         -0.00    -27.46     -0.00
  -0.00000000  -0.00000000   0.00004565         -0.00     -0.00      6.71


     BFGS Geometry Optimization

     number of scf cycles    =   1
     number of bfgs steps    =   0

     energy   new            =   -1446.7538249378 Ry

     new trust radius        =       0.0321522596 bohr
     new conv_thr            =       0.0000099958 Ry


ATOMIC_POSITIONS (crystal)
Nb1      0.166666667   0.166666667   0.402010442    0   0   0
Nb1      0.666666667   0.166666667   0.402010442    0   0   0
Nb1      0.166666667   0.666666667   0.402010442    0   0   0
Nb1      0.666666667   0.666666667   0.402010442    0   0   0
Nb1      0.833333333   0.333333333   0.500000000    0   0   0
Nb1      0.333333333   0.333333333   0.500000000    0   0   0
Nb1      0.833333333   0.833333333   0.500000000    0   0   0
Nb1      0.333333333   0.833333333   0.500000000    0   0   0
Nb1     -0.000000037  -0.000000125   0.597520755
Nb1      0.501483623  -0.002967347   0.598285092
Nb1     -0.002967380   0.501483802   0.598285138
Nb1      0.501483708   0.501483731   0.598285124
S1       0.333333401   0.333333244   0.668481060



     Writing output data file calc.save
     Check: negative starting charge=   -0.005081
     NEW-OLD atomic charge density approx. for the potential
     Check: negative starting charge=   -0.005084

     negative rho (up, down):  4.784E-03 0.000E+00
 
     Adding external electric field

     Computed dipole along edir(3) : 
        Dipole               -0.1419 Ry au,         -0.3608 Debye
        Dipole field         -0.0003 Ry au
 
        Potential amp.        0.0315 Ry
        Total length         45.8317 bohr
 

     total cpu time spent up to now is      513.6 secs

     per-process dynamical memory:    85.3 Mb

     Self-consistent Calculation

     iteration #  1     ecut=    36.75 Ry     beta=0.30
     Davidson diagonalization with overlap
     ethr =  1.00E-06,  avg # of iterations =  7.7

     negative rho (up, down):  4.779E-03 0.000E+00
 
     Adding external electric field

     Computed dipole along edir(3) : 
        Dipole                0.1797 Ry au,          0.4566 Debye
        Dipole field          0.0004 Ry au
 
        Potential amp.       -0.0399 Ry
        Total length         45.8317 bohr
 

     total cpu time spent up to now is      546.0 secs

     total energy              =   -1446.74999923 Ry
     Harris-Foulkes estimate   =   -1446.75738717 Ry
     estimated scf accuracy    <       0.01494102 Ry

     iteration #  2     ecut=    36.75 Ry     beta=0.30
     Davidson diagonalization with overlap
     ethr =  9.22E-06,  avg # of iterations =  6.8

     negative rho (up, down):  4.809E-03 0.000E+00
 
     Adding external electric field

     Computed dipole along edir(3) : 
        Dipole               -0.1553 Ry au,         -0.3946 Debye
        Dipole field         -0.0004 Ry au
 
        Potential amp.        0.0345 Ry
        Total length         45.8317 bohr
 

     total cpu time spent up to now is      572.4 secs

     total energy              =   -1446.64582985 Ry
     Harris-Foulkes estimate   =   -1446.86587566 Ry
     estimated scf accuracy    <      11.65051085 Ry

     iteration #  3     ecut=    36.75 Ry     beta=0.30
     Davidson diagonalization with overlap
     ethr =  9.22E-06,  avg # of iterations =  6.9

     negative rho (up, down):  4.796E-03 0.000E+00
 
     Adding external electric field

     Computed dipole along edir(3) : 
        Dipole               -0.1374 Ry au,         -0.3493 Debye
        Dipole field         -0.0003 Ry au
 
        Potential amp.        0.0305 Ry
        Total length         45.8317 bohr
 

     total cpu time spent up to now is      599.1 secs

     total energy              =   -1446.75441862 Ry
     Harris-Foulkes estimate   =   -1446.75961412 Ry
     estimated scf accuracy    <       0.07607221 Ry

     iteration #  4     ecut=    36.75 Ry     beta=0.30
     Davidson diagonalization with overlap
     ethr =  9.22E-06,  avg # of iterations =  3.8

     negative rho (up, down):  4.788E-03 0.000E+00
 
     Adding external electric field

     Computed dipole along edir(3) : 
        Dipole               -0.1365 Ry au,         -0.3470 Debye
        Dipole field         -0.0003 Ry au
 
        Potential amp.        0.0303 Ry
        Total length         45.8317 bohr
 

     total cpu time spent up to now is      620.6 secs

     total energy              =   -1446.75696660 Ry
     Harris-Foulkes estimate   =   -1446.75708879 Ry
     estimated scf accuracy    <       0.00068057 Ry

     iteration #  5     ecut=    36.75 Ry     beta=0.30
     Davidson diagonalization with overlap
     ethr =  4.20E-07,  avg # of iterations =  4.8

     negative rho (up, down):  4.785E-03 0.000E+00
 
     Adding external electric field

     Computed dipole along edir(3) : 
        Dipole               -0.1364 Ry au,         -0.3466 Debye
        Dipole field         -0.0003 Ry au
 
        Potential amp.        0.0303 Ry
        Total length         45.8317 bohr
 

     total cpu time spent up to now is      643.4 secs

     total energy              =   -1446.75708568 Ry
     Harris-Foulkes estimate   =   -1446.75709551 Ry
     estimated scf accuracy    <       0.00010916 Ry

     iteration #  6     ecut=    36.75 Ry     beta=0.30
     Davidson diagonalization with overlap
     ethr =  6.74E-08,  avg # of iterations =  3.8

     negative rho (up, down):  4.783E-03 0.000E+00
 
     Adding external electric field

     Computed dipole along edir(3) : 
        Dipole               -0.1365 Ry au,         -0.3470 Debye
        Dipole field         -0.0003 Ry au
 
        Potential amp.        0.0303 Ry
        Total length         45.8317 bohr
 

     total cpu time spent up to now is      664.0 secs

     total energy              =   -1446.75709177 Ry
     Harris-Foulkes estimate   =   -1446.75709624 Ry
     estimated scf accuracy    <       0.00003776 Ry

     iteration #  7     ecut=    36.75 Ry     beta=0.30
     Davidson diagonalization with overlap
     ethr =  2.33E-08,  avg # of iterations =  3.9

     negative rho (up, down):  4.783E-03 0.000E+00
 
     Adding external electric field

     Computed dipole along edir(3) : 
        Dipole               -0.1372 Ry au,         -0.3487 Debye
        Dipole field         -0.0003 Ry au
 
        Potential amp.        0.0305 Ry
        Total length         45.8317 bohr
 

     total cpu time spent up to now is      685.9 secs

     total energy              =   -1446.75709748 Ry
     Harris-Foulkes estimate   =   -1446.75709730 Ry
     estimated scf accuracy    <       0.00001961 Ry

     iteration #  8     ecut=    36.75 Ry     beta=0.30
     Davidson diagonalization with overlap
     ethr =  1.21E-08,  avg # of iterations =  3.1

     negative rho (up, down):  4.781E-03 0.000E+00

     negative rho (up, down):  4.781E-03 0.000E+00

     negative rho (up, down):  4.781E-03 0.000E+00

     negative rho (up, down):  4.781E-03 0.000E+00

     negative rho (up, down):  4.781E-03 0.000E+00

     negative rho (up, down):  4.781E-03 0.000E+00

     negative rho (up, down):  4.781E-03 0.000E+00

     negative rho (up, down):  4.781E-03 0.000E+00

     negative rho (up, down):  4.781E-03 0.000E+00

     negative rho (up, down):  4.781E-03 0.000E+00

     negative rho (up, down):  4.781E-03 0.000E+00

     negative rho (up, down):  4.781E-03 0.000E+00

     negative rho (up, down):  4.781E-03 0.000E+00

     negative rho (up, down):  4.781E-03 0.000E+00

     negative rho (up, down):  4.781E-03 0.000E+00

     negative rho (up, down):  4.781E-03 0.000E+00

     negative rho (up, down):  4.781E-03 0.000E+00

     negative rho (up, down):  4.781E-03 0.000E+00

     negative rho (up, down):  4.781E-03 0.000E+00

     negative rho (up, down):  4.781E-03 0.000E+00

     negative rho (up, down):  4.781E-03 0.000E+00

     negative rho (up, down):  4.781E-03 0.000E+00

     negative rho (up, down):  4.781E-03 0.000E+00

     negative rho (up, down):  4.781E-03 0.000E+00

     negative rho (up, down):  4.781E-03 0.000E+00

     negative rho (up, down):  4.781E-03 0.000E+00

     negative rho (up, down):  4.781E-03 0.000E+00

     negative rho (up, down):  4.781E-03 0.000E+00

     negative rho (up, down):  4.781E-03 0.000E+00

     negative rho (up, down):  4.781E-03 0.000E+00

     negative rho (up, down):  4.781E-03 0.000E+00

     negative rho (up, down):  4.781E-03 0.000E+00

     negative rho (up, down):  4.781E-03 0.000E+00

     negative rho (up, down):  4.781E-03 0.000E+00

     negative rho (up, down):  4.781E-03 0.000E+00
 
     Adding external electric field

     Computed dipole along edir(3) : 
        Dipole               -0.1366 Ry au,         -0.3471 Debye
        Dipole field         -0.0003 Ry au
 
        Potential amp.        0.0304 Ry
        Total length         45.8317 bohr
 

     total cpu time spent up to now is      757.8 secs

     End of self-consistent calculation

          k = 0.0000 0.0000 0.0000 ( 19435 PWs)   bands (ev):

   -53.1404 -53.0957 -53.0104 -52.9857 -52.9790 -52.9790 -52.9660 -52.9660
   -52.9604 -52.9054 -52.8904 -52.8904 -29.5973 -29.5777 -29.5777 -29.5214
   -29.5094 -29.5094 -29.5036 -29.4652 -29.4559 -29.4559 -29.1914 -29.0731
   -29.0543 -29.0543 -29.0049 -28.9978 -28.9978 -28.8833 -28.8833 -28.8737
   -28.8055 -28.8055 -28.7968 -28.7839 -28.7633 -28.7633 -28.7052 -28.6916
   -28.6915 -28.6906 -28.6431 -28.6431 -28.5971 -28.5971 -28.5250 -28.5250
   -10.8214  -3.4642  -2.5001  -2.0357  -2.0357  -1.9746  -1.6739  -1.5350
    -1.5350  -1.3246  -1.0494  -1.0039  -1.0039  -0.8393  -0.8212  -0.8212
    -0.4796  -0.4796  -0.1577   0.5098   0.5098   0.8115   1.3727   1.4608
     1.4608   1.7376   1.9844   2.1113   2.1113   2.3210   2.3210   2.3411
     2.4262   2.4262   2.4528   2.4579   2.4764   2.4764   2.7185   2.7185
     3.1503   3.2704   3.2704

          k = 0.0000 0.0322 0.0000 ( 19477 PWs)   bands (ev):

   -53.1310 -53.0875 -53.0136 -52.9858 -52.9796 -52.9790 -52.9742 -52.9660
   -52.9615 -52.9074 -52.8936 -52.8904 -29.5619 -29.5465 -29.5282 -29.4998
   -29.4817 -29.4788 -29.4662 -29.4330 -29.4256 -29.4045 -29.1885 -29.1068
   -29.0825 -29.0754 -28.9920 -28.9842 -28.9809 -28.9112 -28.9037 -28.8653
   -28.8582 -28.8500 -28.7893 -28.7668 -28.7522 -28.7455 -28.7380 -28.7226
   -28.7205 -28.6937 -28.6802 -28.6593 -28.6315 -28.6113 -28.5815 -28.5355
   -10.8131  -3.2630  -2.3673  -2.0257  -1.9544  -1.7681  -1.4784  -1.4114
    -1.3592  -1.2085  -0.9647  -0.8487  -0.8425  -0.7211  -0.6761  -0.6750
    -0.3989  -0.3473  -0.0468   0.5507   0.5627   0.7926   1.2646   1.5090
     1.5117   1.6861   1.8004   1.9461   2.0157   2.1095   2.1765   2.2521
     2.3144   2.3330   2.4264   2.4642   2.4993   2.5649   2.6530   2.7074
     2.8934   3.0493   3.0880

          k = 0.0000 0.0645 0.0000 ( 19509 PWs)   bands (ev):

   -53.1053 -53.0655 -53.0306 -53.0013 -52.9919 -52.9792 -52.9661 -52.9633
   -52.9617 -52.9181 -52.8978 -52.8903 -29.4804 -29.4680 -29.4481 -29.4181
   -29.4156 -29.3941 -29.3741 -29.3579 -29.3515 -29.2584 -29.1890 -29.1527
   -29.1311 -29.1283 -28.9859 -28.9705 -28.9648 -28.9513 -28.9477 -28.9360
   -28.9347 -28.8877 -28.8350 -28.8234 -28.8134 -28.8053 -28.7530 -28.7410
   -28.7328 -28.7308 -28.7167 -28.7041 -28.6646 -28.6499 -28.6483 -28.5649
   -10.7967  -2.7488  -2.1156  -1.9369  -1.7943  -1.3903  -1.2103  -0.9873
    -0.9316  -0.9151  -0.6814  -0.5297  -0.4785  -0.3952  -0.2859  -0.2593
    -0.1420   0.0950   0.3122   0.6277   0.6477   0.7283   0.9194   1.2029
     1.3685   1.4543   1.4717   1.5857   1.8029   1.8191   1.8917   1.9590
     2.0149   2.0621   2.1412   2.2890   2.4524   2.4553   2.6056   2.6919
     2.7176   2.7869   2.8286

          k = 0.0000-0.0967 0.0000 ( 19524 PWs)   bands (ev):

   -53.0784 -53.0586 -53.0352 -53.0286 -52.9952 -52.9792 -52.9661 -52.9623
   -52.9448 -52.9344 -52.8987 -52.8903 -29.4141 -29.4040 -29.3916 -29.3910
   -29.3881 -29.3812 -29.3026 -29.2942 -29.2392 -29.2316 -29.1796 -29.1778
   -29.0940 -29.0712 -29.0402 -29.0362 -29.0216 -29.0011 -28.9838 -28.9834
   -28.9166 -28.9133 -28.8869 -28.8828 -28.8782 -28.8720 -28.7671 -28.7636
   -28.7365 -28.7272 -28.7016 -28.6998 -28.6945 -28.6874 -28.6104 -28.6024
   -10.7886  -2.3716  -2.0221  -1.7312  -1.7167  -1.5957  -0.9136  -0.7545
    -0.5780  -0.5455  -0.4910  -0.4458  -0.2961  -0.1500   0.1447   0.1663
     0.2495   0.2967   0.3399   0.5069   0.8120   0.8223   0.9027   0.9503
     0.9883   1.1671   1.3528   1.4454   1.5767   1.5921   1.6509   1.7243
     1.7521   1.7733   1.8452   1.9717   2.0914   2.1972   2.2297   2.3412
     2.3771   2.8726   2.9129

          k = 0.0279-0.0161 0.0000 ( 19477 PWs)   bands (ev):

   -53.1310 -53.0875 -53.0136 -52.9858 -52.9795 -52.9790 -52.9742 -52.9660
   -52.9615 -52.9074 -52.8936 -52.8904 -29.5619 -29.5465 -29.5282 -29.4998
   -29.4817 -29.4788 -29.4662 -29.4330 -29.4256 -29.4045 -29.1885 -29.1068
   -29.0825 -29.0754 -28.9920 -28.9842 -28.9809 -28.9111 -28.9037 -28.8653
   -28.8582 -28.8500 -28.7893 -28.7668 -28.7522 -28.7455 -28.7380 -28.7226
   -28.7205 -28.6937 -28.6802 -28.6593 -28.6315 -28.6113 -28.5815 -28.5355
   -10.8131  -3.2630  -2.3673  -2.0257  -1.9544  -1.7681  -1.4784  -1.4114
    -1.3592  -1.2085  -0.9647  -0.8487  -0.8425  -0.7211  -0.6761  -0.6750
    -0.3989  -0.3473  -0.0468   0.5507   0.5627   0.7926   1.2646   1.5090
     1.5117   1.6861   1.8004   1.9461   2.0157   2.1095   2.1765   2.2521
     2.3144   2.3330   2.4264   2.4642   2.4993   2.5648   2.6530   2.7074
     2.8934   3.0493   3.0880

          k = 0.0279 0.0161 0.0000 ( 19477 PWs)   bands (ev):

   -53.1310 -53.0875 -53.0136 -52.9858 -52.9795 -52.9791 -52.9742 -52.9660
   -52.9615 -52.9074 -52.8936 -52.8904 -29.5619 -29.5465 -29.5282 -29.4998
   -29.4817 -29.4788 -29.4662 -29.4330 -29.4256 -29.4045 -29.1885 -29.1068
   -29.0825 -29.0754 -28.9920 -28.9842 -28.9809 -28.9111 -28.9037 -28.8653
   -28.8582 -28.8500 -28.7893 -28.7668 -28.7522 -28.7455 -28.7380 -28.7226
   -28.7205 -28.6937 -28.6802 -28.6593 -28.6315 -28.6113 -28.5815 -28.5355
   -10.8131  -3.2630  -2.3673  -2.0257  -1.9544  -1.7681  -1.4783  -1.4114
    -1.3592  -1.2085  -0.9647  -0.8487  -0.8425  -0.7211  -0.6761  -0.6750
    -0.3989  -0.3473  -0.0468   0.5507   0.5627   0.7926   1.2646   1.5090
     1.5117   1.6861   1.8004   1.9461   2.0157   2.1095   2.1765   2.2521
     2.3144   2.3330   2.4264   2.4642   2.4993   2.5649   2.6530   2.7074
     2.8934   3.0493   3.0880

          k = 0.0279 0.0483 0.0000 ( 19485 PWs)   bands (ev):

   -53.1133 -53.0723 -53.0213 -52.9990 -52.9852 -52.9793 -52.9754 -52.9679
   -52.9554 -52.9120 -52.9008 -52.8886 -29.5134 -29.4727 -29.4544 -29.4499
   -29.4393 -29.4139 -29.4099 -29.3912 -29.3368 -29.3291 -29.1869 -29.1438
   -29.1325 -29.1042 -29.0039 -28.9733 -28.9691 -28.9614 -28.9556 -28.8773
   -28.8700 -28.8363 -28.8232 -28.8200 -28.8130 -28.7871 -28.7554 -28.7328
   -28.7306 -28.7069 -28.6968 -28.6922 -28.6851 -28.6526 -28.6259 -28.5637
   -10.8008  -2.8991  -2.1515  -1.9822  -1.8490  -1.4133  -1.2208  -1.1638
    -1.0522  -1.0031  -0.8564  -0.5874  -0.5366  -0.4975  -0.4357  -0.3695
    -0.1996  -0.0929   0.1983   0.6032   0.6262   0.7638   1.0400   1.3745
     1.4573   1.4722   1.5380   1.5882   1.7816   1.9231   1.9942   2.0581
     2.1202   2.2067   2.2825   2.2999   2.5021   2.5611   2.6418   2.7300
     2.7522   2.7876   2.8786

          k = 0.0279-0.1128 0.0000 ( 19505 PWs)   bands (ev):

   -53.0843 -53.0498 -53.0379 -53.0147 -53.0078 -52.9865 -52.9718 -52.9507
   -52.9491 -52.9250 -52.9075 -52.8867 -29.4283 -29.4066 -29.3801 -29.3782
   -29.3638 -29.3539 -29.3119 -29.2986 -29.2579 -29.2066 -29.1949 -29.1769
   -29.1636 -29.1302 -29.0968 -29.0552 -29.0051 -28.9575 -28.9512 -28.9422
   -28.9330 -28.9012 -28.8908 -28.8515 -28.8440 -28.8132 -28.7810 -28.7649
   -28.7574 -28.7439 -28.7036 -28.6987 -28.6913 -28.6717 -28.6536 -28.6077
   -10.7886  -2.3821  -1.9660  -1.8147  -1.7464  -1.3520  -0.9093  -0.8297
    -0.6862  -0.6030  -0.4887  -0.2964  -0.1751  -0.1465  -0.0190   0.1285
     0.1700   0.2652   0.4272   0.6180   0.6525   0.7616   0.8544   0.9649
     1.0677   1.1548   1.2075   1.3175   1.4925   1.5560   1.6096   1.6503
     1.7341   1.7925   1.8424   2.0373   2.1651   2.2118   2.3482   2.4511
     2.5559   2.8297   2.8481

          k = 0.0279-0.0806 0.0000 ( 19505 PWs)   bands (ev):

   -53.0843 -53.0498 -53.0379 -53.0147 -53.0078 -52.9865 -52.9718 -52.9507
   -52.9491 -52.9250 -52.9075 -52.8867 -29.4283 -29.4066 -29.3801 -29.3782
   -29.3638 -29.3539 -29.3119 -29.2986 -29.2579 -29.2066 -29.1949 -29.1769
   -29.1636 -29.1302 -29.0968 -29.0552 -29.0051 -28.9575 -28.9512 -28.9422
   -28.9330 -28.9012 -28.8908 -28.8515 -28.8440 -28.8132 -28.7810 -28.7649
   -28.7574 -28.7439 -28.7036 -28.6987 -28.6913 -28.6717 -28.6536 -28.6077
   -10.7886  -2.3821  -1.9660  -1.8147  -1.7464  -1.3520  -0.9093  -0.8297
    -0.6862  -0.6030  -0.4887  -0.2964  -0.1751  -0.1465  -0.0190   0.1285
     0.1700   0.2652   0.4272   0.6180   0.6525   0.7616   0.8544   0.9649
     1.0677   1.1548   1.2075   1.3175   1.4925   1.5560   1.6096   1.6503
     1.7341   1.7925   1.8424   2.0373   2.1651   2.2118   2.3482   2.4511
     2.5559   2.8297   2.8481

          k = 0.0279-0.0483 0.0000 ( 19485 PWs)   bands (ev):

   -53.1133 -53.0723 -53.0213 -52.9990 -52.9852 -52.9793 -52.9754 -52.9679
   -52.9554 -52.9120 -52.9008 -52.8886 -29.5134 -29.4727 -29.4544 -29.4499
   -29.4393 -29.4139 -29.4099 -29.3912 -29.3368 -29.3291 -29.1869 -29.1438
   -29.1325 -29.1042 -29.0039 -28.9733 -28.9691 -28.9614 -28.9556 -28.8773
   -28.8700 -28.8363 -28.8232 -28.8200 -28.8130 -28.7871 -28.7554 -28.7328
   -28.7306 -28.7069 -28.6968 -28.6922 -28.6851 -28.6526 -28.6259 -28.5637
   -10.8008  -2.8991  -2.1515  -1.9822  -1.8490  -1.4133  -1.2208  -1.1638
    -1.0522  -1.0031  -0.8564  -0.5874  -0.5366  -0.4975  -0.4357  -0.3695
    -0.1996  -0.0929   0.1983   0.6032   0.6262   0.7638   1.0400   1.3745
     1.4573   1.4722   1.5380   1.5882   1.7816   1.9231   1.9942   2.0581
     2.1202   2.2067   2.2825   2.2999   2.5021   2.5611   2.6418   2.7300
     2.7522   2.7876   2.8786

          k = 0.0558-0.0322 0.0000 ( 19509 PWs)   bands (ev):

   -53.1053 -53.0655 -53.0306 -53.0013 -52.9919 -52.9792 -52.9661 -52.9633
   -52.9617 -52.9181 -52.8978 -52.8903 -29.4804 -29.4680 -29.4481 -29.4181
   -29.4156 -29.3941 -29.3741 -29.3579 -29.3515 -29.2584 -29.1890 -29.1527
   -29.1311 -29.1283 -28.9859 -28.9705 -28.9648 -28.9513 -28.9477 -28.9360
   -28.9347 -28.8877 -28.8350 -28.8234 -28.8134 -28.8053 -28.7530 -28.7410
   -28.7328 -28.7308 -28.7167 -28.7041 -28.6646 -28.6499 -28.6483 -28.5649
   -10.7967  -2.7488  -2.1156  -1.9369  -1.7943  -1.3903  -1.2103  -0.9873
    -0.9316  -0.9151  -0.6814  -0.5297  -0.4785  -0.3952  -0.2859  -0.2593
    -0.1420   0.0950   0.3122   0.6277   0.6477   0.7283   0.9194   1.2029
     1.3685   1.4543   1.4717   1.5857   1.8029   1.8191   1.8917   1.9590
     2.0149   2.0621   2.1412   2.2890   2.4524   2.4553   2.6056   2.6919
     2.7176   2.7869   2.8286

          k = 0.0558 0.0000 0.0000 ( 19485 PWs)   bands (ev):

   -53.1133 -53.0723 -53.0213 -52.9990 -52.9852 -52.9793 -52.9754 -52.9679
   -52.9554 -52.9120 -52.9008 -52.8886 -29.5134 -29.4727 -29.4544 -29.4499
   -29.4393 -29.4139 -29.4099 -29.3912 -29.3368 -29.3291 -29.1869 -29.1438
   -29.1325 -29.1042 -29.0039 -28.9733 -28.9691 -28.9614 -28.9556 -28.8773
   -28.8700 -28.8363 -28.8232 -28.8200 -28.8130 -28.7871 -28.7554 -28.7328
   -28.7306 -28.7069 -28.6968 -28.6922 -28.6851 -28.6526 -28.6259 -28.5637
   -10.8008  -2.8991  -2.1515  -1.9822  -1.8490  -1.4133  -1.2208  -1.1638
    -1.0522  -1.0031  -0.8564  -0.5874  -0.5366  -0.4975  -0.4357  -0.3695
    -0.1996  -0.0929   0.1983   0.6032   0.6262   0.7638   1.0400   1.3745
     1.4573   1.4722   1.5380   1.5882   1.7816   1.9231   1.9942   2.0581
     2.1202   2.2067   2.2825   2.2999   2.5021   2.5611   2.6418   2.7300
     2.7522   2.7876   2.8786

          k = 0.0558 0.0322 0.0000 ( 19509 PWs)   bands (ev):

   -53.1053 -53.0655 -53.0306 -53.0013 -52.9919 -52.9792 -52.9661 -52.9633
   -52.9617 -52.9181 -52.8978 -52.8903 -29.4804 -29.4680 -29.4481 -29.4181
   -29.4156 -29.3941 -29.3741 -29.3579 -29.3515 -29.2584 -29.1890 -29.1527
   -29.1311 -29.1283 -28.9859 -28.9705 -28.9648 -28.9513 -28.9477 -28.9360
   -28.9347 -28.8877 -28.8350 -28.8234 -28.8134 -28.8053 -28.7530 -28.7410
   -28.7328 -28.7308 -28.7167 -28.7041 -28.6646 -28.6499 -28.6483 -28.5649
   -10.7967  -2.7488  -2.1156  -1.9369  -1.7943  -1.3903  -1.2103  -0.9873
    -0.9316  -0.9151  -0.6814  -0.5297  -0.4785  -0.3952  -0.2859  -0.2593
    -0.1421   0.0950   0.3122   0.6277   0.6477   0.7283   0.9194   1.2029
     1.3685   1.4543   1.4717   1.5857   1.8029   1.8191   1.8917   1.9590
     2.0149   2.0621   2.1412   2.2890   2.4524   2.4553   2.6056   2.6919
     2.7176   2.7869   2.8286

          k = 0.0558-0.1289 0.0000 ( 19505 PWs)   bands (ev):

   -53.0843 -53.0498 -53.0379 -53.0147 -53.0078 -52.9865 -52.9718 -52.9507
   -52.9491 -52.9250 -52.9075 -52.8867 -29.4283 -29.4066 -29.3801 -29.3782
   -29.3638 -29.3539 -29.3119 -29.2986 -29.2579 -29.2066 -29.1949 -29.1769
   -29.1636 -29.1302 -29.0968 -29.0552 -29.0051 -28.9575 -28.9512 -28.9422
   -28.9330 -28.9012 -28.8908 -28.8515 -28.8440 -28.8132 -28.7810 -28.7649
   -28.7574 -28.7439 -28.7036 -28.6987 -28.6913 -28.6717 -28.6536 -28.6077
   -10.7886  -2.3821  -1.9660  -1.8147  -1.7464  -1.3520  -0.9093  -0.8297
    -0.6862  -0.6030  -0.4887  -0.2964  -0.1751  -0.1465  -0.0190   0.1285
     0.1700   0.2652   0.4272   0.6180   0.6525   0.7616   0.8544   0.9649
     1.0677   1.1548   1.2075   1.3175   1.4925   1.5560   1.6096   1.6503
     1.7341   1.7925   1.8424   2.0373   2.1651   2.2118   2.3482   2.4511
     2.5559   2.8297   2.8481

          k = 0.0558-0.0967 0.0000 ( 19521 PWs)   bands (ev):

   -53.0680 -53.0400 -53.0387 -53.0194 -53.0143 -53.0104 -52.9678 -52.9455
   -52.9377 -52.9238 -52.9220 -52.8846 -29.3628 -29.3610 -29.3575 -29.3362
   -29.3276 -29.3207 -29.2677 -29.2644 -29.2557 -29.2084 -29.1845 -29.1568
   -29.1567 -29.1408 -29.1267 -29.0983 -29.0953 -29.0921 -28.9352 -28.9285
   -28.9278 -28.9277 -28.9102 -28.8241 -28.8188 -28.8119 -28.7756 -28.7555
   -28.7554 -28.7547 -28.7233 -28.7213 -28.7165 -28.6647 -28.6617 -28.6598
   -10.7845  -2.1274  -1.8859  -1.8641  -1.3858  -1.3672  -1.2084  -0.5071
    -0.5031  -0.3903  -0.1714  -0.0158  -0.0115   0.1339   0.1429   0.2308
     0.3752   0.3771   0.3797   0.6219   0.6491   0.6700   0.6974   0.7679
     0.8645   1.0081   1.0679   1.1489   1.1739   1.2431   1.2452   1.4324
     1.5399   1.5651   1.7860   1.7958   2.0417   2.3062   2.3763   2.3835
     2.7061   2.7914   2.8674

          k = 0.0558-0.0645 0.0000 ( 19505 PWs)   bands (ev):

   -53.0843 -53.0498 -53.0379 -53.0147 -53.0078 -52.9865 -52.9718 -52.9507
   -52.9490 -52.9250 -52.9075 -52.8867 -29.4283 -29.4066 -29.3801 -29.3782
   -29.3638 -29.3539 -29.3119 -29.2986 -29.2579 -29.2066 -29.1949 -29.1769
   -29.1636 -29.1302 -29.0968 -29.0552 -29.0051 -28.9575 -28.9512 -28.9422
   -28.9330 -28.9012 -28.8908 -28.8515 -28.8440 -28.8132 -28.7810 -28.7649
   -28.7574 -28.7439 -28.7036 -28.6987 -28.6913 -28.6717 -28.6536 -28.6077
   -10.7886  -2.3821  -1.9660  -1.8147  -1.7464  -1.3520  -0.9093  -0.8297
    -0.6862  -0.6030  -0.4887  -0.2964  -0.1751  -0.1465  -0.0190   0.1285
     0.1700   0.2652   0.4272   0.6180   0.6525   0.7616   0.8544   0.9649
     1.0677   1.1548   1.2075   1.3175   1.4925   1.5560   1.6096   1.6503
     1.7341   1.7925   1.8424   2.0373   2.1651   2.2118   2.3482   2.4511
     2.5559   2.8297   2.8481

          k =-0.0837 0.0483 0.0000 ( 19524 PWs)   bands (ev):

   -53.0784 -53.0586 -53.0352 -53.0286 -52.9952 -52.9792 -52.9661 -52.9623
   -52.9448 -52.9344 -52.8987 -52.8903 -29.4141 -29.4040 -29.3916 -29.3910
   -29.3881 -29.3812 -29.3026 -29.2942 -29.2392 -29.2316 -29.1796 -29.1778
   -29.0939 -29.0712 -29.0402 -29.0362 -29.0216 -29.0011 -28.9838 -28.9834
   -28.9166 -28.9133 -28.8869 -28.8828 -28.8782 -28.8720 -28.7671 -28.7636
   -28.7365 -28.7272 -28.7016 -28.6998 -28.6945 -28.6874 -28.6104 -28.6024
   -10.7886  -2.3716  -2.0221  -1.7312  -1.7167  -1.5957  -0.9136  -0.7545
    -0.5780  -0.5455  -0.4910  -0.4458  -0.2961  -0.1500   0.1447   0.1663
     0.2495   0.2967   0.3399   0.5069   0.8120   0.8223   0.9027   0.9503
     0.9883   1.1671   1.3528   1.4454   1.5767   1.5921   1.6509   1.7243
     1.7521   1.7733   1.8452   1.9717   2.0914   2.1972   2.2297   2.3412
     2.3771   2.8726   2.9129

          k =-0.0837 0.0806 0.0000 ( 19505 PWs)   bands (ev):

   -53.0843 -53.0498 -53.0379 -53.0147 -53.0078 -52.9865 -52.9718 -52.9507
   -52.9490 -52.9250 -52.9075 -52.8867 -29.4283 -29.4066 -29.3801 -29.3782
   -29.3638 -29.3539 -29.3119 -29.2986 -29.2579 -29.2066 -29.1949 -29.1769
   -29.1636 -29.1302 -29.0968 -29.0552 -29.0051 -28.9575 -28.9512 -28.9422
   -28.9330 -28.9012 -28.8908 -28.8515 -28.8440 -28.8132 -28.7810 -28.7649
   -28.7574 -28.7439 -28.7036 -28.6987 -28.6913 -28.6717 -28.6536 -28.6077
   -10.7886  -2.3821  -1.9660  -1.8147  -1.7464  -1.3520  -0.9093  -0.8297
    -0.6862  -0.6030  -0.4887  -0.2964  -0.1751  -0.1465  -0.0190   0.1285
     0.1700   0.2652   0.4272   0.6180   0.6525   0.7616   0.8544   0.9649
     1.0677   1.1548   1.2075   1.3175   1.4925   1.5560   1.6096   1.6503
     1.7341   1.7925   1.8424   2.0373   2.1651   2.2118   2.3482   2.4511
     2.5559   2.8297   2.8481

          k =-0.0837 0.1128 0.0000 ( 19505 PWs)   bands (ev):

   -53.0843 -53.0498 -53.0379 -53.0147 -53.0078 -52.9865 -52.9718 -52.9507
   -52.9491 -52.9250 -52.9075 -52.8867 -29.4283 -29.4066 -29.3801 -29.3782
   -29.3638 -29.3539 -29.3119 -29.2986 -29.2579 -29.2066 -29.1949 -29.1769
   -29.1636 -29.1302 -29.0968 -29.0552 -29.0051 -28.9575 -28.9512 -28.9422
   -28.9330 -28.9012 -28.8908 -28.8515 -28.8440 -28.8132 -28.7810 -28.7649
   -28.7574 -28.7439 -28.7036 -28.6987 -28.6913 -28.6717 -28.6536 -28.6077
   -10.7886  -2.3821  -1.9660  -1.8147  -1.7464  -1.3520  -0.9093  -0.8297
    -0.6862  -0.6030  -0.4887  -0.2964  -0.1751  -0.1465  -0.0190   0.1285
     0.1700   0.2652   0.4272   0.6180   0.6525   0.7616   0.8544   0.9649
     1.0677   1.1548   1.2075   1.3175   1.4925   1.5560   1.6096   1.6503
     1.7341   1.7925   1.8424   2.0373   2.1651   2.2118   2.3482   2.4511
     2.5559   2.8297   2.8481

          k =-0.0837-0.0483 0.0000 ( 19524 PWs)   bands (ev):

   -53.0784 -53.0586 -53.0352 -53.0286 -52.9952 -52.9792 -52.9661 -52.9623
   -52.9448 -52.9344 -52.8987 -52.8903 -29.4141 -29.4040 -29.3916 -29.3910
   -29.3881 -29.3812 -29.3026 -29.2942 -29.2392 -29.2316 -29.1796 -29.1778
   -29.0939 -29.0713 -29.0402 -29.0362 -29.0216 -29.0011 -28.9838 -28.9834
   -28.9166 -28.9133 -28.8869 -28.8828 -28.8782 -28.8720 -28.7671 -28.7636
   -28.7365 -28.7272 -28.7016 -28.6999 -28.6945 -28.6874 -28.6104 -28.6024
   -10.7886  -2.3716  -2.0221  -1.7312  -1.7167  -1.5957  -0.9136  -0.7545
    -0.5780  -0.5455  -0.4910  -0.4458  -0.2961  -0.1500   0.1447   0.1663
     0.2495   0.2967   0.3399   0.5069   0.8120   0.8223   0.9027   0.9503
     0.9883   1.1671   1.3528   1.4454   1.5767   1.5921   1.6509   1.7243
     1.7521   1.7733   1.8452   1.9717   2.0914   2.1972   2.2297   2.3412
     2.3771   2.8726   2.9129

     the Fermi energy is     2.0211 ev

!    total energy              =   -1446.75710128 Ry
     Harris-Foulkes estimate   =   -1446.75709981 Ry
     estimated scf accuracy    <       0.00000447 Ry

     The total energy is the sum of the following terms:

     one-electron contribution =  -11745.10741085 Ry
     hartree contribution      =    5867.32189871 Ry
     xc contribution           =    -237.13473878 Ry
     ewald contribution        =    4668.28031044 Ry
     electric field correction =       0.00004522 Ry
     smearing contrib. (-TS)   =      -0.11720602 Ry

     convergence has been achieved in   8 iterations
 
 BEEF-vdW xc energy contributions
           1 :   -203.259166007155     
           2 :    184.653690296763     
           3 :   -152.938846591059     
           4 :    116.598168117954     
           5 :   -83.7894852850590     
           6 :    59.6555656914405     
           7 :   -45.2330067755869     
           8 :    38.0874907570754     
           9 :   -34.1502153289597     
          10 :    29.7699805941764     
          11 :   -23.1082041409480     
          12 :    14.4207422532866     
          13 :   -5.35705556094788     
          14 :   -2.21506881172201     
          15 :    7.22051725449279     
          16 :   -9.79422444382081     
          17 :    11.0046989436264     
          18 :   -12.1395366558935     
          19 :    13.9756420958575     
          20 :   -16.4230807040283     
          21 :    18.6806962480736     
          22 :   -19.7653338750052     
          23 :    19.0871205175890     
          24 :   -16.7644698667626     
          25 :    13.5373989809415     
          26 :   -10.3714173721920     
          27 :    7.98959315447928     
          28 :   -6.58559973334195     
          29 :    5.83993288622031     
          30 :   -5.19683853617778     
          31 :   -23.4878514655840     
          32 :   -17.7081034616338     

     Forces acting on atoms (Ry/au):


     negative rho (up, down):  4.781E-03 0.000E+00
     atom    1 type  1   force =     0.00050884    0.00029411   -0.00264806
     atom    2 type  1   force =    -0.00050815    0.00029350   -0.00264808
     atom    3 type  1   force =    -0.00000061   -0.00058680   -0.00264784
     atom    4 type  1   force =     0.00000066    0.00000014   -0.00811234
     atom    5 type  1   force =     0.00000037   -0.00198331   -0.00470092
     atom    6 type  1   force =    -0.00000044    0.00000044    0.00365415
     atom    7 type  1   force =     0.00171727    0.00099149   -0.00470166
     atom    8 type  1   force =    -0.00171801    0.00099141   -0.00470140
     atom    9 type  1   force =     0.00000016    0.00000005   -0.02147312
     atom   10 type  1   force =     0.00000044   -0.02011389    0.01456802
     atom   11 type  1   force =    -0.01741953    0.01005716    0.01456833
     atom   12 type  1   force =     0.01741928    0.01005616    0.01456840
     atom   13 type  2   force =    -0.00000028   -0.00000048    0.00427451

     Total force =     0.048268     Total SCF correction =     0.005849
     SCF correction compared to forces is large: reduce conv_thr to get better values


     entering subroutine stress ...


     negative rho (up, down):  4.781E-03 0.000E+00
          total   stress  (Ry/bohr**3)                   (kbar)     P=  -16.02
  -0.00018577  -0.00000000  -0.00000000        -27.33     -0.00     -0.00
  -0.00000000  -0.00018577  -0.00000000         -0.00    -27.33     -0.00
  -0.00000000  -0.00000000   0.00004487         -0.00     -0.00      6.60


     number of scf cycles    =   2
     number of bfgs steps    =   1

     energy   old            =   -1446.7538249378 Ry
     energy   new            =   -1446.7571012795 Ry

     CASE: energy  _new < energy  _old

     new trust radius        =       0.0482283894 bohr
     new conv_thr            =       0.0000001000 Ry


ATOMIC_POSITIONS (crystal)
Nb1      0.166666667   0.166666667   0.402010442    0   0   0
Nb1      0.666666667   0.166666667   0.402010442    0   0   0
Nb1      0.166666667   0.666666667   0.402010442    0   0   0
Nb1      0.666666667   0.666666667   0.402010442    0   0   0
Nb1      0.833333333   0.333333333   0.500000000    0   0   0
Nb1      0.333333333   0.333333333   0.500000000    0   0   0
Nb1      0.833333333   0.833333333   0.500000000    0   0   0
Nb1      0.333333333   0.833333333   0.500000000    0   0   0
Nb1     -0.000000024  -0.000000141   0.596655016
Nb1      0.503514117  -0.007028222   0.598868230
Nb1     -0.007028340   0.503514301   0.598868295
Nb1      0.503514242   0.503514043   0.598868282
S1       0.333333413   0.333333144   0.668673315



     Writing output data file calc.save
     Check: negative starting charge=   -0.005084
     NEW-OLD atomic charge density approx. for the potential
     Check: negative starting charge=   -0.005111

     negative rho (up, down):  4.826E-03 0.000E+00
 
     Adding external electric field

     Computed dipole along edir(3) : 
        Dipole               -0.1364 Ry au,         -0.3468 Debye
        Dipole field         -0.0003 Ry au
 
        Potential amp.        0.0303 Ry
        Total length         45.8317 bohr
 

     total cpu time spent up to now is      832.4 secs

     per-process dynamical memory:    85.3 Mb

     Self-consistent Calculation

     iteration #  1     ecut=    36.75 Ry     beta=0.30
     Davidson diagonalization with overlap
     ethr =  1.00E-06,  avg # of iterations =  9.2

     negative rho (up, down):  4.818E-03 0.000E+00
 
     Adding external electric field

     Computed dipole along edir(3) : 
        Dipole               -0.1829 Ry au,         -0.4648 Debye
        Dipole field         -0.0004 Ry au
 
        Potential amp.        0.0406 Ry
        Total length         45.8317 bohr
 

     total cpu time spent up to now is      867.1 secs

     total energy              =   -1446.75933965 Ry
     Harris-Foulkes estimate   =   -1446.76112869 Ry
     estimated scf accuracy    <       0.00413236 Ry

     iteration #  2     ecut=    36.75 Ry     beta=0.30
     Davidson diagonalization with overlap
     ethr =  2.55E-06,  avg # of iterations =  5.6

     negative rho (up, down):  4.818E-03 0.000E+00
 
     Adding external electric field

     Computed dipole along edir(3) : 
[...]

   -53.1789 -53.1225 -53.1004 -53.0856 -53.0453 -53.0236 -53.0183 -52.9975
   -52.9627 -52.8907 -52.8716 -52.7177 -29.6338 -29.5453 -29.5120 -29.4944
   -29.4634 -29.4442 -29.4356 -29.4213 -29.3684 -29.3590 -29.2461 -29.2036
   -29.1951 -29.1626 -29.0493 -29.0469 -29.0325 -29.0220 -28.9634 -28.9442
   -28.9328 -28.9029 -28.8760 -28.8597 -28.8365 -28.8218 -28.7896 -28.7727
   -28.7421 -28.7317 -28.7267 -28.6805 -28.6164 -28.4889 -28.4460 -28.3915
   -10.7709  -2.8932  -2.1199  -1.9237  -1.7565  -1.4339  -1.3193  -1.2537
    -1.0795  -0.9959  -0.9041  -0.6616  -0.5554  -0.4944  -0.4171  -0.3745
    -0.1765  -0.1172   0.2067   0.5951   0.6723   0.7298   0.9022   1.0955
     1.2966   1.4731   1.5064   1.6111   1.7027   1.7768   1.9237   1.9491
     2.0065   2.1110   2.3226   2.3737   2.4359   2.5616   2.6240   2.6438
     2.8029   2.8119   2.8417

          k = 0.0558-0.0322 0.0000 ( 19509 PWs)   bands (ev):

   -53.1736 -53.1166 -53.1041 -53.0851 -53.0502 -53.0293 -53.0072 -53.0031
   -52.9629 -52.8937 -52.8723 -52.7172 -29.6135 -29.5190 -29.5083 -29.4603
   -29.4411 -29.4356 -29.4168 -29.3935 -29.3656 -29.3004 -29.2459 -29.2134
   -29.1972 -29.1762 -29.0522 -29.0470 -29.0354 -29.0026 -28.9833 -28.9791
   -28.9383 -28.9328 -28.9194 -28.8711 -28.8378 -28.8117 -28.7989 -28.7949
   -28.7802 -28.7569 -28.7056 -28.6906 -28.6177 -28.5051 -28.4420 -28.3872
   -10.7666  -2.7361  -2.0864  -1.8826  -1.7068  -1.4461  -1.2431  -1.0680
    -0.9924  -0.9569  -0.7136  -0.5385  -0.5154  -0.4322  -0.2772  -0.2726
    -0.1159   0.0429   0.3042   0.5644   0.6576   0.6922   0.8629   0.9627
     1.2373   1.4051   1.4382   1.5826   1.6338   1.6764   1.8231   1.8960
     1.9065   2.0251   2.2169   2.3283   2.3310   2.5073   2.5277   2.6431
     2.6949   2.7062   2.8544

          k = 0.0558 0.0000 0.0000 ( 19485 PWs)   bands (ev):

   -53.1789 -53.1225 -53.1004 -53.0856 -53.0453 -53.0236 -53.0183 -52.9975
   -52.9627 -52.8907 -52.8717 -52.7177 -29.6338 -29.5453 -29.5120 -29.4944
   -29.4634 -29.4442 -29.4356 -29.4213 -29.3684 -29.3590 -29.2461 -29.2036
   -29.1951 -29.1626 -29.0493 -29.0469 -29.0325 -29.0220 -28.9634 -28.9442
   -28.9328 -28.9029 -28.8760 -28.8597 -28.8365 -28.8218 -28.7896 -28.7727
   -28.7421 -28.7317 -28.7267 -28.6805 -28.6164 -28.4889 -28.4460 -28.3915
   -10.7709  -2.8932  -2.1199  -1.9237  -1.7565  -1.4339  -1.3193  -1.2537
    -1.0795  -0.9959  -0.9041  -0.6616  -0.5554  -0.4944  -0.4171  -0.3745
    -0.1765  -0.1172   0.2067   0.5951   0.6723   0.7298   0.9022   1.0955
     1.2966   1.4731   1.5064   1.6111   1.7027   1.7768   1.9237   1.9491
     2.0065   2.1110   2.3226   2.3737   2.4359   2.5616   2.6240   2.6438
     2.8029   2.8119   2.8418

          k = 0.0558 0.0322 0.0000 ( 19509 PWs)   bands (ev):

   -53.1736 -53.1166 -53.1041 -53.0851 -53.0502 -53.0293 -53.0072 -53.0031
   -52.9628 -52.8938 -52.8722 -52.7172 -29.6134 -29.5191 -29.5083 -29.4603
   -29.4411 -29.4356 -29.4168 -29.3934 -29.3656 -29.3004 -29.2459 -29.2134
   -29.1972 -29.1763 -29.0523 -29.0469 -29.0354 -29.0026 -28.9833 -28.9791
   -28.9383 -28.9328 -28.9194 -28.8711 -28.8378 -28.8117 -28.7990 -28.7949
   -28.7802 -28.7569 -28.7056 -28.6906 -28.6177 -28.5051 -28.4420 -28.3872
   -10.7666  -2.7361  -2.0864  -1.8826  -1.7068  -1.4461  -1.2431  -1.0680
    -0.9924  -0.9569  -0.7136  -0.5385  -0.5154  -0.4322  -0.2773  -0.2726
    -0.1159   0.0429   0.3042   0.5644   0.6576   0.6922   0.8629   0.9627
     1.2373   1.4051   1.4382   1.5826   1.6338   1.6764   1.8230   1.8960
     1.9065   2.0251   2.2169   2.3283   2.3310   2.5073   2.5277   2.6431
     2.6950   2.7062   2.8544

          k = 0.0558-0.1289 0.0000 ( 19505 PWs)   bands (ev):

   -53.1610 -53.1174 -53.0936 -53.0864 -53.0594 -53.0347 -53.0185 -52.9928
   -52.9608 -52.9045 -52.8707 -52.7163 -29.5613 -29.4718 -29.4517 -29.4191
   -29.3995 -29.3882 -29.3654 -29.3357 -29.2916 -29.2570 -29.2525 -29.2366
   -29.2058 -29.1809 -29.1129 -29.1087 -29.0569 -29.0324 -29.0152 -28.9937
   -28.9704 -28.9500 -28.9215 -28.8886 -28.8716 -28.8395 -28.8278 -28.8047
   -28.7928 -28.7676 -28.7376 -28.7013 -28.6565 -28.5108 -28.4575 -28.3770
   -10.7578  -2.3503  -1.9339  -1.7737  -1.6741  -1.3897  -0.9616  -0.9160
    -0.7619  -0.6347  -0.5476  -0.3695  -0.2044  -0.1293  -0.0596   0.0505
     0.1556   0.1882   0.4096   0.4559   0.6156   0.6928   0.8329   0.8878
     0.9968   1.0819   1.1583   1.2066   1.3250   1.4776   1.5522   1.5684
     1.6726   1.8007   1.8422   2.0258   2.1605   2.2394   2.3277   2.5072
     2.6561   2.7417   2.9132

          k = 0.0558-0.0967 0.0000 ( 19521 PWs)   bands (ev):

   -53.1525 -53.1229 -53.0888 -53.0754 -53.0598 -53.0542 -53.0192 -52.9884
   -52.9578 -52.9120 -52.8693 -52.7159 -29.5185 -29.4494 -29.4266 -29.3780
   -29.3686 -29.3473 -29.3219 -29.3024 -29.2772 -29.2740 -29.2533 -29.2379
   -29.2045 -29.1557 -29.1479 -29.1408 -29.1109 -29.0979 -29.0373 -29.0141
   -28.9660 -28.9579 -28.9370 -28.8782 -28.8688 -28.8256 -28.8198 -28.8063
   -28.8017 -28.7926 -28.7263 -28.7192 -28.7147 -28.5041 -28.4757 -28.3717
   -10.7535  -2.1035  -1.8210  -1.7685  -1.3914  -1.3597  -1.2772  -0.6635
    -0.6028  -0.4343  -0.2169  -0.1260  -0.0976  -0.0418   0.1374   0.2488
     0.2897   0.3621   0.3968   0.5413   0.5864   0.5943   0.6110   0.7900
     0.7974   0.7987   1.0044   1.0680   1.0968   1.1872   1.2823   1.3762
     1.5560   1.6846   1.6920   1.7483   1.8603   2.3016   2.3523   2.6117
     2.7566   2.8645   2.9003

          k = 0.0558-0.0645 0.0000 ( 19505 PWs)   bands (ev):

   -53.1610 -53.1175 -53.0936 -53.0863 -53.0594 -53.0347 -53.0185 -52.9928
   -52.9608 -52.9044 -52.8708 -52.7163 -29.5613 -29.4718 -29.4517 -29.4191
   -29.3994 -29.3882 -29.3654 -29.3357 -29.2916 -29.2570 -29.2525 -29.2366
   -29.2058 -29.1809 -29.1129 -29.1088 -29.0569 -29.0324 -29.0152 -28.9937
   -28.9704 -28.9500 -28.9215 -28.8887 -28.8716 -28.8395 -28.8278 -28.8047
   -28.7928 -28.7676 -28.7376 -28.7013 -28.6564 -28.5108 -28.4576 -28.3770
   -10.7578  -2.3503  -1.9339  -1.7737  -1.6741  -1.3897  -0.9616  -0.9160
    -0.7619  -0.6347  -0.5476  -0.3696  -0.2044  -0.1293  -0.0596   0.0505
     0.1557   0.1882   0.4097   0.4559   0.6156   0.6928   0.8329   0.8878
     0.9968   1.0819   1.1583   1.2066   1.3249   1.4776   1.5522   1.5684
     1.6726   1.8007   1.8422   2.0258   2.1605   2.2394   2.3277   2.5071
     2.6561   2.7417   2.9132

          k =-0.0837 0.0483 0.0000 ( 19524 PWs)   bands (ev):

   -53.1601 -53.1199 -53.0863 -53.0851 -53.0741 -53.0286 -53.0073 -53.0019
   -52.9624 -52.9018 -52.8723 -52.7162 -29.5619 -29.4731 -29.4525 -29.4350
   -29.4139 -29.3950 -29.3762 -29.3049 -29.2937 -29.2775 -29.2430 -29.2082
   -29.1997 -29.1089 -29.0978 -29.0863 -29.0586 -29.0573 -29.0185 -29.0149
   -28.9833 -28.9701 -28.9427 -28.9139 -28.8901 -28.8495 -28.8143 -28.8017
   -28.8007 -28.7587 -28.7523 -28.6655 -28.6460 -28.5225 -28.4455 -28.3784
   -10.7578  -2.3282  -1.9973  -1.7106  -1.6316  -1.6222  -1.0020  -0.7762
    -0.6639  -0.6146  -0.5481  -0.4387  -0.3227  -0.1506   0.0192   0.1018
     0.1503   0.2318   0.3191   0.5211   0.5656   0.8353   0.8483   0.9163
     0.9447   1.1569   1.2253   1.3031   1.4097   1.4672   1.6229   1.6247
     1.6505   1.7219   1.9326   1.9589   2.1113   2.1163   2.3367   2.3612
     2.6633   2.6966   3.0263

          k =-0.0837 0.0806 0.0000 ( 19505 PWs)   bands (ev):

   -53.1610 -53.1174 -53.0936 -53.0863 -53.0594 -53.0347 -53.0185 -52.9928
   -52.9608 -52.9044 -52.8708 -52.7163 -29.5613 -29.4718 -29.4517 -29.4191
   -29.3994 -29.3882 -29.3654 -29.3357 -29.2916 -29.2570 -29.2525 -29.2366
   -29.2058 -29.1810 -29.1129 -29.1087 -29.0569 -29.0324 -29.0152 -28.9937
   -28.9704 -28.9500 -28.9215 -28.8887 -28.8716 -28.8395 -28.8278 -28.8047
   -28.7928 -28.7676 -28.7376 -28.7013 -28.6564 -28.5108 -28.4576 -28.3770
   -10.7578  -2.3503  -1.9339  -1.7737  -1.6741  -1.3897  -0.9616  -0.9160
    -0.7619  -0.6347  -0.5476  -0.3696  -0.2044  -0.1293  -0.0596   0.0505
     0.1557   0.1882   0.4097   0.4559   0.6156   0.6928   0.8329   0.8878
     0.9968   1.0819   1.1583   1.2066   1.3250   1.4776   1.5522   1.5684
     1.6726   1.8007   1.8422   2.0258   2.1605   2.2394   2.3277   2.5071
     2.6561   2.7417   2.9132

          k =-0.0837 0.1128 0.0000 ( 19505 PWs)   bands (ev):

   -53.1610 -53.1174 -53.0936 -53.0864 -53.0594 -53.0347 -53.0185 -52.9928
   -52.9608 -52.9045 -52.8707 -52.7163 -29.5613 -29.4718 -29.4517 -29.4191
   -29.3995 -29.3881 -29.3654 -29.3357 -29.2916 -29.2570 -29.2525 -29.2366
   -29.2058 -29.1809 -29.1129 -29.1088 -29.0568 -29.0324 -29.0152 -28.9937
   -28.9704 -28.9500 -28.9215 -28.8887 -28.8716 -28.8395 -28.8278 -28.8047
   -28.7928 -28.7676 -28.7376 -28.7013 -28.6564 -28.5108 -28.4576 -28.3770
   -10.7578  -2.3503  -1.9339  -1.7737  -1.6741  -1.3897  -0.9616  -0.9160
    -0.7619  -0.6347  -0.5476  -0.3695  -0.2044  -0.1293  -0.0596   0.0505
     0.1557   0.1882   0.4097   0.4559   0.6156   0.6928   0.8329   0.8878
     0.9968   1.0819   1.1583   1.2066   1.3249   1.4776   1.5522   1.5684
     1.6726   1.8007   1.8422   2.0258   2.1605   2.2394   2.3277   2.5072
     2.6561   2.7417   2.9132

          k =-0.0837-0.0483 0.0000 ( 19524 PWs)   bands (ev):

   -53.1601 -53.1198 -53.0863 -53.0851 -53.0741 -53.0286 -53.0073 -53.0019
   -52.9623 -52.9020 -52.8722 -52.7162 -29.5618 -29.4731 -29.4525 -29.4351
   -29.4140 -29.3950 -29.3762 -29.3049 -29.2938 -29.2775 -29.2430 -29.2083
   -29.1997 -29.1088 -29.0978 -29.0864 -29.0587 -29.0573 -29.0185 -29.0150
   -28.9833 -28.9701 -28.9426 -28.9139 -28.8901 -28.8495 -28.8143 -28.8017
   -28.8007 -28.7587 -28.7522 -28.6655 -28.6461 -28.5225 -28.4455 -28.3784
   -10.7578  -2.3282  -1.9973  -1.7106  -1.6316  -1.6222  -1.0020  -0.7762
    -0.6639  -0.6146  -0.5480  -0.4387  -0.3227  -0.1506   0.0192   0.1018
     0.1503   0.2318   0.3191   0.5211   0.5656   0.8352   0.8484   0.9163
     0.9447   1.1569   1.2253   1.3031   1.4097   1.4673   1.6229   1.6247
     1.6505   1.7219   1.9326   1.9589   2.1113   2.1163   2.3367   2.3612
     2.6633   2.6966   3.0263

     the Fermi energy is     1.9666 ev

!    total energy              =   -1446.77860380 Ry
     Harris-Foulkes estimate   =   -1446.77860403 Ry
     estimated scf accuracy    <       0.00000003 Ry

     The total energy is the sum of the following terms:

     one-electron contribution =  -11736.48158185 Ry
     hartree contribution      =    5862.84766017 Ry
     xc contribution           =    -237.19591760 Ry
     ewald contribution        =    4664.15901342 Ry
     electric field correction =       0.00006454 Ry
     smearing contrib. (-TS)   =      -0.10784248 Ry

     convergence has been achieved in  10 iterations
 
 BEEF-vdW xc energy contributions
           1 :   -203.319130865370     
           2 :    184.704628840235     
           3 :   -152.975181666501     
           4 :    116.613129203533     
           5 :   -83.7692273756425     
           6 :    59.5775557034761     
           7 :   -45.0701819876554     
           8 :    37.8231269746971     
           9 :   -33.7992453170602     
          10 :    29.3889345585760     
          11 :   -22.7778228208339     
          12 :    14.2026951596089     
          13 :   -5.25122991316539     
          14 :   -2.27904919211977     
          15 :    7.34588318506877     
          16 :   -10.0560782575016     
          17 :    11.4047588972923     
          18 :   -12.6030939146406     
          19 :    14.3900554457669     
          20 :   -16.6944981615630     
          21 :    18.7801449085796     
          22 :   -19.7425969948327     
          23 :    19.0460941113998     
          24 :   -16.8111030760970     
          25 :    13.7250275345069     
          26 :   -10.6712877277096     
          27 :    8.30348986762453     
          28 :   -6.79592318496603     
          29 :    5.87319076416173     
          30 :   -5.06491981788582     
          31 :   -23.4909161293521     
          32 :   -17.7059337586956     

     Forces acting on atoms (Ry/au):


     negative rho (up, down):  4.796E-03 0.000E+00
     atom    1 type  1   force =     0.00206990    0.00119652   -0.00193920
     atom    2 type  1   force =    -0.00206947    0.00119504   -0.00193953
     atom    3 type  1   force =    -0.00000104   -0.00239101   -0.00193905
     atom    4 type  1   force =     0.00000201   -0.00000141    0.00016096
     atom    5 type  1   force =    -0.00000020    0.02645186   -0.01349898
     atom    6 type  1   force =    -0.00000070   -0.00000041    0.04602669
     atom    7 type  1   force =    -0.02290817   -0.01322557   -0.01350041
     atom    8 type  1   force =     0.02290704   -0.01322497   -0.01349401
     atom    9 type  1   force =    -0.00000029    0.00000077   -0.00001614
     atom   10 type  1   force =    -0.00000044    0.00075716    0.00024517
     atom   11 type  1   force =     0.00065666   -0.00037981    0.00024728
     atom   12 type  1   force =    -0.00065499   -0.00037868    0.00024692
     atom   13 type  2   force =    -0.00000030    0.00000050   -0.00059970

     Total force =     0.001504     Total SCF correction =     0.000460
     SCF correction compared to forces is large: reduce conv_thr to get better values


     entering subroutine stress ...


     negative rho (up, down):  4.796E-03 0.000E+00
          total   stress  (Ry/bohr**3)                   (kbar)     P=  -15.30
  -0.00015786   0.00000000  -0.00000000        -23.22      0.00     -0.00
   0.00000000  -0.00015786   0.00000000          0.00    -23.22      0.00
  -0.00000000   0.00000000   0.00000373         -0.00      0.00      0.55


     bfgs converged in  16 scf cycles and  15 bfgs steps
     (criteria: energy <  1.0E+00, force <  1.9E-03)

     End of BFGS Geometry Optimization

     Final energy   =   -1446.7786038020 Ry
Begin final coordinates

ATOMIC_POSITIONS (crystal)
Nb1      0.166666667   0.166666667   0.402010442    0   0   0
Nb1      0.666666667   0.166666667   0.402010442    0   0   0
Nb1      0.166666667   0.666666667   0.402010442    0   0   0
Nb1      0.666666667   0.666666667   0.402010442    0   0   0
Nb1      0.833333333   0.333333333   0.500000000    0   0   0
Nb1      0.333333333   0.333333333   0.500000000    0   0   0
Nb1      0.833333333   0.833333333   0.500000000    0   0   0
Nb1      0.333333333   0.833333333   0.500000000    0   0   0
Nb1     -0.000001006   0.000000513   0.581431481
Nb1      0.505143548  -0.010286770   0.602792905
Nb1     -0.010286239   0.505143229   0.602792593
Nb1      0.505143317   0.505143449   0.602792786
S1       0.333334644   0.333332647   0.672104633
End final coordinates



     Writing output data file calc.save
 
     init_run     :     13.02s CPU     13.52s WALL (       1 calls)
     electrons    :   5201.35s CPU   5538.10s WALL (      16 calls)
     update_pot   :     45.73s CPU     47.51s WALL (      15 calls)
     forces       :    264.64s CPU    279.98s WALL (      16 calls)
     stress       :    828.95s CPU    870.75s WALL (      16 calls)

     Called by init_run:
     wfcinit      :      5.23s CPU      5.34s WALL (       1 calls)
     potinit      :      1.98s CPU      2.14s WALL (       1 calls)

     Called by electrons:
     c_bands      :   2102.87s CPU   2221.89s WALL (     194 calls)
     sum_band     :   1056.81s CPU   1120.95s WALL (     194 calls)
     v_of_rho     :    325.31s CPU    357.64s WALL (     206 calls)
     newd         :    945.65s CPU    956.57s WALL (     206 calls)
     mix_rho      :     11.78s CPU     12.17s WALL (     194 calls)
     vdW_energy   :    178.07s CPU    196.79s WALL (     782 calls)
     vdW_ffts     :    424.20s CPU    441.95s WALL (    1596 calls)
     vdW_v        :    158.45s CPU    164.67s WALL (     782 calls)

     Called by c_bands:
     init_us_2    :     13.17s CPU     13.25s WALL (    2105 calls)
     cegterg      :   1935.32s CPU   1988.29s WALL (     970 calls)

     Called by *egterg:
     h_psi        :   1276.65s CPU   1306.71s WALL (    5187 calls)
     s_psi        :    115.19s CPU    115.44s WALL (    5187 calls)
     g_psi        :      7.51s CPU      7.48s WALL (    4212 calls)
     cdiaghg      :    182.76s CPU    184.01s WALL (    5087 calls)

     Called by h_psi:
     add_vuspsi   :    118.56s CPU    118.79s WALL (    5187 calls)

     General routines
     calbec       :    180.91s CPU    184.96s WALL (    6317 calls)
     fft          :    636.47s CPU    673.26s WALL (   47275 calls)
     ffts         :      0.77s CPU      0.81s WALL (     400 calls)
     fftw         :    791.94s CPU    824.91s WALL (  558908 calls)
     interpolate  :      7.15s CPU      7.32s WALL (     400 calls)
     davcio       :      0.00s CPU      0.03s WALL (       5 calls)
 
     Parallel routines
     fft_scatter  :    822.15s CPU    886.51s WALL (  606583 calls)
 
     PWSCF        :     1h47m CPU        1h53m WALL

 
   This run was terminated on:  11:42:47   3May2018            

=------------------------------------------------------------------------------=
   JOB DONE.
=------------------------------------------------------------------------------=
Job  /afs/slac/g/suncat/bin/suncat-tsmpirun -x LD_LIBRARY_PATH -wdir /scratch/qe712890_ZNOy9 pw.x -npool 4 -in pw.inp

TID   HOST_NAME   COMMAND_LINE            STATUS            TERMINATION_TIME
===== ========== ================  =======================  ===================
00000 suncat0251 pw.x -npool 4 -i  Done                     05/03/2018 11:42:47
00001 suncat0251 pw.x -npool 4 -i  Done                     05/03/2018 11:42:47
00002 suncat0251 pw.x -npool 4 -i  Done                     05/03/2018 11:42:47
00003 suncat0251 pw.x -npool 4 -i  Done                     05/03/2018 11:42:47
00004 suncat0251 pw.x -npool 4 -i  Done                     05/03/2018 11:42:47
00005 suncat0251 pw.x -npool 4 -i  Done                     05/03/2018 11:42:47
00006 suncat0251 pw.x -npool 4 -i  Done                     05/03/2018 11:42:47
00007 suncat0251 pw.x -npool 4 -i  Done                     05/03/2018 11:42:47
00008 suncat0249 pw.x -npool 4 -i  Done                     05/03/2018 11:42:47
00009 suncat0249 pw.x -npool 4 -i  Done                     05/03/2018 11:42:47
00010 suncat0249 pw.x -npool 4 -i  Done                     05/03/2018 11:42:47
00011 suncat0249 pw.x -npool 4 -i  Done                     05/03/2018 11:42:47
00012 suncat0249 pw.x -npool 4 -i  Done                     05/03/2018 11:42:47
00013 suncat0249 pw.x -npool 4 -i  Done                     05/03/2018 11:42:47
00014 suncat0249 pw.x -npool 4 -i  Done                     05/03/2018 11:42:47
00015 suncat0249 pw.x -npool 4 -i  Done                     05/03/2018 11:42:47
00016 suncat0212 pw.x -npool 4 -i  Done                     05/03/2018 11:42:47
00017 suncat0212 pw.x -npool 4 -i  Done                     05/03/2018 11:42:47
00018 suncat0212 pw.x -npool 4 -i  Done                     05/03/2018 11:42:47
00019 suncat0212 pw.x -npool 4 -i  Done                     05/03/2018 11:42:47
00020 suncat0212 pw.x -npool 4 -i  Done                     05/03/2018 11:42:47
00021 suncat0212 pw.x -npool 4 -i  Done                     05/03/2018 11:42:47
00022 suncat0212 pw.x -npool 4 -i  Done                     05/03/2018 11:42:47
00023 suncat0212 pw.x -npool 4 -i  Done                     05/03/2018 11:42:47
00024 suncat0211 pw.x -npool 4 -i  Done                     05/03/2018 11:42:47
00025 suncat0211 pw.x -npool 4 -i  Done                     05/03/2018 11:42:47
00026 suncat0211 pw.x -npool 4 -i  Done                     05/03/2018 11:42:47
00027 suncat0211 pw.x -npool 4 -i  Done                     05/03/2018 11:42:47
00028 suncat0211 pw.x -npool 4 -i  Done                     05/03/2018 11:42:47
00029 suncat0211 pw.x -npool 4 -i  Done                     05/03/2018 11:42:47
00030 suncat0211 pw.x -npool 4 -i  Done                     05/03/2018 11:42:47
00031 suncat0211 pw.x -npool 4 -i  Done                     05/03/2018 11:42:47
