  python dir          : /u/if/mamunm/src/espresso
  espresso dir        : /nfs/slac/g/suncatfs/sw/espv18/espresso-dynpy-beef/bin
  pseudo dir          : /u/if/mamunm/psp/gbrv1.5pbe
  ase-espresso py git : GITVERSION



     Program PWSCF v.5.1rc2 (svn rev. 11289) starts on  2May2018 at 19:57:57 

     This program is part of the open-source Quantum ESPRESSO suite
     for quantum simulation of materials; please cite
         "P. Giannozzi et al., J. Phys.:Condens. Matter 21 395502 (2009);
          URL http://www.quantum-espresso.org", 
     in publications or presentations arising from this work. More details at
     http://www.quantum-espresso.org/quote

     Parallel version (MPI), running on    32 processors
     K-points division:     npool     =       4
     R & G space division:  proc/nbgrp/npool/nimage =       8
     Reading input from pw.inp
     Message from routine read_cards :
     DEPRECATED: no units specified in CELL_PARAMETERS card

     Current dimensions of program PWSCF are:
     Max number of different atomic species (ntypx) = 10
     Max number of k-points (npk) =  40000
     Max angular momentum in pseudopotentials (lmaxx) =  3
     Presently stress not available with electric field


     **************************************************************************
     Initializing libbeef V0.1.1 with the BEEF-vdW functional.
     Citation: Wellendorff et al., PRB 85, 235149 (2012).
     **************************************************************************


     IMPORTANT: XC functional enforced from input :
     Exchange-correlation      = BEEF-VDW ( 1  4 27 13 2)
     Any further DFT definition will be discarded
     Please, verify this is what you really want


     Subspace diagonalization in iterative solution of the eigenvalue problem:
     a serial algorithm will be used

 
     Parallelization info
     --------------------
     sticks:   dense  smooth     PW     G-vecs:    dense   smooth      PW
     Min         465     186     53                90387    22883    3523
     Max         466     187     55                90396    22907    3532
     Sum        3721    1495    433               723123   183131   28227
 


     bravais-lattice index     =            0
     lattice parameter (alat)  =       1.8897  a.u.
     unit-cell volume          =    6082.7792 (a.u.)^3
     number of atoms/cell      =           13
     number of atomic types    =            2
     number of electrons       =       150.00
     number of Kohn-Sham states=           85
     kinetic-energy cutoff     =      36.7493  Ry
     charge density cutoff     =     367.4932  Ry
     convergence threshold     =      1.0E-05
     mixing beta               =       0.3000
     number of iterations used =           10  plain     mixing
     Exchange-correlation      = BEEF-VDW ( 1  4 27 13 2)
     nstep                     =           50


     celldm(1)=   1.889726  celldm(2)=   0.000000  celldm(3)=   0.000000
     celldm(4)=   0.000000  celldm(5)=   0.000000  celldm(6)=   0.000000

     crystal axes: (cart. coord. in units of alat)
               a(1) = (   6.421223   0.000000   0.000000 )  
               a(2) = (   3.210611   5.560942   0.000000 )  
               a(3) = (   0.000000   0.000000  25.242906 )  

     reciprocal axes: (cart. coord. in units 2 pi/alat)
               b(1) = (  0.155734 -0.089913  0.000000 )  
               b(2) = (  0.000000  0.179826  0.000000 )  
               b(3) = (  0.000000  0.000000  0.039615 )  


     PseudoPot. # 1 for Zr read from file:
     /u/if/mamunm/psp/gbrv1.5pbe/Zr.UPF
     MD5 check sum: 5db81b1e868ab7776c4564c113de050b
     Pseudo is Ultrasoft + core correction, Zval = 12.0
     Generated by new atomic code, or converted to UPF format
     Using radial grid of  887 points,  6 beta functions with: 
                l(1) =   0
                l(2) =   0
                l(3) =   1
                l(4) =   1
                l(5) =   2
                l(6) =   2
     Q(r) pseudized with  6 coefficients,  rinner =    1.200   1.200   1.200
                                                       1.200   1.200

     PseudoPot. # 2 for O  read from file:
     /u/if/mamunm/psp/gbrv1.5pbe/O.UPF
     MD5 check sum: 734c27235a0248c51dbae37a1fbe46ec
     Pseudo is Ultrasoft + core correction, Zval =  6.0
     Generated by new atomic code, or converted to UPF format
     Using radial grid of  737 points,  5 beta functions with: 
                l(1) =   0
                l(2) =   0
                l(3) =   1
                l(4) =   1
                l(5) =   2
     Q(r) pseudized with  8 coefficients,  rinner =    0.900   0.900   0.900
                                                       0.900   0.900

     vdW kernel table read from file vdW_kernel_table
     MD5 check sum: 095c7af220d748ca6e76c0b4c6cfb241

     atomic species   valence    mass     pseudopotential
        Zr1           12.00    91.22400     Zr( 1.00)
        O1             6.00    15.99900     O ( 1.00)

     No symmetry found



   Cartesian axes

     site n.     atom                  positions (alat units)
         1           Zr1 tau(   1) = (   1.6053057   0.9268237  10.0000000  )
         2           Zr1 tau(   2) = (   4.8159170   0.9268237  10.0000000  )
         3           Zr1 tau(   3) = (   3.2106113   3.7072946  10.0000000  )
         4           Zr1 tau(   4) = (   6.4212227   3.7072946  10.0000000  )
         5           Zr1 tau(   5) = (   6.4212227   1.8536473  12.6214532  )
         6           Zr1 tau(   6) = (   3.2106113   1.8536473  12.6214532  )
         7           Zr1 tau(   7) = (   8.0265283   4.6341183  12.6214532  )
         8           Zr1 tau(   8) = (   4.8159170   4.6341183  12.6214532  )
         9           Zr1 tau(   9) = (   0.0000000   0.0000000  15.2429064  )
        10           Zr1 tau(  10) = (   3.2106113   0.0000000  15.2429064  )
        11           Zr1 tau(  11) = (   1.6053057   2.7804710  15.2429064  )
        12           Zr1 tau(  12) = (   4.8159170   2.7804710  15.2429064  )
        13           O1  tau(  13) = (   0.0000000   0.0000000  17.2914064  )

     number of k points=    20  Fermi-Dirac smearing, width (Ry)=  0.0110
                       cart. coord. in units 2pi/alat
        k(    1) = (   0.0000000   0.0000000   0.0000000), wk =   0.0555556
        k(    2) = (   0.0000000   0.0299709   0.0000000), wk =   0.1111111
        k(    3) = (   0.0000000   0.0599419   0.0000000), wk =   0.1111111
        k(    4) = (   0.0000000  -0.0899128   0.0000000), wk =   0.0555556
        k(    5) = (   0.0259556  -0.0149855   0.0000000), wk =   0.1111111
        k(    6) = (   0.0259556   0.0149855   0.0000000), wk =   0.1111111
        k(    7) = (   0.0259556   0.0449564   0.0000000), wk =   0.1111111
        k(    8) = (   0.0259556  -0.1048983   0.0000000), wk =   0.1111111
        k(    9) = (   0.0259556  -0.0749274   0.0000000), wk =   0.1111111
        k(   10) = (   0.0259556  -0.0449564   0.0000000), wk =   0.1111111
        k(   11) = (   0.0519112  -0.0299709   0.0000000), wk =   0.1111111
        k(   12) = (   0.0519112   0.0000000   0.0000000), wk =   0.1111111
        k(   13) = (   0.0519112   0.0299709   0.0000000), wk =   0.1111111
        k(   14) = (   0.0519112  -0.1198838   0.0000000), wk =   0.1111111
        k(   15) = (   0.0519112  -0.0899128   0.0000000), wk =   0.1111111
        k(   16) = (   0.0519112  -0.0599419   0.0000000), wk =   0.1111111
        k(   17) = (  -0.0778668   0.0449564   0.0000000), wk =   0.0555556
        k(   18) = (  -0.0778668   0.0749274   0.0000000), wk =   0.1111111
        k(   19) = (  -0.0778668   0.1048983   0.0000000), wk =   0.1111111
        k(   20) = (  -0.0778668  -0.0449564   0.0000000), wk =   0.0555556

     Dense  grid:   723123 G-vectors     FFT dimensions: (  75,  75, 300)

     Smooth grid:   183131 G-vectors     FFT dimensions: (  48,  48, 192)

     Largest allocated arrays     est. size (Mb)     dimensions
        Kohn-Sham Wavefunctions         3.76 Mb     (    2896,   85)
        NL pseudopotentials            10.12 Mb     (    2896,  229)
        Each V/rho on FFT grid          3.26 Mb     (  213750)
        Each G-vector array             0.69 Mb     (   90391)
        G-vector shells                 0.18 Mb     (   23541)
     Largest temporary arrays     est. size (Mb)     dimensions
        Auxiliary wavefunctions        15.02 Mb     (    2896,  340)
        Each subspace H/S matrix        1.76 Mb     (     340,  340)
        Each <psi_i|beta_j> matrix      0.30 Mb     (     229,   85)
        Arrays for rho mixing          32.62 Mb     (  213750,   10)

     Initial potential from superposition of free atoms
     Check: negative starting charge=   -0.729294

     starting charge  149.97421, renormalised to  150.00000

     negative rho (up, down):  7.294E-01 0.000E+00


     ************************************************************************
     *
     * You are using vdW-DF for exchange-correlation in this calculation.
     * Please cite the following three references that made this development
     * possible:
     *
     *   M. Dion, H. Rydberg, E. Schroder, D. C. Langreth, and
     *   B. I. Lundqvist, Phys. Rev. Lett. 92, 246401 (2004).
     *
     *   T. Thonhauser, V. R. Cooper, S. Li, A. Puzder, P. Hyldgaard, and
     *   D. C. Langreth, Phys. Rev. B 76, 125112 (2007).
     *
     *   G. Roman-Perez and J. M. Soler, Phys. Rev. Lett. 103, 096102 (2009).
     *
     *
     * If you are using vdW-DF2, please also cite:
     *
     *   K. Lee, E. D. Murray, L. Kong, B. I. Lundqvist, and
     *   D. C. Langreth, Phys. Rev. B 82, 081101(R) (2010).
     *
     *
     * If you are calculating the stress with vdW-DF, please also cite:
     *
     *   R. Sabatini, E. Kucukbenli, B. Kolb, T. Thonhauser, and
     *   S. de Gironcoli, J. Phys.: Condens. Matter 24, 424209 (2012).
     *
     ************************************************************************

     Carrying out vdW-DF run using the following parameters:

     Nqs =      20    Nr_points =    1024   r_max =   100.000
     q_mesh =
               0.00001000     0.04494208     0.09755937     0.15916263
               0.23128650     0.31572767     0.41458969     0.53033537
               0.66584808     0.82450364     1.01025438     1.22772762
               1.48234092     1.78043706     2.12944203     2.53805004
               3.01644009     3.57652955     4.23227104     5.00000000

     Gradients computed in reciprocal space

     ************************************************************************


 
     Adding external electric field

     Computed dipole along edir(3) : 
        Dipole               -0.0091 Ry au,         -0.0231 Debye
        Dipole field         -0.0000 Ry au
 
        Potential amp.        0.0017 Ry
        Total length         46.5096 bohr
 
     Starting wfc are  160 randomized atomic wfcs

     total cpu time spent up to now is       15.5 secs

     per-process dynamical memory:    99.3 Mb

     Self-consistent Calculation

     iteration #  1     ecut=    36.75 Ry     beta=0.30
     Davidson diagonalization with overlap
     ethr =  1.00E-02,  avg # of iterations =  2.0

     negative rho (up, down):  7.334E-01 0.000E+00
 
     Adding external electric field

     Computed dipole along edir(3) : 
        Dipole               -4.1187 Ry au,        -10.4686 Debye
        Dipole field         -0.0085 Ry au
 
        Potential amp.        0.7915 Ry
        Total length         46.5096 bohr
 

     total cpu time spent up to now is       36.2 secs

     total energy              =   -1226.57588170 Ry
     Harris-Foulkes estimate   =   -1230.13675805 Ry
     estimated scf accuracy    <       7.57373733 Ry

     iteration #  2     ecut=    36.75 Ry     beta=0.30
     Davidson diagonalization with overlap
     ethr =  5.05E-03,  avg # of iterations = 10.2

     negative rho (up, down):  7.335E-01 0.000E+00
 
     Adding external electric field

     Computed dipole along edir(3) : 
        Dipole                2.4054 Ry au,          6.1139 Debye
        Dipole field          0.0050 Ry au
 
        Potential amp.       -0.4622 Ry
        Total length         46.5096 bohr
 

     total cpu time spent up to now is       68.2 secs

     total energy              =   -1213.35600189 Ry
     Harris-Foulkes estimate   =   -1241.06285200 Ry
     estimated scf accuracy    <     762.55212314 Ry

     iteration #  3     ecut=    36.75 Ry     beta=0.30
     Davidson diagonalization with overlap
     ethr =  5.05E-03,  avg # of iterations =  8.5

     negative rho (up, down):  7.326E-01 0.000E+00
 
     Adding external electric field

     Computed dipole along edir(3) : 
        Dipole                0.8815 Ry au,          2.2406 Debye
        Dipole field          0.0018 Ry au
 
        Potential amp.       -0.1694 Ry
        Total length         46.5096 bohr
 

     total cpu time spent up to now is       99.5 secs

     total energy              =   -1224.13815578 Ry
     Harris-Foulkes estimate   =   -1236.39793748 Ry
     estimated scf accuracy    <     353.17679009 Ry

     iteration #  4     ecut=    36.75 Ry     beta=0.30
     Davidson diagonalization with overlap
     ethr =  5.05E-03,  avg # of iterations =  4.7

     negative rho (up, down):  7.348E-01 0.000E+00
 
     Adding external electric field

     Computed dipole along edir(3) : 
        Dipole                0.7062 Ry au,          1.7949 Debye
        Dipole field          0.0015 Ry au
 
        Potential amp.       -0.1357 Ry
        Total length         46.5096 bohr
 

     total cpu time spent up to now is      125.3 secs

     total energy              =   -1229.46659631 Ry
     Harris-Foulkes estimate   =   -1229.56412255 Ry
     estimated scf accuracy    <       1.05741633 Ry

     iteration #  5     ecut=    36.75 Ry     beta=0.30
     Davidson diagonalization with overlap
     ethr =  7.05E-04,  avg # of iterations =  4.8

     negative rho (up, down):  7.387E-01 0.000E+00
 
     Adding external electric field

     Computed dipole along edir(3) : 
        Dipole                0.2969 Ry au,          0.7547 Debye
        Dipole field          0.0006 Ry au
 
        Potential amp.       -0.0571 Ry
        Total length         46.5096 bohr
 

     total cpu time spent up to now is      148.2 secs

     total energy              =   -1229.45728287 Ry
     Harris-Foulkes estimate   =   -1229.51042702 Ry
     estimated scf accuracy    <       0.40241608 Ry

     iteration #  6     ecut=    36.75 Ry     beta=0.30
     Davidson diagonalization with overlap
     ethr =  2.68E-04,  avg # of iterations =  5.8

     negative rho (up, down):  7.399E-01 0.000E+00
 
     Adding external electric field

     Computed dipole along edir(3) : 
        Dipole                0.3454 Ry au,          0.8780 Debye
        Dipole field          0.0007 Ry au
 
        Potential amp.       -0.0664 Ry
        Total length         46.5096 bohr
 

     total cpu time spent up to now is      171.6 secs

     total energy              =   -1229.45868554 Ry
     Harris-Foulkes estimate   =   -1229.48742974 Ry
     estimated scf accuracy    <       0.61442277 Ry

     iteration #  7     ecut=    36.75 Ry     beta=0.30
     Davidson diagonalization with overlap
     ethr =  2.68E-04,  avg # of iterations =  2.2

     negative rho (up, down):  7.433E-01 0.000E+00
 
     Adding external electric field

     Computed dipole along edir(3) : 
        Dipole                0.0111 Ry au,          0.0282 Debye
        Dipole field          0.0000 Ry au
 
        Potential amp.       -0.0021 Ry
        Total length         46.5096 bohr
 

     total cpu time spent up to now is      192.4 secs

     total energy              =   -1229.47047309 Ry
     Harris-Foulkes estimate   =   -1229.47747557 Ry
     estimated scf accuracy    <       0.05157417 Ry

     iteration #  8     ecut=    36.75 Ry     beta=0.30
     Davidson diagonalization with overlap
     ethr =  3.44E-05,  avg # of iterations =  6.2

     negative rho (up, down):  7.456E-01 0.000E+00
 
     Adding external electric field

     Computed dipole along edir(3) : 
        Dipole               -0.2577 Ry au,         -0.6550 Debye
        Dipole field         -0.0005 Ry au
 
        Potential amp.        0.0495 Ry
        Total length         46.5096 bohr
 

     total cpu time spent up to now is      217.8 secs

     total energy              =   -1229.46685763 Ry
     Harris-Foulkes estimate   =   -1229.47751393 Ry
     estimated scf accuracy    <       0.05536048 Ry

     iteration #  9     ecut=    36.75 Ry     beta=0.30
     Davidson diagonalization with overlap
     ethr =  3.44E-05,  avg # of iterations =  3.5

     negative rho (up, down):  7.466E-01 0.000E+00
 
     Adding external electric field

     Computed dipole along edir(3) : 
        Dipole               -0.3524 Ry au,         -0.8958 Debye
        Dipole field         -0.0007 Ry au
 
        Potential amp.        0.0677 Ry
        Total length         46.5096 bohr
 

     total cpu time spent up to now is      240.1 secs

     total energy              =   -1229.46781600 Ry
     Harris-Foulkes estimate   =   -1229.47013646 Ry
     estimated scf accuracy    <       0.01120883 Ry

     iteration # 10     ecut=    36.75 Ry     beta=0.30
     Davidson diagonalization with overlap
     ethr =  7.47E-06,  avg # of iterations =  5.8

     negative rho (up, down):  7.478E-01 0.000E+00
 
     Adding external electric field

     Computed dipole along edir(3) : 
        Dipole               -0.4103 Ry au,         -1.0428 Debye
        Dipole field         -0.0008 Ry au
 
        Potential amp.        0.0788 Ry
        Total length         46.5096 bohr
 

     total cpu time spent up to now is      265.0 secs

     total energy              =   -1229.46870340 Ry
     Harris-Foulkes estimate   =   -1229.46945939 Ry
     estimated scf accuracy    <       0.00592934 Ry

     iteration # 11     ecut=    36.75 Ry     beta=0.30
     Davidson diagonalization with overlap
     ethr =  3.95E-06,  avg # of iterations =  2.2

     negative rho (up, down):  7.484E-01 0.000E+00
 
     Adding external electric field

     Computed dipole along edir(3) : 
        Dipole               -0.4493 Ry au,         -1.1421 Debye
        Dipole field         -0.0009 Ry au
 
        Potential amp.        0.0864 Ry
        Total length         46.5096 bohr
 

     total cpu time spent up to now is      286.1 secs

     total energy              =   -1229.46886939 Ry
     Harris-Foulkes estimate   =   -1229.46888473 Ry
     estimated scf accuracy    <       0.00179730 Ry

     iteration # 12     ecut=    36.75 Ry     beta=0.30
     Davidson diagonalization with overlap
     ethr =  1.20E-06,  avg # of iterations =  4.6

     negative rho (up, down):  7.485E-01 0.000E+00
 
     Adding external electric field

     Computed dipole along edir(3) : 
        Dipole               -0.4708 Ry au,         -1.1968 Debye
        Dipole field         -0.0010 Ry au
 
        Potential amp.        0.0905 Ry
        Total length         46.5096 bohr
 

     total cpu time spent up to now is      309.6 secs

     total energy              =   -1229.46904473 Ry
     Harris-Foulkes estimate   =   -1229.46903134 Ry
     estimated scf accuracy    <       0.00048332 Ry

     iteration # 13     ecut=    36.75 Ry     beta=0.30
     Davidson diagonalization with overlap
     ethr =  3.22E-07,  avg # of iterations =  3.1

     negative rho (up, down):  7.487E-01 0.000E+00
 
     Adding external electric field

     Computed dipole along edir(3) : 
        Dipole               -0.4987 Ry au,         -1.2677 Debye
        Dipole field         -0.0010 Ry au
 
        Potential amp.        0.0958 Ry
        Total length         46.5096 bohr
 

     total cpu time spent up to now is      331.6 secs

     total energy              =   -1229.46909958 Ry
     Harris-Foulkes estimate   =   -1229.46901967 Ry
     estimated scf accuracy    <       0.00011288 Ry

     iteration # 14     ecut=    36.75 Ry     beta=0.30
     Davidson diagonalization with overlap
     ethr =  7.53E-08,  avg # of iterations =  5.2

     negative rho (up, down):  7.488E-01 0.000E+00
 
     Adding external electric field

     Computed dipole along edir(3) : 
        Dipole               -0.4974 Ry au,         -1.2642 Debye
        Dipole field         -0.0010 Ry au
 
        Potential amp.        0.0956 Ry
        Total length         46.5096 bohr
 

     total cpu time spent up to now is      356.8 secs

     total energy              =   -1229.46912865 Ry
     Harris-Foulkes estimate   =   -1229.46913896 Ry
     estimated scf accuracy    <       0.00012252 Ry

     iteration # 15     ecut=    36.75 Ry     beta=0.30
     Davidson diagonalization with overlap
     ethr =  7.53E-08,  avg # of iterations =  3.0

     negative rho (up, down):  7.488E-01 0.000E+00
 
     Adding external electric field

     Computed dipole along edir(3) : 
        Dipole               -0.5021 Ry au,         -1.2761 Debye
        Dipole field         -0.0010 Ry au
 
        Potential amp.        0.0965 Ry
        Total length         46.5096 bohr
 

     total cpu time spent up to now is      378.8 secs

     total energy              =   -1229.46914189 Ry
     Harris-Foulkes estimate   =   -1229.46912995 Ry
     estimated scf accuracy    <       0.00001528 Ry

     iteration # 16     ecut=    36.75 Ry     beta=0.30
     Davidson diagonalization with overlap
     ethr =  1.02E-08,  avg # of iterations =  5.5

     negative rho (up, down):  7.488E-01 0.000E+00
 
     Adding external electric field

     Computed dipole along edir(3) : 
        Dipole               -0.5011 Ry au,         -1.2735 Debye
        Dipole field         -0.0010 Ry au
 
        Potential amp.        0.0963 Ry
        Total length         46.5096 bohr
 

     total cpu time spent up to now is      404.2 secs

     total energy              =   -1229.46914351 Ry
     Harris-Foulkes estimate   =   -1229.46914646 Ry
     estimated scf accuracy    <       0.00001009 Ry

     iteration # 17     ecut=    36.75 Ry     beta=0.30
     Davidson diagonalization with overlap
     ethr =  6.73E-09,  avg # of iterations =  5.0

     negative rho (up, down):  7.488E-01 0.000E+00
 
     Adding external electric field

     Computed dipole along edir(3) : 
        Dipole               -0.5025 Ry au,         -1.2773 Debye
        Dipole field         -0.0010 Ry au
 
        Potential amp.        0.0966 Ry
        Total length         46.5096 bohr
 

     total cpu time spent up to now is      426.6 secs

     total energy              =   -1229.46914417 Ry
     Harris-Foulkes estimate   =   -1229.46914138 Ry
     estimated scf accuracy    <       0.00002539 Ry

     iteration # 18     ecut=    36.75 Ry     beta=0.30
     Davidson diagonalization with overlap
     ethr =  6.73E-09,  avg # of iterations =  1.5

     negative rho (up, down):  7.488E-01 0.000E+00

     negative rho (up, down):  7.488E-01 0.000E+00

     negative rho (up, down):  7.488E-01 0.000E+00

     negative rho (up, down):  7.488E-01 0.000E+00

     negative rho (up, down):  7.488E-01 0.000E+00

     negative rho (up, down):  7.488E-01 0.000E+00

     negative rho (up, down):  7.488E-01 0.000E+00

     negative rho (up, down):  7.488E-01 0.000E+00

     negative rho (up, down):  7.488E-01 0.000E+00

     negative rho (up, down):  7.488E-01 0.000E+00

     negative rho (up, down):  7.488E-01 0.000E+00

     negative rho (up, down):  7.488E-01 0.000E+00

     negative rho (up, down):  7.488E-01 0.000E+00

     negative rho (up, down):  7.488E-01 0.000E+00

     negative rho (up, down):  7.488E-01 0.000E+00

     negative rho (up, down):  7.488E-01 0.000E+00

     negative rho (up, down):  7.488E-01 0.000E+00

     negative rho (up, down):  7.488E-01 0.000E+00

     negative rho (up, down):  7.488E-01 0.000E+00

     negative rho (up, down):  7.488E-01 0.000E+00

     negative rho (up, down):  7.488E-01 0.000E+00

     negative rho (up, down):  7.488E-01 0.000E+00

     negative rho (up, down):  7.488E-01 0.000E+00

     negative rho (up, down):  7.488E-01 0.000E+00

     negative rho (up, down):  7.488E-01 0.000E+00

     negative rho (up, down):  7.488E-01 0.000E+00

     negative rho (up, down):  7.488E-01 0.000E+00

     negative rho (up, down):  7.488E-01 0.000E+00

     negative rho (up, down):  7.488E-01 0.000E+00

     negative rho (up, down):  7.488E-01 0.000E+00

     negative rho (up, down):  7.488E-01 0.000E+00

     negative rho (up, down):  7.488E-01 0.000E+00

     negative rho (up, down):  7.488E-01 0.000E+00

     negative rho (up, down):  7.488E-01 0.000E+00

     negative rho (up, down):  7.488E-01 0.000E+00
 
     Adding external electric field

     Computed dipole along edir(3) : 
        Dipole               -0.4928 Ry au,         -1.2527 Debye
        Dipole field         -0.0010 Ry au
 
        Potential amp.        0.0947 Ry
        Total length         46.5096 bohr
 

     total cpu time spent up to now is      506.9 secs

     End of self-consistent calculation

          k = 0.0000 0.0000 0.0000 ( 22923 PWs)   bands (ev):

   -48.3649 -48.2953 -48.2952 -48.2574 -48.1748 -48.1625 -48.1619 -47.9605
   -47.8795 -47.8782 -47.8780 -47.8612 -26.6015 -26.5835 -26.5834 -26.5316
   -26.5203 -26.5201 -26.5187 -26.4407 -26.4406 -26.3856 -26.3106 -26.2453
   -26.2450 -26.1353 -26.1110 -26.0588 -26.0586 -25.9998 -25.9996 -25.9862
   -25.9857 -25.9855 -25.9238 -25.8255 -25.8255 -25.8211 -25.8210 -25.7826
   -25.7553 -25.7553 -25.7332 -25.6896 -25.6852 -25.6851 -25.5395 -25.5394
   -15.1042  -3.9411  -2.8157  -2.0249  -1.6473  -1.6473  -1.5897  -1.5400
    -1.4570  -1.4570  -1.1849  -1.1145  -1.1145  -1.0075  -1.0074  -0.9994
    -0.7096  -0.7096  -0.6368   0.0325   0.3445   0.3446   0.9536   1.1929
     1.3456   1.3456   1.3769   1.5680   1.7332   1.7333   1.9025   1.9025
     1.9264   2.1501   2.1501   2.2103   2.2139

          k = 0.0000 0.0300 0.0000 ( 22902 PWs)   bands (ev):

   -48.3605 -48.2993 -48.2952 -48.2515 -48.1774 -48.1659 -48.1619 -47.9552
   -47.8856 -47.8781 -47.8769 -47.8623 -26.5751 -26.5574 -26.5482 -26.5198
   -26.4958 -26.4950 -26.4775 -26.4291 -26.4289 -26.3690 -26.3025 -26.2496
   -26.2450 -26.1520 -26.1129 -26.0492 -26.0482 -26.0276 -26.0186 -26.0173
   -25.9982 -25.9777 -25.9245 -25.8753 -25.8420 -25.8365 -25.8230 -25.7771
   -25.7672 -25.7577 -25.7259 -25.7130 -25.7089 -25.6774 -25.5844 -25.5496
   -15.1041  -3.7522  -2.6287  -1.8454  -1.6329  -1.5473  -1.5246  -1.4356
    -1.3918  -1.3150  -1.1736  -1.0798  -1.0774  -0.8731  -0.8058  -0.7918
    -0.6211  -0.6126  -0.5447   0.0807   0.3370   0.3613   0.9218   1.1788
     1.2419   1.3424   1.3714   1.5151   1.5436   1.5457   1.6494   1.8349
     1.9489   2.0009   2.0351   2.0532   2.0939

          k = 0.0000 0.0599 0.0000 ( 22852 PWs)   bands (ev):

   -48.3491 -48.3099 -48.2952 -48.2355 -48.1903 -48.1693 -48.1619 -47.9409
   -47.8996 -47.8781 -47.8770 -47.8637 -26.5248 -26.4911 -26.4900 -26.4514
   -26.4352 -26.4351 -26.4122 -26.4053 -26.3578 -26.3368 -26.2843 -26.2566
   -26.2516 -26.2003 -26.1277 -26.1167 -26.0894 -26.0729 -26.0150 -26.0134
   -25.9972 -25.9968 -25.9493 -25.9118 -25.9009 -25.8671 -25.8361 -25.7813
   -25.7700 -25.7684 -25.7603 -25.7579 -25.7201 -25.6999 -25.6516 -25.5770
   -15.1039  -3.2300  -2.1381  -1.8984  -1.4998  -1.3599  -1.3502  -1.2831
    -1.1341  -1.0185  -0.9592  -0.9250  -0.8624  -0.6459  -0.3454  -0.3356
    -0.3072  -0.2443  -0.2395   0.1784   0.3688   0.3840   0.6601   0.8743
     0.9285   1.0074   1.0987   1.1646   1.3036   1.4307   1.4563   1.4594
     1.5253   1.5715   1.6158   1.6679   1.8622

          k = 0.0000-0.0899 0.0000 ( 22880 PWs)   bands (ev):

   -48.3397 -48.3188 -48.2952 -48.2182 -48.2072 -48.1699 -48.1619 -47.9258
   -47.9146 -47.8781 -47.8772 -47.8643 -26.4964 -26.4645 -26.4423 -26.4369
   -26.3974 -26.3956 -26.3860 -26.3346 -26.3163 -26.2811 -26.2750 -26.2694
   -26.2208 -26.2142 -26.1947 -26.1800 -26.1528 -26.1335 -26.0744 -25.9937
   -25.9850 -25.9760 -25.9122 -25.9116 -25.9050 -25.8569 -25.8550 -25.8319
   -25.8160 -25.8008 -25.7650 -25.7610 -25.7604 -25.7160 -25.6197 -25.6095
   -15.1038  -2.5329  -2.5094  -1.6530  -1.5867  -1.2913  -1.2820  -1.1776
    -0.8383  -0.7986  -0.7424  -0.7178  -0.7142  -0.6139   0.0085   0.0229
     0.0426   0.0543   0.0853   0.1589   0.4774   0.5154   0.5281   0.5680
     0.6194   0.6669   0.8347   0.9244   0.9881   1.0207   1.1189   1.2088
     1.2852   1.3161   1.3380   1.4972   1.7168

          k = 0.0260-0.0150 0.0000 ( 22902 PWs)   bands (ev):

   -48.3605 -48.2992 -48.2953 -48.2515 -48.1776 -48.1653 -48.1624 -47.9552
   -47.8856 -47.8780 -47.8769 -47.8623 -26.5751 -26.5573 -26.5483 -26.5198
   -26.4956 -26.4953 -26.4775 -26.4291 -26.4290 -26.3690 -26.3026 -26.2494
   -26.2453 -26.1520 -26.1129 -26.0494 -26.0480 -26.0275 -26.0184 -26.0176
   -25.9983 -25.9777 -25.9245 -25.8753 -25.8421 -25.8365 -25.8229 -25.7771
   -25.7673 -25.7576 -25.7259 -25.7130 -25.7089 -25.6774 -25.5844 -25.5496
   -15.1041  -3.7522  -2.6287  -1.8454  -1.6329  -1.5473  -1.5246  -1.4357
    -1.3918  -1.3150  -1.1736  -1.0798  -1.0774  -0.8731  -0.8059  -0.7918
    -0.6211  -0.6126  -0.5447   0.0807   0.3370   0.3614   0.9218   1.1788
     1.2419   1.3424   1.3714   1.5151   1.5435   1.5457   1.6494   1.8350
     1.9489   2.0008   2.0352   2.0532   2.0941

          k = 0.0260 0.0150 0.0000 ( 22902 PWs)   bands (ev):

   -48.3605 -48.2992 -48.2953 -48.2515 -48.1776 -48.1654 -48.1623 -47.9552
   -47.8856 -47.8781 -47.8769 -47.8623 -26.5751 -26.5573 -26.5483 -26.5198
   -26.4957 -26.4952 -26.4775 -26.4291 -26.4289 -26.3690 -26.3026 -26.2494
   -26.2452 -26.1520 -26.1129 -26.0494 -26.0481 -26.0275 -26.0184 -26.0175
   -25.9983 -25.9777 -25.9245 -25.8753 -25.8420 -25.8365 -25.8230 -25.7771
   -25.7672 -25.7577 -25.7259 -25.7130 -25.7089 -25.6774 -25.5844 -25.5496
   -15.1041  -3.7522  -2.6287  -1.8454  -1.6329  -1.5473  -1.5246  -1.4357
    -1.3918  -1.3150  -1.1736  -1.0798  -1.0774  -0.8731  -0.8059  -0.7918
    -0.6212  -0.6126  -0.5447   0.0807   0.3370   0.3613   0.9218   1.1788
     1.2419   1.3424   1.3714   1.5151   1.5436   1.5457   1.6494   1.8350
     1.9489   2.0009   2.0352   2.0532   2.0941

          k = 0.0260 0.0450 0.0000 ( 22896 PWs)   bands (ev):

   -48.3525 -48.3065 -48.2954 -48.2405 -48.1832 -48.1738 -48.1595 -47.9454
   -47.8927 -47.8843 -47.8733 -47.8633 -26.5370 -26.5022 -26.4986 -26.4872
   -26.4637 -26.4253 -26.4231 -26.4089 -26.4077 -26.3450 -26.2888 -26.2549
   -26.2480 -26.1934 -26.1212 -26.0977 -26.0757 -26.0275 -26.0223 -26.0110
   -25.9921 -25.9885 -25.9720 -25.9100 -25.8829 -25.8603 -25.8331 -25.7864
   -25.7735 -25.7663 -25.7592 -25.7222 -25.6913 -25.6896 -25.6616 -25.5713
   -15.1040  -3.3947  -2.2847  -1.6507  -1.5633  -1.5064  -1.3844  -1.3105
    -1.2649  -1.1397  -1.1091  -0.9828  -0.8273  -0.6076  -0.5842  -0.4475
    -0.4216  -0.3802  -0.3375   0.1602   0.3285   0.3887   0.8035   0.9590
     1.0276   1.1212   1.1762   1.2465   1.3512   1.4545   1.5280   1.5599
     1.6386   1.7028   1.7226   1.8411   1.8713

          k = 0.0260-0.1049 0.0000 ( 22856 PWs)   bands (ev):

   -48.3402 -48.3179 -48.2957 -48.2222 -48.1977 -48.1803 -48.1570 -47.9291
   -47.9067 -47.8893 -47.8711 -47.8638 -26.4819 -26.4674 -26.4399 -26.4333
   -26.4047 -26.3897 -26.3650 -26.3516 -26.3198 -26.2982 -26.2894 -26.2688
   -26.2526 -26.2297 -26.2065 -26.1700 -26.1212 -26.0936 -26.0367 -26.0184
   -25.9811 -25.9705 -25.9487 -25.9093 -25.9055 -25.8924 -25.8643 -25.8429
   -25.7873 -25.7716 -25.7657 -25.7558 -25.7325 -25.7112 -25.6545 -25.6100
   -15.1038  -2.7644  -2.0581  -1.7454  -1.5039  -1.3744  -1.3018  -1.1727
    -1.1109  -0.8836  -0.7777  -0.6655  -0.4798  -0.4332  -0.1188  -0.0800
    -0.0625   0.0027   0.0283   0.3018   0.3923   0.4240   0.4916   0.6261
     0.6687   0.7339   0.8275   0.8873   0.9225   1.0724   1.1369   1.1866
     1.2416   1.2817   1.3221   1.4774   1.7129

          k = 0.0260-0.0749 0.0000 ( 22856 PWs)   bands (ev):

   -48.3402 -48.3179 -48.2957 -48.2222 -48.1977 -48.1803 -48.1570 -47.9291
   -47.9067 -47.8893 -47.8711 -47.8638 -26.4819 -26.4674 -26.4399 -26.4333
   -26.4047 -26.3897 -26.3650 -26.3516 -26.3198 -26.2981 -26.2894 -26.2688
   -26.2526 -26.2297 -26.2065 -26.1700 -26.1212 -26.0936 -26.0367 -26.0184
   -25.9811 -25.9705 -25.9487 -25.9093 -25.9056 -25.8924 -25.8643 -25.8429
   -25.7873 -25.7716 -25.7657 -25.7558 -25.7325 -25.7112 -25.6545 -25.6100
   -15.1038  -2.7644  -2.0581  -1.7454  -1.5039  -1.3744  -1.3018  -1.1727
    -1.1109  -0.8836  -0.7777  -0.6655  -0.4798  -0.4332  -0.1188  -0.0800
    -0.0625   0.0027   0.0283   0.3018   0.3922   0.4240   0.4916   0.6261
     0.6687   0.7339   0.8275   0.8873   0.9225   1.0724   1.1369   1.1866
     1.2416   1.2816   1.3221   1.4774   1.7129

          k = 0.0260-0.0450 0.0000 ( 22896 PWs)   bands (ev):

   -48.3525 -48.3064 -48.2954 -48.2405 -48.1832 -48.1737 -48.1595 -47.9454
   -47.8928 -47.8842 -47.8733 -47.8633 -26.5370 -26.5022 -26.4986 -26.4872
   -26.4637 -26.4253 -26.4231 -26.4089 -26.4077 -26.3450 -26.2888 -26.2549
   -26.2481 -26.1934 -26.1212 -26.0977 -26.0757 -26.0276 -26.0223 -26.0110
   -25.9921 -25.9885 -25.9720 -25.9100 -25.8830 -25.8603 -25.8330 -25.7864
   -25.7735 -25.7663 -25.7591 -25.7222 -25.6913 -25.6897 -25.6616 -25.5714
   -15.1040  -3.3947  -2.2847  -1.6507  -1.5633  -1.5064  -1.3844  -1.3105
    -1.2649  -1.1397  -1.1091  -0.9828  -0.8273  -0.6076  -0.5843  -0.4475
    -0.4216  -0.3802  -0.3375   0.1602   0.3285   0.3887   0.8035   0.9590
     1.0276   1.1212   1.1762   1.2465   1.3512   1.4544   1.5280   1.5599
     1.6386   1.7028   1.7226   1.8411   1.8713

          k = 0.0519-0.0300 0.0000 ( 22852 PWs)   bands (ev):

   -48.3491 -48.3097 -48.2953 -48.2355 -48.1906 -48.1685 -48.1624 -47.9409
   -47.8997 -47.8780 -47.8770 -47.8638 -26.5249 -26.4910 -26.4900 -26.4513
   -26.4355 -26.4349 -26.4121 -26.4054 -26.3578 -26.3368 -26.2844 -26.2562
   -26.2519 -26.2004 -26.1276 -26.1166 -26.0897 -26.0727 -26.0149 -26.0136
   -25.9973 -25.9967 -25.9492 -25.9118 -25.9009 -25.8671 -25.8360 -25.7814
   -25.7700 -25.7685 -25.7602 -25.7580 -25.7201 -25.6999 -25.6516 -25.5770
   -15.1039  -3.2300  -2.1381  -1.8984  -1.4998  -1.3599  -1.3501  -1.2831
    -1.1342  -1.0185  -0.9593  -0.9249  -0.8624  -0.6459  -0.3454  -0.3356
    -0.3073  -0.2442  -0.2395   0.1783   0.3689   0.3840   0.6601   0.8743
     0.9284   1.0074   1.0987   1.1646   1.3035   1.4307   1.4563   1.4594
     1.5253   1.5716   1.6158   1.6679   1.8621

          k = 0.0519 0.0000 0.0000 ( 22896 PWs)   bands (ev):

   -48.3525 -48.3064 -48.2955 -48.2405 -48.1835 -48.1733 -48.1597 -47.9454
   -47.8928 -47.8842 -47.8732 -47.8633 -26.5370 -26.5022 -26.4986 -26.4871
   -26.4637 -26.4252 -26.4232 -26.4090 -26.4077 -26.3450 -26.2888 -26.2546
   -26.2483 -26.1934 -26.1212 -26.0977 -26.0757 -26.0276 -26.0222 -26.0111
   -25.9921 -25.9884 -25.9720 -25.9100 -25.8830 -25.8603 -25.8330 -25.7864
   -25.7735 -25.7663 -25.7591 -25.7222 -25.6913 -25.6897 -25.6616 -25.5714
   -15.1040  -3.3947  -2.2847  -1.6507  -1.5633  -1.5064  -1.3844  -1.3105
    -1.2649  -1.1397  -1.1091  -0.9828  -0.8273  -0.6075  -0.5843  -0.4475
    -0.4216  -0.3802  -0.3375   0.1601   0.3284   0.3888   0.8035   0.9590
     1.0276   1.1212   1.1762   1.2464   1.3512   1.4544   1.5281   1.5600
     1.6386   1.7028   1.7226   1.8411   1.8712

          k = 0.0519 0.0300 0.0000 ( 22852 PWs)   bands (ev):

   -48.3491 -48.3098 -48.2953 -48.2355 -48.1905 -48.1687 -48.1623 -47.9409
   -47.8996 -47.8781 -47.8770 -47.8637 -26.5249 -26.4910 -26.4900 -26.4514
   -26.4354 -26.4349 -26.4121 -26.4054 -26.3578 -26.3368 -26.2844 -26.2563
   -26.2518 -26.2004 -26.1277 -26.1166 -26.0897 -26.0727 -26.0150 -26.0135
   -25.9973 -25.9967 -25.9493 -25.9118 -25.9009 -25.8671 -25.8361 -25.7813
   -25.7700 -25.7684 -25.7603 -25.7579 -25.7201 -25.6999 -25.6516 -25.5770
   -15.1039  -3.2300  -2.1381  -1.8984  -1.4998  -1.3599  -1.3501  -1.2831
    -1.1342  -1.0185  -0.9592  -0.9249  -0.8624  -0.6459  -0.3454  -0.3356
    -0.3072  -0.2442  -0.2395   0.1783   0.3689   0.3840   0.6601   0.8743
     0.9284   1.0074   1.0987   1.1646   1.3035   1.4307   1.4563   1.4594
     1.5253   1.5716   1.6158   1.6679   1.8621

          k = 0.0519-0.1199 0.0000 ( 22856 PWs)   bands (ev):

   -48.3402 -48.3179 -48.2957 -48.2222 -48.1979 -48.1801 -48.1570 -47.9291
   -47.9067 -47.8893 -47.8711 -47.8638 -26.4819 -26.4674 -26.4398 -26.4332
   -26.4048 -26.3897 -26.3650 -26.3516 -26.3198 -26.2982 -26.2894 -26.2686
   -26.2527 -26.2297 -26.2065 -26.1699 -26.1213 -26.0935 -26.0367 -26.0184
   -25.9812 -25.9705 -25.9487 -25.9093 -25.9054 -25.8924 -25.8643 -25.8429
   -25.7873 -25.7716 -25.7657 -25.7558 -25.7325 -25.7112 -25.6544 -25.6100
   -15.1038  -2.7644  -2.0581  -1.7454  -1.5039  -1.3744  -1.3018  -1.1726
    -1.1108  -0.8836  -0.7777  -0.6655  -0.4798  -0.4332  -0.1188  -0.0800
    -0.0625   0.0027   0.0283   0.3018   0.3922   0.4241   0.4916   0.6261
     0.6687   0.7339   0.8275   0.8873   0.9224   1.0724   1.1369   1.1866
     1.2415   1.2816   1.3221   1.4774   1.7129

          k = 0.0519-0.0899 0.0000 ( 22914 PWs)   bands (ev):

   -48.3287 -48.3286 -48.2962 -48.2106 -48.1965 -48.1959 -48.1542 -47.9188
   -47.9091 -47.8999 -47.8692 -47.8633 -26.4459 -26.4441 -26.4139 -26.4098
   -26.3891 -26.3787 -26.3249 -26.3150 -26.3116 -26.3083 -26.2880 -26.2483
   -26.2359 -26.2302 -26.2293 -26.2291 -26.2214 -26.0946 -26.0361 -25.9785
   -25.9741 -25.9734 -25.9541 -25.9255 -25.9091 -25.9061 -25.8639 -25.8599
   -25.8424 -25.7757 -25.7637 -25.7532 -25.7216 -25.6740 -25.6652 -25.6611
   -15.1038  -2.1448  -2.0760  -2.0752  -1.3722  -1.3668  -1.3481  -1.0683
    -1.0450  -0.9676  -0.3246  -0.3097  -0.2706  -0.2054  -0.1909  -0.1791
     0.2223   0.2243   0.2485   0.3160   0.3260   0.3306   0.3354   0.4368
     0.5017   0.5119   0.5525   0.8237   0.8287   0.8714   0.9602   0.9741
     1.0014   1.0572   1.1913   1.2759   1.5577

          k = 0.0519-0.0599 0.0000 ( 22856 PWs)   bands (ev):

   -48.3402 -48.3178 -48.2958 -48.2222 -48.1980 -48.1800 -48.1570 -47.9291
   -47.9068 -47.8892 -47.8710 -47.8639 -26.4820 -26.4674 -26.4398 -26.4332
   -26.4048 -26.3897 -26.3650 -26.3516 -26.3198 -26.2982 -26.2894 -26.2686
   -26.2526 -26.2297 -26.2065 -26.1699 -26.1213 -26.0935 -26.0367 -26.0184
   -25.9812 -25.9705 -25.9487 -25.9093 -25.9054 -25.8924 -25.8643 -25.8429
   -25.7873 -25.7716 -25.7657 -25.7559 -25.7325 -25.7112 -25.6544 -25.6100
   -15.1038  -2.7644  -2.0581  -1.7454  -1.5039  -1.3744  -1.3017  -1.1726
    -1.1108  -0.8836  -0.7777  -0.6655  -0.4798  -0.4332  -0.1189  -0.0800
    -0.0625   0.0027   0.0283   0.3018   0.3922   0.4241   0.4916   0.6261
     0.6687   0.7339   0.8275   0.8873   0.9224   1.0724   1.1369   1.1866
     1.2415   1.2816   1.3221   1.4774   1.7129

          k =-0.0779 0.0450 0.0000 ( 22880 PWs)   bands (ev):

   -48.3398 -48.3187 -48.2953 -48.2179 -48.2077 -48.1692 -48.1624 -47.9257
   -47.9147 -47.8780 -47.8772 -47.8644 -26.4965 -26.4646 -26.4421 -26.4367
   -26.3972 -26.3960 -26.3859 -26.3347 -26.3162 -26.2813 -26.2748 -26.2695
   -26.2210 -26.2139 -26.1946 -26.1803 -26.1521 -26.1339 -26.0742 -25.9938
   -25.9853 -25.9761 -25.9117 -25.9114 -25.9055 -25.8569 -25.8549 -25.8319
   -25.8162 -25.8008 -25.7650 -25.7609 -25.7604 -25.7160 -25.6195 -25.6097
   -15.1038  -2.5329  -2.5094  -1.6530  -1.5868  -1.2913  -1.2820  -1.1775
    -0.8384  -0.7985  -0.7424  -0.7178  -0.7142  -0.6139   0.0084   0.0229
     0.0425   0.0544   0.0853   0.1589   0.4774   0.5152   0.5283   0.5680
     0.6194   0.6669   0.8347   0.9243   0.9881   1.0207   1.1189   1.2087
     1.2852   1.3160   1.3380   1.4972   1.7167

          k =-0.0779 0.0749 0.0000 ( 22856 PWs)   bands (ev):

   -48.3402 -48.3178 -48.2958 -48.2221 -48.1981 -48.1799 -48.1571 -47.9291
   -47.9068 -47.8892 -47.8710 -47.8639 -26.4820 -26.4674 -26.4398 -26.4332
   -26.4048 -26.3897 -26.3650 -26.3516 -26.3198 -26.2982 -26.2895 -26.2688
   -26.2524 -26.2298 -26.2065 -26.1700 -26.1211 -26.0936 -26.0367 -26.0184
   -25.9812 -25.9705 -25.9488 -25.9093 -25.9054 -25.8924 -25.8643 -25.8429
   -25.7873 -25.7716 -25.7657 -25.7558 -25.7325 -25.7112 -25.6544 -25.6100
   -15.1038  -2.7644  -2.0581  -1.7454  -1.5040  -1.3744  -1.3017  -1.1726
    -1.1108  -0.8836  -0.7777  -0.6655  -0.4798  -0.4332  -0.1188  -0.0800
    -0.0626   0.0027   0.0283   0.3018   0.3922   0.4241   0.4917   0.6261
     0.6687   0.7339   0.8275   0.8873   0.9224   1.0724   1.1369   1.1865
     1.2415   1.2816   1.3221   1.4774   1.7129

          k =-0.0779 0.1049 0.0000 ( 22856 PWs)   bands (ev):

   -48.3402 -48.3178 -48.2958 -48.2222 -48.1981 -48.1799 -48.1571 -47.9291
   -47.9067 -47.8893 -47.8711 -47.8639 -26.4819 -26.4674 -26.4399 -26.4332
   -26.4048 -26.3897 -26.3650 -26.3516 -26.3198 -26.2981 -26.2894 -26.2689
   -26.2524 -26.2297 -26.2066 -26.1700 -26.1211 -26.0936 -26.0367 -26.0184
   -25.9812 -25.9705 -25.9487 -25.9093 -25.9055 -25.8924 -25.8643 -25.8429
   -25.7873 -25.7716 -25.7657 -25.7558 -25.7325 -25.7112 -25.6544 -25.6100
   -15.1038  -2.7644  -2.0581  -1.7454  -1.5040  -1.3744  -1.3017  -1.1726
    -1.1109  -0.8836  -0.7777  -0.6655  -0.4798  -0.4332  -0.1188  -0.0800
    -0.0625   0.0028   0.0283   0.3018   0.3922   0.4241   0.4917   0.6261
     0.6687   0.7339   0.8275   0.8873   0.9225   1.0724   1.1369   1.1865
     1.2415   1.2816   1.3221   1.4774   1.7129

          k =-0.0779-0.0450 0.0000 ( 22880 PWs)   bands (ev):

   -48.3398 -48.3187 -48.2953 -48.2180 -48.2076 -48.1693 -48.1623 -47.9258
   -47.9146 -47.8781 -47.8772 -47.8643 -26.4964 -26.4646 -26.4422 -26.4368
   -26.3972 -26.3959 -26.3859 -26.3347 -26.3162 -26.2812 -26.2748 -26.2695
   -26.2210 -26.2139 -26.1946 -26.1803 -26.1522 -26.1339 -26.0743 -25.9938
   -25.9851 -25.9760 -25.9118 -25.9115 -25.9054 -25.8569 -25.8550 -25.8319
   -25.8160 -25.8008 -25.7650 -25.7610 -25.7604 -25.7160 -25.6196 -25.6095
   -15.1038  -2.5329  -2.5094  -1.6530  -1.5867  -1.2913  -1.2820  -1.1775
    -0.8383  -0.7985  -0.7424  -0.7178  -0.7142  -0.6139   0.0085   0.0229
     0.0425   0.0543   0.0853   0.1589   0.4774   0.5153   0.5283   0.5680
     0.6194   0.6669   0.8347   0.9243   0.9881   1.0207   1.1189   1.2087
     1.2852   1.3160   1.3380   1.4972   1.7168

     the Fermi energy is     1.0254 ev

!    total energy              =   -1229.46914361 Ry
     Harris-Foulkes estimate   =   -1229.46916454 Ry
     estimated scf accuracy    <       0.00000152 Ry

     The total energy is the sum of the following terms:

     one-electron contribution =   -8423.83624147 Ry
     hartree contribution      =    4203.80090023 Ry
     xc contribution           =    -227.97390811 Ry
     ewald contribution        =    3218.65552463 Ry
     electric field correction =       0.00050178 Ry
     smearing contrib. (-TS)   =      -0.11592067 Ry

     convergence has been achieved in  18 iterations
 
 BEEF-vdW xc energy contributions
           1 :   -195.221544072230     
           2 :    176.417230135949     
           3 :   -144.856804944100     
           4 :    109.526807848591     
           5 :   -78.3930457631342     
           6 :    55.6834341076903     
           7 :   -41.3399170012934     
           8 :    32.4110386475556     
           9 :   -25.3240936495762     
          10 :    17.7956796538383     
          11 :   -9.57803101080665     
          12 :    1.94455727598799     
          13 :    3.53948058316726     
          14 :   -6.13786581271350     
          15 :    6.33954872345015     
          16 :   -5.44678400556998     
          17 :    4.74526370037464     
          18 :   -4.81486480235694     
          19 :    5.37341948387774     
          20 :   -5.67115944750461     
          21 :    5.11072981822494     
          22 :   -3.67415645553515     
          23 :    1.91213322518470     
          24 :  -0.558365252652806     
          25 :   6.289205341394677E-002
          26 :  -0.351127783346982     
          27 :   0.932544028571698     
          28 :   -1.25468171353606     
          29 :    1.05290832105158     
          30 :  -0.474873941104789     
          31 :   -22.5894388897079     
          32 :   -16.7640611052799     

     Forces acting on atoms (Ry/au):


     negative rho (up, down):  7.488E-01 0.000E+00
     atom    1 type  1   force =     0.00071543    0.00039834    0.01535590
     atom    2 type  1   force =    -0.00071514    0.00040295    0.01534433
     atom    3 type  1   force =     0.00000325   -0.00080942    0.01539066
     atom    4 type  1   force =    -0.00000136    0.00000826    0.01498293
     atom    5 type  1   force =     0.00000649    0.01013917   -0.01057777
     atom    6 type  1   force =    -0.00000741    0.00002920    0.00462812
     atom    7 type  1   force =    -0.00875739   -0.00508924   -0.01058358
     atom    8 type  1   force =     0.00875746   -0.00507989   -0.01060023
     atom    9 type  1   force =    -0.00000356   -0.00001178    0.14401457
     atom   10 type  1   force =     0.00000194    0.00130731   -0.00872870
     atom   11 type  1   force =     0.00114282   -0.00064676   -0.00871129
     atom   12 type  1   force =    -0.00114204   -0.00064847   -0.00871585
     atom   13 type  2   force =    -0.00000048    0.00000034   -0.15179909

     Total force =     0.209801     Total SCF correction =     0.000928


     entering subroutine stress ...


     negative rho (up, down):  7.488E-01 0.000E+00
          total   stress  (Ry/bohr**3)                   (kbar)     P=  -14.57
  -0.00005973   0.00000000   0.00000000         -8.79      0.00      0.00
   0.00000000  -0.00005973   0.00000000          0.00     -8.79      0.00
   0.00000000   0.00000000  -0.00017759          0.00      0.00    -26.12


     BFGS Geometry Optimization

     number of scf cycles    =   1
     number of bfgs steps    =   0

     energy   new            =   -1229.4691436112 Ry

     new trust radius        =       0.1517990920 bohr
     new conv_thr            =       0.0000099958 Ry


ATOMIC_POSITIONS (crystal)
Zr1      0.166666667   0.166666667   0.396150897    0   0   0
Zr1      0.666666667   0.166666667   0.396150897    0   0   0
Zr1      0.166666667   0.666666667   0.396150897    0   0   0
Zr1      0.666666667   0.666666667   0.396150897    0   0   0
Zr1      0.833333333   0.333333333   0.500000000    0   0   0
Zr1      0.333333333   0.333333333   0.500000000    0   0   0
Zr1      0.833333333   0.833333333   0.500000000    0   0   0
Zr1      0.333333333   0.833333333   0.500000000    0   0   0
Zr1      0.000000267  -0.000001121   0.606868138
Zr1      0.499937959   0.000124403   0.603666120
Zr1      0.000124953   0.499938454   0.603666484
Zr1      0.499936738   0.499938292   0.603666389
O1      -0.000000056   0.000000033   0.681818389



     Writing output data file calc.save
     Check: negative starting charge=   -0.729294
     NEW-OLD atomic charge density approx. for the potential
     Check: negative starting charge=   -0.729856

     negative rho (up, down):  7.494E-01 0.000E+00
 
     Adding external electric field

     Computed dipole along edir(3) : 
        Dipole               -0.4926 Ry au,         -1.2520 Debye
        Dipole field         -0.0010 Ry au
 
        Potential amp.        0.0947 Ry
        Total length         46.5096 bohr
 

     total cpu time spent up to now is      584.5 secs

     per-process dynamical memory:    94.5 Mb

     Self-consistent Calculation

     iteration #  1     ecut=    36.75 Ry     beta=0.30
     Davidson diagonalization with overlap
     c_bands:  2 eigenvalues not converged
     c_bands:  2 eigenvalues not converged
     ethr =  1.00E-06,  avg # of iterations = 14.9

     negative rho (up, down):  7.492E-01 0.000E+00
 
     Adding external electric field

     Computed dipole along edir(3) : 
        Dipole               -0.8609 Ry au,         -2.1881 Debye
        Dipole field         -0.0018 Ry au
 
        Potential amp.        0.1654 Ry
        Total length         46.5096 bohr
 

     total cpu time spent up to now is      623.0 secs

     total energy              =   -1229.49427978 Ry
     Harris-Foulkes estimate   =   -1229.50494557 Ry
     estimated scf accuracy    <       0.02554837 Ry

     iteration #  2     ecut=    36.75 Ry     beta=0.30
     Davidson diagonalization with overlap
     ethr =  1.70E-05,  avg # of iterations =  7.3

     negative rho (up, down):  7.492E-01 0.000E+00
 
     Adding external electric field

     Computed dipole along edir(3) : 
        Dipole               -0.4503 Ry au,         -1.1445 Debye
        Dipole field         -0.0009 Ry au
 
        Potential amp.        0.0865 Ry
        Total length         46.5096 bohr
 

     total cpu time spent up to now is      651.1 secs

     total energy              =   -1229.39379109 Ry
     Harris-Foulkes estimate   =   -1229.61863686 Ry
     estimated scf accuracy    <      10.40789780 Ry

     iteration #  3     ecut=    36.75 Ry     beta=0.30
     Davidson diagonalization with overlap
     ethr =  1.70E-05,  avg # of iterations =  7.2

     negative rho (up, down):  7.492E-01 0.000E+00
 
     Adding external electric field

     Computed dipole along edir(3) : 
        Dipole               -0.4383 Ry au,         -1.1139 Debye
        Dipole field         -0.0009 Ry au
 
        Potential amp.        0.0842 Ry
        Total length         46.5096 bohr
 

     total cpu time spent up to now is      679.7 secs

     total energy              =   -1229.49952755 Ry
     Harris-Foulkes estimate   =   -1229.50528344 Ry
     estimated scf accuracy    <       0.05272057 Ry

     iteration #  4     ecut=    36.75 Ry     beta=0.30
     Davidson diagonalization with overlap
     ethr =  1.70E-05,  avg # of iterations =  4.0

     negative rho (up, down):  7.492E-01 0.000E+00
 
     Adding external electric field

     Computed dipole along edir(3) : 
        Dipole               -0.4142 Ry au,         -1.0529 Debye
        Dipole field         -0.0009 Ry au
 
        Potential amp.        0.0796 Ry
        Total length         46.5096 bohr
 

     total cpu time spent up to now is      703.9 secs

     total energy              =   -1229.50172607 Ry
     Harris-Foulkes estimate   =   -1229.50437694 Ry
     estimated scf accuracy    <       0.02460889 Ry

     iteration #  5     ecut=    36.75 Ry     beta=0.30
     Davidson diagonalization with overlap
     ethr =  1.64E-05,  avg # of iterations =  2.8

     negative rho (up, down):  7.491E-01 0.000E+00
 
     Adding external electric field

     Computed dipole along edir(3) : 
        Dipole               -0.4061 Ry au,         -1.0322 Debye
        Dipole field         -0.0008 Ry au
 
        Potential amp.        0.0780 Ry
        Total length         46.5096 bohr
 

     total cpu time spent up to now is      725.9 secs

     total energy              =   -1229.50278352 Ry
     Harris-Foulkes estimate   =   -1229.50306800 Ry
     estimated scf accuracy    <       0.00109158 Ry

     iteration #  6     ecut=    36.75 Ry     beta=0.30
     Davidson diagonalization with overlap
     ethr =  7.28E-07,  avg # of iterations =  6.7

     negative rho (up, down):  7.491E-01 0.000E+00
 
     Adding external electric field

     Computed dipole along edir(3) : 
        Dipole               -0.4013 Ry au,         -1.0201 Debye
        Dipole field         -0.0008 Ry au
 
        Potential amp.        0.0771 Ry
        Total length         46.5096 bohr
 

     total cpu time spent up to now is      753.4 secs

     total energy              =   -1229.50298425 Ry
     Harris-Foulkes estimate   =   -1229.50308995 Ry
     estimated scf accuracy    <       0.00067098 Ry

     iteration #  7     ecut=    36.75 Ry     beta=0.30
     Davidson diagonalization with overlap
     ethr =  4.47E-07,  avg # of iterations =  3.4

     negative rho (up, down):  7.491E-01 0.000E+00
 
     Adding external electric field

     Computed dipole along edir(3) : 
        Dipole               -0.3987 Ry au,         -1.0134 Debye
        Dipole field         -0.0008 Ry au
 
        Potential amp.        0.0766 Ry
        Total length         46.5096 bohr
 

     total cpu time spent up to now is      776.4 secs

     total energy              =   -1229.50301911 Ry
     Harris-Foulkes estimate   =   -1229.50304595 Ry
     estimated scf accuracy    <       0.00018387 Ry

     iteration #  8     ecut=    36.75 Ry     beta=0.30
     Davidson diagonalization with overlap
     ethr =  1.23E-07,  avg # of iterations =  4.2

     negative rho (up, down):  7.491E-01 0.000E+00
 
     Adding external electric field

     Computed dipole along edir(3) : 
        Dipole               -0.4000 Ry au,         -1.0166 Debye
        Dipole field         -0.0008 Ry au
 
        Potential amp.        0.0769 Ry
        Total length         46.5096 bohr
 

     total cpu time spent up to now is      800.4 secs

     total energy              =   -1229.50304212 Ry
     Harris-Foulkes estimate   =   -1229.50304336 Ry
     estimated scf accuracy    <       0.00006866 Ry

     iteration #  9     ecut=    36.75 Ry     beta=0.30
     Davidson diagonalization with overlap
     ethr =  4.58E-08,  avg # of iterations =  2.9

     negative rho (up, down):  7.491E-01 0.000E+00
 
     Adding external electric field

     Computed dipole along edir(3) : 
        Dipole               -0.4002 Ry au,         -1.0172 Debye
        Dipole field         -0.0008 Ry au
 
        Potential amp.        0.0769 Ry
        Total length         46.5096 bohr
 

     total cpu time spent up to now is      822.0 secs

     total energy              =   -1229.50304565 Ry
     Harris-Foulkes estimate   =   -1229.50304615 Ry
     estimated scf accuracy    <       0.00002741 Ry

     iteration # 10     ecut=    36.75 Ry     beta=0.30
     Davidson diagonalization with overlap
     ethr =  1.83E-08,  avg # of iterations =  3.5

     negative rho (up, down):  7.491E-01 0.000E+00

     negative rho (up, down):  7.491E-01 0.000E+00

     negative rho (up, down):  7.491E-01 0.000E+00

     negative rho (up, down):  7.491E-01 0.000E+00

     negative rho (up, down):  7.491E-01 0.000E+00

     negative rho (up, down):  7.491E-01 0.000E+00

     negative rho (up, down):  7.491E-01 0.000E+00

     negative rho (up, down):  7.491E-01 0.000E+00

     negative rho (up, down):  7.491E-01 0.000E+00

     negative rho (up, down):  7.491E-01 0.000E+00

     negative rho (up, down):  7.491E-01 0.000E+00

     negative rho (up, down):  7.491E-01 0.000E+00

     negative rho (up, down):  7.491E-01 0.000E+00

     negative rho (up, down):  7.491E-01 0.000E+00

     negative rho (up, down):  7.491E-01 0.000E+00

     negative rho (up, down):  7.491E-01 0.000E+00

     negative rho (up, down):  7.491E-01 0.000E+00

     negative rho (up, down):  7.491E-01 0.000E+00

     negative rho (up, down):  7.491E-01 0.000E+00

     negative rho (up, down):  7.491E-01 0.000E+00

     negative rho (up, down):  7.491E-01 0.000E+00

     negative rho (up, down):  7.491E-01 0.000E+00

     negative rho (up, down):  7.491E-01 0.000E+00

     negative rho (up, down):  7.491E-01 0.000E+00

     negative rho (up, down):  7.491E-01 0.000E+00

     negative rho (up, down):  7.491E-01 0.000E+00

     negative rho (up, down):  7.491E-01 0.000E+00

     negative rho (up, down):  7.491E-01 0.000E+00

     negative rho (up, down):  7.491E-01 0.000E+00

     negative rho (up, down):  7.491E-01 0.000E+00

     negative rho (up, down):  7.491E-01 0.000E+00

     negative rho (up, down):  7.491E-01 0.000E+00

     negative rho (up, down):  7.491E-01 0.000E+00

     negative rho (up, down):  7.491E-01 0.000E+00

     negative rho (up, down):  7.491E-01 0.000E+00
 
     Adding external electric field

     Computed dipole along edir(3) : 
        Dipole               -0.3941 Ry au,         -1.0017 Debye
        Dipole field         -0.0008 Ry au
 
        Potential amp.        0.0757 Ry
        Total length         46.5096 bohr
 

     total cpu time spent up to now is      904.7 secs

     End of self-consistent calculation

          k = 0.0000 0.0000 0.0000 ( 22923 PWs)   bands (ev):

   -48.2385 -48.1692 -48.1689 -48.1622 -48.0801 -48.0666 -48.0664 -47.8703
   -47.7936 -47.7934 -47.7663 -47.6369 -26.4832 -26.4587 -26.4586 -26.4222
   -26.4180 -26.4121 -26.4119 -26.3320 -26.3318 -26.2926 -26.2101 -26.1383
   -26.1381 -26.0250 -26.0121 -25.9622 -25.9620 -25.8983 -25.8982 -25.8943
   -25.8909 -25.8619 -25.8617 -25.7296 -25.7296 -25.7218 -25.7217 -25.6932
   -25.6761 -25.6108 -25.6107 -25.6015 -25.5487 -25.5486 -25.4470 -25.4470
   -15.2639  -3.8394  -2.7154  -1.9992  -1.8273  -1.8272  -1.6473  -1.4441
    -1.3691  -1.3691  -1.2266  -1.2139  -1.2139  -0.8992  -0.8985  -0.8985
    -0.6392  -0.6392  -0.5686   0.1328   0.4471   0.4471   1.0572   1.2931
     1.4434   1.4434   1.4568   1.6684   1.8327   1.8328   2.0166   2.0170
     2.0283   2.2656   2.2729   2.2740   2.2905

          k = 0.0000 0.0300 0.0000 ( 22902 PWs)   bands (ev):

   -48.2341 -48.1729 -48.1692 -48.1563 -48.0827 -48.0697 -48.0667 -47.8650
   -47.7976 -47.7934 -47.7677 -47.6373 -26.4557 -26.4330 -26.4241 -26.4091
   -26.3937 -26.3869 -26.3735 -26.3188 -26.3181 -26.2751 -26.2033 -26.1453
   -26.1400 -26.0295 -26.0288 -25.9522 -25.9503 -25.9257 -25.9221 -25.8995
   -25.8877 -25.8857 -25.8666 -25.7848 -25.7409 -25.7227 -25.7190 -25.6888
   -25.6691 -25.6332 -25.6279 -25.6007 -25.5740 -25.5540 -25.4919 -25.4569
   -15.2638  -3.6508  -2.5295  -1.8807  -1.7925  -1.7897  -1.5552  -1.3723
    -1.3153  -1.2358  -1.2220  -1.1252  -1.1117  -0.7832  -0.7047  -0.6912
    -0.5398  -0.5303  -0.4642   0.1806   0.4414   0.4681   1.0272   1.2749
     1.3312   1.4364   1.4696   1.6183   1.6412   1.6458   1.7458   1.9642
     2.0418   2.1007   2.1359   2.1542   2.1947

          k = 0.0000 0.0599 0.0000 ( 22852 PWs)   bands (ev):

   -48.2230 -48.1834 -48.1692 -48.1404 -48.0954 -48.0733 -48.0667 -47.8508
   -47.8101 -47.7934 -47.7698 -47.6380 -26.4041 -26.3766 -26.3692 -26.3374
   -26.3330 -26.3231 -26.2943 -26.2914 -26.2567 -26.2405 -26.1875 -26.1568
   -26.1481 -26.0796 -26.0430 -25.9962 -25.9936 -25.9837 -25.9187 -25.9162
   -25.9035 -25.8728 -25.8628 -25.8530 -25.7715 -25.7431 -25.7255 -25.6886
   -25.6784 -25.6774 -25.6603 -25.6224 -25.6075 -25.5946 -25.5503 -25.4834
   -15.2636  -3.1303  -2.0562  -1.8713  -1.7272  -1.7043  -1.5658  -1.2285
    -1.1196  -0.9539  -0.8898  -0.8464  -0.7968  -0.5653  -0.2478  -0.2325
    -0.2050  -0.1486  -0.1419   0.2769   0.4818   0.4860   0.7683   0.9716
     1.0292   1.1065   1.1860   1.2629   1.4017   1.5230   1.5520   1.5607
     1.6258   1.6550   1.7080   1.7757   1.9649

          k = 0.0000-0.0899 0.0000 ( 22880 PWs)   bands (ev):

   -48.2139 -48.1921 -48.1692 -48.1233 -48.1119 -48.0740 -48.0667 -47.8359
   -47.8244 -47.7934 -47.7706 -47.6384 -26.3769 -26.3475 -26.3241 -26.3230
   -26.2983 -26.2843 -26.2641 -26.2307 -26.2144 -26.1736 -26.1711 -26.1598
   -26.1116 -26.1007 -26.0972 -26.0827 -26.0591 -26.0373 -25.9997 -25.8872
   -25.8810 -25.8702 -25.8167 -25.8093 -25.7782 -25.7664 -25.7526 -25.7383
   -25.7169 -25.6931 -25.6751 -25.6575 -25.6380 -25.5968 -25.5270 -25.5123
   -15.2635  -2.4464  -2.4100  -1.7733  -1.7009  -1.6581  -1.3972  -1.3610
    -0.7394  -0.7085  -0.6498  -0.6310  -0.6129  -0.5329   0.1051   0.1119
     0.1374   0.1832   0.1888   0.2697   0.5679   0.6103   0.6317   0.6587
     0.7181   0.7752   0.9354   1.0033   1.0835   1.1180   1.2284   1.2974
     1.3642   1.4251   1.4469   1.5587   1.8036

          k = 0.0260-0.0150 0.0000 ( 22902 PWs)   bands (ev):

   -48.2341 -48.1732 -48.1690 -48.1563 -48.0827 -48.0700 -48.0664 -47.8650
   -47.7975 -47.7935 -47.7677 -47.6373 -26.4556 -26.4331 -26.4241 -26.4091
   -26.3936 -26.3871 -26.3735 -26.3186 -26.3183 -26.2751 -26.2033 -26.1455
   -26.1399 -26.0295 -26.0288 -25.9521 -25.9505 -25.9258 -25.9219 -25.8996
   -25.8878 -25.8857 -25.8664 -25.7848 -25.7408 -25.7226 -25.7191 -25.6888
   -25.6691 -25.6332 -25.6280 -25.6008 -25.5740 -25.5540 -25.4919 -25.4569
   -15.2638  -3.6508  -2.5295  -1.8807  -1.7925  -1.7897  -1.5552  -1.3723
    -1.3153  -1.2358  -1.2220  -1.1252  -1.1117  -0.7832  -0.7046  -0.6912
    -0.5398  -0.5303  -0.4642   0.1806   0.4414   0.4681   1.0272   1.2749
     1.3312   1.4364   1.4696   1.6183   1.6413   1.6457   1.7458   1.9642
     2.0418   2.1007   2.1358   2.1542   2.1947

          k = 0.0260 0.0150 0.0000 ( 22902 PWs)   bands (ev):

   -48.2341 -48.1731 -48.1690 -48.1563 -48.0827 -48.0700 -48.0665 -47.8650
   -47.7975 -47.7935 -47.7677 -47.6373 -26.4556 -26.4331 -26.4241 -26.4091
   -26.3936 -26.3870 -26.3735 -26.3187 -26.3183 -26.2751 -26.2033 -26.1455
   -26.1399 -26.0295 -26.0288 -25.9522 -25.9504 -25.9257 -25.9220 -25.8996
   -25.8877 -25.8857 -25.8664 -25.7848 -25.7408 -25.7226 -25.7191 -25.6888
   -25.6691 -25.6332 -25.6280 -25.6008 -25.5740 -25.5540 -25.4919 -25.4569
   -15.2638  -3.6508  -2.5295  -1.8807  -1.7925  -1.7897  -1.5552  -1.3723
    -1.3153  -1.2358  -1.2220  -1.1252  -1.1117  -0.7832  -0.7046  -0.6912
    -0.5398  -0.5303  -0.4642   0.1806   0.4414   0.4681   1.0272   1.2749
     1.3312   1.4364   1.4696   1.6183   1.6413   1.6457   1.7458   1.9642
     2.0418   2.1007   2.1358   2.1542   2.1947

          k = 0.0260 0.0450 0.0000 ( 22896 PWs)   bands (ev):

   -48.2263 -48.1802 -48.1693 -48.1454 -48.0884 -48.0778 -48.0640 -47.8553
   -47.8043 -47.7957 -47.7689 -47.6378 -26.4152 -26.3867 -26.3766 -26.3742
   -26.3533 -26.3207 -26.3145 -26.2986 -26.2970 -26.2493 -26.1914 -26.1545
   -26.1451 -26.0706 -26.0370 -26.0070 -25.9538 -25.9304 -25.9246 -25.8994
   -25.8942 -25.8848 -25.8788 -25.8653 -25.7652 -25.7356 -25.7189 -25.6934
   -25.6845 -25.6633 -25.6229 -25.6159 -25.5925 -25.5763 -25.5606 -25.4785
   -15.2637  -3.2943  -2.1929  -1.7920  -1.7423  -1.7280  -1.3966  -1.3096
    -1.2607  -1.1323  -1.1089  -0.9316  -0.7531  -0.5095  -0.4998  -0.3533
    -0.3227  -0.2756  -0.2462   0.2595   0.4335   0.5002   0.9108   1.0605
     1.1222   1.2111   1.2736   1.3433   1.4494   1.5529   1.6356   1.6635
     1.7252   1.7896   1.8116   1.9550   1.9672

          k = 0.0260-0.1049 0.0000 ( 22856 PWs)   bands (ev):

   -48.2142 -48.1915 -48.1696 -48.1272 -48.1027 -48.0845 -48.0615 -47.8390
   -47.8176 -47.7988 -47.7690 -47.6384 -26.3610 -26.3517 -26.3226 -26.3166
   -26.2991 -26.2726 -26.2604 -26.2375 -26.2215 -26.1901 -26.1769 -26.1703
   -26.1540 -26.1269 -26.1104 -26.0497 -26.0318 -26.0097 -25.9437 -25.8947
   -25.8902 -25.8703 -25.8580 -25.8216 -25.8095 -25.7839 -25.7411 -25.7180
   -25.6970 -25.6782 -25.6607 -25.6424 -25.6243 -25.6022 -25.5582 -25.5162
   -15.2635  -2.6682  -1.9915  -1.7835  -1.7063  -1.6478  -1.4863  -1.2476
    -1.1177  -0.7991  -0.7033  -0.5684  -0.3782  -0.3407  -0.0225   0.0300
     0.0393   0.1083   0.1266   0.4015   0.4892   0.5352   0.5910   0.7293
     0.7685   0.8321   0.9067   0.9907   1.0181   1.1712   1.2080   1.2909
     1.3428   1.3802   1.4262   1.5733   1.7894

          k = 0.0260-0.0749 0.0000 ( 22856 PWs)   bands (ev):

   -48.2142 -48.1916 -48.1695 -48.1272 -48.1027 -48.0845 -48.0615 -47.8390
   -47.8176 -47.7988 -47.7690 -47.6384 -26.3610 -26.3517 -26.3225 -26.3166
   -26.2991 -26.2726 -26.2604 -26.2375 -26.2215 -26.1900 -26.1770 -26.1703
   -26.1540 -26.1270 -26.1104 -26.0497 -26.0318 -26.0096 -25.9437 -25.8947
   -25.8902 -25.8703 -25.8580 -25.8216 -25.8095 -25.7839 -25.7411 -25.7180
   -25.6970 -25.6782 -25.6607 -25.6424 -25.6243 -25.6022 -25.5582 -25.5162
   -15.2635  -2.6682  -1.9915  -1.7835  -1.7063  -1.6478  -1.4863  -1.2476
    -1.1177  -0.7991  -0.7033  -0.5684  -0.3782  -0.3407  -0.0225   0.0300
     0.0393   0.1083   0.1266   0.4015   0.4892   0.5352   0.5910   0.7293
     0.7685   0.8321   0.9067   0.9907   1.0181   1.1712   1.2080   1.2909
     1.3428   1.3802   1.4262   1.5733   1.7894

          k = 0.0260-0.0450 0.0000 ( 22896 PWs)   bands (ev):

   -48.2263 -48.1803 -48.1693 -48.1454 -48.0884 -48.0778 -48.0640 -47.8553
   -47.8043 -47.7957 -47.7689 -47.6378 -26.4152 -26.3867 -26.3766 -26.3743
   -26.3533 -26.3207 -26.3146 -26.2986 -26.2970 -26.2493 -26.1914 -26.1545
   -26.1451 -26.0706 -26.0370 -26.0070 -25.9538 -25.9304 -25.9246 -25.8994
   -25.8942 -25.8847 -25.8787 -25.8653 -25.7652 -25.7356 -25.7189 -25.6934
   -25.6845 -25.6633 -25.6229 -25.6159 -25.5925 -25.5763 -25.5606 -25.4785
   -15.2637  -3.2943  -2.1929  -1.7920  -1.7424  -1.7280  -1.3966  -1.3096
    -1.2607  -1.1323  -1.1089  -0.9316  -0.7531  -0.5095  -0.4998  -0.3533
    -0.3227  -0.2756  -0.2462   0.2595   0.4335   0.5001   0.9108   1.0605
     1.1222   1.2111   1.2736   1.3433   1.4494   1.5529   1.6356   1.6635
     1.7252   1.7896   1.8116   1.9550   1.9672

          k = 0.0519-0.0300 0.0000 ( 22852 PWs)   bands (ev):

   -48.2229 -48.1837 -48.1690 -48.1404 -48.0953 -48.0736 -48.0664 -47.8508
   -47.8100 -47.7936 -47.7698 -47.6380 -26.4040 -26.3766 -26.3694 -26.3372
   -26.3330 -26.3233 -26.2945 -26.2912 -26.2567 -26.2405 -26.1874 -26.1570
   -26.1480 -26.0795 -26.0431 -25.9965 -25.9934 -25.9838 -25.9187 -25.9160
   -25.9036 -25.8726 -25.8628 -25.8530 -25.7715 -25.7431 -25.7256 -25.6885
   -25.6784 -25.6774 -25.6603 -25.6224 -25.6075 -25.5946 -25.5503 -25.4834
   -15.2636  -3.1303  -2.0562  -1.8713  -1.7272  -1.7042  -1.5659  -1.2285
    -1.1196  -0.9539  -0.8898  -0.8464  -0.7968  -0.5653  -0.2478  -0.2325
    -0.2050  -0.1487  -0.1419   0.2770   0.4817   0.4861   0.7682   0.9716
     1.0292   1.1065   1.1860   1.2629   1.4017   1.5230   1.5520   1.5607
     1.6258   1.6550   1.7080   1.7757   1.9649

          k = 0.0519 0.0000 0.0000 ( 22896 PWs)   bands (ev):

   -48.2262 -48.1804 -48.1691 -48.1454 -48.0883 -48.0780 -48.0639 -47.8553
   -47.8042 -47.7958 -47.7689 -47.6378 -26.4152 -26.3867 -26.3765 -26.3743
   -26.3534 -26.3206 -26.3147 -26.2987 -26.2969 -26.2493 -26.1914 -26.1546
   -26.1450 -26.0707 -26.0370 -26.0070 -25.9539 -25.9303 -25.9246 -25.8993
   -25.8943 -25.8847 -25.8787 -25.8652 -25.7652 -25.7356 -25.7189 -25.6934
   -25.6846 -25.6633 -25.6229 -25.6160 -25.5925 -25.5763 -25.5606 -25.4785
   -15.2637  -3.2943  -2.1929  -1.7920  -1.7424  -1.7280  -1.3966  -1.3096
    -1.2607  -1.1323  -1.1089  -0.9316  -0.7531  -0.5095  -0.4997  -0.3533
    -0.3227  -0.2756  -0.2463   0.2595   0.4335   0.5001   0.9108   1.0605
     1.1222   1.2111   1.2736   1.3434   1.4494   1.5529   1.6355   1.6635
     1.7252   1.7896   1.8116   1.9550   1.9672

          k = 0.0519 0.0300 0.0000 ( 22852 PWs)   bands (ev):

   -48.2229 -48.1836 -48.1691 -48.1404 -48.0953 -48.0736 -48.0665 -47.8508
   -47.8101 -47.7935 -47.7698 -47.6380 -26.4040 -26.3766 -26.3693 -26.3372
   -26.3330 -26.3233 -26.2945 -26.2912 -26.2567 -26.2405 -26.1874 -26.1570
   -26.1480 -26.0795 -26.0431 -25.9964 -25.9935 -25.9838 -25.9187 -25.9161
   -25.9035 -25.8727 -25.8628 -25.8530 -25.7715 -25.7431 -25.7255 -25.6885
   -25.6784 -25.6774 -25.6603 -25.6224 -25.6075 -25.5946 -25.5503 -25.4834
   -15.2636  -3.1303  -2.0562  -1.8713  -1.7272  -1.7042  -1.5658  -1.2285
    -1.1196  -0.9539  -0.8898  -0.8464  -0.7968  -0.5653  -0.2478  -0.2325
    -0.2050  -0.1487  -0.1419   0.2770   0.4817   0.4861   0.7682   0.9716
     1.0292   1.1065   1.1860   1.2629   1.4017   1.5230   1.5520   1.5607
     1.6258   1.6550   1.7080   1.7757   1.9649

          k = 0.0519-0.1199 0.0000 ( 22856 PWs)   bands (ev):

   -48.2141 -48.1917 -48.1695 -48.1272 -48.1026 -48.0846 -48.0615 -47.8390
   -47.8175 -47.7989 -47.7689 -47.6384 -26.3608 -26.3517 -26.3227 -26.3167
   -26.2991 -26.2726 -26.2603 -26.2375 -26.2215 -26.1901 -26.1768 -26.1703
   -26.1540 -26.1269 -26.1104 -26.0498 -26.0318 -26.0097 -25.9437 -25.8946
   -25.8901 -25.8703 -25.8580 -25.8216 -25.8094 -25.7839 -25.7410 -25.7181
   -25.6970 -25.6782 -25.6607 -25.6424 -25.6243 -25.6022 -25.5582 -25.5162
   -15.2635  -2.6682  -1.9915  -1.7835  -1.7063  -1.6478  -1.4863  -1.2476
    -1.1177  -0.7991  -0.7033  -0.5684  -0.3782  -0.3407  -0.0225   0.0300
     0.0393   0.1083   0.1266   0.4015   0.4892   0.5352   0.5910   0.7293
     0.7685   0.8321   0.9067   0.9907   1.0181   1.1712   1.2080   1.2909
     1.3428   1.3802   1.4262   1.5732   1.7894

          k = 0.0519-0.0899 0.0000 ( 22914 PWs)   bands (ev):

   -48.2028 -48.2024 -48.1698 -48.1162 -48.1007 -48.1004 -48.0587 -47.8266
   -47.8243 -47.8058 -47.7677 -47.6386 -26.3277 -26.3271 -26.3010 -26.2893
   -26.2646 -26.2611 -26.2245 -26.2159 -26.2128 -26.2046 -26.1877 -26.1358
   -26.1342 -26.1338 -26.1296 -26.1117 -26.1113 -26.0274 -25.9147 -25.8833
   -25.8781 -25.8777 -25.8569 -25.8474 -25.7998 -25.7976 -25.7779 -25.7302
   -25.7190 -25.6748 -25.6587 -25.6351 -25.6143 -25.5819 -25.5701 -25.5694
   -15.2634  -2.1055  -1.9753  -1.9739  -1.7099  -1.6990  -1.5304  -1.0515
    -1.0366  -0.9599  -0.2255  -0.2158  -0.1676  -0.0938  -0.0906  -0.0743
     0.3198   0.3330   0.3557   0.4182   0.4255   0.4312   0.4337   0.5196
     0.5890   0.5957   0.6635   0.9335   0.9379   0.9631   1.0440   1.0674
     1.1131   1.1614   1.2902   1.3728   1.6331

          k = 0.0519-0.0599 0.0000 ( 22856 PWs)   bands (ev):

   -48.2141 -48.1918 -48.1694 -48.1273 -48.1026 -48.0846 -48.0615 -47.8390
   -47.8175 -47.7989 -47.7689 -47.6384 -26.3608 -26.3517 -26.3227 -26.3167
   -26.2991 -26.2726 -26.2603 -26.2376 -26.2215 -26.1901 -26.1768 -26.1703
   -26.1540 -26.1269 -26.1104 -26.0498 -26.0318 -26.0097 -25.9437 -25.8946
   -25.8901 -25.8703 -25.8580 -25.8216 -25.8094 -25.7839 -25.7410 -25.7181
   -25.6970 -25.6782 -25.6607 -25.6424 -25.6243 -25.6023 -25.5582 -25.5162
   -15.2635  -2.6682  -1.9915  -1.7835  -1.7063  -1.6478  -1.4864  -1.2476
    -1.1177  -0.7991  -0.7033  -0.5684  -0.3782  -0.3407  -0.0225   0.0300
     0.0393   0.1083   0.1266   0.4015   0.4893   0.5351   0.5910   0.7293
     0.7685   0.8321   0.9067   0.9907   1.0181   1.1712   1.2080   1.2909
     1.3428   1.3802   1.4262   1.5732   1.7894

          k =-0.0779 0.0450 0.0000 ( 22880 PWs)   bands (ev):

   -48.2137 -48.1926 -48.1690 -48.1234 -48.1117 -48.0743 -48.0665 -47.8361
   -47.8242 -47.7936 -47.7706 -47.6384 -26.3766 -26.3474 -26.3243 -26.3233
   -26.2981 -26.2843 -26.2642 -26.2307 -26.2144 -26.1738 -26.1709 -26.1596
   -26.1114 -26.1008 -26.0976 -26.0825 -26.0594 -26.0371 -25.9998 -25.8870
   -25.8811 -25.8700 -25.8169 -25.8091 -25.7781 -25.7665 -25.7527 -25.7382
   -25.7169 -25.6932 -25.6751 -25.6575 -25.6380 -25.5968 -25.5271 -25.5122
   -15.2635  -2.4464  -2.4100  -1.7733  -1.7009  -1.6581  -1.3972  -1.3610
    -0.7394  -0.7086  -0.6498  -0.6310  -0.6129  -0.5329   0.1051   0.1118
     0.1374   0.1832   0.1888   0.2697   0.5679   0.6104   0.6316   0.6587
     0.7181   0.7753   0.9354   1.0034   1.0835   1.1180   1.2284   1.2975
     1.3642   1.4250   1.4469   1.5587   1.8036

          k =-0.0779 0.0749 0.0000 ( 22856 PWs)   bands (ev):

   -48.2140 -48.1919 -48.1694 -48.1273 -48.1025 -48.0847 -48.0615 -47.8391
   -47.8174 -47.7989 -47.7689 -47.6384 -26.3608 -26.3516 -26.3227 -26.3167
   -26.2991 -26.2725 -26.2603 -26.2376 -26.2215 -26.1901 -26.1770 -26.1702
   -26.1541 -26.1269 -26.1104 -26.0498 -26.0319 -26.0097 -25.9437 -25.8945
   -25.8901 -25.8703 -25.8580 -25.8216 -25.8094 -25.7839 -25.7410 -25.7181
   -25.6970 -25.6782 -25.6607 -25.6424 -25.6243 -25.6023 -25.5582 -25.5162
   -15.2635  -2.6682  -1.9915  -1.7835  -1.7063  -1.6478  -1.4863  -1.2476
    -1.1177  -0.7991  -0.7033  -0.5684  -0.3782  -0.3407  -0.0225   0.0300
     0.0393   0.1083   0.1266   0.4015   0.4893   0.5351   0.5910   0.7293
     0.7684   0.8322   0.9067   0.9907   1.0181   1.1712   1.2080   1.2909
     1.3428   1.3802   1.4262   1.5732   1.7894

          k =-0.0779 0.1049 0.0000 ( 22856 PWs)   bands (ev):

   -48.2141 -48.1918 -48.1694 -48.1273 -48.1025 -48.0846 -48.0615 -47.8390
   -47.8175 -47.7989 -47.7689 -47.6384 -26.3609 -26.3517 -26.3226 -26.3167
   -26.2991 -26.2725 -26.2603 -26.2376 -26.2215 -26.1900 -26.1770 -26.1702
   -26.1541 -26.1269 -26.1104 -26.0498 -26.0319 -26.0097 -25.9437 -25.8946
   -25.8901 -25.8703 -25.8580 -25.8216 -25.8094 -25.7839 -25.7410 -25.7181
   -25.6971 -25.6782 -25.6607 -25.6424 -25.6243 -25.6023 -25.5582 -25.5162
   -15.2635  -2.6682  -1.9915  -1.7835  -1.7063  -1.6478  -1.4863  -1.2476
    -1.1177  -0.7991  -0.7033  -0.5684  -0.3782  -0.3407  -0.0225   0.0300
     0.0393   0.1083   0.1266   0.4015   0.4893   0.5351   0.5910   0.7293
     0.7684   0.8322   0.9067   0.9907   1.0181   1.1712   1.2080   1.2909
     1.3428   1.3802   1.4262   1.5732   1.7894

          k =-0.0779-0.0450 0.0000 ( 22880 PWs)   bands (ev):

   -48.2137 -48.1925 -48.1691 -48.1234 -48.1118 -48.0743 -48.0665 -47.8360
   -47.8242 -47.7935 -47.7706 -47.6384 -26.3767 -26.3474 -26.3243 -26.3232
   -26.2982 -26.2843 -26.2642 -26.2307 -26.2144 -26.1738 -26.1709 -26.1596
   -26.1114 -26.1008 -26.0975 -26.0826 -26.0593 -26.0372 -25.9998 -25.8871
   -25.8810 -25.8700 -25.8169 -25.8091 -25.7781 -25.7665 -25.7527 -25.7382
   -25.7169 -25.6932 -25.6751 -25.6575 -25.6380 -25.5968 -25.5271 -25.5122
   -15.2635  -2.4464  -2.4100  -1.7733  -1.7009  -1.6581  -1.3972  -1.3610
    -0.7394  -0.7086  -0.6498  -0.6310  -0.6129  -0.5329   0.1051   0.1118
     0.1374   0.1832   0.1888   0.2697   0.5679   0.6104   0.6317   0.6587
     0.7181   0.7753   0.9354   1.0033   1.0835   1.1180   1.2284   1.2975
     1.3642   1.4250   1.4470   1.5587   1.8036

     the Fermi energy is     1.1219 ev

!    total energy              =   -1229.50304801 Ry
     Harris-Foulkes estimate   =   -1229.50305831 Ry
     estimated scf accuracy    <       0.00000418 Ry

     The total energy is the sum of the following terms:

     one-electron contribution =   -8426.57903891 Ry
     hartree contribution      =    4205.65721929 Ry
     xc contribution           =    -228.07139831 Ry
     ewald contribution        =    3219.60617738 Ry
     electric field correction =       0.00032086 Ry
     smearing contrib. (-TS)   =      -0.11632833 Ry

     convergence has been achieved in  10 iterations
 
 BEEF-vdW xc energy contributions
           1 :   -195.319232934412     
           2 :    176.533556479283     
           3 :   -144.991894746350     
           4 :    109.661389596539     
           5 :   -78.5018650177680     
           6 :    55.7480407084189     
           7 :   -41.3521845826113     
           8 :    32.3711038106735     
           9 :   -25.2396647002699     
          10 :    17.6833101822365     
          11 :   -9.46176789042931     
          12 :    1.84928732085658     
          13 :    3.59723570646418     
          14 :   -6.15606142678359     
          15 :    6.33087967585777     
          16 :   -5.43318226303876     
          17 :    4.74788653323290     
          18 :   -4.84435691005336     
          19 :    5.42671246444516     
          20 :   -5.73665655303307     
          21 :    5.17744300259864     
          22 :   -3.73783367142363     
          23 :    1.97452183075586     
          24 :  -0.621657537137708     
          25 :   0.124645761168040     
          26 :  -0.403321791905057     
          27 :   0.966022458588725     
          28 :   -1.26670895858521     
          29 :    1.05166852662444     
          30 :  -0.476442926406548     
          31 :   -22.5948695941055     
          32 :   -16.7728840983652     

     Forces acting on atoms (Ry/au):


     negative rho (up, down):  7.491E-01 0.000E+00
     atom    1 type  1   force =     0.00093590    0.00055219    0.01605422
     atom    2 type  1   force =    -0.00093474    0.00054985    0.01605706
     atom    3 type  1   force =    -0.00000130   -0.00109520    0.01604227
     atom    4 type  1   force =     0.00000039   -0.00000846    0.01566921
     atom    5 type  1   force =     0.00000153    0.01014432   -0.00815556
     atom    6 type  1   force =    -0.00000135   -0.00000557    0.00418485
     atom    7 type  1   force =    -0.00878955   -0.00507073   -0.00815596
     atom    8 type  1   force =     0.00878875   -0.00506866   -0.00815984
     atom    9 type  1   force =    -0.00000016    0.00000622    0.06345615
     atom   10 type  1   force =     0.00000073    0.00260513   -0.01189517
     atom   11 type  1   force =     0.00224521   -0.00130435   -0.01191351
     atom   12 type  1   force =    -0.00224533   -0.00130555   -0.01190905
     atom   13 type  2   force =    -0.00000009    0.00000082   -0.07127469

     Total force =     0.097736     Total SCF correction =     0.005264


     entering subroutine stress ...


     negative rho (up, down):  7.491E-01 0.000E+00
          total   stress  (Ry/bohr**3)                   (kbar)     P=  -11.69
  -0.00005458  -0.00000000   0.00000000         -8.03     -0.00      0.00
  -0.00000000  -0.00005458  -0.00000000         -0.00     -8.03     -0.00
   0.00000000  -0.00000000  -0.00012919          0.00     -0.00    -19.00


     number of scf cycles    =   2
     number of bfgs steps    =   1

     energy   old            =   -1229.4691436112 Ry
     energy   new            =   -1229.5030480075 Ry

     CASE: energy  _new < energy  _old

     new trust radius        =       0.1346453998 bohr
     new conv_thr            =       0.0000001000 Ry


ATOMIC_POSITIONS (crystal)
Zr1      0.166666667   0.166666667   0.396150897    0   0   0
Zr1      0.666666667   0.166666667   0.396150897    0   0   0
Zr1      0.166666667   0.666666667   0.396150897    0   0   0
Zr1      0.666666667   0.666666667   0.396150897    0   0   0
Zr1      0.833333333   0.333333333   0.500000000    0   0   0
Zr1      0.333333333   0.333333333   0.500000000    0   0   0
Zr1      0.833333333   0.833333333   0.500000000    0   0   0
Zr1      0.333333333   0.833333333   0.500000000    0   0   0
Zr1     -0.000000301  -0.000000041   0.609384166
Zr1      0.499707207   0.000586135   0.603200725
Zr1      0.000585185   0.499707284   0.603200383
Zr1      0.499707766   0.499706907   0.603200459
O1      -0.000000143   0.000000178   0.678995763



     Writing output data file calc.save
     Check: negative starting charge=   -0.729856
     NEW-OLD atomic charge density approx. for the potential
     Check: negative starting charge=   -0.729254

     negative rho (up, down):  7.487E-01 0.000E+00
 
     Adding external electric field

     Computed dipole along edir(3) : 
        Dipole               -0.3940 Ry au,         -1.0014 Debye
        Dipole field         -0.0008 Ry au
 
        Potential amp.        0.0757 Ry
        Total length         46.5096 bohr
 

     total cpu time spent up to now is      988.7 secs

     per-process dynamical memory:    88.7 Mb

     Self-consistent Calculation

     iteration #  1     ecut=    36.75 Ry     beta=0.30
     Davidson diagonalization with overlap
     c_bands:  2 eigenvalues not converged
     c_bands:  2 eigenvalues not converged
     ethr =  1.00E-06,  avg # of iterations = 15.6

     negative rho (up, down):  7.485E-01 0.000E+00
 
     Adding external electric field

     Computed dipole along edir(3) : 
        Dipole               -0.5365 Ry au,         -1.3637 Debye
        Dipole field         -0.0011 Ry au
 
        Potential amp.        0.1031 Ry
        Total length         46.5096 bohr
 

     total cpu time spent up to now is     1028.5 secs

     total energy              =   -1229.50143092 Ry
     Harris-Foulkes estimate   =   -1229.50708357 Ry
     estimated scf accuracy    <       0.01395431 Ry

     iteration #  2     ecut=    36.75 Ry     beta=0.30
     Davidson diagonalization with overlap
     ethr =  9.30E-06,  avg # of iterations =  7.3

     negative rho (up, down):  7.485E-01 0.000E+00
 
     Adding external electric field

     Computed dipole along edir(3) : 
        Dipole               -0.3144 Ry au,         -0.7990 Debye
        Dipole field         -0.0006 Ry au
 
        Potential amp.        0.0604 Ry
        Total length         46.5096 bohr
 

[...]
   -26.1368 -26.1308 -26.1071 -26.0806 -26.0296 -25.9916 -25.9533 -25.8870
   -25.8702 -25.8446 -25.8236 -25.8198 -25.7993 -25.7456 -25.7004 -25.6743
   -25.6608 -25.6472 -25.5957 -25.5673 -25.5569 -25.5493 -25.5065 -25.4602
   -15.2778  -2.6910  -2.0657  -1.9853  -1.9720  -1.7732  -1.5629  -1.2845
    -1.1546  -0.8346  -0.7475  -0.6249  -0.4290  -0.3750  -0.0748  -0.0283
    -0.0018   0.0760   0.0949   0.3675   0.4470   0.5058   0.5473   0.6969
     0.7389   0.8148   0.8639   0.9663   0.9936   1.1247   1.1760   1.3125
     1.3294   1.3899   1.4390   1.5409   1.7180

          k = 0.0260-0.0450 0.0000 ( 22896 PWs)   bands (ev):

   -48.1595 -48.1528 -48.1050 -48.1000 -48.0937 -48.0912 -48.0772 -47.8230
   -47.7771 -47.7672 -47.6778 -47.5628 -26.4099 -26.3902 -26.3763 -26.3662
   -26.3380 -26.3004 -26.2901 -26.2876 -26.2821 -26.2513 -26.1877 -26.1391
   -26.1291 -26.1040 -26.0212 -26.0137 -25.9268 -25.9177 -25.9100 -25.8985
   -25.8822 -25.8682 -25.8611 -25.8345 -25.7772 -25.6940 -25.6830 -25.6696
   -25.6510 -25.5883 -25.5781 -25.5628 -25.5358 -25.5130 -25.4990 -25.4272
   -15.2780  -3.3156  -2.2000  -2.0084  -1.9833  -1.9546  -1.4284  -1.3672
    -1.2924  -1.1838  -1.1651  -0.9937  -0.7998  -0.5423  -0.5192  -0.3952
    -0.3657  -0.3013  -0.2617   0.2576   0.4252   0.4774   0.9220   1.0066
     1.0964   1.1692   1.2491   1.3078   1.4617   1.5615   1.5973   1.6776
     1.7182   1.8032   1.8333   1.9550   2.0035

          k = 0.0519-0.0300 0.0000 ( 22852 PWs)   bands (ev):

   -48.1549 -48.1491 -48.1090 -48.1067 -48.0935 -48.0861 -48.0800 -47.8192
   -47.7811 -47.7665 -47.6783 -47.5630 -26.3941 -26.3775 -26.3719 -26.3362
   -26.3254 -26.2860 -26.2774 -26.2743 -26.2484 -26.2384 -26.1855 -26.1440
   -26.1312 -26.1117 -26.0252 -26.0043 -26.0005 -25.9546 -25.9275 -25.9034
   -25.8692 -25.8592 -25.8427 -25.8199 -25.7835 -25.7035 -25.6883 -25.6685
   -25.6412 -25.6404 -25.5672 -25.5566 -25.5536 -25.5438 -25.4941 -25.4300
   -15.2779  -3.1514  -2.0894  -2.0034  -1.9958  -1.9104  -1.6744  -1.2707
    -1.1601  -1.0093  -0.9374  -0.8784  -0.8488  -0.5942  -0.2862  -0.2831
    -0.2530  -0.1654  -0.1581   0.2715   0.4659   0.4677   0.7599   0.9153
     1.0108   1.0542   1.1557   1.2446   1.3731   1.4651   1.5222   1.5670
     1.6289   1.6569   1.7490   1.7988   1.9639

          k = 0.0519 0.0000 0.0000 ( 22896 PWs)   bands (ev):

   -48.1595 -48.1528 -48.1050 -48.1001 -48.0938 -48.0911 -48.0773 -47.8230
   -47.7772 -47.7671 -47.6778 -47.5628 -26.4099 -26.3903 -26.3762 -26.3663
   -26.3380 -26.3004 -26.2901 -26.2876 -26.2821 -26.2513 -26.1877 -26.1390
   -26.1292 -26.1040 -26.0213 -26.0137 -25.9268 -25.9177 -25.9100 -25.8985
   -25.8822 -25.8683 -25.8611 -25.8345 -25.7772 -25.6941 -25.6831 -25.6695
   -25.6510 -25.5883 -25.5781 -25.5628 -25.5358 -25.5131 -25.4990 -25.4272
   -15.2780  -3.3156  -2.2000  -2.0084  -1.9833  -1.9546  -1.4284  -1.3672
    -1.2924  -1.1838  -1.1651  -0.9937  -0.7998  -0.5423  -0.5192  -0.3952
    -0.3657  -0.3013  -0.2617   0.2576   0.4252   0.4774   0.9220   1.0066
     1.0965   1.1692   1.2491   1.3078   1.4617   1.5615   1.5973   1.6776
     1.7182   1.8032   1.8333   1.9550   2.0035

          k = 0.0519 0.0300 0.0000 ( 22852 PWs)   bands (ev):

   -48.1549 -48.1491 -48.1090 -48.1067 -48.0935 -48.0861 -48.0800 -47.8192
   -47.7811 -47.7665 -47.6783 -47.5630 -26.3941 -26.3775 -26.3719 -26.3362
   -26.3254 -26.2860 -26.2774 -26.2743 -26.2484 -26.2384 -26.1855 -26.1440
   -26.1312 -26.1117 -26.0252 -26.0043 -26.0005 -25.9546 -25.9275 -25.9034
   -25.8692 -25.8592 -25.8427 -25.8199 -25.7835 -25.7034 -25.6883 -25.6685
   -25.6412 -25.6405 -25.5672 -25.5566 -25.5536 -25.5438 -25.4941 -25.4300
   -15.2779  -3.1514  -2.0894  -2.0034  -1.9958  -1.9104  -1.6744  -1.2707
    -1.1601  -1.0093  -0.9374  -0.8784  -0.8488  -0.5942  -0.2862  -0.2831
    -0.2530  -0.1654  -0.1581   0.2715   0.4659   0.4677   0.7599   0.9153
     1.0108   1.0542   1.1557   1.2446   1.3731   1.4651   1.5222   1.5670
     1.6289   1.6569   1.7490   1.7988   1.9639

          k = 0.0519-0.1199 0.0000 ( 22856 PWs)   bands (ev):

   -48.1439 -48.1382 -48.1168 -48.1143 -48.0976 -48.0937 -48.0747 -47.8096
   -47.7884 -47.7682 -47.6792 -47.5634 -26.3540 -26.3455 -26.3219 -26.3114
   -26.2836 -26.2557 -26.2449 -26.2217 -26.2156 -26.1835 -26.1739 -26.1570
   -26.1368 -26.1308 -26.1071 -26.0807 -26.0296 -25.9915 -25.9533 -25.8870
   -25.8702 -25.8447 -25.8237 -25.8198 -25.7993 -25.7454 -25.7005 -25.6742
   -25.6608 -25.6473 -25.5957 -25.5673 -25.5569 -25.5493 -25.5065 -25.4603
   -15.2778  -2.6910  -2.0657  -1.9853  -1.9720  -1.7732  -1.5629  -1.2845
    -1.1546  -0.8346  -0.7475  -0.6249  -0.4290  -0.3750  -0.0748  -0.0283
    -0.0018   0.0760   0.0949   0.3675   0.4470   0.5058   0.5473   0.6969
     0.7389   0.8148   0.8639   0.9663   0.9936   1.1247   1.1760   1.3126
     1.3294   1.3899   1.4390   1.5410   1.7180

          k = 0.0519-0.0899 0.0000 ( 22914 PWs)   bands (ev):

   -48.1360 -48.1278 -48.1218 -48.1140 -48.1135 -48.0942 -48.0718 -47.7996
   -47.7963 -47.7700 -47.6795 -47.5636 -26.3291 -26.3098 -26.3006 -26.2799
   -26.2493 -26.2278 -26.2193 -26.2121 -26.2009 -26.1979 -26.1750 -26.1447
   -26.1443 -26.1442 -26.1217 -26.1145 -26.0741 -26.0444 -25.8938 -25.8876
   -25.8805 -25.8768 -25.8377 -25.8294 -25.7686 -25.7515 -25.7339 -25.6898
   -25.6615 -25.6549 -25.5921 -25.5582 -25.5543 -25.5410 -25.5126 -25.5072
   -15.2777  -2.1883  -2.0046  -1.9921  -1.9579  -1.9560  -1.6594  -1.0737
    -1.0720  -0.9874  -0.3408  -0.2293  -0.2256  -0.1723  -0.1236  -0.1220
     0.2421   0.2624   0.3346   0.3474   0.3499   0.3694   0.4202   0.4773
     0.5714   0.5969   0.6576   0.8935   0.9499   1.0012   1.0266   1.0798
     1.1265   1.1599   1.2789   1.3647   1.4956

          k = 0.0519-0.0599 0.0000 ( 22856 PWs)   bands (ev):

   -48.1439 -48.1381 -48.1168 -48.1143 -48.0976 -48.0937 -48.0747 -47.8096
   -47.7885 -47.7681 -47.6792 -47.5634 -26.3540 -26.3455 -26.3219 -26.3113
   -26.2836 -26.2557 -26.2448 -26.2217 -26.2156 -26.1835 -26.1739 -26.1570
   -26.1367 -26.1308 -26.1071 -26.0807 -26.0296 -25.9915 -25.9533 -25.8870
   -25.8702 -25.8447 -25.8237 -25.8198 -25.7994 -25.7455 -25.7005 -25.6742
   -25.6608 -25.6473 -25.5957 -25.5673 -25.5569 -25.5493 -25.5065 -25.4603
   -15.2778  -2.6910  -2.0657  -1.9853  -1.9720  -1.7732  -1.5629  -1.2845
    -1.1546  -0.8346  -0.7475  -0.6249  -0.4290  -0.3750  -0.0748  -0.0283
    -0.0018   0.0760   0.0949   0.3675   0.4470   0.5058   0.5473   0.6969
     0.7389   0.8148   0.8639   0.9663   0.9936   1.1247   1.1760   1.3126
     1.3295   1.3899   1.4390   1.5410   1.7180

          k =-0.0779 0.0450 0.0000 ( 22880 PWs)   bands (ev):

   -48.1431 -48.1345 -48.1250 -48.1163 -48.0935 -48.0866 -48.0800 -47.8083
   -47.7913 -47.7665 -47.6793 -47.5634 -26.3626 -26.3408 -26.3294 -26.3200
   -26.2985 -26.2648 -26.2294 -26.2158 -26.2098 -26.1786 -26.1600 -26.1378
   -26.1163 -26.0965 -26.0953 -26.0695 -26.0457 -26.0415 -26.0401 -25.8883
   -25.8322 -25.8280 -25.8197 -25.8139 -25.7666 -25.7346 -25.7224 -25.6899
   -25.6579 -25.6522 -25.6277 -25.5771 -25.5582 -25.5518 -25.4853 -25.4491
   -15.2778  -2.4809  -2.4294  -1.9842  -1.9762  -1.8268  -1.4489  -1.4142
    -0.7826  -0.7352  -0.7015  -0.6704  -0.6574  -0.5586   0.0299   0.0527
     0.0801   0.1531   0.1555   0.2543   0.5114   0.5621   0.6170   0.6341
     0.6801   0.7424   0.9281   0.9787   1.0705   1.0960   1.1898   1.2826
     1.3613   1.4049   1.4092   1.5062   1.7987

          k =-0.0779 0.0749 0.0000 ( 22856 PWs)   bands (ev):

   -48.1439 -48.1381 -48.1168 -48.1143 -48.0976 -48.0938 -48.0747 -47.8095
   -47.7885 -47.7681 -47.6792 -47.5634 -26.3540 -26.3455 -26.3219 -26.3114
   -26.2836 -26.2557 -26.2449 -26.2217 -26.2155 -26.1835 -26.1739 -26.1570
   -26.1367 -26.1308 -26.1071 -26.0806 -26.0296 -25.9915 -25.9533 -25.8870
   -25.8702 -25.8447 -25.8237 -25.8198 -25.7994 -25.7456 -25.7005 -25.6742
   -25.6608 -25.6472 -25.5957 -25.5673 -25.5569 -25.5493 -25.5065 -25.4603
   -15.2778  -2.6910  -2.0657  -1.9853  -1.9720  -1.7732  -1.5629  -1.2845
    -1.1546  -0.8346  -0.7475  -0.6249  -0.4290  -0.3750  -0.0748  -0.0283
    -0.0018   0.0760   0.0949   0.3675   0.4470   0.5058   0.5473   0.6969
     0.7389   0.8148   0.8639   0.9663   0.9936   1.1247   1.1760   1.3125
     1.3295   1.3899   1.4390   1.5409   1.7180

          k =-0.0779 0.1049 0.0000 ( 22856 PWs)   bands (ev):

   -48.1439 -48.1381 -48.1168 -48.1143 -48.0976 -48.0937 -48.0747 -47.8096
   -47.7885 -47.7681 -47.6792 -47.5634 -26.3540 -26.3455 -26.3219 -26.3114
   -26.2836 -26.2557 -26.2449 -26.2217 -26.2155 -26.1835 -26.1739 -26.1570
   -26.1368 -26.1308 -26.1071 -26.0806 -26.0296 -25.9915 -25.9533 -25.8870
   -25.8702 -25.8447 -25.8237 -25.8198 -25.7993 -25.7456 -25.7005 -25.6742
   -25.6608 -25.6472 -25.5957 -25.5673 -25.5569 -25.5493 -25.5065 -25.4603
   -15.2778  -2.6910  -2.0657  -1.9853  -1.9720  -1.7732  -1.5629  -1.2845
    -1.1546  -0.8346  -0.7475  -0.6249  -0.4290  -0.3750  -0.0748  -0.0283
    -0.0018   0.0760   0.0949   0.3675   0.4470   0.5058   0.5473   0.6969
     0.7389   0.8148   0.8639   0.9663   0.9936   1.1247   1.1760   1.3125
     1.3294   1.3899   1.4390   1.5409   1.7180

          k =-0.0779-0.0450 0.0000 ( 22880 PWs)   bands (ev):

   -48.1431 -48.1345 -48.1250 -48.1164 -48.0935 -48.0867 -48.0800 -47.8083
   -47.7912 -47.7665 -47.6793 -47.5634 -26.3626 -26.3408 -26.3294 -26.3200
   -26.2985 -26.2647 -26.2295 -26.2158 -26.2098 -26.1787 -26.1600 -26.1378
   -26.1163 -26.0965 -26.0953 -26.0694 -26.0457 -26.0414 -26.0401 -25.8884
   -25.8321 -25.8280 -25.8197 -25.8138 -25.7665 -25.7346 -25.7225 -25.6898
   -25.6580 -25.6522 -25.6277 -25.5771 -25.5582 -25.5519 -25.4854 -25.4491
   -15.2778  -2.4809  -2.4293  -1.9842  -1.9762  -1.8268  -1.4489  -1.4142
    -0.7826  -0.7352  -0.7015  -0.6704  -0.6574  -0.5586   0.0299   0.0528
     0.0801   0.1531   0.1555   0.2543   0.5114   0.5621   0.6170   0.6341
     0.6801   0.7424   0.9281   0.9787   1.0705   1.0960   1.1898   1.2826
     1.3613   1.4049   1.4092   1.5062   1.7987

     the Fermi energy is     1.1026 ev

!    total energy              =   -1229.51359925 Ry
     Harris-Foulkes estimate   =   -1229.51360076 Ry
     estimated scf accuracy    <       0.00000010 Ry

     The total energy is the sum of the following terms:

     one-electron contribution =   -8544.38634915 Ry
     hartree contribution      =    4264.68758267 Ry
     xc contribution           =    -228.28161898 Ry
     ewald contribution        =    3278.58011117 Ry
     electric field correction =       0.00032957 Ry
     smearing contrib. (-TS)   =      -0.11365453 Ry

     convergence has been achieved in   7 iterations
 
 BEEF-vdW xc energy contributions
           1 :   -195.529578860363     
           2 :    176.798701513653     
           3 :   -145.312923535415     
           4 :    109.974748204857     
           5 :   -78.7213542193454     
           6 :    55.8232068345892     
           7 :   -41.2976329242053     
           8 :    32.2526759086431     
           9 :   -25.1343488453909     
          10 :    17.6378834203800     
          11 :   -9.47018676301502     
          12 :    1.86002919481112     
          13 :    3.64517313334301     
          14 :   -6.28793854375147     
          15 :    6.51388634482808     
          16 :   -5.59646862142517     
          17 :    4.83083472650395     
          18 :   -4.83786081131018     
          19 :    5.37977239256662     
          20 :   -5.72543736229301     
          21 :    5.25759679800365     
          22 :   -3.90987251141217     
          23 :    2.18353826086300     
          24 :  -0.792178937003541     
          25 :   0.208422908250043     
          26 :  -0.407704042564887     
          27 :   0.944826393662879     
          28 :   -1.28227514805710     
          29 :    1.13390244595053     
          30 :  -0.605338043486881     
          31 :   -22.6095299811950     
          32 :   -16.7975077329983     

     Forces acting on atoms (Ry/au):


     negative rho (up, down):  7.477E-01 0.000E+00
     atom    1 type  1   force =     0.00045679    0.00023752    0.01318476
     atom    2 type  1   force =    -0.00045731    0.00024448    0.01317802
     atom    3 type  1   force =     0.00000591   -0.00050526    0.01320213
     atom    4 type  1   force =    -0.00000621    0.00002278    0.01381051
     atom    5 type  1   force =     0.00000007    0.00814656   -0.01306242
     atom    6 type  1   force =     0.00000062    0.00000482   -0.01280430
     atom    7 type  1   force =    -0.00705147   -0.00407709   -0.01306189
     atom    8 type  1   force =     0.00705128   -0.00407700   -0.01306080
     atom    9 type  1   force =     0.00000551   -0.00001830   -0.00042391
     atom   10 type  1   force =    -0.00000639    0.00024676    0.00014032
     atom   11 type  1   force =     0.00023463   -0.00011633    0.00016918
     atom   12 type  1   force =    -0.00023359   -0.00010911    0.00016062
     atom   13 type  2   force =     0.00000014    0.00000016   -0.00143222

     Total force =     0.001582     Total SCF correction =     0.000774
     SCF correction compared to forces is large: reduce conv_thr to get better values


     entering subroutine stress ...


     negative rho (up, down):  7.477E-01 0.000E+00
          total   stress  (Ry/bohr**3)                   (kbar)     P=   -5.43
  -0.00003228  -0.00000000   0.00000000         -4.75     -0.00      0.00
  -0.00000000  -0.00003228   0.00000000         -0.00     -4.75      0.00
   0.00000000   0.00000000  -0.00004623          0.00      0.00     -6.80


     bfgs converged in  12 scf cycles and  11 bfgs steps
     (criteria: energy <  1.0E+00, force <  1.9E-03)

     End of BFGS Geometry Optimization

     Final energy   =   -1229.5135992455 Ry
Begin final coordinates

ATOMIC_POSITIONS (crystal)
Zr1      0.166666667   0.166666667   0.396150897    0   0   0
Zr1      0.666666667   0.166666667   0.396150897    0   0   0
Zr1      0.166666667   0.666666667   0.396150897    0   0   0
Zr1      0.666666667   0.666666667   0.396150897    0   0   0
Zr1      0.833333333   0.333333333   0.500000000    0   0   0
Zr1      0.333333333   0.333333333   0.500000000    0   0   0
Zr1      0.833333333   0.833333333   0.500000000    0   0   0
Zr1      0.333333333   0.833333333   0.500000000    0   0   0
Zr1     -0.000001777   0.000002176   0.607111856
Zr1      0.497151488   0.005698846   0.598717499
Zr1      0.005697090   0.497149771   0.598714758
Zr1      0.497153228   0.497148745   0.598715520
O1       0.000001178  -0.000001291   0.678849701
End final coordinates



     Writing output data file calc.save
 
     init_run     :     14.63s CPU     15.02s WALL (       1 calls)
     electrons    :   4119.90s CPU   4380.13s WALL (      12 calls)
     update_pot   :     36.61s CPU     38.26s WALL (      11 calls)
     forces       :    228.61s CPU    240.07s WALL (      12 calls)
     stress       :    679.21s CPU    712.63s WALL (      12 calls)

     Called by init_run:
     wfcinit      :      6.03s CPU      6.11s WALL (       1 calls)
     potinit      :      2.17s CPU      2.36s WALL (       1 calls)

     Called by electrons:
     c_bands      :   1557.29s CPU   1629.10s WALL (     136 calls)
     sum_band     :    810.14s CPU    866.92s WALL (     136 calls)
     v_of_rho     :    276.95s CPU    305.52s WALL (     146 calls)
     newd         :    735.95s CPU    748.94s WALL (     146 calls)
     mix_rho      :      9.43s CPU      9.78s WALL (     136 calls)
     vdW_energy   :    153.10s CPU    168.73s WALL (     578 calls)
     vdW_ffts     :    384.29s CPU    400.42s WALL (    1180 calls)
     vdW_v        :    156.24s CPU    160.21s WALL (     578 calls)

     Called by c_bands:
     init_us_2    :     10.05s CPU     10.09s WALL (    1485 calls)
     cegterg      :   1434.01s CPU   1471.57s WALL (     680 calls)

     Called by *egterg:
     h_psi        :    947.37s CPU    977.03s WALL (    4084 calls)
     s_psi        :     92.14s CPU     92.43s WALL (    4084 calls)
     g_psi        :      5.80s CPU      5.81s WALL (    3399 calls)
     cdiaghg      :    124.10s CPU    125.04s WALL (    4014 calls)

     Called by h_psi:
     add_vuspsi   :     94.53s CPU     94.88s WALL (    4084 calls)

     General routines
     calbec       :    141.26s CPU    144.94s WALL (    4884 calls)
     fft          :    610.43s CPU    660.99s WALL (   34891 calls)
     ffts         :      0.62s CPU      0.67s WALL (     282 calls)
     fftw         :    571.49s CPU    603.78s WALL (  363962 calls)
     interpolate  :      6.06s CPU      6.25s WALL (     282 calls)
     davcio       :      0.00s CPU      0.03s WALL (       5 calls)
 
     Parallel routines
     fft_scatter  :    723.19s CPU    803.54s WALL (  399135 calls)
 
     PWSCF        :     1h25m CPU        1h30m WALL

 
   This run was terminated on:  21:28:52   2May2018            

=------------------------------------------------------------------------------=
   JOB DONE.
=------------------------------------------------------------------------------=
Job  /afs/slac/g/suncat/bin/suncat-tsmpirun -x LD_LIBRARY_PATH -wdir /scratch/qe901735_ZojSK pw.x -npool 4 -in pw.inp

TID   HOST_NAME   COMMAND_LINE            STATUS            TERMINATION_TIME
===== ========== ================  =======================  ===================
00000 suncat0077 pw.x -npool 4 -i  Done                     05/02/2018 21:28:52
00001 suncat0077 pw.x -npool 4 -i  Done                     05/02/2018 21:28:52
00002 suncat0077 pw.x -npool 4 -i  Done                     05/02/2018 21:28:52
00003 suncat0077 pw.x -npool 4 -i  Done                     05/02/2018 21:28:52
00004 suncat0077 pw.x -npool 4 -i  Done                     05/02/2018 21:28:52
00005 suncat0077 pw.x -npool 4 -i  Done                     05/02/2018 21:28:52
00006 suncat0077 pw.x -npool 4 -i  Done                     05/02/2018 21:28:52
00007 suncat0077 pw.x -npool 4 -i  Done                     05/02/2018 21:28:52
00008 suncat0074 pw.x -npool 4 -i  Done                     05/02/2018 21:28:52
00009 suncat0074 pw.x -npool 4 -i  Done                     05/02/2018 21:28:52
00010 suncat0074 pw.x -npool 4 -i  Done                     05/02/2018 21:28:52
00011 suncat0074 pw.x -npool 4 -i  Done                     05/02/2018 21:28:52
00012 suncat0074 pw.x -npool 4 -i  Done                     05/02/2018 21:28:52
00013 suncat0074 pw.x -npool 4 -i  Done                     05/02/2018 21:28:52
00014 suncat0074 pw.x -npool 4 -i  Done                     05/02/2018 21:28:52
00015 suncat0074 pw.x -npool 4 -i  Done                     05/02/2018 21:28:52
00016 suncat0064 pw.x -npool 4 -i  Done                     05/02/2018 21:28:52
00017 suncat0064 pw.x -npool 4 -i  Done                     05/02/2018 21:28:52
00018 suncat0064 pw.x -npool 4 -i  Done                     05/02/2018 21:28:52
00019 suncat0064 pw.x -npool 4 -i  Done                     05/02/2018 21:28:52
00020 suncat0064 pw.x -npool 4 -i  Done                     05/02/2018 21:28:52
00021 suncat0064 pw.x -npool 4 -i  Done                     05/02/2018 21:28:52
00022 suncat0064 pw.x -npool 4 -i  Done                     05/02/2018 21:28:52
00023 suncat0064 pw.x -npool 4 -i  Done                     05/02/2018 21:28:52
00024 suncat0252 pw.x -npool 4 -i  Done                     05/02/2018 21:28:52
00025 suncat0252 pw.x -npool 4 -i  Done                     05/02/2018 21:28:52
00026 suncat0252 pw.x -npool 4 -i  Done                     05/02/2018 21:28:52
00027 suncat0252 pw.x -npool 4 -i  Done                     05/02/2018 21:28:52
00028 suncat0252 pw.x -npool 4 -i  Done                     05/02/2018 21:28:52
00029 suncat0252 pw.x -npool 4 -i  Done                     05/02/2018 21:28:52
00030 suncat0252 pw.x -npool 4 -i  Done                     05/02/2018 21:28:52
00031 suncat0252 pw.x -npool 4 -i  Done                     05/02/2018 21:28:52
